Membrane in water
40167
    1TCq1    O1    1   4.418   2.056  11.161 -0.4406 -0.3489  0.4814
    1TCq1    C1    2   4.337   2.144  11.218  0.4690  0.0294 -0.2878
    1TCq1    O2    3   4.323   2.261  11.189 -0.3505  0.4438  0.7042
    1TCq1    C2    4   4.219   2.080  11.259 -0.2581 -0.2414  0.1085
    1TCq1    C3    5   4.156   2.030  11.153  0.5055 -0.6812 -0.4903
    1TCq1    C4    6   4.067   1.928  11.171 -0.5385  0.1229 -0.2594
    1TCq1    C5    7   4.050   1.883  11.300  0.3515  0.5023  0.0914
    1TCq1    C6    8   4.116   1.938  11.405  0.3719  0.2636 -0.0605
    1TCq1    C7    9   4.209   2.036  11.386  0.8068 -0.1297 -0.3155
    1TCq1    C8   10   4.083   1.913  11.545  0.1203  0.4809  0.2514
    1TCq1    O4   11   3.970   1.934  11.585 -0.1204 -0.3864 -0.0824
    1TCq1    C9   12   4.009   1.867  11.054 -0.0789  0.2258  0.0186
    1TCq1    O5   13   3.916   1.786  11.080  0.4005  0.1477  0.5574
    1TCq1    O6   14   4.071   1.878  10.942  0.6693 -0.2630 -0.7030
    1TCq1    H1   15   4.401   1.964  11.191 -0.3396 -0.9373 -1.2129
    1TCq1    H2   16   4.177   2.069  11.054 -0.5052 -2.3811 -1.3769
    1TCq1    H3   17   3.994   1.793  11.323 -1.1457  1.0404 -1.5113
    1TCq1    H4   18   4.254   2.078  11.476  1.6063 -1.2074 -0.2146
    2MPD2     C   19   4.210   1.766  12.025 -0.4827 -0.3108  0.4068
    2MPD2    C1   20   4.093   1.823  11.972  0.0050  0.5119 -0.4771
    2MPD2    C2   21   4.076   1.844  11.839 -0.2874 -0.5438  0.8879
    2MPD2    C3   22   4.190   1.832  11.757 -0.3020 -0.2777  0.2868
    2MPD2    C4   23   4.309   1.787  11.811  0.1990 -0.3217  0.1491
    2MPD2    C5   24   4.317   1.753  11.944  0.1383  0.3510  0.7434
    2MPD2     H   25   3.981   1.876  11.797 -0.3429 -0.3867  1.1334
    2MPD2    H1   26   4.394   1.776  11.745  0.8565  0.9808  0.7845
    2MPD2    H2   27   4.213   1.753  12.132 -1.8057  1.0483  0.6183
    2MPD2    H3   28   4.415   1.724  11.981  1.1423 -0.5504 -2.5719
    2MPD2     N   29   4.195   1.873  11.620  0.0657 -0.3001  0.0982
    2MPD2    H5   30   4.280   1.856  11.567  0.4913  1.4207  0.2409
    2MPD2    N1   31   3.974   1.831  12.048  0.2099 -0.0888  0.5584
    2MPD2    H7   32   3.897   1.866  11.992 -0.9464  0.9809  2.8341
    3TCq1    O1   33   3.792   2.627  10.746 -0.8669  0.3413 -0.0544
    3TCq1    C1   34   3.732   2.513  10.703  0.5340 -0.4450  0.1173
    3TCq1    O2   35   3.743   2.467  10.591  0.0669  0.4393 -0.5115
    3TCq1    C2   36   3.593   2.533  10.765 -0.7561 -0.0159 -0.0697
    3TCq1    C3   37   3.514   2.606  10.694 -0.1661  0.6807 -0.0969
    3TCq1    C4   38   3.412   2.673  10.751  0.0374  0.6137 -0.0766
    3TCq1    C5   39   3.407   2.676  10.887  0.3855 -0.5188 -0.0310
    3TCq1    C6   40   3.497   2.603  10.959 -0.7222 -0.4563 -0.2971
    3TCq1    C7   41   3.589   2.521  10.898 -0.3329 -0.6012 -0.1605
    3TCq1    C8   42   3.505   2.631  11.102  0.8363  0.5066 -0.9601
    3TCq1    O4   43   3.494   2.534  11.178 -0.1321  0.6689  0.0557
    3TCq1    C9   44   3.353   2.780  10.673 -0.0125  0.3160  0.4954
    3TCq1    O5   45   3.288   2.867  10.740 -0.0990  0.5144 -0.1574
    3TCq1    O6   46   3.372   2.789  10.548 -0.0817 -0.1275  0.1207
    3TCq1    H1   47   3.775   2.643  10.841  1.1409  1.9580  0.0320
    3TCq1    H2   48   3.546   2.632  10.594 -0.9626 -1.5880 -0.9328
    3TCq1    H3   49   3.345   2.747  10.943 -0.3806  0.4253 -2.0805
    3TCq1    H4   50   3.657   2.459  10.956 -1.3354 -2.0046 -0.4908
    4MPD2     C   51   3.466   2.953  11.498 -0.1323 -0.1925 -0.3768
    4MPD2    C1   52   3.483   3.029  11.384 -0.2314  0.3459 -0.1923
    4MPD2    C2   53   3.508   2.962  11.264 -0.5484  0.6120 -0.4918
    4MPD2    C3   54   3.484   2.831  11.252  0.5969  0.2768 -0.4107
    4MPD2    C4   55   3.457   2.754  11.362 -0.1757 -0.0091  0.2568
    4MPD2    C5   56   3.453   2.815  11.491 -0.2235 -0.2574 -1.2887
    4MPD2     H   57   3.541   3.019  11.178 -0.6031 -2.4137 -2.5001
    4MPD2    H1   58   3.416   2.653  11.354 -2.0177  1.0048 -3.1097
    4MPD2    H2   59   3.456   2.983  11.601 -0.9840  2.1114 -1.1356
    4MPD2    H3   60   3.423   2.766  11.583 -3.3620  1.5528 -1.3261
    4MPD2     N   61   3.497   2.762  11.125  0.8216  0.2084  0.1779
    4MPD2    H5   62   3.513   2.816  11.040  1.8300  2.1954  1.6286
    4MPD2    N1   63   3.514   3.170  11.386  0.5591  0.2919 -0.5850
    4MPD2    H7   64   3.523   3.213  11.295 -0.9305  1.2626 -0.2606
    5TCq1    O1   65   3.586   4.599  11.052 -0.3126 -0.2787  0.3743
    5TCq1    C1   66   3.565   4.527  10.937  0.5665  0.1066 -0.5896
    5TCq1    O2   67   3.453   4.501  10.897 -0.0152  0.5662  0.0318
    5TCq1    C2   68   3.694   4.480  10.871 -0.2563  0.0462 -0.1856
    5TCq1    C3   69   3.712   4.499  10.735 -0.4509 -0.6093 -0.1765
    5TCq1    C4   70   3.825   4.447  10.679 -0.0266  0.8061 -0.3757
    5TCq1    C5   71   3.935   4.411  10.757 -0.2130  0.7107 -0.4449
    5TCq1    C6   72   3.916   4.401  10.891  0.4589 -0.6608 -0.1621
    5TCq1    C7   73   3.794   4.436  10.950  0.1185  0.4674  0.1766
    5TCq1    C8   74   4.035   4.372  10.973  0.5604 -0.0551  0.6142
    5TCq1    O4   75   4.141   4.359  10.914  0.3819  0.4304  0.2123
    5TCq1    C9   76   3.835   4.449  10.538  0.4594 -0.3786 -0.9704
    5TCq1    O5   77   3.927   4.378  10.489 -0.3871  0.3053 -0.1409
    5TCq1    O6   78   3.731   4.491  10.478  0.4564  0.4176 -0.1269
    5TCq1    H1   79   3.676   4.637  11.065 -0.7247 -0.4780  3.7840
    5TCq1    H2   80   3.628   4.539  10.681 -0.8488 -0.0492  0.8492
    5TCq1    H3   81   4.026   4.394  10.699 -1.4390  1.3679 -2.5792
    5TCq1    H4   82   3.772   4.412  11.053  2.3776  0.2463  0.6160
    6MPD2     C   83   4.070   4.293  11.341  0.2781  0.5849 -0.0750
    6MPD2    C1   84   4.092   4.280  11.204 -0.1873  0.1452 -0.4527
    6MPD2    C2   85   4.176   4.182  11.155  0.2958 -0.3453  0.1065
    6MPD2    C3   86   4.239   4.091  11.236 -0.7481  0.1649 -0.1859
    6MPD2    C4   87   4.214   4.092  11.374  0.0666 -0.8175 -0.0931
    6MPD2    C5   88   4.131   4.196  11.421 -0.1639 -0.3769  0.0050
    6MPD2     H   89   4.192   4.170  11.048  1.5040 -0.1351  0.2651
    6MPD2    H1   90   4.257   4.025  11.448  1.5051  1.5446  1.2069
    6MPD2    H2   91   4.004   4.371  11.379 -1.0394  0.3495 -1.8733
    6MPD2    H3   92   4.110   4.197  11.527 -0.7469 -0.9830 -0.1063
    6MPD2     N   93   4.309   3.989  11.173 -0.3296  0.0287  0.4113
    6MPD2    H5   94   4.322   4.001  11.073  2.4459  0.3344  0.8049
    6MPD2    N1   95   4.014   4.358  11.110  0.3635  0.1900 -0.7573
    6MPD2    H7   96   3.941   4.414  11.153  0.3032 -0.6888  0.2681
    7TCq1    O1   97   1.573   3.405  12.766  0.1619 -0.0734 -0.6328
    7TCq1    C1   98   1.579   3.537  12.772 -0.3797 -0.1898 -0.1404
    7TCq1    O2   99   1.547   3.607  12.680 -0.0156 -0.6358 -0.3968
    7TCq1    C2  100   1.571   3.565  12.913 -0.2460 -0.1565 -0.1813
    7TCq1    C3  101   1.498   3.683  12.944 -0.2043  0.0086  0.4924
    7TCq1    C4  102   1.497   3.726  13.072 -0.4165 -0.1414 -0.1258
    7TCq1    C5  103   1.549   3.652  13.176 -0.4404 -0.0100 -0.7771
    7TCq1    C6  104   1.619   3.541  13.148 -0.4909  0.4718 -0.1415
    7TCq1    C7  105   1.644   3.501  13.012 -0.3744  0.4780  0.0513
    7TCq1    C8  106   1.680   3.457  13.252 -0.1331  0.4468  0.3188
    7TCq1    O4  107   1.731   3.352  13.210 -0.3933 -0.8902  0.1841
    7TCq1    C9  108   1.425   3.848  13.102 -0.6193 -0.2175  0.4405
    7TCq1    O5  109   1.407   3.929  13.007 -0.2201 -0.2555  0.0936
    7TCq1    O6  110   1.367   3.849  13.213  0.0972 -0.2102  0.2445
    7TCq1    H1  111   1.603   3.349  12.840  0.6682 -0.0654 -0.8314
    7TCq1    H2  112   1.454   3.747  12.868 -0.8053 -0.8032  0.1571
    7TCq1    H3  113   1.537   3.686  13.279  0.1739 -2.2065  0.0151
    7TCq1    H4  114   1.714   3.425  12.981 -0.6694 -0.1095  0.8384
    8MPD2     C  115   1.917   3.398  13.697 -0.2706 -0.4575  0.0201
    8MPD2    C1  116   1.909   3.304  13.595  0.1694 -0.1974  0.6865
    8MPD2    C2  117   1.833   3.345  13.486  0.0300  0.4364 -0.1867
    8MPD2    C3  118   1.767   3.466  13.488 -0.3449 -0.3482  0.4946
    8MPD2    C4  119   1.781   3.554  13.590 -0.6360  0.4330 -0.1495
    8MPD2    C5  120   1.854   3.514  13.693  0.1073  0.4160  0.0278
    8MPD2     H  121   1.838   3.286  13.395 -1.2993  0.1217 -0.0592
    8MPD2    H1  122   1.741   3.654  13.595  0.3898  0.8383 -0.1462
    8MPD2    H2  123   1.985   3.382  13.780 -0.4542  0.8204  0.4115
    8MPD2    H3  124   1.872   3.587  13.772 -3.4936  0.6739  0.6079
    8MPD2     N  125   1.696   3.522  13.376 -0.9642  0.0025 -0.0658
    8MPD2    H5  126   1.683   3.622  13.386  0.2426  0.1248  0.2503
    8MPD2    N1  127   1.981   3.180  13.602  0.2064 -0.0052 -0.2912
    8MPD2    H7  128   2.030   3.163  13.690 -0.3588  4.4939  0.8819
    9TCq1    O1  129   3.934   3.187  10.311 -0.2229  0.0247  0.2841
    9TCq1    C1  130   4.033   3.110  10.259  0.0910 -0.1456 -0.1987
    9TCq1    O2  131   4.153   3.143  10.254 -0.0458 -0.3961 -0.2383
    9TCq1    C2  132   3.999   2.986  10.319  0.6008  0.3943 -0.4383
    9TCq1    C3  133   3.868   2.957  10.316 -0.4963  0.2324  0.0611
    9TCq1    C4  134   3.819   2.850  10.381 -0.5705 -0.3629  0.3406
    9TCq1    C5  135   3.913   2.767  10.444  0.0514 -0.1543  0.0402
    9TCq1    C6  136   4.046   2.792  10.438 -0.4886  0.6895 -0.0685
    9TCq1    C7  137   4.095   2.905  10.369  0.0303  0.9538  0.3957
    9TCq1    C8  138   4.137   2.712  10.513 -0.9334 -0.8530  0.2255
    9TCq1    O4  139   4.252   2.745  10.504 -0.5127  0.3808  1.0795
    9TCq1    C9  140   3.679   2.813  10.366  0.0841  0.0470  0.5595
    9TCq1    O5  141   3.598   2.902  10.327  0.0932  0.2110 -0.2814
    9TCq1    O6  142   3.657   2.689  10.379 -0.0317 -0.9019 -0.2178
    9TCq1    H1  143   3.851   3.148  10.345 -0.3642 -0.6167 -0.7924
    9TCq1    H2  144   3.794   3.010  10.257 -0.7082 -0.2323 -0.0955
    9TCq1    H3  145   3.865   2.687  10.499 -0.4016  0.4021  0.4643
    9TCq1    H4  146   4.200   2.924  10.349  1.0001 -1.5845  3.0815
   10MPD2     C  147   4.302   2.531  10.682 -0.1287  0.2410 -0.2542
   10MPD2    C1  148   4.166   2.536  10.685  0.3339  0.4196  0.5879
   10MPD2    C2  149   4.094   2.474  10.792  0.6707  0.5494 -0.1743
   10MPD2    C3  150   4.164   2.424  10.904 -0.0937  0.3627 -0.2206
   10MPD2    C4  151   4.304   2.417  10.891 -0.1891 -0.2595 -1.3903
   10MPD2    C5  152   4.373   2.467  10.782 -0.4067  0.5742  1.0801
   10MPD2     H  153   3.986   2.474  10.784  0.7285  1.7421 -0.9619
   10MPD2    H1  154   4.357   2.382  10.978  0.3146  0.0034 -1.5949
   10MPD2    H2  155   4.358   2.576  10.601 -0.2056  1.3929  0.3446
   10MPD2    H3  156   4.481   2.467  10.781 -0.4137 -0.8759  0.6623
   10MPD2     N  157   4.101   2.373  11.017 -0.2098  0.7132  0.2409
   10MPD2    H5  158   4.165   2.335  11.087 -1.3231 -0.7972  0.4516
   10MPD2    N1  159   4.088   2.609  10.589  0.1860  0.9868 -0.4032
   10MPD2    H7  160   3.987   2.605  10.598  0.4115 -1.6028  1.2919
   11TCq1    O1  161   0.982   2.168  14.445  0.5291  0.1535  0.3169
   11TCq1    C1  162   0.985   2.295  14.423  0.3462 -0.2167  0.0361
   11TCq1    O2  163   1.076   2.367  14.419  0.2905 -0.1057 -0.1465
   11TCq1    C2  164   0.869   2.316  14.334 -0.1450 -0.3833 -0.1758
   11TCq1    C3  165   0.897   2.405  14.232 -0.2585 -0.3623  0.2606
   11TCq1    C4  166   0.796   2.424  14.133  0.4925 -0.0529  0.1948
   11TCq1    C5  167   0.674   2.356  14.128 -0.0366  0.9381 -0.5066
   11TCq1    C6  168   0.661   2.266  14.230  0.3281  0.0760  0.5212
   11TCq1    C7  169   0.754   2.244  14.333  0.0237 -0.3033 -0.1112
   11TCq1    C8  170   0.528   2.226  14.271 -0.8292 -0.4024  0.2791
   11TCq1    O4  171   0.509   2.170  14.375 -0.3271  0.7591  0.0285
   11TCq1    C9  172   0.825   2.516  14.029  0.1711 -0.4847 -0.7214
   11TCq1    O5  173   0.730   2.577  13.969 -0.5585 -0.2935  0.0131
   11TCq1    O6  174   0.940   2.569  14.027 -0.1186  0.1317 -0.2623
   11TCq1    H1  175   0.905   2.136  14.394 -0.2231  1.0284  0.8940
   11TCq1    H2  176   0.984   2.470  14.229 -0.2599 -0.3595  0.2806
   11TCq1    H3  177   0.599   2.379  14.054 -1.3131 -0.1755  0.4571
   11TCq1    H4  178   0.729   2.170  14.409  1.4329  0.4076  1.0370
   12MPD2     C  179   0.237   2.173  14.280 -0.2327 -0.1528  0.5360
   12MPD2    C1  180   0.310   2.164  14.163 -0.2723 -0.1906 -0.0549
   12MPD2    C2  181   0.244   2.118  14.052 -0.5744  0.7262 -0.8490
   12MPD2    C3  182   0.107   2.114  14.040  0.5587  0.0431 -0.1416
   12MPD2    C4  183   0.026   2.148  14.155 -0.3384 -0.0445  0.1979
   12MPD2    C5  184   0.097   2.164  14.271  0.1062  0.8030  0.0899
   12MPD2     H  185   0.307   2.100  13.966 -0.5681 -0.2255 -0.6561
   12MPD2    H1  186   4.642   2.146  14.160 -0.2772 -0.7692  1.5360
   12MPD2    H2  187   0.284   2.193  14.375  1.1984  1.1666 -0.4660
   12MPD2    H3  188   0.045   2.171  14.365 -0.5624 -1.7735 -0.0847
   12MPD2     N  189   0.054   2.064  13.921 -0.3861  0.4566  0.4062
   12MPD2    H5  190   0.116   2.044  13.843 -1.9069 -0.7038 -0.5160
   12MPD2    N1  191   0.451   2.191  14.158 -0.2527 -0.0381 -0.1209
   12MPD2    H7  192   0.491   2.195  14.064 -1.6513 -0.4969 -0.7334
   13TCq1    O1  193   4.284   1.984  10.840  0.7683  0.4217  0.8120
   13TCq1    C1  194   4.304   2.075  10.737 -0.5490 -0.0500  0.2111
   13TCq1    O2  195   4.414   2.093  10.686  0.1464  0.1554  0.1141
   13TCq1    C2  196   4.183   2.128  10.676  0.6642 -0.4323  0.1293
   13TCq1    C3  197   4.180   2.141  10.545  0.0971  0.0494 -0.0742
   13TCq1    C4  198   4.063   2.161  10.478 -0.5561  0.2870 -0.0995
   13TCq1    C5  199   3.941   2.142  10.547  0.7394 -0.2147  0.2569
   13TCq1    C6  200   3.947   2.119  10.678 -0.2334 -0.8921 -0.0158
   13TCq1    C7  201   4.069   2.115  10.743  0.5357  0.0303 -0.1047
   13TCq1    C8  202   3.824   2.127  10.759  0.1835  0.0369 -0.0594
   13TCq1    O4  203   3.834   2.071  10.867 -0.2167  0.3856 -0.3150
   13TCq1    C9  204   4.060   2.185  10.337  0.0383  0.3049 -0.2151
   13TCq1    O5  205   4.166   2.199  10.266  0.2001  0.2583 -0.1549
   13TCq1    O6  206   3.944   2.199  10.294 -0.0247 -0.4659 -0.1814
   13TCq1    H1  207   4.193   1.960  10.868  0.5915  0.2679  0.1027
   13TCq1    H2  208   4.277   2.145  10.496  1.0140  0.8964  1.8145
   13TCq1    H3  209   3.849   2.162  10.492  1.5656 -1.0172 -1.4238
   13TCq1    H4  210   4.065   2.096  10.850  1.7216 -1.4940 -0.3309
   14MPD2     C  211   3.477   2.234  10.672 -0.4441  0.3354  0.4335
   14MPD2    C1  212   3.584   2.185  10.752 -0.0059 -0.0318 -0.0464
   14MPD2    C2  213   3.557   2.158  10.884 -0.5353  0.5811 -0.6675
   14MPD2    C3  214   3.447   2.202  10.946  0.2730 -0.5971  0.5682
   14MPD2    C4  215   3.346   2.254  10.871  0.1095 -0.6123 -0.0570
   14MPD2    C5  216   3.358   2.273  10.734 -0.3642 -0.1473 -0.2696
   14MPD2     H  217   3.635   2.115  10.946 -0.9826  1.4796  0.5186
   14MPD2    H1  218   3.258   2.299  10.915  0.3749  1.6861 -1.8307
   14MPD2    H2  219   3.497   2.260  10.568  0.9675 -0.2886  0.5447
   14MPD2    H3  220   3.284   2.316  10.667  0.1429  0.9815 -0.1018
   14MPD2     N  221   3.441   2.187  11.086  0.3300  0.4595  0.5909
   14MPD2    H5  222   3.522   2.161  11.140  0.0807  0.3374  0.9105
   14MPD2    N1  223   3.709   2.167  10.693  0.3875 -0.0621 -0.5508
   14MPD2    H7  224   3.731   2.200  10.599 -0.1542  0.2032 -0.5844
   15TCq1    O1  225   1.809   2.058   1.581 -0.1194  0.2439  0.0774
   15TCq1    C1  226   1.823   1.965   1.483  0.0636  0.2659  0.2302
   15TCq1    O2  227   1.926   1.955   1.417  0.6140  0.6433  0.4592
   15TCq1    C2  228   1.745   1.846   1.513  0.0665 -0.0122  0.2343
   15TCq1    C3  229   1.612   1.847   1.556  0.3216  0.4277  0.2175
   15TCq1    C4  230   1.550   1.724   1.565  0.5134 -0.2724 -0.6508
   15TCq1    C5  231   1.614   1.609   1.532 -0.1958  0.2168  0.2992
   15TCq1    C6  232   1.740   1.616   1.491 -0.0891 -0.0827  0.1912
   15TCq1    C7  233   1.810   1.731   1.486 -1.4216  0.3133 -0.0709
   15TCq1    C8  234   1.820   1.503   1.474  1.1780  0.3971  0.2808
   15TCq1    O4  235   1.933   1.519   1.426  0.1779 -0.4426 -0.3741
   15TCq1    C9  236   1.422   1.713   1.629  0.0321  0.4532  0.0630
   15TCq1    O5  237   1.369   1.825   1.658  0.1214  0.1759 -0.4930
   15TCq1    O6  238   1.391   1.606   1.677  0.2633 -0.1363 -0.3499
   15TCq1    H1  239   1.754   2.023   1.655 -1.5123  0.3598 -0.8941
   15TCq1    H2  240   1.553   1.933   1.586 -1.2141 -0.9914  1.2808
   15TCq1    H3  241   1.562   1.514   1.538 -0.6501  0.5122  1.1611
   15TCq1    H4  242   1.912   1.737   1.452 -0.6233 -1.8903  1.9566
   16MPD2     C  243   1.740   1.150   1.534 -0.3916  0.8160 -0.1875
   16MPD2    C1  244   1.806   1.263   1.481 -0.1819 -0.1335 -0.1305
   16MPD2    C2  245   1.918   1.238   1.397 -0.0721  0.2278  0.2882
   16MPD2    C3  246   1.940   1.110   1.350 -0.0219  0.0410  0.3146
   16MPD2    C4  247   1.863   1.002   1.392  0.2339 -0.1991  0.1432
   16MPD2    C5  248   1.768   1.024   1.486 -0.6147  0.3152  0.0199
   16MPD2     H  249   1.985   1.315   1.361  0.3973 -0.7651 -0.9782
   16MPD2    H1  250   1.878   0.895   1.380 -0.1546 -0.2691  0.3083
   16MPD2    H2  251   1.653   1.156   1.598 -0.6691  1.6423 -0.6427
   16MPD2    H3  252   1.712   0.938   1.521  0.4032 -1.0075 -1.6341
   16MPD2     N  253   2.058   1.076   1.277 -0.1969  0.4406 -0.1751
   16MPD2    H5  254   2.135   1.142   1.271  1.1471 -1.3361 -2.4804
   16MPD2    N1  255   1.762   1.389   1.521 -0.2706  1.0956 -0.4260
   16MPD2    H7  256   1.684   1.394   1.585  0.3446  2.3267  0.2261
   17TCq1    O1  257   2.985   1.804  10.110  0.2522  0.3240  0.0053
   17TCq1    C1  258   3.024   1.917  10.060  0.2175 -0.1615  0.1659
   17TCq1    O2  259   3.007   1.964   9.946 -0.5973  0.5917 -0.3312
   17TCq1    C2  260   3.118   1.987  10.146  0.0801  0.6127  0.1346
   17TCq1    C3  261   3.148   2.118  10.107 -0.0828 -0.3631  0.4210
   17TCq1    C4  262   3.256   2.183  10.161 -0.1138  0.2956 -0.1340
   17TCq1    C5  263   3.337   2.123  10.255 -0.4266  0.5544 -0.0443
   17TCq1    C6  264   3.306   1.992  10.282 -0.4226 -0.1885  0.0306
   17TCq1    C7  265   3.194   1.922  10.240 -0.4504 -0.0860 -0.4868
   17TCq1    C8  266   3.380   1.934  10.391  0.0729  0.3990  0.7963
   17TCq1    O4  267   3.320   1.861  10.469 -0.1510  0.0757 -0.2613
   17TCq1    C9  268   3.284   2.316  10.118 -0.1772  0.1120  0.3569
   17TCq1    O5  269   3.215   2.361  10.019  0.4283  0.1107  0.1779
   17TCq1    O6  270   3.368   2.386  10.179 -0.5785  0.0403 -0.0202
   17TCq1    H1  271   3.007   1.818  10.204  0.7655  3.3011 -0.5655
   17TCq1    H2  272   3.083   2.171  10.038  3.9170  2.2535 -1.3340
   17TCq1    H3  273   3.422   2.180  10.291  2.0406 -1.4428 -2.6087
   17TCq1    H4  274   3.190   1.814  10.248 -1.7050 -0.1809 -2.2946
   18MPD2     C  275   3.567   1.843  10.581  0.2869  1.0515  0.3336
   18MPD2    C1  276   3.602   1.894  10.452  0.4809  0.3653 -0.4382
   18MPD2    C2  277   3.732   1.885  10.404  0.3052 -0.3491 -0.2746
   18MPD2    C3  278   3.830   1.815  10.475  0.2321  0.4598  0.2020
   18MPD2    C4  279   3.793   1.755  10.591 -0.4350  0.7682 -0.4417
   18MPD2    C5  280   3.665   1.772  10.644  0.3281 -0.0877  0.3775
   18MPD2     H  281   3.745   1.910  10.300 -1.4921 -2.2936 -0.9660
   18MPD2    H1  282   3.863   1.705  10.656  0.3613  0.4031 -1.5918
   18MPD2    H2  283   3.475   1.867  10.634 -1.6666 -0.0186 -2.5640
   18MPD2    H3  284   3.641   1.712  10.732 -1.1158  0.6977  0.5347
   18MPD2     N  285   3.962   1.787  10.433 -0.1625  0.2835 -0.7257
   18MPD2    H5  286   4.002   1.721  10.499 -2.7384  0.8761  1.3897
   18MPD2    N1  287   3.512   1.961  10.370  0.4767  0.8769  0.4559
   18MPD2    H7  288   3.540   2.007  10.284  2.7277  0.3158  0.8904
   19TMC2    C1  289   2.034   1.895  13.509  0.0424 -0.4362 -0.6329
   19TMC2    C2  290   2.121   1.854  13.418  0.7571  0.0390  0.0036
   19TMC2    C3  291   2.077   1.786  13.311  0.6549 -0.4121  0.0243
   19TMC2    C4  292   1.901   1.865  13.498 -0.4190  0.0896  0.9437
   19TMC2    C5  293   1.859   1.795  13.389  0.5364 -0.2074 -0.2656
   19TMC2    C6  294   1.946   1.751  13.295  0.1030 -0.4874  0.4247
   19TMC2     C  295   2.092   1.939  13.637  0.7572 -0.0159  0.0791
   19TMC2     O  296   2.206   1.989  13.643 -0.0554  0.8247  0.1180
   19TMC2     H  297   2.226   1.864  13.444  0.1359  0.6847  2.1971
   19TMC2    H1  298   1.828   1.898  13.571 -2.4344 -3.3252  0.4321
   19TMC2    H2  299   1.922   1.700  13.202  0.5897  0.8674 -0.4360
   19TMC2    C7  300   1.716   1.754  13.386  0.9270  0.0001  0.3379
   19TMC2    C8  301   2.177   1.772  13.205  0.3896  0.0846  0.9295
   19TMC2    O1  302   1.628   1.823  13.433 -0.3834  0.7316 -0.3014
   19TMC2    O2  303   2.186   1.670  13.141 -0.3287  0.0564 -0.0378
   19TMC2    O5  304   2.187   1.898  13.156  0.2284 -0.7116 -0.6033
   19TMC2    H5  305   2.140   1.965  13.210  1.9245 -0.8612  1.0422
   20MPD2     C  306   2.126   2.013  13.928  0.8959  0.5423 -0.1289
   20MPD2    C1  307   2.017   1.944  13.874 -0.1203  0.0161  0.1030
   20MPD2    C2  308   1.916   1.913  13.963 -0.1743 -0.5163  0.6651
   20MPD2    C3  309   1.925   1.929  14.096 -0.1756 -0.0739  0.5156
   20MPD2    C4  310   2.029   2.003  14.144 -0.1360 -0.3907  0.2232
   20MPD2    C5  311   2.133   2.042  14.061  0.3325  0.2410  0.3939
   20MPD2     H  312   1.827   1.875  13.914  0.0912 -0.4286  0.1076
   20MPD2    H1  313   2.046   2.026  14.248 -2.2909  0.1836  0.4350
   20MPD2    H2  314   2.205   2.047  13.862  1.0374  0.7874  0.1672
   20MPD2    H3  315   2.221   2.093  14.099 -0.4691  0.9353  1.2843
   20MPD2     N  316   1.829   1.887  14.188 -0.3671 -0.0829  0.0734
   20MPD2    H5  317   1.830   1.918  14.285 -2.4544 -0.9491  0.3734
   20MPD2    N1  318   2.012   1.898  13.744 -0.1281  0.4969 -0.5342
   20MPD2    H7  319   1.925   1.852  13.720  1.9350 -2.8829 -1.5117
   21MPD2     C  320   3.622   2.472  14.213 -1.2101 -0.0351  0.0066
   21MPD2    C1  321   3.707   2.378  14.268  0.0402  0.1042 -0.1574
   21MPD2    C2  322   3.675   2.322  14.392 -0.0434  0.6514  0.7134
   21MPD2    C3  323   3.556   2.355  14.447  0.0983 -0.1079 -0.3081
   21MPD2    C4  324   3.471   2.449  14.392 -0.1310  0.3271  0.6633
   21MPD2    C5  325   3.505   2.506  14.272 -0.4838 -0.0681 -0.1608
   21MPD2     H  326   3.739   2.253  14.446 -0.5458 -1.4600 -1.3877
   21MPD2    H1  327   3.385   2.494  14.440 -0.8792  0.9444 -1.2750
   21MPD2    H2  328   3.646   2.510  14.114 -1.4167 -0.8859 -0.3685
   21MPD2    H3  329   3.431   2.573  14.229 -0.4792 -0.8915 -1.4562
   21MPD2     N  330   3.509   2.304  14.575  0.2415 -0.7141 -0.0930
   21MPD2    H5  331   3.412   2.330  14.589  0.0701 -1.2335 -0.3087
   21MPD2    N1  332   3.833   2.349  14.210  0.3714 -0.2407  0.0539
   21MPD2    H7  333   3.893   2.289  14.265 -2.2424 -0.0008  3.1450
   22TCq2    C1  334   3.566   2.214  14.666 -0.0774 -0.7991 -0.0919
   22TCq2    O2  335   3.657   2.141  14.650 -0.2711  0.2077  0.3914
   22TCq2    C2  336   3.497   2.197  14.789  0.1367 -0.2566  0.2715
   22TCq2    C3  337   3.510   2.077  14.850 -0.6840 -0.1510 -0.1664
   22TCq2    C4  338   3.421   2.055  14.953  0.1283 -0.9132 -0.1730
   22TCq2    C5  339   3.320   2.135  14.993 -0.6399 -0.4882 -0.3007
   22TCq2    C6  340   3.305   2.253  14.924  0.2005 -0.9518 -0.5183
   22TCq2    C7  341   3.395   2.287  14.822 -0.4815 -0.0954  0.6259
   22TCq2    C8  342   3.224   2.356  14.994  0.0962  1.5668  0.0321
   22TCq2    O4  343   3.197   2.328  15.110  0.0446 -0.4303 -0.5522
   22TCq2    C9  344   3.432   1.926  15.016  0.5181  0.0141 -0.1024
   22TCq2    O5  345   3.530   1.855  14.983 -0.0762  0.5859 -0.2815
   22TCq2    O6  346   3.351   1.895  15.106  0.4643 -0.5891 -0.2276
   22TCq2    H2  347   3.585   2.011  14.808  0.1498  0.8399 -0.2625
   22TCq2    H3  348   3.254   2.111  15.076  0.0318  1.3339  0.7573
   22TCq2    H4  349   3.391   2.384  14.773 -3.0666 -0.3142  0.4192
   23MPD2     C  350   0.940   3.197  14.690 -0.0694 -0.6149  0.1137
   23MPD2    C1  351   0.822   3.165  14.753  0.0493  0.1623 -0.3527
   23MPD2    C2  352   0.717   3.117  14.678  0.3725  0.4235 -0.2123
   23MPD2    C3  353   0.708   3.129  14.543  0.0945 -0.5280  0.1082
   23MPD2    C4  354   0.820   3.173  14.478  0.0171 -0.0092 -0.1059
   23MPD2    C5  355   0.929   3.209  14.553  0.2368 -0.3630 -0.7891
   23MPD2     H  356   0.632   3.089  14.739  2.1424  1.0172  2.5869
   23MPD2    H1  357   0.827   3.169  14.370  0.8726  0.5798 -0.0681
   23MPD2    H2  358   1.036   3.216  14.736 -0.2876  1.5689 -0.3126
   23MPD2    H3  359   1.023   3.227  14.500 -0.0229  1.2379 -0.7037
   23MPD2     N  360   0.592   3.094  14.470  0.1282  0.7400 -0.5541
   23MPD2    H5  361   0.608   3.080  14.371  0.1055  2.3500 -0.7746
   23MPD2    N1  362   0.804   3.175  14.893 -0.3746 -0.0373  0.1742
   23MPD2    H7  363   0.714   3.138  14.925 -1.2241 -0.0750 -2.3030
   24TCq2    C1  364   0.469   3.061  14.523  0.1784  0.1350 -0.3049
   24TCq2    O2  365   0.434   3.045  14.640 -0.2154 -0.9692  0.3597
   24TCq2    C2  366   0.366   3.046  14.423 -0.1978  0.6251  0.6065
   24TCq2    C3  367   0.387   3.105  14.298 -0.0076 -0.1407 -0.5270
   24TCq2    C4  368   0.279   3.145  14.226 -0.0320 -0.4967  0.3412
   24TCq2    C5  369   0.147   3.122  14.258  0.1618 -0.0607 -0.4740
   24TCq2    C6  370   0.130   3.071  14.380  0.3454  0.1067 -0.1990
   24TCq2    C7  371   0.235   3.038  14.461  0.5937 -0.0957  0.4910
   24TCq2    C8  372   4.724   3.037  14.434  0.8586  0.3304  0.5159
   24TCq2    O4  373   4.719   2.961  14.530 -0.5677 -0.3343 -0.3520
   24TCq2    C9  374   0.322   3.191  14.096 -0.1846  0.1585  0.6845
   24TCq2    O5  375   0.401   3.289  14.100 -0.3295 -0.3424  0.6946
   24TCq2    O6  376   0.258   3.148  13.995  0.1227 -0.4161  0.0541
   24TCq2    H2  377   0.487   3.133  14.268 -1.7172  3.6169 -2.7168
   24TCq2    H3  378   0.065   3.152  14.193  1.1270  0.9551 -1.2281
   24TCq2    H4  379   0.221   2.994  14.559  1.4185 -0.6901  0.3411
   25TMC2    C1  380   3.469   0.967  11.504 -0.6166 -0.8477  0.0316
   25TMC2    C2  381   3.417   1.057  11.590  0.0139 -0.6002 -0.0546
   25TMC2    C3  382   3.460   1.055  11.715 -0.1352  0.1631 -0.2113
   25TMC2    C4  383   3.560   0.869  11.538  0.1650 -0.0297  0.4983
   25TMC2    C5  384   3.602   0.873  11.663 -0.8940  0.4571  0.7414
   25TMC2    C6  385   3.557   0.964  11.758  0.2302  0.5217  0.3513
   25TMC2     C  386   3.402   0.953  11.375 -0.4747 -0.5545 -0.5514
   25TMC2     O  387   3.320   1.035  11.339 -0.1796  0.4559 -0.0045
   25TMC2     H  388   3.361   1.139  11.547 -0.6279 -0.7722  0.4644
   25TMC2    H1  389   3.622   0.813  11.469  0.6440 -1.0539  1.7392
   25TMC2    H2  390   3.578   0.954  11.864  2.2188 -0.6783 -0.1708
   25TMC2    C7  391   3.720   0.796  11.695  0.3040  0.2410  0.0514
   25TMC2    C8  392   3.349   1.094  11.798  0.1822  0.0115 -0.2822
   25TMC2    O1  393   3.818   0.803  11.626 -0.7563 -0.2410  0.4467
   25TMC2    O2  394   3.228   1.081  11.780  0.2378 -0.0462  0.0122
   25TMC2    O5  395   3.395   1.122  11.928  0.4110  0.8995 -0.4786
   25TMC2    H5  396   3.491   1.138  11.932  0.0370  2.0947  3.2974
   26MPD2     C  397   3.380   0.680  10.940 -0.1531 -0.3183 -0.0543
   26MPD2    C1  398   3.429   0.602  11.046 -0.3297  0.6130  0.1286
   26MPD2    C2  399   3.451   0.658  11.169 -0.4539  0.4860  0.1587
   26MPD2    C3  400   3.409   0.782  11.194  0.1163 -0.2373  0.4617
   26MPD2    C4  401   3.353   0.858  11.091 -0.8083 -0.1561 -0.2188
   26MPD2    C5  402   3.348   0.809  10.962 -0.1529  0.5308  0.4100
   26MPD2     H  403   3.504   0.600  11.244  0.8846  0.4639 -0.8034
   26MPD2    H1  404   3.312   0.957  11.105 -1.4916 -0.4753  0.0531
   26MPD2    H2  405   3.369   0.643  10.839 -0.1573 -0.4693  0.0004
   26MPD2    H3  406   3.302   0.873  10.887  0.0191  0.7068  0.4576
   26MPD2     N  407   3.435   0.832  11.323  0.3850 -0.1037 -0.5132
   26MPD2    H5  408   3.467   0.765  11.392  1.1563  1.7956  0.9823
   26MPD2    N1  409   3.452   0.465  11.016 -0.4525 -0.4945 -0.0369
   26MPD2    H7  410   3.426   0.439  10.921  1.9895  0.8548 -1.0683
   27TMC2    C1  411   2.342   2.638  12.109 -0.0670  0.1382  0.8384
   27TMC2    C2  412   2.228   2.579  12.074 -0.4004  0.1848 -0.4243
   27TMC2    C3  413   2.123   2.657  12.072  0.6211  0.6030 -0.0797
   27TMC2    C4  414   2.354   2.775  12.117  0.4673  0.1229 -0.3037
   27TMC2    C5  415   2.244   2.852  12.105  0.1094 -1.1309  0.0218
   27TMC2    C6  416   2.122   2.797  12.088 -0.3326  0.2311 -0.3760
   27TMC2     C  417   2.415   2.558  12.206 -0.3822  0.4407 -0.5015
   27TMC2     O  418   2.431   2.439  12.191 -0.0138 -0.9423 -0.3805
   27TMC2     H  419   2.225   2.470  12.079 -0.9513  0.3787  3.3383
   27TMC2    H1  420   2.453   2.816  12.135  0.3456 -0.2724  1.3241
   27TMC2    H2  421   2.031   2.856  12.094 -1.1172 -1.0562  0.5245
   27TMC2    C7  422   2.245   2.968  12.196 -0.1261 -0.5133  0.9398
   27TMC2    C8  423   1.986   2.605  12.033  0.4483 -0.1142 -0.7071
   27TMC2    O1  424   2.307   2.951  12.303  0.2342  0.2715  0.1890
   27TMC2    O2  425   1.896   2.682  12.010 -0.3617 -0.7419 -0.6709
   27TMC2    O5  426   1.999   2.490  11.959 -0.1323  0.1379  0.0853
   27TMC2    H5  427   2.095   2.473  11.951 -0.2444  0.2661 -1.5392
   28MPD2     C  428   2.442   2.487  12.708 -0.1680  0.2964 -0.3276
   28MPD2    C1  429   2.401   2.617  12.681  0.1282 -0.3746  0.4211
   28MPD2    C2  430   2.408   2.668  12.556  0.4952  0.0141 -0.3602
   28MPD2    C3  431   2.443   2.590  12.449  0.2038 -0.1994 -0.3131
   28MPD2    C4  432   2.485   2.458  12.472  0.1716  0.4520  0.1891
   28MPD2    C5  433   2.479   2.412  12.599 -0.4844  0.1543 -0.8934
   28MPD2     H  434   2.385   2.773  12.538  0.4091 -0.1889 -1.4047
   28MPD2    H1  435   2.522   2.390  12.395 -2.0766  1.8209 -2.0875
   28MPD2    H2  436   2.435   2.443  12.807  0.2730 -1.1537 -0.9443
   28MPD2    H3  437   2.517   2.311  12.609 -2.0332 -0.5647 -2.2313
   28MPD2     N  438   2.424   2.641  12.317  0.2157  0.1729  0.2427
   28MPD2    H5  439   2.404   2.740  12.309  2.1211  0.5112 -0.3149
   28MPD2    N1  440   2.356   2.688  12.793 -0.5888 -0.3316 -0.2596
   28MPD2    H7  441   2.368   2.638  12.880 -0.3168  0.3132  0.0748
   29MPD2     C  442   2.428   0.408  14.196  0.2776 -0.5609 -0.4913
   29MPD2    C1  443   2.484   0.379  14.319  0.2969  0.0793  0.1201
   29MPD2    C2  444   2.498   0.478  14.416 -0.1218  0.6802 -0.0956
   29MPD2    C3  445   2.435   0.602  14.397  0.6606 -0.3111  0.5369
   29MPD2    C4  446   2.368   0.628  14.273 -0.1460 -0.2894  0.4069
   29MPD2    C5  447   2.382   0.538  14.171  0.7514  0.5215  0.0373
   29MPD2     H  448   2.539   0.453  14.513 -1.4468  0.3074  0.3698
   29MPD2    H1  449   2.327   0.728  14.263 -1.4881 -1.0097 -1.2816
   29MPD2    H2  450   2.414   0.343  14.111  1.0496 -2.6065  0.9485
   29MPD2    H3  451   2.329   0.552  14.077  1.4432 -0.7788 -0.5572
   29MPD2     N  452   2.434   0.708  14.487 -0.7697 -0.1343 -0.5499
   29MPD2    H5  453   2.385   0.794  14.465  1.9064  1.3092 -0.8291
   29MPD2    N1  454   2.537   0.253  14.352  0.6567 -0.3300 -0.0012
   29MPD2    H7  455   2.566   0.245  14.449 -0.3463  2.6095  0.5357
   30TCq2    C1  456   2.497   0.707  14.605 -0.6681  0.3451 -0.0735
   30TCq2    O2  457   2.548   0.614  14.666 -0.7641 -0.2239 -0.1981
   30TCq2    C2  458   2.517   0.845  14.654 -0.0068 -0.3338  0.4914
   30TCq2    C3  459   2.541   0.868  14.786  0.1761  0.2025 -0.9556
   30TCq2    C4  460   2.583   0.988  14.831  0.7629 -0.8345 -1.2323
   30TCq2    C5  461   2.597   1.091  14.744  0.1198  0.6928 -0.4631
   30TCq2    C6  462   2.567   1.066  14.611  0.9788  0.6904 -0.4491
   30TCq2    C7  463   2.533   0.946  14.561  0.4359  0.4829 -0.0475
   30TCq2    C8  464   2.566   1.182  14.522 -0.5502 -0.0971  0.2532
   30TCq2    O4  465   2.482   1.178  14.436 -0.0491  0.2926  0.3160
   30TCq2    C9  466   2.593   1.020  14.971 -0.3301 -0.2098 -0.1250
   30TCq2    O5  467   2.656   1.125  15.002  0.4160 -0.4262  0.2067
   30TCq2    O6  468   2.534   0.945  15.052  0.5587  0.0126 -0.0419
   30TCq2    H2  469   2.530   0.785  14.855 -0.8470  0.4507 -0.8264
   30TCq2    H3  470   2.600   1.193  14.781  1.2618  0.7383 -0.6752
   30TCq2    H4  471   2.508   0.937  14.456 -0.9192 -2.1212  0.5044
   31MPD2     C  472   4.708   4.215  14.328  0.0762 -0.2702  0.4370
   31MPD2    C1  473   0.087   4.288  14.376  0.4386 -0.1509 -0.8020
   31MPD2    C2  474   0.154   4.243  14.487 -0.1296 -0.5613  0.3322
   31MPD2    C3  475   0.108   4.129  14.552 -0.1414  0.2270 -0.0040
   31MPD2    C4  476   4.720   4.059  14.507  0.2959  0.0231 -0.1811
   31MPD2    C5  477   4.656   4.105  14.396 -0.8020  0.0160 -0.1880
   31MPD2     H  478   0.241   4.293  14.527 -0.5890  0.7133 -0.2588
   31MPD2    H1  479   4.696   3.964  14.553 -1.4499  0.5420 -0.0450
   31MPD2    H2  480   4.663   4.241  14.233 -2.1058  0.3250  1.6393
   31MPD2    H3  481   4.580   4.040  14.354 -1.1405 -0.5257  1.2664
   31MPD2     N  482   0.176   4.074  14.662 -0.0489  0.0861 -0.2060
   31MPD2    H5  483   0.146   3.984  14.698 -1.0948  0.2973 -0.5568
   31MPD2    N1  484   0.122   4.407  14.312  0.2638 -0.2417 -0.6593
   31MPD2    H7  485   0.053   4.444  14.247 -1.7611 -1.8841  0.5688
   32TCq2    C1  486   0.255   4.144  14.751 -0.1714  0.6695  0.5394
   32TCq2    O2  487   0.287   4.265  14.758  0.4961 -0.0698  0.2863
   32TCq2    C2  488   0.343   4.044  14.828 -0.7828 -0.7944  0.0749
   32TCq2    C3  489   0.368   3.919  14.774  0.4598 -0.0428  0.0332
   32TCq2    C4  490   0.455   3.838  14.840  0.2411  0.1754 -0.4923
   32TCq2    C5  491   0.510   3.868  14.960  0.1357 -0.0939 -0.1127
   32TCq2    C6  492   0.490   3.990  15.016  0.0642 -0.4485 -0.2433
   32TCq2    C7  493   0.410   4.078  14.946  0.5626 -0.5662  0.9073
   32TCq2    C8  494   0.481   3.986  15.160  0.5419  0.0338  0.5827
   32TCq2    O4  495   0.543   3.895  15.214 -0.1242  0.3247  0.1651
   32TCq2    C9  496   0.468   3.705  14.794  0.4793  0.5326  0.7973
   32TCq2    O5  497   0.386   3.664  14.711  0.1331 -0.6238  0.3502
   32TCq2    O6  498   0.580   3.648  14.822  0.2458  0.1818 -0.2225
   32TCq2    H2  499   0.325   3.884  14.681 -0.9275 -0.4117  0.8157
   32TCq2    H3  500   0.558   3.787  15.013  1.5710  0.9301  0.1840
   32TCq2    H4  501   0.377   4.172  14.989  0.2955  0.3890 -1.4132
   33MPD2     C  502   4.205   1.454   9.839  0.1761  0.1560  0.5554
   33MPD2    C1  503   4.322   1.523   9.885 -0.2716  0.7560  0.3233
   33MPD2    C2  504   4.441   1.503   9.814 -0.5453  0.5277  0.4447
   33MPD2    C3  505   4.445   1.415   9.705 -0.0624  0.6902 -0.1591
   33MPD2    C4  506   4.325   1.364   9.658  0.6754 -0.1527 -0.2824
   33MPD2    C5  507   4.209   1.372   9.731 -0.2776 -0.2011 -0.5375
   33MPD2     H  508   4.531   1.555   9.845 -1.0013  4.0835 -4.2682
   33MPD2    H1  509   4.321   1.305   9.567 -0.4543  2.5751 -2.0000
   33MPD2    H2  510   4.109   1.474   9.886  0.3450 -1.5218  1.6099
   33MPD2    H3  511   4.116   1.338   9.687 -0.4223  0.5316 -0.7932
   33MPD2     N  512   4.555   1.376   9.636  0.1770  0.2217 -0.3068
   33MPD2    H5  513   4.540   1.312   9.559 -1.9496  0.1050  0.2176
   33MPD2    N1  514   4.305   1.610  10.006  0.1761 -0.2958 -0.1461
   33MPD2    H7  515   4.214   1.614  10.051 -0.0639  3.0443 -0.8859
   34TCq2    C1  516   4.686   1.412   9.661 -0.3109  0.9140  0.2831
   34TCq2    O2  517   0.001   1.470   9.762 -0.1301 -0.2636 -0.4018
   34TCq2    C2  518   0.056   1.397   9.551 -0.8173 -0.1572 -0.3421
   34TCq2    C3  519   0.008   1.371   9.426 -0.5769 -0.8470  0.8837
   34TCq2    C4  520   0.098   1.391   9.322 -0.0925 -0.1443 -0.1197
   34TCq2    C5  521   0.224   1.440   9.344  0.0522  0.4034  0.4723
   34TCq2    C6  522   0.266   1.467   9.469  0.0685 -0.6281 -0.3467
   34TCq2    C7  523   0.185   1.436   9.581  0.2012  0.5435  0.4056
   34TCq2    C8  524   0.378   1.560   9.492  0.0130  0.3076 -0.0523
   34TCq2    O4  525   0.451   1.526   9.585 -0.2928  0.0278 -0.4482
   34TCq2    C9  526   0.045   1.397   9.192 -0.2668  0.1110  0.2564
   34TCq2    O5  527   4.643   1.393   9.172  0.0407 -0.2128  0.3137
   34TCq2    O6  528   0.134   1.407   9.102 -0.1615 -0.2788  0.2727
   34TCq2    H2  529   4.631   1.346   9.400 -0.2632 -0.4729 -0.7273
   34TCq2    H3  530   0.289   1.469   9.262 -2.6256  3.2101 -0.6556
   34TCq2    H4  531   0.202   1.475   9.681 -2.2502  2.0307  0.2624
   35MPD2     C  532   1.253   3.440  12.012  0.6031 -0.3319  0.7569
   35MPD2    C1  533   1.217   3.336  12.088 -0.3237 -0.1765  0.0244
   35MPD2    C2  534   1.095   3.275  12.062  0.0428  0.1050  0.1358
   35MPD2    C3  535   1.027   3.318  11.944  0.9418 -0.2786 -0.1852
   35MPD2    C4  536   1.064   3.428  11.880  0.0475 -0.4024 -0.1134
   35MPD2    C5  537   1.183   3.487  11.908  0.2794 -0.0833 -0.1427
   35MPD2     H  538   1.070   3.188  12.122 -1.6884  0.0913 -0.5951
   35MPD2    H1  539   1.025   3.457  11.783 -2.7876 -1.3572  0.7493
   35MPD2    H2  540   1.347   3.487  12.038  0.2805  1.1668 -0.7875
   35MPD2    H3  541   1.213   3.573  11.850  0.0493  0.1148  0.0305
   35MPD2     N  542   0.933   3.231  11.902 -0.7824 -0.9132  0.1108
   35MPD2    H5  543   0.919   3.154  11.966 -1.0006 -0.6521  0.3757
   35MPD2    N1  544   1.306   3.303  12.192  0.2205 -0.1726  0.2375
   35MPD2    H7  545   1.396   3.349  12.185  0.5688 -1.1226 -1.5224
   36TCq2    C1  546   0.842   3.252  11.803 -0.1983 -0.0203  0.1824
   36TCq2    O2  547   0.810   3.358  11.753 -0.4319  0.4814 -0.0312
   36TCq2    C2  548   0.755   3.140  11.791 -0.4581  0.0565 -0.2465
   36TCq2    C3  549   0.623   3.161  11.756 -0.0700 -0.7337 -0.7583
   36TCq2    C4  550   0.553   3.048  11.713 -0.3071 -0.8436 -0.3174
   36TCq2    C5  551   0.599   2.922  11.725 -0.3845 -0.4581 -0.1281
   36TCq2    C6  552   0.735   2.907  11.765 -0.0848 -0.0844  0.2947
   36TCq2    C7  553   0.810   3.017  11.795 -0.3671 -0.8636  1.0599
   36TCq2    C8  554   0.780   2.783  11.813  0.6401 -0.2075  0.3770
   36TCq2    O4  555   0.709   2.688  11.787 -0.6790  0.0685  0.3160
   36TCq2    C9  556   0.415   3.075  11.679  0.3656 -0.2626 -0.1163
   36TCq2    O5  557   0.344   2.978  11.661  0.1547 -0.4148 -0.6599
   36TCq2    O6  558   0.368   3.181  11.739 -0.1908 -0.1946 -0.3485
   36TCq2    H2  559   0.582   3.257  11.725 -0.1362 -0.5008  0.0608
   36TCq2    H3  560   0.542   2.831  11.710  1.7034 -1.9769  1.0444
   36TCq2    H4  561   0.918   3.003  11.792 -0.3690 -0.8804  1.0713
   37TMC2    C1  562   3.584   3.056  12.158  0.6722  0.6524  0.3858
   37TMC2    C2  563   3.487   2.991  12.083  1.2120  0.1042  0.0590
   37TMC2    C3  564   3.488   3.011  11.953 -0.6624 -0.1898 -0.4277
   37TMC2    C4  565   3.694   3.120  12.093 -0.4688  0.0009  0.0563
   37TMC2    C5  566   3.697   3.126  11.952 -0.0886 -0.2110  0.3803
   37TMC2    C6  567   3.592   3.070  11.884 -0.6285  0.3765 -0.1221
   37TMC2     C  568   3.535   3.123  12.274 -0.5294  0.5028 -0.0827
   37TMC2     O  569   3.418   3.097  12.290  0.1834  0.1665 -0.3210
   37TMC2     H  570   3.409   2.926  12.122  0.4104 -0.0464 -1.8215
   37TMC2    H1  571   3.788   3.149  12.137  1.1376 -2.1781 -1.9128
   37TMC2    H2  572   3.586   3.063  11.776 -0.8236  0.2273 -0.1003
   37TMC2    C7  573   3.805   3.183  11.874  0.2148 -0.2609  0.3346
   37TMC2    C8  574   3.385   2.942  11.878 -0.4191 -0.3678  0.1957
   37TMC2    O1  575   3.868   3.275  11.925 -0.1788 -0.0759 -0.2571
   37TMC2    O2  576   3.353   2.824  11.888 -0.2879 -0.5235 -0.4566
   37TMC2    O5  577   3.332   3.020  11.783  0.1743 -0.0679  0.1173
   37TMC2    H5  578   3.338   3.117  11.798  1.4468 -0.2434  0.7731
   38MPD2     C  579   3.546   3.396  12.701  0.4324 -0.3633  0.2993
   38MPD2    C1  580   3.676   3.371  12.665 -0.0313 -0.7285  0.0607
   38MPD2    C2  581   3.697   3.300  12.547 -0.1398  0.0265  0.6868
   38MPD2    C3  582   3.593   3.249  12.475  0.7230 -0.2563 -0.0813
   38MPD2    C4  583   3.462   3.270  12.517 -0.5720  0.2107 -0.1420
   38MPD2    C5  584   3.442   3.346  12.627  0.2837  0.5117 -0.1505
   38MPD2     H  585   3.800   3.272  12.532 -0.0859 -0.4600  1.9746
   38MPD2    H1  586   3.371   3.240  12.467 -1.5864 -0.5981  2.1956
   38MPD2    H2  587   3.522   3.460  12.785 -1.3649  0.3460 -0.7670
   38MPD2    H3  588   3.344   3.372  12.666  1.3025  2.2207  1.2369
   38MPD2     N  589   3.627   3.183  12.353  0.2054  0.0049 -0.0988
   38MPD2    H5  590   3.725   3.175  12.327  0.1788  0.6567 -0.3906
   38MPD2    N1  591   3.788   3.404  12.739  0.2192 -0.3315  0.3756
   38MPD2    H7  592   3.876   3.379  12.695 -0.6408 -1.5918 -0.6724
   39MPD2     C  593   2.650   0.530   1.464 -0.3567 -0.1376 -0.2250
   39MPD2    C1  594   2.538   0.567   1.538 -0.2454  0.0056  0.2820
   39MPD2    C2  595   2.410   0.568   1.480 -0.8725 -0.9190  0.5818
   39MPD2    C3  596   2.398   0.539   1.349  0.8146  0.5339  0.3318
   39MPD2    C4  597   2.507   0.510   1.271  0.1792  0.0064 -0.1840
   39MPD2    C5  598   2.626   0.490   1.333  0.2230 -0.2222  0.2625
   39MPD2     H  599   2.325   0.593   1.544 -1.3557 -2.5156  0.5566
   39MPD2    H1  600   2.501   0.462   1.174  1.3546 -2.1350  0.7894
   39MPD2    H2  601   2.748   0.529   1.511 -1.3047 -1.6140  1.7142
   39MPD2    H3  602   2.706   0.460   1.266  0.8206  2.0913 -0.0828
   39MPD2     N  603   2.269   0.538   1.288 -0.5767  0.2169 -0.4386
   39MPD2    H5  604   2.257   0.486   1.202 -0.4259 -2.0013  0.8918
   39MPD2    N1  605   2.563   0.590   1.670  0.0054  0.9107 -0.3946
   39MPD2    H7  606   2.658   0.583   1.705 -0.2506  1.5130  0.4167
   40TCq2    C1  607   2.472   0.634   1.767 -1.3493  0.0214  0.2458
   40TCq2    O2  608   2.351   0.657   1.753  0.1126 -0.2165 -0.2754
   40TCq2    C2  609   2.539   0.654   1.896 -0.0907  0.2337  0.3287
   40TCq2    C3  610   2.459   0.653   2.014  1.2659 -0.2956 -0.0506
   40TCq2    C4  611   2.517   0.680   2.138 -0.4737 -0.8132  0.0423
   40TCq2    C5  612   2.652   0.698   2.139  0.0868 -0.3711  0.3579
   40TCq2    C6  613   2.731   0.703   2.024  0.8428 -0.0320  0.3852
   40TCq2    C7  614   2.670   0.679   1.899 -0.0302  0.5653 -0.9056
   40TCq2    C8  615   2.866   0.775   2.023 -0.5300  0.1725  0.6064
   40TCq2    O4  616   2.902   0.803   2.139 -0.6046 -0.4419 -0.0392
   40TCq2    C9  617   2.443   0.673   2.257 -0.7693 -0.0627  0.6642
   40TCq2    O5  618   2.494   0.722   2.358  0.6370  0.0360  0.2417
   40TCq2    O6  619   2.333   0.609   2.254  0.1377 -0.5766  0.3016
   40TCq2    H2  620   2.352   0.633   2.016  1.0306  0.8872 -0.5432
   40TCq2    H3  621   2.697   0.703   2.237 -1.5327 -1.4429  1.1643
   40TCq2    H4  622   2.718   0.695   1.803  0.2896 -0.7951 -0.9703
   41TMC2    C1  623   1.400   3.419  13.503  0.8213  0.2943 -0.1132
   41TMC2    C2  624   1.399   3.543  13.564 -0.1161 -0.3860  0.5426
   41TMC2    C3  625   1.336   3.645  13.505  0.5705  0.3005 -0.6325
   41TMC2    C4  626   1.364   3.403  13.374 -0.0823  0.2160  0.1480
   41TMC2    C5  627   1.287   3.512  13.319  0.0403  0.2383  0.5918
   41TMC2    C6  628   1.270   3.629  13.385 -0.3679 -0.4977 -0.0809
   41TMC2     C  629   1.452   3.301  13.570  0.1331 -0.4600  0.0197
   41TMC2     O  630   1.518   3.228  13.498  0.2182  0.3127 -0.2725
   41TMC2     H  631   1.450   3.561  13.659 -0.7244  0.8585  0.6433
   41TMC2    H1  632   1.382   3.306  13.330 -0.2853 -0.2223  1.0202
   41TMC2    H2  633   1.214   3.715  13.349 -0.1270  0.2825  1.4130
   41TMC2    C7  634   1.245   3.506  13.175 -0.3746 -0.3585  0.0601
   41TMC2    C8  635   1.342   3.776  13.566 -0.1318  0.4448  0.2592
   41TMC2    O1  636   1.185   3.606  13.132  0.0163  0.0874 -0.1557
   41TMC2    O2  637   1.375   3.789  13.682  0.1678 -0.8636 -0.2165
   41TMC2    O5  638   1.367   3.874  13.470 -0.0006 -0.5503  1.0737
   41TMC2    H5  639   1.361   3.847  13.376 -0.3700 -0.6419  1.1255
   42MPD2     C  640   1.630   3.194  13.785 -0.1078  0.2713 -0.0036
   42MPD2    C1  641   1.515   3.260  13.808  0.0731  0.3277  0.2707
   42MPD2    C2  642   1.473   3.273  13.939  0.3363  0.7911  0.2099
   42MPD2    C3  643   1.544   3.220  14.043  0.0955 -0.0725  1.0586
   42MPD2    C4  644   1.672   3.178  14.013 -0.6871  0.2097 -0.1167
   42MPD2    C5  645   1.711   3.157  13.889  0.6113 -0.1457  0.0197
   42MPD2     H  646   1.380   3.328  13.945 -1.4967 -2.4851  1.9862
   42MPD2    H1  647   1.734   3.141  14.093 -1.3193 -0.0306  0.2622
   42MPD2    H2  648   1.670   3.174  13.686 -0.0376  0.9647 -0.1135
   42MPD2    H3  649   1.810   3.123  13.862 -0.4473 -3.4167  0.2553
   42MPD2     N  650   1.513   3.217  14.185  0.0270 -0.2509 -0.0997
   42MPD2    H5  651   1.583   3.188  14.252  1.1975 -0.0748 -1.2282
   42MPD2    N1  652   1.432   3.315  13.707  0.4003  0.2884  0.5990
   42MPD2    H7  653   1.358   3.374  13.745 -2.4682 -1.5438 -2.2208
   43MPD2     C  654   2.742   1.337   0.626 -0.9442 -0.1853  0.2765
   43MPD2    C1  655   2.864   1.369   0.566 -0.5476  0.6708  0.2206
   43MPD2    C2  656   2.924   1.488   0.592 -0.3137  0.7683 -0.4102
   43MPD2    C3  657   2.860   1.581   0.675  0.5442 -0.2442 -0.2516
   43MPD2    C4  658   2.736   1.554   0.728 -0.0291 -0.0197 -0.0478
   43MPD2    C5  659   2.678   1.430   0.704 -0.2797 -0.4061 -0.6047
   43MPD2     H  660   3.024   1.505   0.554 -0.5863  0.8689 -1.0799
   43MPD2    H1  661   2.679   1.629   0.782  1.0851  0.1955  0.8236
   43MPD2    H2  662   2.697   1.238   0.615  0.2316 -0.4674 -1.8242
   43MPD2    H3  663   2.587   1.401   0.756  1.0363 -1.6966  1.0016
   43MPD2     N  664   2.919   1.705   0.709 -0.5243 -0.7539 -0.2658
   43MPD2    H5  665   2.863   1.771   0.763 -0.0738 -1.1377  0.6678
   43MPD2    N1  666   2.942   1.268   0.499  0.7367  0.4202  0.0502
   43MPD2    H7  667   3.027   1.305   0.457  1.1726  1.4884  1.8815
   44TCq2    C1  668   3.368   1.922   0.991 -0.5613 -0.2426 -0.4307
   44TCq2    O2  669   3.456   1.853   0.938 -0.1711 -0.4868 -0.0551
   44TCq2    C2  670   3.251   1.946   0.909 -0.3169 -0.6844 -0.0362
   44TCq2    C3  671   3.164   2.046   0.941  0.6985 -0.1581  0.2446
   44TCq2    C4  672   3.040   2.049   0.878 -0.2625  0.8406 -0.7898
   44TCq2    C5  673   3.010   1.947   0.790  0.0841  0.2587 -0.1916
   44TCq2    C6  674   3.097   1.843   0.772 -0.1104  0.8222 -0.1554
   44TCq2    C7  675   3.217   1.834   0.833 -0.7130  0.1814 -0.0100
   44TCq2    C8  676   3.053   1.733   0.700  0.5271  0.2268 -0.3417
   44TCq2    O4  677   3.142   1.660   0.653  0.2028  0.1653  0.4667
   44TCq2    C9  678   2.962   2.163   0.902 -0.9275  0.9374  0.1646
   44TCq2    O5  679   2.876   2.194   0.818 -0.3682  0.2611  0.3323
   44TCq2    O6  680   2.997   2.236   0.995  0.0399 -1.1622  0.6727
   44TCq2    H2  681   3.199   2.132   0.997 -0.1357  0.0251  0.4926
   44TCq2    H3  682   2.910   1.953   0.750  0.0700  0.3176 -0.1462
   44TCq2    H4  683   3.280   1.746   0.835  0.8604  1.3724  3.4486
   45TMC2    C1  684   2.713   3.705   9.238 -0.8703 -0.6333 -0.2659
   45TMC2    C2  685   2.611   3.712   9.150  0.8763 -0.1789 -0.1058
   45TMC2    C3  686   2.550   3.834   9.141 -0.7073  0.3164  0.0195
   45TMC2    C4  687   2.756   3.811   9.314  0.5919  0.0396  0.1654
   45TMC2    C5  688   2.697   3.931   9.286  0.0365 -0.2446 -0.2051
   45TMC2    C6  689   2.600   3.955   9.197  0.1285  0.6884  0.4195
   45TMC2     C  690   2.796   3.587   9.237  0.2164  0.1140 -0.1053
   45TMC2     O  691   2.913   3.595   9.264 -0.0023  0.4640  0.2100
   45TMC2     H  692   2.601   3.628   9.082 -1.4635 -0.5698  0.7621
   45TMC2    H1  693   2.846   3.804   9.375  1.3064  0.2310 -0.8568
   45TMC2    H2  694   2.559   4.050   9.169 -0.2568  0.8793  1.6373
   45TMC2    C7  695   2.750   4.041   9.353  0.4588 -0.4319 -0.2591
   45TMC2    C8  696   2.454   3.852   9.035 -0.3910  0.2849  0.1605
   45TMC2    O1  697   2.810   4.023   9.460 -0.2573 -0.3810 -0.0723
   45TMC2    O2  698   2.425   3.968   9.010 -0.1797 -0.2087  0.4400
   45TMC2    O5  699   2.365   3.754   9.056 -0.0573 -0.2779  0.0887
   45TMC2    H5  700   2.406   3.667   9.074  0.1959  0.2017  1.8399
   46MPD2     C  701   2.906   3.311   9.200 -0.3929 -0.0802  0.3183
   46MPD2    C1  702   2.775   3.345   9.226  0.5751 -0.1624 -0.0808
   46MPD2    C2  703   2.688   3.249   9.266 -0.1069 -0.0074  0.4983
   46MPD2    C3  704   2.740   3.119   9.273  0.2604 -0.4173  0.4184
   46MPD2    C4  705   2.867   3.079   9.246 -0.1921 -0.0664 -0.3190
   46MPD2    C5  706   2.956   3.183   9.210 -0.0018 -0.6252  0.5596
   46MPD2     H  707   2.587   3.268   9.302 -0.2879 -1.7918  0.9668
   46MPD2    H1  708   2.900   2.977   9.263 -0.8551  0.1738  2.5205
   46MPD2    H2  709   2.974   3.394   9.181 -1.0527  0.4252  0.1518
   46MPD2    H3  710   3.062   3.173   9.189  0.0621  1.2497 -0.0436
   46MPD2     N  711   2.637   3.023   9.304  0.3676 -0.4690  0.4110
   46MPD2    H5  712   2.549   3.061   9.337  0.1102  0.8258 -1.8105
   46MPD2    N1  713   2.721   3.476   9.219 -1.3223 -0.5444 -0.1191
   46MPD2    H7  714   2.621   3.484   9.232 -1.1821 -0.5374  1.0080
   47TMC2    C1  715   0.091   3.369  10.311 -0.0338  0.6936 -0.4074
   47TMC2    C2  716   0.086   3.234  10.271 -0.5830 -0.5493 -0.4367
   47TMC2    C3  717   4.718   3.205  10.177 -0.1835 -0.1644  0.9867
   47TMC2    C4  718   0.002   3.460  10.266  0.5866  0.8147 -0.0754
   47TMC2    C5  719   4.643   3.426  10.166 -0.5376 -0.9150 -0.2042
   47TMC2    C6  720   4.642   3.295  10.111  0.3949 -0.5546 -0.5377
   47TMC2     C  721   0.182   3.412  10.410  0.1627  0.1877  0.1882
   47TMC2     O  722   0.198   3.536  10.430 -0.0797 -0.4317  0.2460
   47TMC2     H  723   0.129   3.152  10.328  1.5744  1.0944  0.2533
   47TMC2    H1  724   4.721   3.558  10.311  1.8337  1.2830 -0.9415
   47TMC2    H2  725   4.570   3.255  10.041  1.5184  0.0749 -2.0655
   47TMC2    C7  726   4.535   3.509  10.119 -0.2672 -0.1059 -0.0337
   47TMC2    C8  727   4.681   3.070  10.162 -0.1508  0.0441  0.6532
   47TMC2    O1  728   4.453   3.441  10.057 -0.2704 -0.3079 -0.1469
   47TMC2    O2  729   4.569   3.042  10.132 -0.1283 -0.3642  0.4332
   47TMC2    O5  730   0.066   3.015  10.107  0.8814  0.8212 -0.2074
   47TMC2    H5  731   0.151   3.060  10.127  1.9596 -1.1329 -0.3046
   48MPD2     C  732   0.432   3.442  10.573 -0.2233 -0.1563 -0.3252
   48MPD2    C1  733   0.390   3.337  10.494  1.3224 -0.3019  0.3163
   48MPD2    C2  734   0.486   3.238  10.468  0.6484 -0.3324 -0.0440
   48MPD2    C3  735   0.612   3.245  10.531  0.3241 -0.2631  0.7516
   48MPD2    C4  736   0.645   3.352  10.615  0.2155 -0.5245  0.2589
   48MPD2    C5  737   0.548   3.439  10.640  0.1982  0.2731  0.4572
   48MPD2     H  738   0.467   3.149  10.409 -0.4421 -0.7722  0.9745
   48MPD2    H1  739   0.741   3.361  10.665  0.7939 -4.9047 -0.1296
   48MPD2    H2  740   0.360   3.515  10.608  0.4945 -0.1200  1.0527
   48MPD2    H3  741   0.575   3.519  10.708 -3.7392  0.0547  2.2942
   48MPD2     N  742   0.701   3.140  10.498  0.1657 -0.3862 -0.2369
   48MPD2    H5  743   0.669   3.077  10.425 -0.0898  0.1950 -0.6191
   48MPD2    N1  744   0.275   3.316  10.427 -0.0319  0.3469 -0.2225
   48MPD2    H7  745   0.266   3.224  10.384  0.9264 -0.3950  1.1442
   49MPD2     C  746   4.277   1.405  10.289 -0.0350 -0.6516  0.2428
   49MPD2    C1  747   4.161   1.404  10.362  0.2516 -1.1844 -0.6462
   49MPD2    C2  748   4.168   1.412  10.499  0.5288  0.3152 -0.2149
   49MPD2    C3  749   4.285   1.427  10.571  0.2929 -0.1100  0.8095
   49MPD2    C4  750   4.402   1.428  10.497  0.9756  0.4418 -0.0125
   49MPD2    C5  751   4.393   1.415  10.363 -0.0689 -0.5092 -0.4692
   49MPD2     H  752   4.076   1.402  10.555  0.0472 -0.2548 -1.1141
   49MPD2    H1  753   4.501   1.441  10.538  1.1325 -0.9768  0.0341
   49MPD2    H2  754   4.277   1.396  10.181  0.7415 -0.2443  0.2101
   49MPD2    H3  755   4.488   1.413  10.310  0.3552 -0.6381  0.2919
   49MPD2     N  756   4.290   1.444  10.715 -0.1959 -0.2479  0.0724
   49MPD2    H5  757   4.376   1.479  10.757  0.6396 -0.6532 -1.2791
   49MPD2    N1  758   4.032   1.385  10.303 -0.3397  0.2813 -0.9899
   49MPD2    H7  759   3.977   1.312  10.346 -0.2879  1.0147  0.3175
   50TCq2    C1  760   4.002   1.410  10.173  0.0950 -0.4840 -0.1517
   50TCq2    O2  761   4.067   1.494  10.109 -0.4863  0.3510 -0.2281
   50TCq2    C2  762   3.874   1.353  10.119 -0.1042  0.8285  0.1487
   50TCq2    C3  763   3.841   1.413  10.000  0.1407  0.1932 -0.1035
   50TCq2    C4  764   3.724   1.371   9.940  0.8659 -0.1772  0.7668
   50TCq2    C5  765   3.632   1.297  10.008  0.4420 -0.2074 -0.4017
   50TCq2    C6  766   3.668   1.252  10.137  0.1818  0.1617 -0.0282
   50TCq2    C7  767   3.791   1.273  10.189  0.4918 -0.4888 -0.1097
   50TCq2    C8  768   3.575   1.170  10.211 -0.0321  0.3922 -0.6122
   50TCq2    O4  769   3.610   1.129  10.321  0.5524  0.1325 -0.3141
   50TCq2    C9  770   3.702   1.421   9.811  0.4203  0.5080  0.3549
   50TCq2    O5  771   3.596   1.373   9.755  0.2009 -0.3905 -0.0253
   50TCq2    O6  772   3.758   1.525   9.776  0.4116  0.1319  0.0740
   50TCq2    H2  773   3.917   1.452   9.933 -0.2493  0.3423 -0.4623
   50TCq2    H3  774   3.531   1.288   9.968  1.2874 -0.3060 -2.5395
   50TCq2    H4  775   3.818   1.232  10.285  0.5607  2.5755  1.1813
   51MPD2     C  776   0.485   4.609   1.083 -0.0460  0.0594  0.2014
   51MPD2    C1  777   0.615   4.569   1.098 -0.0815 -0.5167 -0.0539
   51MPD2    C2  778   0.671   4.580   1.220  0.1209  1.2601  0.7918
   51MPD2    C3  779   0.609   4.629   1.335 -0.3252 -0.9487 -0.0814
   51MPD2    C4  780   0.480   4.667   1.320 -0.0287 -0.0850  0.2314
   51MPD2    C5  781   0.417   4.653   1.200  0.0330 -0.4519  0.2344
   51MPD2     H  782   0.772   4.541   1.230  0.1439  0.7430 -1.5292
   51MPD2    H1  783   0.419   0.003   1.386  1.0081  0.0939  1.0163
   51MPD2    H2  784   0.424   4.578   0.999 -0.5425  1.3532  0.0956
   51MPD2    H3  785   0.311   4.676   1.208  0.2883  0.9191 -0.3986
   51MPD2     N  786   0.674   4.647   1.461 -0.0518  0.6701  0.6391
   51MPD2    H5  787   0.617   4.693   1.532 -0.4681 -0.7315  1.2039
   51MPD2    N1  788   0.690   4.506   0.994  0.1118 -0.0532 -0.3375
   51MPD2    H7  789   0.782   4.478   1.028 -0.2632 -0.9293 -0.0535
   52TCq2    C1  790   0.801   4.601   1.498 -0.7298 -0.6449 -0.2137
   52TCq2    O2  791   0.886   4.545   1.434  0.3547  0.1069  0.0419
   52TCq2    C2  792   0.825   4.625   1.641  0.9768  0.2307 -0.3463
   52TCq2    C3  793   0.949   4.589   1.680 -0.1567 -0.9327  0.2196
   52TCq2    C4  794   0.993   4.633   1.803  0.1394 -0.0132  0.0618
   52TCq2    C5  795   0.915   4.715   1.878 -0.5821 -0.3903  0.4306
   52TCq2    C6  796   0.789   0.027   1.836  0.7723 -0.6497  0.6877
   52TCq2    C7  797   0.738   4.702   1.720 -0.0393 -0.8256 -0.7238
   52TCq2    C8  798   0.722   0.140   1.896  0.4310 -0.1359 -0.2791
   52TCq2    O4  799   0.603   0.160   1.881  0.5927  0.1599  0.3983
   52TCq2    C9  800   1.125   4.586   1.855  0.0345 -0.2140 -0.4848
   52TCq2    O5  801   1.144   4.592   1.979  0.1807  0.0239  0.2986
   52TCq2    O6  802   1.197   4.523   1.774 -0.5966 -0.1912 -0.2900
   52TCq2    H2  803   1.014   4.530   1.616 -0.1929 -1.0292  0.2715
   52TCq2    H3  804   0.959   0.033   1.968 -0.0679 -0.8589  0.3973
   52TCq2    H4  805   0.639   0.009   1.691  0.0933 -0.1242 -0.4053
   53TMC2    C1  806   4.408   3.409  11.513  0.2210 -0.0357 -0.1275
   53TMC2    C2  807   4.525   3.340  11.522  0.3859  0.3980  0.1603
   53TMC2    C3  808   4.594   3.369  11.641 -0.6520 -0.4737 -0.3985
   53TMC2    C4  809   4.370   3.506  11.602 -0.2080  0.5144 -0.3268
   53TMC2    C5  810   4.445   3.530  11.710 -0.1093  0.3021 -0.2595
   53TMC2    C6  811   4.559   3.466  11.731 -0.2028  0.0142 -0.0695
   53TMC2     C  812   4.299   3.340  11.455 -1.0323  0.0815  0.2181
   53TMC2     O  813   4.318   3.281  11.352 -0.3761 -0.1124  0.6042
   53TMC2     H  814   4.554   3.271  11.444  0.3269  0.5068  0.0410
   53TMC2    H1  815   4.276   3.558  11.590 -0.3880  0.9347  2.7991
   53TMC2    H2  816   4.629   3.499  11.807  1.2369 -0.4639 -1.1945
   53TMC2    C7  817   4.359   3.516  11.830 -0.3339 -0.5117  0.1729
   53TMC2    C8  818   4.691   3.283  11.697  0.4017  0.6079 -0.2605
   53TMC2    O1  819   4.255   3.463  11.799 -0.4194  0.2459  0.0334
   53TMC2    O2  820   0.057   3.322  11.772 -1.2939  0.4700  0.2990
   53TMC2    O5  821   4.685   3.159  11.645 -0.0173  0.1195 -0.6757
   53TMC2    H5  822   4.592   3.135  11.628 -0.0165  0.7184 -1.5259
   54MPD2     C  823   4.057   3.175  11.408 -0.1874  0.1733  0.0034
   54MPD2    C1  824   4.079   3.247  11.522  0.4859 -0.1013 -0.7420
   54MPD2    C2  825   3.995   3.235  11.636 -0.6588  0.4579 -0.5069
   54MPD2    C3  826   3.884   3.154  11.637  0.1988  0.4093  0.1144
   54MPD2    C4  827   3.860   3.079  11.519  0.0220  0.8965 -0.0196
   54MPD2    C5  828   3.943   3.098  11.409 -0.2010  0.1042 -0.0777
   54MPD2     H  829   4.021   3.295  11.723 -1.2067 -0.4797  0.2907
   54MPD2    H1  830   3.784   3.003  11.514  0.7502  0.1490  0.1983
   54MPD2    H2  831   4.124   3.172  11.323 -1.6592 -2.0319 -1.0881
   54MPD2    H3  832   3.925   3.024  11.332 -1.4887  0.2381  0.0828
   54MPD2     N  833   3.811   3.119  11.751 -0.1820  0.4798 -0.4883
   54MPD2    H5  834   3.749   3.039  11.748  1.3937 -0.7597 -0.4765
   54MPD2    N1  835   4.192   3.327  11.544 -0.2434 -0.2478 -0.0862
   54MPD2    H7  836   4.219   3.361  11.636  0.5501 -1.8649  0.2778
   55MPD2     C  837   0.625   1.568  17.188 -0.6062  0.1916 -0.0235
   55MPD2    C1  838   0.700   1.533  17.297 -0.0671  0.2013 -0.1783
   55MPD2    C2  839   0.685   1.604  17.413  0.0116  0.4742  0.5855
   55MPD2    C3  840   0.598   1.714  17.422 -0.6143 -0.0358  0.5489
   55MPD2    C4  841   0.525   1.750  17.312  0.0237  0.1503 -0.4362
   55MPD2    C5  842   0.542   1.682  17.192  0.4166 -0.0219  0.3680
   55MPD2     H  843   0.748   1.578  17.497  0.0944 -1.2441 -0.0080
   55MPD2    H1  844   0.460   1.837  17.321 -0.9281 -0.5419 -0.5488
   55MPD2    H2  845   0.627   1.510  17.097  0.0296  0.1753 -0.0022
   55MPD2    H3  846   0.499   1.724  17.102  2.2020 -0.2000 -0.5679
   55MPD2     N  847   0.573   1.777  17.546 -0.4550  0.1069 -0.5877
   55MPD2    H5  848   0.486   1.828  17.546 -1.3295 -1.3648 -2.0460
   55MPD2    N1  849   0.800   1.433  17.275  0.1678  0.4908 -0.0931
   55MPD2    H7  850   0.808   1.392  17.183 -0.5082 -2.7770  1.3012
   56TCq2    C1  851   0.887   1.377  17.373 -0.0750  1.0356  0.1727
   56TCq2    O2  852   0.905   1.400  17.493  0.1578 -0.0754  0.1075
   56TCq2    C2  853   0.994   1.297  17.315 -0.1285  0.4743 -0.4282
   56TCq2    C3  854   1.044   1.316  17.190 -0.0640 -0.1630 -0.2767
   56TCq2    C4  855   1.143   1.231  17.146  0.0647 -0.3776  0.9539
   56TCq2    C5  856   1.194   1.135  17.223  0.0663 -0.0131  0.7748
   56TCq2    C6  857   1.138   1.126  17.348  0.3929  0.2663 -0.1742
   56TCq2    C7  858   1.041   1.200  17.394 -0.2174 -0.1629  0.8092
   56TCq2    C8  859   1.169   0.998  17.419 -0.0057  0.4526  0.2787
   56TCq2    O4  860   1.197   0.900  17.345 -0.2569  0.2368 -0.0365
   56TCq2    C9  861   1.213   1.257  17.015 -0.2949 -0.1470  0.0762
   56TCq2    O5  862   1.326   1.210  17.003 -0.1760  0.3043 -0.0062
   56TCq2    O6  863   1.159   1.339  16.934 -0.5115 -0.2412  0.3605
   56TCq2    H2  864   1.019   1.402  17.130  0.9125 -1.5863 -2.7151
   56TCq2    H3  865   1.280   1.077  17.193  0.1090  0.0947  0.6903
   56TCq2    H4  866   1.007   1.190  17.496 -1.7752 -0.1637  0.2870
   57TMC2    C1  867   3.937   2.476  13.370  0.2898  0.2514 -0.2430
   57TMC2    C2  868   3.853   2.363  13.355 -0.1262 -0.2260  0.5275
   57TMC2    C3  869   3.884   2.264  13.269  0.0689 -0.2084  0.7966
   57TMC2    C4  870   4.048   2.493  13.291  0.0860 -0.2579  0.4298
   57TMC2    C5  871   4.077   2.378  13.222 -0.4595 -0.2054  0.2513
   57TMC2    C6  872   4.006   2.258  13.214  0.7425 -0.1580  0.7843
   57TMC2     C  873   3.884   2.587  13.441 -0.2398  1.0321 -0.0426
   57TMC2     O  874   3.784   2.566  13.511 -0.0245  0.1916 -0.5512
   57TMC2     H  875   3.776   2.339  13.428  0.1138  0.5264  1.0237
   57TMC2    H1  876   4.104   2.586  13.288 -1.2280  0.5501  0.8127
   57TMC2    H2  877   4.034   2.191  13.133 -0.6998 -0.2989  0.4041
   57TMC2    C7  878   4.220   2.382  13.172 -0.5320 -0.1927 -0.4729
   57TMC2    C8  879   3.799   2.148  13.256  0.1541 -0.0566 -0.2451
   57TMC2    O1  880   4.251   2.495  13.138  0.5053  0.2716  0.0625
   57TMC2    O2  881   3.849   2.042  13.217  0.0710 -0.1276 -0.2825
   57TMC2    O5  882   3.688   2.205  13.211 -0.0601  0.0876  0.3170
   57TMC2    H5  883   3.673   2.297  13.242  1.9880  0.7289 -0.6637
   58MPD2     C  884   3.795   3.065  13.577  0.6073  0.8850 -0.0098
   58MPD2    C1  885   3.710   2.969  13.539 -0.3024 -0.0377  0.4946
   58MPD2    C2  886   3.760   2.843  13.492  0.3021  0.0306  1.1223
   58MPD2    C3  887   3.898   2.825  13.469  0.2533  0.2709  0.6161
   58MPD2    C4  888   3.978   2.923  13.512 -0.0341  0.1286 -0.5538
   58MPD2    C5  889   3.931   3.043  13.564 -0.0123  0.5592  0.3051
   58MPD2     H  890   3.691   2.765  13.460  0.2488  0.5741 -0.0899
   58MPD2    H1  891   4.086   2.920  13.506  0.0566  0.5222  0.9295
   58MPD2    H2  892   3.768   3.164  13.612  1.5303  0.6669  1.3169
   58MPD2    H3  893   3.994   3.125  13.595 -0.6040  0.5519  1.5469
   58MPD2     N  894   3.958   2.702  13.434 -0.0071 -0.4031  0.0576
   58MPD2    H5  895   4.057   2.704  13.409 -0.3563 -0.5605 -1.3572
   58MPD2    N1  896   3.568   2.995  13.536  0.1952 -0.2700  0.2313
   58MPD2    H7  897   3.507   2.914  13.530  1.8320 -1.5182  0.4260
   59MPD2     C  898   2.214   2.265  13.477  0.2878  0.5011  0.2104
   59MPD2    C1  899   2.201   2.359  13.382  0.0241 -0.3500 -0.6751
   59MPD2    C2  900   2.271   2.478  13.397 -0.1458 -0.5647 -0.1854
   59MPD2    C3  901   2.354   2.508  13.507 -1.0082  0.0996 -0.3647
   59MPD2    C4  902   2.356   2.417  13.608 -0.1038  0.0849 -0.1991
   59MPD2    C5  903   2.288   2.302  13.590  0.0181  0.5097  0.0991
   59MPD2     H  904   2.265   2.561  13.327  3.2818 -0.2118 -0.0696
   59MPD2    H1  905   2.404   2.450  13.699  1.5728 -2.6968 -0.0470
   59MPD2    H2  906   2.171   2.166  13.480  1.4379 -0.0958 -2.8246
   59MPD2    H3  907   2.275   2.233  13.672 -0.1722  1.3053  0.7399
   59MPD2     N  908   2.425   2.624  13.528  0.6421  0.6096  0.1398
   59MPD2    H5  909   2.442   2.658  13.622 -1.4090 -0.3594  0.8457
   59MPD2    N1  910   2.119   2.353  13.273 -0.1033 -0.6990  0.4891
   59MPD2    H7  911   2.103   2.440  13.222 -0.0896 -0.8273  0.2650
   60TCq2    C1  912   2.055   2.240  13.229 -0.1225 -0.3287  0.1594
   60TCq2    O2  913   2.065   2.126  13.271  0.3611 -0.1080 -0.0093
   60TCq2    C2  914   1.974   2.262  13.108  0.0479  0.8211 -0.8539
   60TCq2    C3  915   1.854   2.197  13.087  0.5619  0.7481  0.6142
   60TCq2    C4  916   1.786   2.221  12.979 -0.0784 -0.6317  0.6370
   60TCq2    C5  917   1.832   2.304  12.879 -0.1166  0.0887  0.6765
   60TCq2    C6  918   1.942   2.371  12.902 -0.4832 -0.1694 -0.4501
   60TCq2    C7  919   2.016   2.346  13.014 -0.0913 -0.6386 -0.1688
   60TCq2    C8  920   1.997   2.459  12.796  0.6536 -0.2399  0.1691
   60TCq2    O4  921   2.114   2.477  12.788 -0.3704  0.0451  0.6250
   60TCq2    C9  922   1.648   2.176  12.976 -0.5332 -0.4306  0.4197
   60TCq2    O5  923   1.582   2.205  12.874 -0.0516  0.9208 -0.6892
   60TCq2    O6  924   1.604   2.121  13.078 -0.4702 -0.5877 -0.1381
   60TCq2    H2  925   1.817   2.125  13.159  1.1607  1.5173  1.6937
   60TCq2    H3  926   1.785   2.312  12.782  0.4174 -1.3176  0.2889
   60TCq2    H4  927   2.106   2.405  13.024 -0.2657 -0.6353  1.3833
   61MPD2     C  928   1.620   3.620  14.431  0.4165 -0.6441  0.0404
   61MPD2    C1  929   1.667   3.729  14.504  0.0581 -0.3813  0.2591
   61MPD2    C2  930   1.691   3.853  14.447 -0.2599 -0.2068  0.8668
   61MPD2    C3  931   1.655   3.878  14.321  0.4137  0.8392  0.4922
   61MPD2    C4  932   1.593   3.777  14.252  0.2636  0.0100 -0.4072
   61MPD2    C5  933   1.575   3.650  14.302 -0.1705  0.0594 -0.1068
   61MPD2     H  934   1.739   3.920  14.517  0.4733  0.1798 -0.0214
   61MPD2    H1  935   1.550   3.783  14.153  0.0332 -0.7063 -0.3554
   61MPD2    H2  936   1.606   3.520  14.468 -1.7299 -0.8658 -1.3820
   61MPD2    H3  937   1.526   3.572  14.245  2.1394 -0.8257 -0.8616
   61MPD2     N  938   1.690   4.000  14.247  0.1291 -0.2059  1.4382
   61MPD2    H5  939   1.691   3.980  14.147  0.4164  2.2674  0.9491
   61MPD2    N1  940   1.696   3.710  14.643 -0.2756 -0.4253 -0.4493
   61MPD2    H7  941   1.729   3.790  14.697 -0.5643 -0.6858  0.1156
   62TCq2    C1  942   1.691   3.593  14.712  0.0490  0.0194 -0.2631
   62TCq2    O2  943   1.686   3.479  14.670  0.6512  0.0177 -0.2415
   62TCq2    C2  944   1.693   3.617  14.860  0.1500 -0.1753 -0.0310
   62TCq2    C3  945   1.643   3.510  14.932 -0.2374 -0.7168  0.2092
   62TCq2    C4  946   1.616   3.529  15.057 -0.2187 -0.3127 -0.1379
   62TCq2    C5  947   1.634   3.648  15.111  0.0805  0.5950 -0.5533
   62TCq2    C6  948   1.689   3.754  15.041  0.5941 -0.0118  0.4500
   62TCq2    C7  949   1.725   3.745  14.908  0.9827  0.0895  0.7956
   62TCq2    C8  950   1.654   3.891  15.075  0.1503 -0.0336  1.1248
   62TCq2    O4  951   1.724   3.974  15.029 -0.3912 -1.5235 -0.3092
   62TCq2    C9  952   1.549   3.416  15.128 -0.2227 -0.0729 -0.6506
   62TCq2    O5  953   1.543   3.309  15.061 -0.2385 -0.5226 -0.2188
   62TCq2    O6  954   1.503   3.436  15.244 -0.2845 -0.0294  0.0920
   62TCq2    H2  955   1.630   3.414  14.883  2.6356 -1.2342  0.4664
   62TCq2    H3  956   1.599   3.667  15.212  1.2691 -2.4237  0.4161
   62TCq2    H4  957   1.773   3.822  14.850  1.9226 -0.8225  0.3602
   63TMC2    C1  958   4.396   4.133  10.713  0.7324 -0.0946 -0.2547
   63TMC2    C2  959   4.258   4.135  10.724  0.3926  0.2576  0.0489
   63TMC2    C3  960   4.186   4.142  10.609  0.3723  0.2799 -0.3676
   63TMC2    C4  961   4.463   4.142  10.594 -0.3587  0.0417  0.4634
   63TMC2    C5  962   4.382   4.140  10.481 -0.0493  0.0574 -0.2644
   63TMC2    C6  963   4.247   4.146  10.487  0.4680  0.4276 -0.9217
   63TMC2     C  964   4.470   4.137  10.838  0.0962 -0.7822 -0.0568
   63TMC2     O  965   4.395   4.155  10.933  0.0506  0.0175  0.5739
   63TMC2     H  966   4.210   4.142  10.821 -1.7406 -0.1957 -0.9528
   63TMC2    H1  967   4.571   4.142  10.584 -0.5550  1.2321 -1.5970
   63TMC2    H2  968   4.180   4.134  10.402 -0.7364 -0.4273  0.1339
   63TMC2    C7  969   4.435   4.195  10.363  0.1292  0.3077 -0.3564
   63TMC2    C8  970   4.064   4.072  10.625 -0.3886  0.0822  0.8342
   63TMC2    O1  971   4.363   4.277  10.307  0.4013  0.1488 -0.3941
   63TMC2    O2  972   3.975   4.082  10.711 -0.0540 -0.0305 -0.1650
   63TMC2    O5  973   4.108   3.957  10.570  0.0373  0.5075  0.1725
   63TMC2    H5  974   4.195   3.961  10.524  0.4397  0.6783  0.9496
   64MPD2     C  975   0.064   3.948  11.174  0.2598 -0.2819 -0.0358
   64MPD2    C1  976   0.078   3.866  11.063 -0.5344 -0.1756  0.3687
   64MPD2    C2  977   0.021   3.920  10.945  0.4526 -0.4377  0.8668
   64MPD2    C3  978   4.659   4.030  10.952  0.4004 -0.1187 -0.2790
   64MPD2    C4  979   4.629   4.091  11.072  0.3340  0.1531  0.4027
   64MPD2    C5  980   4.697   4.050  11.181  0.2606  0.1598  0.0606
   64MPD2     H  981   0.041   3.878  10.848 -0.4919 -2.9204  1.7600
   64MPD2    H1  982   4.570   4.182  11.078  2.7206  1.8756 -2.1604
   64MPD2    H2  983   0.115   3.922  11.266  0.4856 -0.8743 -0.3285
   64MPD2    H3  984   4.677   4.097  11.276  1.2758  0.4664  0.1228
   64MPD2     N  985   4.590   4.067  10.836  0.0048  0.3719 -0.5662
   64MPD2    H5  986   4.604   4.026  10.745  0.1049 -1.5931  0.3463
   64MPD2    N1  987   0.161   3.755  11.065  0.1731  0.6563  0.4046
   64MPD2    H7  988   0.202   3.742  11.157 -1.0271 -0.8855  0.7097
   65MPD2     C  989   2.439   3.219  15.696 -0.4308  0.0790  0.0446
   65MPD2    C1  990   2.387   3.220  15.571  0.0380 -0.5821  0.4840
   65MPD2    C2  991   2.344   3.094  15.529  0.0016 -0.0019 -0.3970
   65MPD2    C3  992   2.341   2.985  15.613  0.1801 -0.1535  0.5204
   65MPD2    C4  993   2.400   2.993  15.740  0.0894  0.2277  0.3328
   65MPD2    C5  994   2.452   3.108  15.776  0.6269  0.2605  0.4190
   65MPD2     H  995   2.304   3.082  15.429  0.0622  0.0400 -0.4266
   65MPD2    H1  996   2.431   2.907  15.798  0.5181 -0.4683 -0.9378
   65MPD2    H2  997   2.466   3.308  15.752  1.6092  0.4694 -1.5429
   65MPD2    H3  998   2.493   3.115  15.877  1.4797 -1.1360  0.1688
   65MPD2     N  999   2.287   2.859  15.571 -0.4362 -0.3221 -0.5333
   65MPD2    H5 1000   2.281   2.789  15.644  2.2454  1.7636  1.7029
   65MPD2    N1 1001   2.378   3.339  15.489 -0.1121  0.3645  0.3931
   65MPD2    H7 1002   2.317   3.337  15.408 -1.9219  2.0779  1.7283
   66TCq2    C1 1003   2.410   3.466  15.536  0.1465 -0.2037  0.7634
   66TCq2    O2 1004   2.465   3.505  15.638  0.8771 -0.1789  0.2480
   66TCq2    C2 1005   2.384   3.564  15.434 -0.0520  0.3221 -0.4905
   66TCq2    C3 1006   2.386   3.532  15.305 -0.3304 -0.6452 -1.1349
   66TCq2    C4 1007   2.332   3.627  15.216  0.1998  0.2408 -0.3204
   66TCq2    C5 1008   2.292   3.751  15.254 -0.4157 -0.5613  1.3698
   66TCq2    C6 1009   2.302   3.774  15.384  0.1125 -0.1306 -0.0845
   66TCq2    C7 1010   2.349   3.686  15.473  0.0458 -0.1975  0.2301
   66TCq2    C8 1011   2.279   3.910  15.423 -0.8843 -0.3997 -0.0910
   66TCq2    O4 1012   2.270   3.996  15.332 -0.1494 -0.2532 -0.1924
   66TCq2    C9 1013   2.306   3.590  15.077  0.5847 -0.1907 -0.0596
   66TCq2    O5 1014   2.319   3.467  15.048  0.3040 -0.1096 -0.1812
   66TCq2    O6 1015   2.258   3.678  15.003 -0.0846 -0.0942  0.8695
   66TCq2    H2 1016   2.425   3.437  15.271 -0.3376 -0.3243 -2.0370
   66TCq2    H3 1017   2.259   3.820  15.177  1.6115 -1.4680 -0.3120
   66TCq2    H4 1018   2.364   3.713  15.577 -0.9806 -1.4341  0.6903
   67MPD2     C 1019   1.926   2.650  14.011  0.1722 -0.3949 -0.4232
   67MPD2    C1 1020   1.898   2.756  14.096  0.4684  0.2122 -0.1752
   67MPD2    C2 1021   1.772   2.814  14.089  0.6386 -0.4031  1.0885
   67MPD2    C3 1022   1.672   2.768  14.003  0.0294 -0.1785  0.1296
   67MPD2    C4 1023   1.705   2.671  13.908 -0.9796 -0.0886  0.1635
   67MPD2    C5 1024   1.832   2.612  13.920 -0.4899 -0.1192 -0.3836
   67MPD2     H 1025   1.754   2.888  14.167  0.0371  0.6048 -0.0043
   67MPD2    H1 1026   1.636   2.642  13.830 -1.0453 -1.5925  0.7887
   67MPD2    H2 1027   2.021   2.598  14.014  0.8157  0.7891 -0.1105
   67MPD2    H3 1028   1.857   2.535  13.846  1.5063  1.1625 -1.0398
   67MPD2     N 1029   1.534   2.806  14.003  0.4004  0.5774 -0.7305
   67MPD2    H5 1030   1.477   2.763  13.931 -0.9846  0.8675  0.1944
   67MPD2    N1 1031   1.982   2.787  14.203  0.2511  0.1044  0.2716
   67MPD2    H7 1032   1.959   2.872  14.253 -2.0433  0.9809 -2.2696
   68TCq2    C1 1033   2.094   2.715  14.238 -0.6923 -0.1983 -0.1793
   68TCq2    O2 1034   2.121   2.603  14.207 -0.0539 -0.5175 -0.2451
   68TCq2    C2 1035   2.178   2.784  14.341 -0.2266  0.7011 -0.0432
   68TCq2    C3 1036   2.167   2.913  14.384 -0.3733 -0.0126  0.9015
   68TCq2    C4 1037   2.253   2.951  14.490 -0.3779 -0.4438 -0.5847
   68TCq2    C5 1038   2.335   2.864  14.555  0.0296 -0.4306  0.4181
   68TCq2    C6 1039   2.346   2.733  14.508 -0.2581 -0.2817  0.3589
   68TCq2    C7 1040   2.261   2.694  14.407 -0.3466  0.3428 -0.1811
   68TCq2    C8 1041   2.451   2.652  14.558  0.5736  0.1042 -0.4092
   68TCq2    O4 1042   2.499   2.566  14.490 -0.7705  0.0250  0.2746
   68TCq2    C9 1043   2.241   3.080  14.545  0.4583 -0.1033 -0.1658
   68TCq2    O5 1044   2.261   3.080  14.671  0.4067  0.0598 -0.3215
   68TCq2    O6 1045   2.158   3.165  14.495  0.6196  0.0474 -0.2183
   68TCq2    H2 1046   2.098   2.979  14.334 -0.8732 -0.1633  1.3864
   68TCq2    H3 1047   2.395   2.904  14.636  2.5927  1.4232 -2.4234
   68TCq2    H4 1048   2.273   2.591  14.375  2.5447  0.3485  0.8416
   69TMC2    C1 1049   4.036   3.887  12.359  0.6858  0.6509 -0.0101
   69TMC2    C2 1050   3.916   3.882  12.293 -0.0365  0.6639 -0.1868
   69TMC2    C3 1051   3.910   3.857  12.163 -0.0506  0.2572 -0.0290
   69TMC2    C4 1052   4.152   3.890  12.290 -0.4789  0.8817 -0.2936
   69TMC2    C5 1053   4.140   3.889  12.159  0.5546  0.6519  0.2928
   69TMC2    C6 1054   4.023   3.856  12.092 -0.2940  0.2174 -0.6135
   69TMC2     C 1055   4.042   3.858  12.496 -0.5420  0.1066  0.1210
   69TMC2     O 1056   3.950   3.893  12.566 -0.0738 -0.0079  0.1950
   69TMC2     H 1057   3.832   3.881  12.363  0.2182  0.0575  0.1080
   69TMC2    H1 1058   4.241   3.931  12.335 -0.9425  0.6838  0.7898
   69TMC2    H2 1059   4.020   3.843  11.984  0.1541  0.4823 -0.6607
   69TMC2    C7 1060   4.267   3.900  12.084 -0.0317 -0.2170 -0.5839
   69TMC2    C8 1061   3.784   3.893  12.098 -0.4178  0.6233  0.3682
   69TMC2    O1 1062   4.372   3.889  12.147 -0.0573  0.1537  0.1448
   69TMC2    O2 1063   3.683   3.909  12.170 -0.2238 -0.0264  0.1718
   69TMC2    O5 1064   3.822   3.988  12.010  0.3441 -0.1076  0.3933
   69TMC2    H5 1065   3.915   3.977  11.981  0.6519  0.1049  1.3118
   70MPD2     C 1066   4.334   3.733  12.690  0.3870 -0.6421  0.3365
   70MPD2    C1 1067   4.206   3.781  12.663 -0.3484 -0.8708  0.5655
   70MPD2    C2 1068   4.121   3.799  12.768 -0.5822 -0.4532  0.2017
   70MPD2    C3 1069   4.164   3.776  12.897  0.7407 -0.6201  0.7121
   70MPD2    C4 1070   4.291   3.726  12.924 -0.0944 -0.1116  0.7337
   70MPD2    C5 1071   4.368   3.698  12.816  0.9427  0.2473 -0.0307
   70MPD2     H 1072   4.015   3.818  12.756 -0.2201  1.5768  0.1110
   70MPD2    H1 1073   4.318   3.695  13.024  0.3558 -2.9973 -0.3069
   70MPD2    H2 1074   4.404   3.721  12.607 -0.6309  0.0598 -0.6214
   70MPD2    H3 1075   4.464   3.653  12.835  1.0000  0.1058 -0.6628
   70MPD2     N 1076   4.090   3.805  13.012  0.1784  0.2618  0.0773
   70MPD2    H5 1077   4.142   3.803  13.099  0.9572  0.2323 -0.3917
   70MPD2    N1 1078   4.168   3.808  12.527  0.4041  0.3486  0.3927
   70MPD2    H7 1079   4.238   3.782  12.458 -1.0530 -0.3084 -0.8568
   71TMC2    C1 1080   1.514   0.063   1.795  0.2790 -0.1453 -0.8676
   71TMC2    C2 1081   1.520   4.714   1.909 -0.3270  0.2936 -0.1321
   71TMC2    C3 1082   1.435   0.022   2.011  0.5073  0.6419 -0.1708
   71TMC2    C4 1083   1.413   0.155   1.764  0.0945 -0.2359  0.1782
   71TMC2    C5 1084   1.319   0.159   1.866  0.0885 -0.8810 -0.0610
   71TMC2    C6 1085   1.332   0.106   1.993 -0.4138  0.1105 -0.1390
   71TMC2     C 1086   1.601   0.029   1.677  0.1895  0.1631 -0.1288
   71TMC2     O 1087   1.616   0.124   1.599 -0.3945  0.3432 -0.0111
   71TMC2     H 1088   1.600   4.646   1.934  0.3322  1.4547  0.9469
   71TMC2    H1 1089   1.415   0.223   1.680  0.0406  1.9914  2.0014
   71TMC2    H2 1090   1.260   0.124   2.072 -1.4819 -1.9449 -0.6583
   71TMC2    C7 1091   1.191   0.229   1.839 -0.9747  0.4183  0.1305
   71TMC2    C8 1092   1.443   4.660   2.129  0.4818  0.0231  0.7506
   71TMC2    O1 1093   1.109   0.253   1.926 -0.4706  0.0182 -0.0870
   71TMC2    O2 1094   1.553   4.629   2.171 -0.4494 -0.1811  0.3807
   71TMC2    O5 1095   1.332   4.596   2.146 -0.2066  0.1484 -0.3102
   71TMC2    H5 1096   1.257   4.612   2.084 -1.1447 -0.1551  0.7505
   72MPD2     C 1097   1.747   4.428   1.290 -0.3593 -0.0010 -0.1440
   72MPD2    C1 1098   1.759   4.567   1.295 -0.2068  0.2989 -0.1007
   72MPD2    C2 1099   1.724   4.634   1.417 -0.8141  0.3332  0.3170
   72MPD2    C3 1100   1.673   4.558   1.528 -0.1148  0.3121  0.1942
   72MPD2    C4 1101   1.669   4.416   1.516  0.0293  0.3323  0.1197
   72MPD2    C5 1102   1.692   4.356   1.398  0.3867 -0.5566 -0.1674
   72MPD2     H 1103   1.728   0.017   1.429 -0.8089  0.3063  0.5559
   72MPD2    H1 1104   1.635   4.349   1.595 -1.8052  0.5703 -0.4556
   72MPD2    H2 1105   1.771   4.370   1.202 -1.9958  0.2252 -0.7338
   72MPD2    H3 1106   1.686   4.248   1.395  1.8477 -0.7055  1.8206
   72MPD2     N 1107   1.617   4.618   1.650  0.7754 -0.2522  0.2923
   72MPD2    H5 1108   1.576   4.554   1.717  0.9045  0.9651  1.5198
   72MPD2    N1 1109   1.810   4.636   1.177 -0.1641  0.2554  0.0322
   72MPD2    H7 1110   1.854   0.003   1.181  1.9155 -0.7363 -0.3631
   73TMC2    C1 1111   1.501   1.371  13.734  0.5405  0.5947  0.4068
   73TMC2    C2 1112   1.388   1.447  13.725 -0.2359 -0.1724  0.1736
   73TMC2    C3 1113   1.411   1.582  13.746  0.2123 -0.0506 -0.4495
   73TMC2    C4 1114   1.623   1.419  13.772  0.1569 -0.0027  0.0591
   73TMC2    C5 1115   1.645   1.551  13.768 -0.5944 -0.7881  0.5057
   73TMC2    C6 1116   1.536   1.635  13.743 -0.1076 -0.1954 -0.3510
   73TMC2     C 1117   1.520   1.275  13.619 -0.3877 -0.3451  0.2921
   73TMC2     O 1118   1.635   1.282  13.583  0.4089 -0.6612 -0.3329
   73TMC2     H 1119   1.297   1.400  13.690 -0.6697  0.7303  0.0811
   73TMC2    H1 1120   1.700   1.348  13.798  1.1347  1.7035  1.7769
   73TMC2    H2 1121   1.550   1.741  13.732  0.2667  0.0790  2.8877
   73TMC2    C7 1122   1.772   1.590  13.713 -0.3012 -0.2045  0.0742
   73TMC2    C8 1123   1.298   1.673  13.717 -0.0652 -0.2901  0.2251
   73TMC2    O1 1124   1.805   1.706  13.717  0.3390 -0.1253  0.2327
   73TMC2    O2 1125   1.315   1.792  13.714  0.3214 -0.2592  0.2520
   73TMC2    O5 1126   1.188   1.611  13.771  0.0372 -0.1092 -0.0525
   73TMC2    H5 1127   1.203   1.524  13.814  0.6415  0.6800  1.3456
   74MPD2     C 1128   1.476   0.861  13.337 -0.1255 -0.1835 -0.0084
   74MPD2    C1 1129   1.566   0.966  13.319 -0.6251 -0.2583  0.3267
   74MPD2    C2 1130   1.539   1.077  13.392  0.0178 -0.0480 -0.2083
   74MPD2    C3 1131   1.432   1.093  13.481  0.0599 -0.1183 -1.3894
   74MPD2    C4 1132   1.347   0.986  13.493 -0.0317 -0.6349  0.2091
   74MPD2    C5 1133   1.371   0.874  13.418 -0.4351  0.6734  0.0781
   74MPD2     H 1134   1.610   1.158  13.386  2.6247 -2.2324  1.2344
   74MPD2    H1 1135   1.256   0.987  13.551 -0.5152  0.6282 -0.5697
   74MPD2    H2 1136   1.477   0.772  13.276 -0.7848 -0.7495  0.8160
   74MPD2    H3 1137   1.309   0.785  13.423 -0.8935  0.9478 -0.5928
   74MPD2     N 1138   1.422   1.192  13.581 -0.1444 -0.1538 -0.4503
   74MPD2    H5 1139   1.349   1.181  13.651  0.0582  1.6104  0.0410
   74MPD2    N1 1140   1.682   0.950  13.237 -0.1045 -0.2414  0.1511
   74MPD2    H7 1141   1.675   0.868  13.177 -1.4091  0.8416 -1.1703
   75TCq2    C1 1142   1.469   2.888  14.091  0.6035 -0.1578  0.1462
   75TCq2    O2 1143   1.486   2.897  14.211  0.0888 -0.3601 -0.3148
   75TCq2    C2 1144   1.341   2.942  14.038  0.5351 -0.0566 -1.1615
   75TCq2    C3 1145   1.254   2.984  14.138 -0.4346  0.0828 -0.4294
   75TCq2    C4 1146   1.150   3.063  14.100 -0.4012 -0.4950 -1.2950
   75TCq2    C5 1147   1.127   3.103  13.970 -0.0946 -0.2109 -0.3620
   75TCq2    C6 1148   1.215   3.045  13.872 -0.3809 -0.2264  0.5157
   75TCq2    C7 1149   1.318   2.959  13.902 -0.3403  0.3110 -0.3239
   75TCq2    C8 1150   1.194   3.077  13.731  0.2856  0.5445  0.1741
   75TCq2    O4 1151   1.258   3.008  13.653  0.1646  0.1578  0.2218
   75TCq2    C9 1152   1.069   3.120  14.203  0.5503  0.3919 -0.6789
   75TCq2    O5 1153   1.003   3.222  14.169 -0.0881  0.2376 -0.0235
   75TCq2    O6 1154   1.114   3.100  14.317 -0.0471 -0.3635 -0.6032
   75TCq2    H2 1155   1.278   2.961  14.241 -0.2669  1.1897 -0.2168
   75TCq2    H3 1156   1.040   3.166  13.954 -1.2613 -2.1737 -1.7474
   75TCq2    H4 1157   1.385   2.922  13.826  0.0209 -1.7567  0.9786
   76MPD2     C 1158   0.453   3.189  12.277  0.1471  0.6026  0.3399
   76MPD2    C1 1159   0.417   3.167  12.142  0.2795 -0.1552 -0.3978
   76MPD2    C2 1160   0.423   3.031  12.105 -0.3597 -0.2454 -0.0761
   76MPD2    C3 1161   0.471   2.933  12.181  0.1118  0.1972 -0.4221
   76MPD2    C4 1162   0.506   2.959  12.312  0.0378 -0.4348 -0.4519
   76MPD2    C5 1163   0.500   3.087  12.359  0.3679  0.3351 -0.0942
   76MPD2     H 1164   0.409   3.017  11.998 -0.6807 -2.9585  0.3277
   76MPD2    H1 1165   0.550   2.883  12.376 -0.7557 -1.6295 -1.3247
   76MPD2    H2 1166   0.449   3.290  12.316  2.1591  1.1892 -0.9518
   76MPD2    H3 1167   0.527   3.116  12.460  1.3939 -2.3383  0.4043
   76MPD2     N 1168   0.491   2.802  12.142  0.5577 -0.2018 -0.5029
   76MPD2    H5 1169   0.539   2.747  12.212 -0.6991 -0.1494  0.3785
   76MPD2    N1 1170   0.378   3.263  12.045 -0.2007  0.1139 -0.1753
   76MPD2    H7 1171   0.367   3.219  11.954 -2.1860 -0.3555  0.2823
   77TCq2    C1 1172   0.450   2.742  12.019 -1.2492  0.4078 -0.6016
   77TCq2    O2 1173   0.388   2.786  11.922 -0.5967  0.4056 -0.6026
   77TCq2    C2 1174   0.477   2.595  12.012 -0.1825  0.0930 -0.4479
   77TCq2    C3 1175   0.453   2.536  11.894 -0.0036  0.5565 -0.3174
   77TCq2    C4 1176   0.463   2.394  11.890 -0.7386  0.1117 -0.1889
   77TCq2    C5 1177   0.510   2.320  11.998  0.0848 -0.1354 -0.6898
   77TCq2    C6 1178   0.543   2.390  12.116  0.2767 -0.6634 -0.2357
   77TCq2    C7 1179   0.510   2.521  12.124 -0.7001  0.1566 -0.6082
   77TCq2    C8 1180   0.616   2.324  12.226 -0.8592  0.3404 -0.1543
   77TCq2    O4 1181   0.604   2.203  12.222 -0.2219  0.4607  0.7126
   77TCq2    C9 1182   0.425   2.329  11.769 -0.4492  0.4937 -0.7581
   77TCq2    O5 1183   0.445   2.205  11.761 -0.2577  0.4733 -0.0426
   77TCq2    O6 1184   0.382   2.403  11.683  0.2137 -0.5317 -0.0084
   77TCq2    H2 1185   0.411   2.599  11.816 -0.4553  0.2018 -0.3612
   77TCq2    H3 1186   0.516   2.212  11.988  1.6778 -0.2174  1.1834
   77TCq2    H4 1187   0.527   2.565  12.221  0.0707  0.0664 -0.7017
   78MPD1     C 1188   3.609   4.546   2.161 -0.2866 -0.0147 -0.5562
   78MPD1    C1 1189   3.498   4.586   2.093 -0.0768  0.2308 -0.2716
   78MPD1    C2 1190   3.479   4.525   1.968 -0.4142 -0.4111  0.1777
   78MPD1    C3 1191   3.574   4.450   1.903  0.5386 -0.3932  0.0356
   78MPD1    C4 1192   3.693   4.427   1.971 -0.1855  0.4736  0.3332
   78MPD1    C5 1193   3.711   4.473   2.096 -0.2354 -0.0675 -0.4662
   78MPD1     H 1194   3.381   4.539   1.923 -0.6529 -0.0745  0.8048
   78MPD1    H1 1195   3.778   4.369   1.939  1.7228  4.1736 -1.2451
   78MPD1    H2 1196   3.626   4.579   2.262  0.7321 -1.0870 -0.3809
   78MPD1    H3 1197   3.805   4.447   2.144 -0.3016 -2.8720 -1.8804
   78MPD1     N 1198   3.560   4.388   1.778 -0.1653 -0.3942  0.2239
   78MPD1    H5 1199   3.644   4.341   1.745  0.3259  0.9575 -0.4355
   78MPD1    N1 1200   3.391   4.644   2.164  0.0306  0.0099  0.5858
   78MPD1    H6 1201   3.415   4.695   2.248 -1.8161  1.7382  0.0604
   78MPD1    H7 1202   3.338   4.708   2.106  0.2025 -1.5527 -1.3212
   79TCq2    C1 1203   3.459   4.400   1.690 -0.0843 -0.5425 -0.8844
   79TCq2    O2 1204   3.341   4.439   1.706  0.1885 -0.1871  0.2925
   79TCq2    C2 1205   3.500   4.379   1.551  0.0648 -0.1753  0.4734
   79TCq2    C3 1206   3.399   4.376   1.464 -0.1942  0.2275 -0.6407
   79TCq2    C4 1207   3.428   4.404   1.332 -0.2355 -0.6874 -0.9174
   79TCq2    C5 1208   3.556   4.413   1.284  0.3382  0.6515  0.5917
   79TCq2    C6 1209   3.659   4.421   1.377  0.6270  0.2308 -0.4428
   79TCq2    C7 1210   3.629   4.401   1.507  0.4000  0.4730  0.5913
   79TCq2    C8 1211   3.796   4.402   1.339 -0.2787  0.3363 -0.4178
   79TCq2    O4 1212   3.881   4.390   1.428 -0.1025 -0.1664 -0.9398
   79TCq2    C9 1213   3.317   4.432   1.240  0.2281 -0.2216  0.1902
   79TCq2    O5 1214   3.204   4.439   1.288  0.3639 -0.2542 -0.6571
   79TCq2    O6 1215   3.349   4.446   1.118 -0.4093 -0.4348  0.0508
   79TCq2    H2 1216   3.295   4.367   1.495 -0.7144 -0.1351 -2.4474
   79TCq2    H3 1217   3.575   4.435   1.180 -1.5865  1.1471  0.3310
   79TCq2    H4 1218   3.717   4.395   1.570  0.2251  5.3451  1.3117
   80MPD2     C 1219   4.493   3.162  12.329 -0.3054 -0.3522 -0.3508
   80MPD2    C1 1220   4.361   3.207  12.312  0.4182  0.2280  0.8235
   80MPD2    C2 1221   4.281   3.251  12.417  0.1570 -0.0510  0.0504
   80MPD2    C3 1222   4.341   3.263  12.541  0.2847  0.2051 -0.1175
   80MPD2    C4 1223   4.468   3.231  12.555 -0.9162 -0.1057  0.4519
   80MPD2    C5 1224   4.549   3.184  12.455  0.0144  0.0904 -0.7220
   80MPD2     H 1225   4.173   3.259  12.417 -0.0382 -2.4410  0.9834
   80MPD2    H1 1226   4.501   3.217  12.657  0.2250 -0.4308  0.0309
   80MPD2    H2 1227   4.547   3.124  12.244 -0.0078  0.3577 -0.4754
   80MPD2    H3 1228   4.654   3.168  12.475 -0.3566 -0.2601  0.9228
   80MPD2     N 1229   4.277   3.315  12.657 -0.6213 -0.0800  0.0850
   80MPD2    H5 1230   4.349   3.358  12.713 -1.2573  0.4534  0.4886
   80MPD2    N1 1231   4.291   3.197  12.188 -0.2715  0.2991  0.4964
   80MPD2    H7 1232   4.192   3.215  12.187 -0.3515 -0.0106  2.1907
   81TCq2    C1 1233   4.354   3.167  12.068 -0.3880 -1.1121 -0.3050
   81TCq2    O2 1234   4.473   3.176  12.043 -0.4462 -0.2216 -0.0078
   81TCq2    C2 1235   4.274   3.119  11.955 -0.2786 -0.4503  0.3309
   81TCq2    C3 1236   4.334   3.103  11.831  0.3603 -0.7587  0.1091
   81TCq2    C4 1237   4.267   3.034  11.732 -0.3130 -0.0552 -0.5133
   81TCq2    C5 1238   4.152   2.963  11.765 -0.6661  0.8640  0.3918
   81TCq2    C6 1239   4.104   2.963  11.895  0.3567  0.8482 -0.2043
   81TCq2    C7 1240   4.159   3.051  11.985 -0.6374 -0.2284  0.1576
   81TCq2    C8 1241   3.981   2.884  11.921 -0.1706  0.0360  0.3765
   81TCq2    O4 1242   3.912   2.853  11.825  0.0866 -0.0445  0.1165
   81TCq2    C9 1243   4.333   3.023  11.606  0.1773 -0.6915  0.8733
   81TCq2    O5 1244   4.295   2.939  11.519 -0.3183  1.1211 -0.1897
   81TCq2    O6 1245   4.452   3.065  11.605 -0.0433  0.5017 -0.0504
   81TCq2    H2 1246   4.428   3.157  11.821  0.8312 -1.8027 -1.0287
   81TCq2    H3 1247   4.100   2.900  11.694 -2.2390  0.1414  2.1765
   81TCq2    H4 1248   4.119   3.061  12.085 -1.3912 -0.6365 -0.1017
   82MPD2     C 1249   2.643   2.772  11.336 -0.9652  0.4027  0.1050
   82MPD2    C1 1250   2.532   2.696  11.365 -0.2420  0.1493  0.3236
   82MPD2    C2 1251   2.546   2.576  11.430  0.0357  0.0524  0.8750
   82MPD2    C3 1252   2.669   2.541  11.479 -0.8865  0.3035 -0.2357
   82MPD2    C4 1253   2.777   2.618  11.456 -0.3365  1.0754  0.0531
   82MPD2    C5 1254   2.769   2.732  11.381  0.2257  0.3067  0.1958
   82MPD2     H 1255   2.467   2.502  11.428 -1.0516  1.2324  0.5019
   82MPD2    H1 1256   2.870   2.579  11.497 -1.1328 -1.3425 -0.4759
   82MPD2    H2 1257   2.635   2.863  11.278 -1.7154  0.9016  0.9983
   82MPD2    H3 1258   2.857   2.792  11.363  0.2427  0.3216  0.3225
   82MPD2     N 1259   2.694   2.417  11.543 -0.4045 -0.6527 -0.3937
   82MPD2    H5 1260   2.791   2.397  11.566 -0.2692 -1.0359 -1.2854
   82MPD2    N1 1261   2.408   2.734  11.308 -0.1425 -0.6569  0.1840
   82MPD2    H7 1262   2.414   2.819  11.253  0.6119 -1.6336 -1.2253
   83TCq2    C1 1263   2.600   2.322  11.577  0.7228 -0.1470 -0.4298
   83TCq2    O2 1264   2.476   2.327  11.574 -0.1329  0.7682 -0.0973
   83TCq2    C2 1265   2.651   2.191  11.577 -0.1492 -0.1435  0.7669
   83TCq2    C3 1266   2.763   2.156  11.503  0.0153  0.1028 -0.0057
   83TCq2    C4 1267   2.784   2.023  11.478  0.2179  0.5085 -0.0923
   83TCq2    C5 1268   2.702   1.929  11.517 -0.0899 -0.1608  0.9102
   83TCq2    C6 1269   2.592   1.962  11.590  0.2841  0.0396  0.0974
   83TCq2    C7 1270   2.569   2.095  11.624  0.4248 -0.2724 -0.1256
   83TCq2    C8 1271   2.499   1.860  11.636  0.3347  0.1348  0.3283
   83TCq2    O4 1272   2.443   1.895  11.740 -0.6043 -0.4200  0.3101
   83TCq2    C9 1273   2.899   1.979  11.400 -0.2799  0.1666 -0.7050
   83TCq2    O5 1274   2.950   2.065  11.323  0.0074  0.5706  0.6846
   83TCq2    O6 1275   2.935   1.857  11.406 -1.3240  0.4699  0.2407
   83TCq2    H2 1276   2.837   2.226  11.466  0.8900 -1.3990 -1.0620
   83TCq2    H3 1277   2.728   1.825  11.502 -0.0214  0.0266 -0.2589
   83TCq2    H4 1278   2.481   2.124  11.681 -0.3046  1.0866 -1.9116
   84TCq2    C1 1279   4.187   1.425  10.800 -0.1194 -0.1439 -0.3744
   84TCq2    O2 1280   4.091   1.354  10.785  0.4644  0.2213  0.2726
   84TCq2    C2 1281   4.212   1.468  10.941 -0.1839  0.5363 -0.3909
   84TCq2    C3 1282   4.316   1.561  10.961  0.4743  0.0756  0.4204
   84TCq2    C4 1283   4.315   1.635  11.075  0.7321 -0.4461 -0.6455
   84TCq2    C5 1284   4.230   1.604  11.172 -0.8639  0.3052  0.2194
   84TCq2    C6 1285   4.130   1.515  11.149  0.9917 -0.5365 -1.1251
   84TCq2    C7 1286   4.116   1.450  11.032  0.1488  0.5136  0.5503
   84TCq2    C8 1287   4.035   1.480  11.253 -0.1174 -0.3791  0.4625
   84TCq2    O4 1288   3.941   1.409  11.221 -0.3729 -0.2740  0.0951
   84TCq2    C9 1289   4.426   1.719  11.111  0.2697 -0.2359 -0.3755
   84TCq2    O5 1290   4.536   1.683  11.066  0.4149 -0.0871 -0.0469
   84TCq2    O6 1291   4.416   1.798  11.206 -0.1592 -0.6454  0.1653
   84TCq2    H2 1292   4.393   1.582  10.887 -0.4159  2.7197  0.2383
   84TCq2    H3 1293   4.244   1.659  11.265  0.2539 -0.8102  0.7060
   84TCq2    H4 1294   4.039   1.375  11.016  0.8680  0.3585 -2.2204
   85MPD2     C 1295   4.165   4.286  16.228 -0.1014 -0.1856  0.3818
   85MPD2    C1 1296   4.110   4.302  16.104 -0.0331  0.2827 -0.6038
   85MPD2    C2 1297   4.138   4.421  16.034 -0.2271  0.1458  0.3617
   85MPD2    C3 1298   4.234   4.514  16.080  0.2738 -0.7738  0.1913
   85MPD2    C4 1299   4.288   4.495  16.204 -0.2548 -0.2457 -0.2023
   85MPD2    C5 1300   4.245   4.383  16.280 -0.3611  0.5521 -0.4870
   85MPD2     H 1301   4.086   4.432  15.940  0.7903 -3.1866 -0.5992
   85MPD2    H1 1302   4.358   4.563  16.250 -1.3539  1.3835 -0.9597
   85MPD2    H2 1303   4.150   4.196  16.288 -2.8638  1.1074  1.6621
   85MPD2    H3 1304   4.296   4.375  16.375 -1.7307  2.5141  0.4074
   85MPD2     N 1305   4.268   4.625  15.999  0.2339  0.3301  0.0285
   85MPD2    H5 1306   4.240   4.623  15.901  2.9821 -2.8500 -0.6930
   85MPD2    N1 1307   4.026   4.205  16.040  0.0382  0.1283  0.2499
   85MPD2    H7 1308   3.997   4.228  15.946 -0.5444  1.0883  0.6632
   86TCq2    C1 1309   4.338   0.011  16.037 -0.1703  0.1867 -0.5387
   86TCq2    O2 1310   4.387   0.039  16.145  0.3896 -0.5067 -0.4051
   86TCq2    C2 1311   4.369   0.110  15.931  0.7705 -0.2553 -0.0200
   86TCq2    C3 1312   4.302   0.226  15.930  0.1748 -0.0021  0.2286
   86TCq2    C4 1313   4.355   0.338  15.878 -0.4645  0.1652 -0.5453
   86TCq2    C5 1314   4.479   0.333  15.827  0.0344  0.2424  0.4320
   86TCq2    C6 1315   4.551   0.215  15.829 -0.3112 -0.3333  0.4070
   86TCq2    C7 1316   4.504   0.110  15.898  0.7498  0.1827  0.1275
   86TCq2    C8 1317   4.655   0.184  15.738 -0.0809 -0.3489  0.8508
   86TCq2    O4 1318   4.671   0.064  15.720  0.7066 -0.6870 -0.2000
   86TCq2    C9 1319   4.275   0.458  15.872 -0.2895 -0.1456  0.0065
   86TCq2    O5 1320   4.337   0.565  15.863  0.0836  0.1923  0.0490
   86TCq2    O6 1321   4.156   0.448  15.896  0.1863  0.1798  0.6090
   86TCq2    H2 1322   4.203   0.235  15.973  0.0901 -1.2572  0.2850
   86TCq2    H3 1323   4.529   0.416  15.778 -0.4126  0.9682  1.1906
   86TCq2    H4 1324   4.547   0.011  15.890  2.0802  0.8826 -1.1959
   87MPD2     C 1325   2.195   3.262   1.149  0.0678 -0.0639 -0.1082
   87MPD2    C1 1326   2.239   3.384   1.198  0.2094 -0.2561  0.3769
   87MPD2    C2 1327   2.154   3.492   1.190  0.2520  0.0140 -0.5374
   87MPD2    C3 1328   2.025   3.481   1.145 -0.3196  0.2364  0.5864
   87MPD2    C4 1329   1.981   3.360   1.105  0.5170 -0.0797 -0.0584
   87MPD2    C5 1330   2.069   3.251   1.097  0.0199 -0.2738 -0.5509
   87MPD2     H 1331   2.192   3.589   1.219  0.2591  0.0507 -0.6706
   87MPD2    H1 1332   1.884   3.344   1.058  0.5974 -1.2638  0.1917
   87MPD2    H2 1333   2.257   3.174   1.151  0.8721  0.5727  3.0750
   87MPD2    H3 1334   2.042   3.157   1.051 -0.7030  0.4794 -1.6803
   87MPD2     N 1335   1.929   3.580   1.147 -0.3445 -0.0212 -0.1324
   87MPD2    H5 1336   1.842   3.546   1.106  0.9269 -2.6854 -0.6078
   87MPD2    N1 1337   2.376   3.391   1.239 -0.0468  0.0248  0.1657
   87MPD2    H7 1338   2.432   3.308   1.223  1.4075  0.4627  2.8793
   88TCq2    C1 1339   2.434   3.495   1.308 -0.0985 -0.1674  0.7567
   88TCq2    O2 1340   2.374   3.598   1.345  0.6239  0.2814 -0.5471
   88TCq2    C2 1341   2.560   3.475   1.359  0.4388  0.0005 -0.1958
   88TCq2    C3 1342   2.605   3.548   1.465 -0.4888  0.3592  0.2590
   88TCq2    C4 1343   2.730   3.530   1.506  0.1537 -0.3716  0.2464
   88TCq2    C5 1344   2.813   3.442   1.446 -0.1538  0.3568  0.2694
   88TCq2    C6 1345   2.772   3.361   1.346  0.3117  0.0562  0.2392
   88TCq2    C7 1346   2.647   3.385   1.298  0.6824  0.6508 -0.3764
   88TCq2    C8 1347   2.865   3.285   1.264 -0.1687  0.2432  0.4175
   88TCq2    O4 1348   2.822   3.191   1.200 -0.3241 -0.8689  0.3666
   88TCq2    C9 1349   2.782   3.597   1.625 -0.0453  0.4587 -0.2559
   88TCq2    O5 1350   2.907   3.614   1.632 -0.8158 -0.1553  0.0049
   88TCq2    O6 1351   2.701   3.664   1.693 -0.2227 -0.2063  0.0166
   88TCq2    H2 1352   2.533   3.596   1.530 -0.9979 -1.3205  0.9551
   88TCq2    H3 1353   2.907   3.420   1.495  0.1271  0.4909 -0.2041
   88TCq2    H4 1354   2.637   3.339   1.200 -1.4865  0.0519  0.1332
   89MPD2     C 1355   3.136   0.864   1.998  0.5289  0.3370  0.1841
   89MPD2    C1 1356   3.081   0.777   1.905  0.4971  0.0964  0.1015
   89MPD2    C2 1357   3.168   0.717   1.813  0.3155 -0.8236  0.0267
   89MPD2    C3 1358   3.298   0.761   1.813 -0.8876  0.1269 -0.1033
   89MPD2    C4 1359   3.350   0.859   1.897  0.2041  0.1093 -0.7471
   89MPD2    C5 1360   3.266   0.908   1.993 -0.5940  0.3625 -0.0375
   89MPD2     H 1361   3.130   0.639   1.747 -0.3744  1.2709 -2.0586
   89MPD2    H1 1362   3.445   0.911   1.892  0.2995  0.2481  2.8514
   89MPD2    H2 1363   3.074   0.924   2.064 -1.3302 -0.6958 -0.6406
   89MPD2    H3 1364   3.295   0.988   2.059  0.1685  0.5510 -0.5958
   89MPD2     N 1365   3.375   0.727   1.699  0.2901 -0.8602  0.1054
   89MPD2    H5 1366   3.321   0.691   1.621 -1.6833 -0.4616  1.2973
   89MPD2    N1 1367   2.944   0.737   1.915  0.3379 -0.0539  0.0061
   89MPD2    H7 1368   2.902   0.668   1.853 -1.8002 -1.0864  2.5884
   90TCq2    C1 1369   3.505   0.771   1.681 -0.0562 -0.2038 -0.3905
   90TCq2    O2 1370   3.591   0.786   1.763 -0.1102  0.1991 -0.5617
   90TCq2    C2 1371   3.542   0.769   1.536 -0.0304 -1.0056  0.3408
   90TCq2    C3 1372   3.671   0.735   1.505  0.1308  0.1258  0.4204
   90TCq2    C4 1373   3.702   0.733   1.368 -0.4248 -1.4858 -0.9375
   90TCq2    C5 1374   3.618   0.777   1.274 -0.4642  0.0684  0.1889
   90TCq2    C6 1375   3.496   0.811   1.305  0.4182 -0.3210 -0.6039
   90TCq2    C7 1376   3.453   0.793   1.432  0.3865  0.7159  0.4787
   90TCq2    C8 1377   3.398   0.850   1.209  0.2551  0.5653 -0.8680
   90TCq2    O4 1378   3.283   0.810   1.222 -0.3303 -0.1614  0.3702
   90TCq2    C9 1379   3.844   0.703   1.330 -0.9606  0.6396  0.1187
   90TCq2    O5 1380   3.868   0.667   1.215 -0.1173 -0.1097 -1.0069
   90TCq2    O6 1381   3.917   0.663   1.426  0.1069 -0.4269 -0.0043
   90TCq2    H2 1382   3.747   0.706   1.577  1.1081 -3.7290 -2.1693
   90TCq2    H3 1383   3.654   0.776   1.172  2.6223 -0.5633  1.2940
   90TCq2    H4 1384   3.356   0.836   1.456 -0.2055  0.3554 -1.2984
   91TMC2    C1 1385   4.666   1.049  16.598 -0.1816 -0.9201 -0.0839
   91TMC2    C2 1386   4.657   1.117  16.479 -0.0799 -0.1378  0.0383
   91TMC2    C3 1387   4.544   1.192  16.460  0.1262 -0.1678 -0.2137
   91TMC2    C4 1388   4.560   1.038  16.686  0.1137  0.0403  0.3692
   91TMC2    C5 1389   4.452   1.114  16.660 -0.3588  0.0630 -0.2723
   91TMC2    C6 1390   4.438   1.195  16.554  0.0063 -0.6385 -0.0383
   91TMC2     C 1391   0.061   0.967  16.624 -0.1096 -0.5558 -0.5738
   91TMC2     O 1392   0.059   0.898  16.726 -0.5286  0.0359 -0.3697
   91TMC2     H 1393   0.007   1.131  16.401 -0.3523 -1.5914 -0.4876
   91TMC2    H1 1394   4.565   0.977  16.775  0.2247  1.7716  1.5511
   91TMC2    H2 1395   4.354   1.262  16.542 -0.3561 -1.2440 -0.7864
   91TMC2    C7 1396   4.340   1.097  16.742 -0.1570 -0.0201 -0.0632
   91TMC2    C8 1397   4.540   1.280  16.340 -0.6198 -0.6528 -0.3056
   91TMC2    O1 1398   4.350   1.052  16.854  0.7402  0.3206 -0.1073
   91TMC2    O2 1399   4.642   1.300  16.278  0.7776  0.2663 -0.7887
   91TMC2    O5 1400   4.418   1.292  16.285  0.0778  0.1659  0.0422
   91TMC2    H5 1401   4.345   1.265  16.346  1.1413  0.9771  1.6901
   92MPD2     C 1402   0.286   0.776  16.597 -0.0761  0.3345  0.6260
   92MPD2    C1 1403   0.269   0.891  16.520 -0.2615  1.2117  0.6488
   92MPD2    C2 1404   0.371   0.923  16.429  0.1349 -0.1121 -0.4397
   92MPD2    C3 1405   0.485   0.842  16.424 -0.2323 -0.0984  0.6727
   92MPD2    C4 1406   0.493   0.727  16.493  0.4021 -0.9822  1.1350
   92MPD2    C5 1407   0.400   0.705  16.588 -0.3145 -0.3315 -1.1887
   92MPD2     H 1408   0.380   1.024  16.391 -1.9487  0.4583  0.5679
   92MPD2    H1 1409   0.573   0.654  16.482  1.1746 -0.2205  1.7547
   92MPD2    H2 1410   0.207   0.739  16.662 -1.1644 -0.4444 -1.1432
   92MPD2    H3 1411   0.431   0.616  16.642  0.7673  0.7148 -0.0650
   92MPD2     N 1412   0.569   0.872  16.314 -0.3204  0.1583 -0.1137
   92MPD2    H5 1413   0.548   0.945  16.247 -4.4024  0.9729  2.0091
   92MPD2    N1 1414   0.154   0.975  16.519 -0.5667  0.1570  0.0331
   92MPD2    H7 1415   0.145   1.049  16.451 -1.6592  1.3923  1.5259
   93MPD2     C 1416   1.360   1.014  14.034 -0.2272 -0.1905 -0.0133
   93MPD2    C1 1417   1.370   0.925  13.927 -0.6412 -0.5261  0.6823
   93MPD2    C2 1418   1.255   0.870  13.875 -0.1176  0.0767  0.1007
   93MPD2    C3 1419   1.128   0.900  13.928 -0.4102  0.6959 -0.1557
   93MPD2    C4 1420   1.122   0.987  14.030  0.3393 -1.1112 -0.3689
   93MPD2    C5 1421   1.235   1.051  14.073  0.3749 -0.3041  0.4369
   93MPD2     H 1422   1.258   0.791  13.800  0.5173 -2.0041  2.3128
   93MPD2    H1 1423   1.028   1.020  14.073  1.1252  0.6930 -0.0315
   93MPD2    H2 1424   1.443   1.062  14.084  0.1858 -2.0053  1.0482
   93MPD2    H3 1425   1.224   1.125  14.151  0.7018 -0.3704  0.5468
   93MPD2     N 1426   1.004   0.836  13.887  0.2474  0.2633  0.1100
   93MPD2    H5 1427   0.923   0.863  13.941  0.0147 -1.1136  0.4311
   93MPD2    N1 1428   1.492   0.879  13.878  0.8220  0.1288  0.1018
   93MPD2    H7 1429   1.485   0.813  13.802  0.1893  1.3405 -0.8854
   94TCq2    C1 1430   1.617   0.910  13.928  0.0071  0.4409 -0.5724
   94TCq2    O2 1431   1.654   0.986  14.012  0.2059 -0.2713  0.1803
   94TCq2    C2 1432   1.725   0.832  13.862 -0.2762 -0.9645  0.2118
   94TCq2    C3 1433   1.698   0.753  13.753  0.0547 -0.7312 -0.0234
   94TCq2    C4 1434   1.802   0.672  13.710 -0.7569 -0.1214 -0.6937
   94TCq2    C5 1435   1.926   0.662  13.778 -0.3694  0.1876  0.2808
   94TCq2    C6 1436   1.939   0.742  13.887  0.3240 -0.4161 -0.3089
   94TCq2    C7 1437   1.845   0.824  13.933  0.5277 -0.3777  0.1933
   94TCq2    C8 1438   2.076   0.754  13.941 -0.1685 -0.0412  0.1169
   94TCq2    O4 1439   2.163   0.670  13.922 -0.1720  0.1802  0.0970
   94TCq2    C9 1440   1.776   0.587  13.597  0.2114  0.2536 -0.3484
   94TCq2    O5 1441   1.658   0.584  13.555  0.7004  0.0879  0.4430
   94TCq2    O6 1442   1.875   0.541  13.535  0.9110  0.0003 -0.5633
   94TCq2    H2 1443   1.605   0.760  13.696  0.6176 -0.4444 -0.9031
   94TCq2    H3 1444   2.002   0.590  13.751  1.6847  2.5079 -0.0215
   94TCq2    H4 1445   1.854   0.878  14.027 -1.8457 -0.6895  0.6055
   95TMC2    C1 1446   1.490   2.411  16.066  0.6918 -0.5096  0.5802
   95TMC2    C2 1447   1.528   2.486  16.179 -0.4127 -0.8915 -0.0176
   95TMC2    C3 1448   1.432   2.494  16.283  0.2557 -0.2078 -0.7472
   95TMC2    C4 1449   1.378   2.331  16.063 -0.6966 -0.2274 -0.1185
   95TMC2    C5 1450   1.296   2.338  16.175 -0.6296  0.2674  0.9151
   95TMC2    C6 1451   1.322   2.414  16.284  0.1546  0.8369  0.0454
   95TMC2     C 1452   1.583   2.401  15.959  0.0883  0.3492  0.7431
   95TMC2     O 1453   1.657   2.491  15.930  0.8032  0.2912 -0.2161
   95TMC2     H 1454   1.611   2.555  16.168 -0.9425 -0.1402  0.6577
   95TMC2    H1 1455   1.346   2.281  15.972  2.8177 -1.2386 -0.7708
   95TMC2    H2 1456   1.260   2.400  16.372  4.6498 -2.0451  2.7411
   95TMC2    C7 1457   1.163   2.277  16.172  0.0056 -0.1067  0.1313
   95TMC2    C8 1458   1.471   2.560  16.404 -0.6465  0.0925  0.3862
   95TMC2    O1 1459   1.070   2.328  16.231 -0.2775 -0.5577  0.1447
   95TMC2    O2 1460   1.590   2.577  16.439  0.0267 -0.1377 -0.4115
   95TMC2    O5 1461   1.366   2.641  16.420 -0.7279  0.3536 -0.2981
   95TMC2    H5 1462   1.294   2.610  16.361 -1.7980  0.6181  0.8421
   96MPD2     C 1463   1.760   2.158  15.543 -0.8240 -0.5462 -0.8340
   96MPD2    C1 1464   1.793   2.280  15.591 -0.2889  0.5890  0.0903
   96MPD2    C2 1465   1.733   2.331  15.705 -0.0090  0.4780 -0.4998
   96MPD2    C3 1466   1.643   2.253  15.765 -0.1108  0.8855 -0.8469
   96MPD2    C4 1467   1.604   2.138  15.707 -0.0543 -0.1130 -0.1569
   96MPD2    C5 1468   1.660   2.089  15.598 -0.3595  0.7756  0.6916
   96MPD2     H 1469   1.762   2.429  15.742  2.4442  0.6475 -2.8519
   96MPD2    H1 1470   1.533   2.073  15.758 -0.8803  0.3707 -0.6862
   96MPD2    H2 1471   1.814   2.104  15.466 -0.8312  0.1019 -1.2878
   96MPD2    H3 1472   1.621   1.996  15.559  1.6528 -0.0444  0.6644
   96MPD2     N 1473   1.570   2.284  15.885  0.3444 -0.1784  0.0417
   96MPD2    H5 1474   1.495   2.221  15.910 -0.1675 -0.8574 -3.2396
   96MPD2    N1 1475   1.895   2.354  15.518  0.0207  0.4284  0.3263
   96MPD2    H7 1476   1.928   2.311  15.431  1.2444 -1.5812  1.7832
   97MPD2     C 1477   0.007   0.126   1.143 -0.1272 -0.4521  0.0329
   97MPD2    C1 1478   4.620   0.047   1.116 -0.4636 -0.0589  0.1415
   97MPD2    C2 1479   4.593   0.006   0.986  0.7000  0.1452 -0.3116
   97MPD2    C3 1480   4.676   0.042   0.879  0.2580 -0.3742 -0.2443
   97MPD2    C4 1481   0.060   0.119   0.908  0.2054  0.1017 -0.1354
   97MPD2    C5 1482   0.085   0.156   1.036  0.3819  0.4821 -0.0620
   97MPD2     H 1483   4.501   4.680   0.956  0.7247 -1.2762  2.0002
   97MPD2    H1 1484   0.127   0.148   0.828  1.1805 -0.4333  0.4991
   97MPD2    H2 1485   0.032   0.162   1.242  0.1589  1.4224 -0.7170
   97MPD2    H3 1486   0.173   0.216   1.056  1.8369 -1.4668 -0.6468
   97MPD2     N 1487   4.638   0.014   0.744  0.2341 -0.1471 -0.2822
   97MPD2    H5 1488   4.699   0.048   0.670  0.3580 -0.2543 -0.2296
   97MPD2    N1 1489   4.541   0.010   1.229 -0.8394 -0.5668 -0.4583
   97MPD2    H7 1490   4.570   0.025   1.325  1.1521  3.8794 -1.7658
   98TCq2    C1 1491   4.537   4.656   0.699 -0.2893  0.3522 -0.1659
   98TCq2    O2 1492   4.456   4.587   0.762  0.2120 -0.0901  0.1680
   98TCq2    C2 1493   4.512   4.667   0.557 -1.4821  0.2440 -0.6144
   98TCq2    C3 1494   4.424   4.577   0.503  0.0208 -0.3054  0.0201
   98TCq2    C4 1495   4.398   4.580   0.369  0.1623 -0.2785  0.1307
   98TCq2    C5 1496   4.463   4.672   0.290  0.6251  0.6348 -0.1396
   98TCq2    C6 1497   4.556   0.033   0.346 -0.4842  0.1324 -0.1561
   98TCq2    C7 1498   4.580   0.034   0.478  0.3754 -0.2626 -0.2722
   98TCq2    C8 1499   4.639   0.125   0.275  0.5484  0.5616 -0.5381
   98TCq2    O4 1500   4.704   0.214   0.330 -0.0648  0.0779  0.2036
   98TCq2    C9 1501   4.300   4.485   0.315 -0.0483  0.3120 -0.2193
   98TCq2    O5 1502   4.260   4.393   0.392 -0.2349  0.6197  0.2588
   98TCq2    O6 1503   4.266   4.497   0.195  0.8329 -0.4358 -0.5276
   98TCq2    H2 1504   4.376   4.504   0.568 -2.6108  2.0098  0.6918
   98TCq2    H3 1505   4.427   4.672   0.187 -0.9940  1.8577  0.4191
   98TCq2    H4 1506   4.647   0.104   0.526 -0.8904  0.6947  0.1309
   99MPD2     C 1507   3.651   2.008   1.410 -0.3324  0.1633 -0.2431
   99MPD2    C1 1508   3.530   2.082   1.423  0.7784 -0.4726  0.1272
   99MPD2    C2 1509   3.447   2.087   1.317  0.2739  1.1751 -0.2087
   99MPD2    C3 1510   3.474   2.001   1.207  0.1883  0.0140  0.3477
   99MPD2    C4 1511   3.585   1.924   1.201 -0.0782  0.4362 -0.4144
   99MPD2    C5 1512   3.672   1.931   1.306 -0.5032 -0.0142  0.0903
   99MPD2     H 1513   3.365   2.158   1.312  0.4565  1.4280  0.3659
   99MPD2    H1 1514   3.610   1.857   1.119  0.7100 -2.0940  1.8691
   99MPD2    H2 1515   3.733   2.010   1.480  1.1644  2.4287 -2.0475
   99MPD2    H3 1516   3.758   1.866   1.310 -0.7260 -0.2059  1.5458
   99MPD2     N 1517   3.369   1.995   1.106  0.6602 -0.0214 -0.3246
   99MPD2    H5 1518   3.285   2.049   1.126  1.4602  1.5344 -1.1635
   99MPD2    N1 1519   3.504   2.180   1.523 -0.6383 -0.3319  0.2875
   99MPD2    H7 1520   3.422   2.239   1.515  1.2253  2.2401  0.4236
  100TCq2    C1 1521   3.583   2.196   1.633 -0.4062  0.1821 -0.0736
  100TCq2    O2 1522   3.676   2.125   1.666 -0.4798 -0.1205  0.2149
  100TCq2    C2 1523   3.565   2.311   1.719 -0.1590 -0.5170  0.4081
  100TCq2    C3 1524   3.636   2.316   1.842 -0.4092  0.6398  0.4922
  100TCq2    C4 1525   3.588   2.392   1.945  0.5022 -0.0791  0.1039
  100TCq2    C5 1526   3.479   2.477   1.926  0.5547  0.7571  0.2302
  100TCq2    C6 1527   3.411   2.463   1.809 -0.1192 -0.4290 -0.2394
  100TCq2    C7 1528   3.448   2.377   1.708  0.3574  0.2885 -0.7112
  100TCq2    C8 1529   3.295   2.552   1.799 -0.0651  0.2597 -0.0277
  100TCq2    O4 1530   3.305   2.652   1.867 -0.1803 -0.1199  0.0214
  100TCq2    C9 1531   3.664   2.383   2.067 -0.4968  0.0446  0.2614
  100TCq2    O5 1532   3.640   2.466   2.156  0.8499  0.3616  0.3402
  100TCq2    O6 1533   3.754   2.298   2.065 -0.0595  0.0587  0.0068
  100TCq2    H2 1534   3.723   2.251   1.845  0.0771  1.3195  0.9824
  100TCq2    H3 1535   3.431   2.530   2.008 -0.5213  2.2359 -1.3408
  100TCq2    H4 1536   3.408   2.393   1.608  1.9647 -1.1217 -1.5901
  101MPD2     C 1537   2.964   3.250  12.885 -1.2547  0.5538  0.3123
  101MPD2    C1 1538   2.890   3.315  12.979  0.4813  0.7445  0.1408
  101MPD2    C2 1539   2.826   3.248  13.075 -0.4872  0.1703 -0.7484
  101MPD2    C3 1540   2.835   3.110  13.087 -0.0240 -0.4541 -0.0896
  101MPD2    C4 1541   2.912   3.045  12.996  0.4234 -0.0458  0.2211
  101MPD2    C5 1542   2.977   3.116  12.892 -0.2521  0.1219  0.4458
  101MPD2     H 1543   2.747   3.296  13.132 -1.6355 -0.3791 -1.8627
  101MPD2    H1 1544   2.931   2.939  13.005  0.9391  0.1348  1.2626
  101MPD2    H2 1545   3.026   3.302  12.813 -0.3316  0.0289  0.7313
  101MPD2    H3 1546   3.044   3.065  12.824 -4.6642 -3.8324 -0.9536
  101MPD2     N 1547   2.784   3.036  13.195 -0.0558 -0.0913  0.3634
  101MPD2    H5 1548   2.779   2.936  13.180  0.0842  0.0018 -0.2982
  101MPD2    N1 1549   2.888   3.453  12.956 -0.1494  0.4419 -0.4168
  101MPD2    H7 1550   2.919   3.487  12.866  0.1247 -2.7221 -1.5224
  102TCq2    C1 1551   3.037   3.735  12.674  0.1636 -0.1288  0.0174
  102TCq2    O2 1552   3.138   3.669  12.697 -0.0567  0.7772  0.5525
  102TCq2    C2 1553   2.959   3.769  12.790 -0.1072  0.0237 -0.5636
  102TCq2    C3 1554   2.857   3.854  12.765 -0.7491 -0.1850  0.5733
  102TCq2    C4 1555   2.736   3.834  12.833 -0.4355 -0.4396 -0.0681
  102TCq2    C5 1556   2.734   3.744  12.934  0.4049  0.3855  0.4436
  102TCq2    C6 1557   2.842   3.673  12.975 -0.3502 -0.5512  0.8744
  102TCq2    C7 1558   2.958   3.692  12.899 -0.7467  0.1265 -0.6575
  102TCq2    C8 1559   2.820   3.542  13.033 -0.1295 -0.8850 -0.1554
  102TCq2    O4 1560   2.744   3.525  13.130 -0.4832  0.5273  0.2462
  102TCq2    C9 1561   2.614   3.895  12.794  0.3976 -0.0726 -0.0003
  102TCq2    O5 1562   2.621   3.976  12.697  0.1466  0.3089 -0.2304
  102TCq2    O6 1563   2.508   3.842  12.835  0.2620  0.2962  0.6489
  102TCq2    H2 1564   2.850   3.929  12.687 -0.7391  0.3734  1.1146
  102TCq2    H3 1565   2.636   3.719  12.975  0.3784  1.7043  1.1978
  102TCq2    H4 1566   3.043   3.628  12.919 -2.1842 -1.8637 -0.9175
  103TMC2    C1 1567   1.187   2.659  12.704  0.4598  0.2880  0.3959
  103TMC2    C2 1568   1.285   2.563  12.715  0.7354 -0.1398  0.0824
  103TMC2    C3 1569   1.404   2.597  12.762 -0.2960  0.0503  0.5856
  103TMC2    C4 1570   1.211   2.786  12.743 -0.2510  0.2831 -0.0757
  103TMC2    C5 1571   1.338   2.816  12.794  0.0041 -0.2649 -0.9173
  103TMC2    C6 1572   1.435   2.719  12.808 -0.1604  0.5897 -0.4844
  103TMC2     C 1573   1.070   2.612  12.634  0.5208  0.1306 -0.1414
  103TMC2     O 1574   1.004   2.688  12.565 -0.0239 -0.0255 -0.2597
  103TMC2     H 1575   1.273   2.473  12.655  2.4825 -0.9973  1.0249
  103TMC2    H1 1576   1.119   2.843  12.751 -0.2725  0.5869 -2.5836
  103TMC2    H2 1577   1.537   2.738  12.838 -1.3052  0.4783  3.4959
  103TMC2    C7 1578   1.366   2.955  12.834 -0.0649 -0.1046  0.3576
  103TMC2    C8 1579   1.502   2.495  12.762  0.3185  0.4549  0.3466
  103TMC2    O1 1580   1.443   2.972  12.929  0.2159  0.1406 -0.3939
  103TMC2    O2 1581   1.620   2.517  12.790 -0.6066  0.2286 -0.5161
  103TMC2    O5 1582   1.426   2.388  12.795 -0.1120  0.6409  0.0932
  103TMC2    H5 1583   1.481   2.319  12.837  1.4520  1.5033 -0.5684
  104MPD2     C 1584   0.936   2.275  12.634 -0.2770  0.2603 -0.3326
  104MPD2    C1 1585   0.940   2.403  12.595 -0.4350 -0.2862 -0.1455
  104MPD2    C2 1586   0.868   2.443  12.478 -0.2449  0.2514 -0.0930
  104MPD2    C3 1587   0.785   2.361  12.406  0.2150  0.9655 -0.5718
  104MPD2    C4 1588   0.783   2.231  12.448 -0.2518  0.1553  0.3855
  104MPD2    C5 1589   0.856   2.189  12.558  0.2786  0.0865 -0.3248
  104MPD2     H 1590   0.874   2.546  12.445 -0.5179  1.1698  2.7105
  104MPD2    H1 1591   0.706   2.158  12.421 -1.0625  0.6961  1.2262
  104MPD2    H2 1592   0.999   2.244  12.716 -1.3989  1.1672  0.8545
  104MPD2    H3 1593   0.860   2.085  12.587  2.0654 -0.3410 -2.1270
  104MPD2     N 1594   0.702   2.404  12.300  0.1094  0.3016 -0.2620
  104MPD2    H5 1595   0.714   2.503  12.283  0.9009  0.4954  1.4445
  104MPD2    N1 1596   1.033   2.482  12.669  0.4221  0.5984 -0.0382
  104MPD2    H7 1597   1.077   2.438  12.749 -1.4185 -1.6946 -0.3011
  105MPD2     C 1598   3.516   2.562   0.076  0.0646 -0.3836 -0.1419
  105MPD2    C1 1599   3.396   2.629   0.085  0.2314  0.3151 -0.5481
  105MPD2    C2 1600   3.346   2.645   0.211 -0.6985 -0.2956  0.3998
  105MPD2    C3 1601   3.405   2.615   0.328  0.1147 -0.2576  0.0611
  105MPD2    C4 1602   3.537   2.569   0.324 -0.8093  0.5803 -0.4985
  105MPD2    C5 1603   3.582   2.533   0.194 -0.2807 -0.7811 -0.0556
  105MPD2     H 1604   3.256   2.705   0.212 -0.2425  0.3819  0.8659
  105MPD2    H1 1605   3.596   2.546   0.412  1.5184  2.4525 -1.5984
  105MPD2    H2 1606   3.565   2.554  17.680 -1.6409 -2.6695 -0.8204
  105MPD2    H3 1607   3.682   2.493   0.180  0.1460 -0.1024  1.1110
  105MPD2     N 1608   3.332   2.634   0.450 -0.5877  0.1994  0.7287
  105MPD2    H5 1609   3.232   2.648   0.440 -0.6231  0.9243  2.1477
  105MPD2    N1 1610   3.329   2.681  17.674  0.7188 -0.7021  0.4306
  105MPD2    H7 1611   3.248   2.739  17.689 -0.4563 -2.0723 -0.6007
  106TCq2    C1 1612   3.389   2.639   0.570 -0.7270  0.4362  0.0570
  106TCq2    O2 1613   3.508   2.650   0.588  0.4949  0.0957  0.0026
  106TCq2    C2 1614   3.295   2.664   0.670 -0.1239 -0.3233  0.6154
  106TCq2    C3 1615   3.168   2.621   0.660  0.6881 -0.8467 -0.3485
  106TCq2    C4 1616   3.076   2.656   0.756  0.1208 -0.7521  0.2128
  106TCq2    C5 1617   3.123   2.734   0.858 -1.3137  0.1410  0.4309
  106TCq2    C6 1618   3.250   2.775   0.873  0.7593  0.7235 -0.6925
  106TCq2    C7 1619   3.338   2.743   0.772 -0.3707  0.5865  0.4621
  106TCq2    C8 1620   3.292   2.891   0.958 -0.5658 -0.1947  0.5090
  106TCq2    O4 1621   3.401   2.936   0.931  0.2133  0.4768  0.6462
  106TCq2    C9 1622   2.932   2.614   0.743 -0.7790 -0.2334 -1.2082
  106TCq2    O5 1623   2.849   2.659   0.828 -0.1983 -0.4749 -0.6383
  106TCq2    O6 1624   2.894   2.555   0.638  0.7134  0.2122  0.0553
  106TCq2    H2 1625   3.133   2.556   0.580 -1.4856 -1.5335  1.1606
  106TCq2    H3 1626   3.049   2.768   0.930  0.1371  2.0165  1.0365
  106TCq2    H4 1627   3.442   2.775   0.767 -0.3963  0.3063 -1.8439
  107TMC2    C1 1628   3.209   1.469  11.771  0.3241  0.2581  0.4054
  107TMC2    C2 1629   3.162   1.476  11.649 -0.1579  0.0941  0.1478
  107TMC2    C3 1630   3.257   1.477  11.552  0.8064  0.0920  0.8540
  107TMC2    C4 1631   3.343   1.463  11.805 -0.1430  0.0226 -0.1706
  107TMC2    C5 1632   3.433   1.453  11.707 -0.1473  0.3467 -0.3501
  107TMC2    C6 1633   3.396   1.467  11.577  0.8115  0.0402  0.7987
  107TMC2     C 1634   3.108   1.481  11.878  0.3202  0.7513 -0.0603
  107TMC2     O 1635   3.127   1.426  11.984  0.5719 -0.0411 -0.1355
  107TMC2     H 1636   3.054   1.474  11.638 -0.1901 -0.1104  0.4905
  107TMC2    H1 1637   3.372   1.462  11.909  0.4869 -0.8644 -0.3536
  107TMC2    H2 1638   3.461   1.444  11.494  0.1370  0.8163  0.0567
  107TMC2    C7 1639   3.570   1.453  11.738  0.0301 -0.0354  0.3225
  107TMC2    C8 1640   3.216   1.494  11.417 -0.4472 -0.2919 -0.0233
  107TMC2    O1 1641   3.600   1.447  11.859 -0.5825  0.1831  0.3428
  107TMC2    O2 1642   3.104   1.470  11.379  0.1343  0.5146  0.6939
  107TMC2    O5 1643   3.283   1.601  11.363 -0.4412 -0.6584 -0.3103
  107TMC2    H5 1644   3.366   1.621  11.411  0.4821  1.0381 -2.6613
  108MPD2     C 1645   2.822   1.719  11.896 -0.4829  0.4555  0.2383
  108MPD2    C1 1646   2.905   1.609  11.934 -0.2874  0.8782 -0.6162
  108MPD2    C2 1647   2.883   1.545  12.056 -0.0207 -0.1578 -0.4224
  108MPD2    C3 1648   2.785   1.601  12.139  0.4919  0.1232  0.2635
  108MPD2    C4 1649   2.699   1.700  12.091 -0.1478  0.5107  0.0808
  108MPD2    C5 1650   2.720   1.760  11.975 -0.1206 -0.5464 -0.2429
  108MPD2     H 1651   2.939   1.459  12.090 -0.8080 -0.1512  0.8988
  108MPD2    H1 1652   2.628   1.749  12.157  1.1031  2.0106  0.3113
  108MPD2    H2 1653   2.847   1.757  11.798  0.4241 -2.2960 -0.6005
  108MPD2    H3 1654   2.664   1.848  11.947 -2.8930 -1.7459  1.4413
  108MPD2     N 1655   2.763   1.555  12.272 -0.0719 -0.3640  0.2482
  108MPD2    H5 1656   2.670   1.575  12.307 -0.4663  2.5334 -2.3995
  108MPD2    N1 1657   3.008   1.573  11.842  0.1500  0.2522 -0.5606
  108MPD2    H7 1658   3.029   1.634  11.764  2.7080  1.0392  0.7753
  109MPD2     C 1659   0.320   4.095   1.610 -0.1909  0.7719  0.1613
  109MPD2    C1 1660   0.202   4.158   1.638 -0.2406  0.6151 -0.3384
  109MPD2    C2 1661   0.178   4.209   1.767 -0.7505 -0.1730 -0.0580
  109MPD2    C3 1662   0.267   4.165   1.869  0.1482  0.6559  0.0410
  109MPD2    C4 1663   0.392   4.106   1.842  0.2398 -0.2107 -0.8481
  109MPD2    C5 1664   0.409   4.070   1.709 -0.1478 -0.2939 -0.9602
  109MPD2     H 1665   0.085   4.259   1.792 -0.7587  0.1480 -0.7090
  109MPD2    H1 1666   0.467   4.082   1.916 -0.7045 -0.8712 -0.0897
  109MPD2    H2 1667   0.352   4.072   1.510 -2.6449  0.3788 -0.5412
  109MPD2    H3 1668   0.493   4.009   1.678 -1.9562 -1.5926 -3.2578
  109MPD2     N 1669   0.224   4.205   1.989  0.1951 -0.3358 -0.1816
  109MPD2    H5 1670   0.128   4.236   1.992  0.1043 -0.6069 -0.3545
  109MPD2    N1 1671   0.117   4.177   1.533 -0.4638 -0.6155 -0.1743
  109MPD2    H7 1672   0.145   4.181   1.435 -0.2399  1.5576 -0.0291
  110TCq2    C1 1673   0.310   4.218   2.103  0.2073  0.3361  0.3670
  110TCq2    O2 1674   0.420   4.172   2.118 -0.7111 -0.1831 -0.3785
  110TCq2    C2 1675   0.235   4.272   2.212 -0.0002 -0.3395  0.0981
  110TCq2    C3 1676   0.266   4.234   2.345  0.3521  0.1834  0.2112
  110TCq2    C4 1677   0.192   4.287   2.446 -0.4162  0.3110  0.1440
  110TCq2    C5 1678   0.093   4.386   2.423 -0.4369  0.9182  0.1049
  110TCq2    C6 1679   0.068   4.422   2.293  0.5328 -0.2514  0.0117
  110TCq2    C7 1680   0.134   4.370   2.185 -0.5391 -0.4989 -0.1488
  110TCq2    C8 1681   4.689   4.527   2.291  0.6585 -0.0088  0.5949
  110TCq2    O4 1682   4.675   4.606   2.385 -0.0217  0.2174  0.1782
  110TCq2    C9 1683   0.206   4.237   2.580  0.0816 -0.2769  0.1597
  110TCq2    O5 1684   0.112   4.270   2.660 -0.4841  0.2048  0.8471
  110TCq2    O6 1685   0.313   4.179   2.603  0.8654 -0.2359  0.3235
  110TCq2    H2 1686   0.332   4.150   2.363  0.6516  0.4046  0.1344
  110TCq2    H3 1687   0.046   4.425   2.513  1.4082  1.1797  0.9551
  110TCq2    H4 1688   0.122   4.403   2.083  1.9232 -0.0668 -0.3069
  111TMC2    C1 1689   2.885   3.821  11.605  0.2097  0.4697 -0.3994
  111TMC2    C2 1690   2.787   3.759  11.685  1.0514 -0.5090 -0.3658
  111TMC2    C3 1691   2.831   3.674  11.781 -0.3908  0.0562 -0.1731
  111TMC2    C4 1692   3.017   3.806  11.635 -0.1218  0.6299 -0.5721
  111TMC2    C5 1693   3.052   3.728  11.741 -0.2575  0.0705 -0.9669
  111TMC2    C6 1694   2.961   3.661  11.816 -0.7233 -0.2085  0.4055
  111TMC2     C 1695   2.845   3.877  11.479  0.4648  0.5870 -0.6577
  111TMC2     O 1696   2.928   3.868  11.391  0.0217  0.1806 -0.3550
  111TMC2     H 1697   2.680   3.759  11.665  1.0900  0.0517 -0.5664
  111TMC2    H1 1698   3.091   3.873  11.593  0.1037  1.3697  0.9837
  111TMC2    H2 1699   2.985   3.619  11.913 -0.2981 -0.7869  0.0427
  111TMC2    C7 1700   3.188   3.681  11.760  0.1346 -0.1201 -0.8665
  111TMC2    C8 1701   2.739   3.598  11.860  0.6367  0.0098 -0.4231
  111TMC2    O1 1702   3.199   3.598  11.847  0.3926  0.2311  0.3122
  111TMC2    O2 1703   2.767   3.488  11.917 -0.1499 -0.6957  0.4387
  111TMC2    O5 1704   2.632   3.673  11.887 -0.2058  0.1074 -0.0700
  111TMC2    H5 1705   2.640   3.765  11.854 -0.2497 -0.6358 -2.1252
  112MPD2     C 1706   2.447   3.933  11.152 -0.1478 -0.0113 -0.0611
  112MPD2    C1 1707   2.579   3.899  11.138 -0.2744 -0.2679 -0.0383
  112MPD2    C2 1708   2.668   3.898  11.244  0.3350  0.0714  0.8195
  112MPD2    C3 1709   2.627   3.930  11.369  0.0974 -0.3240 -0.5075
  112MPD2    C4 1710   2.496   3.971  11.387 -0.5294 -0.6759  0.3816
  112MPD2    C5 1711   2.410   3.961  11.285 -0.5761  0.4656  0.1551
  112MPD2     H 1712   2.766   3.856  11.225  0.1189  1.3451 -3.0790
  112MPD2    H1 1713   2.464   3.993  11.488 -1.0214  1.1728 -0.1800
  112MPD2    H2 1714   2.369   3.939  11.077  0.7168  1.2592 -0.8607
  112MPD2    H3 1715   2.308   3.995  11.297 -0.3144  1.4201 -0.3078
  112MPD2     N 1716   2.714   3.924  11.483  0.0641  0.0836  0.3021
  112MPD2    H5 1717   2.671   3.942  11.573 -0.1537  2.5336 -0.2963
  112MPD2    N1 1718   2.636   3.862  11.013  0.5392  0.0103 -0.0303
  112MPD2    H7 1719   2.737   3.865  11.005  0.3457  2.9016 -1.2973
  113MPD2     C 1720   2.446   2.404   1.161  0.3691  0.3438 -0.2038
  113MPD2    C1 1721   2.332   2.478   1.187  1.0080 -0.2433  0.5231
  113MPD2    C2 1722   2.212   2.426   1.155 -0.0665  0.5377  0.4517
  113MPD2    C3 1723   2.191   2.300   1.104  0.0911  0.1286 -0.2564
  113MPD2    C4 1724   2.304   2.228   1.073  0.0548  0.0387  0.4094
  113MPD2    C5 1725   2.428   2.278   1.104  0.6495  0.5472  0.3535
  113MPD2     H 1726   2.127   2.492   1.166 -0.1510  0.5837 -0.4888
  113MPD2    H1 1727   2.299   2.133   1.022  1.2036 -0.1945  0.7492
  113MPD2    H2 1728   2.544   2.443   1.186  1.8574 -1.6587 -2.9432
  113MPD2    H3 1729   2.514   2.219   1.076 -0.2399 -0.8665  0.5938
  113MPD2     N 1730   2.067   2.238   1.103 -0.0500  0.2333 -0.3070
  113MPD2    H5 1731   2.052   2.147   1.059  0.6623  0.7769 -1.6702
  113MPD2    N1 1732   2.336   2.606   1.239  0.0166  0.0128 -0.3873
  113MPD2    H7 1733   2.249   2.659   1.238  0.9679  1.5517 -2.6428
  114TCq2    C1 1734   1.951   2.292   1.160 -0.2809  0.1522  0.3774
  114TCq2    O2 1735   1.932   2.402   1.214 -0.4420  0.6523 -0.2439
  114TCq2    C2 1736   1.836   2.205   1.161  0.1869 -0.2567  0.7326
  114TCq2    C3 1737   1.730   2.247   1.235  0.2702 -0.5653  0.4539
  114TCq2    C4 1738   1.636   2.151   1.268 -0.3231 -0.3185  0.7952
  114TCq2    C5 1739   1.631   2.027   1.211 -0.6363 -0.2478 -0.2514
  114TCq2    C6 1740   1.736   1.992   1.131 -0.3560  0.1418 -0.7293
  114TCq2    C7 1741   1.838   2.078   1.111 -0.3628 -0.4223 -1.2300
  114TCq2    C8 1742   1.770   1.852   1.113  1.0319  0.4927 -0.3819
  114TCq2    O4 1743   1.881   1.823   1.082 -0.2172 -0.5530  0.2212
  114TCq2    C9 1744   1.528   2.188   1.353 -0.2141  0.6144  0.6101
  114TCq2    O5 1745   1.531   2.314   1.381  0.0237 -0.1444  0.4294
  114TCq2    O6 1746   1.432   2.113   1.373  0.4423 -0.0211 -0.2963
  114TCq2    H2 1747   1.728   2.346   1.277  0.2842 -1.0284  1.5310
  114TCq2    H3 1748   1.545   1.964   1.230 -0.1767 -1.5954 -2.6665
  114TCq2    H4 1749   1.914   2.043   1.043  0.1576 -1.3596 -0.1738
  115TMC2    C1 1750   2.505   4.455  17.587  0.9124  0.5045  0.0945
  115TMC2    C2 1751   2.630   4.514  17.594 -0.2199 -0.2725  0.1609
  115TMC2    C3 1752   2.643   4.640  17.533 -0.9179 -0.6840  0.3250
  115TMC2    C4 1753   2.405   4.519  17.524 -0.0804  0.5472 -0.1401
  115TMC2    C5 1754   2.424   4.647  17.462  0.0863  1.2217 -0.2712
  115TMC2    C6 1755   2.542   4.705  17.473  0.3857  0.0164  0.2517
  115TMC2     C 1756   2.499   4.313  17.616 -0.0803  0.6815 -0.0183
  115TMC2     O 1757   2.397   4.256  17.574  0.5259 -0.4461  0.1894
  115TMC2     H 1758   2.718   4.474  17.643  0.8200 -0.7233 -2.1021
  115TMC2    H1 1759   2.303   4.482  17.516  0.1357 -0.2496  0.8061
  115TMC2    H2 1760   2.571   0.071  17.422  1.4293 -0.5466 -0.1471
  115TMC2    C7 1761   2.305   4.715  17.407 -0.3268  0.3189  1.3150
  115TMC2    C8 1762   2.763   4.713  17.555  0.3992  0.4579  0.4631
  115TMC2    O1 1763   2.198   4.656  17.412 -0.5569 -0.0354  0.3648
  115TMC2    O2 1764   2.767   0.110  17.561 -0.0615  0.1914 -0.0996
  115TMC2    O5 1765   2.866   4.631  17.530 -0.3469  0.5630 -0.0634
  115TMC2    H5 1766   2.843   4.540  17.500  0.0980 -0.2052  1.9273
  116MPD2     C 1767   2.710   3.852  17.626 -0.4302 -0.6577 -0.1941
  116MPD2    C1 1768   2.588   3.893  17.586  0.0219  0.0696 -0.2345
  116MPD2    C2 1769   2.563   4.028  17.604 -0.1762 -0.1950  0.0452
  116MPD2    C3 1770   2.647   4.118  17.655 -0.4125  0.1470  0.3219
  116MPD2    C4 1771   2.775   4.070  17.693 -0.4465  0.5728 -0.1921
  116MPD2    C5 1772   2.803   3.938  17.675  0.4120  0.0069  0.2860
  116MPD2     H 1773   2.473   4.060  17.553 -0.3013 -1.8130 -0.7257
  116MPD2    H1 1774   2.847   4.130   0.046 -1.5692  0.6204  1.2857
  116MPD2    H2 1775   2.734   3.746  17.619  0.5484 -0.5122  1.0536
  116MPD2    H3 1776   2.900   3.894  17.697 -0.0446 -0.4267  1.4638
  116MPD2     N 1777   2.619   4.257  17.662  0.4678  0.6183 -0.2017
  116MPD2    H5 1778   2.691   4.322  17.691  0.7884  1.2803 -2.4304
  116MPD2    N1 1779   2.503   3.807  17.510 -0.4467  0.1813  0.1692
  116MPD2    H7 1780   2.535   3.714  17.484  1.1773  0.8553 -0.1759
  117TMC2    C1 1781   0.810   1.625  13.437 -0.1042 -0.4122  0.1379
  117TMC2    C2 1782   0.772   1.757  13.464 -1.1504 -0.5062 -0.6841
  117TMC2    C3 1783   0.872   1.848  13.466  0.4549 -0.1033 -0.4642
  117TMC2    C4 1784   0.945   1.595  13.419  0.3984  0.1937 -0.2225
  117TMC2    C5 1785   1.042   1.687  13.426  1.0115 -0.1474 -0.5608
  117TMC2    C6 1786   1.001   1.819  13.449  0.2063 -0.0922  0.6233
  117TMC2     C 1787   0.721   1.513  13.470  0.1904  0.7806 -0.4190
  117TMC2     O 1788   0.745   1.399  13.428  0.0416  0.2727 -0.0301
  117TMC2     H 1789   0.671   1.796  13.468 -0.1402  1.8366  2.0974
  117TMC2    H1 1790   0.971   1.491  13.407 -2.3609 -0.2089 -2.7062
  117TMC2    H2 1791   1.069   1.903  13.438  0.8887 -0.3474  2.9174
  117TMC2    C7 1792   1.182   1.669  13.380  0.9321 -0.2365  0.1800
  117TMC2    C8 1793   0.838   1.990  13.461  0.2419 -0.1894  0.5937
  117TMC2    O1 1794   1.252   1.772  13.380 -0.2757  0.1411 -0.1790
  117TMC2    O2 1795   0.741   2.033  13.401 -0.3585 -0.1300  0.5988
  117TMC2    O5 1796   0.916   2.061  13.550 -0.2649 -0.5521 -0.2399
  117TMC2    H5 1797   0.965   2.000  13.609 -0.6978  0.9176  1.6238
  118MPD2     C 1798   1.376   1.399  13.222  0.4550  0.4634  0.3619
  118MPD2    C1 1799   1.352   1.518  13.291 -0.7058 -0.1672  0.4190
  118MPD2    C2 1800   1.466   1.592  13.329  0.2025  0.1942  0.0573
  118MPD2    C3 1801   1.591   1.567  13.277  0.4490 -0.0402  0.0341
  118MPD2    C4 1802   1.609   1.447  13.208 -0.2181  0.6142  0.1227
  118MPD2    C5 1803   1.506   1.361  13.191 -0.1919  0.1104  0.0436
  118MPD2     H 1804   1.455   1.678  13.393 -2.3652  0.3001 -0.5065
  118MPD2    H1 1805   1.710   1.424  13.176 -0.6883 -1.4303  0.1407
  118MPD2    H2 1806   1.294   1.334  13.194  2.1398 -1.0755 -0.9892
  118MPD2    H3 1807   1.523   1.269  13.136  0.4851 -0.6611  1.5319
  118MPD2     N 1808   1.704   1.643  13.305  0.4369  0.2945 -0.8682
  118MPD2    H5 1809   1.787   1.606  13.260  1.3848 -0.5896  1.6453
  118MPD2    N1 1810   1.216   1.549  13.327  0.3090  0.6099 -0.3956
  118MPD2    H7 1811   1.140   1.485  13.305 -1.0852  1.8234  0.9220
  119MPD2     C 1812   3.493   3.130  12.899 -0.7210  0.5372  0.1586
  119MPD2    C1 1813   3.389   3.085  12.975  0.1020 -0.6946 -0.3090
  119MPD2    C2 1814   3.336   2.964  12.938  0.5339  0.1977  0.2212
  119MPD2    C3 1815   3.392   2.887  12.832  0.4050  0.3245 -0.2219
  119MPD2    C4 1816   3.493   2.941  12.759 -0.3870  0.1616  0.0250
  119MPD2    C5 1817   3.544   3.058  12.793  0.0606 -0.9319  0.2528
  119MPD2     H 1818   3.241   2.928  12.978  0.3137 -0.8080 -1.2368
  119MPD2    H1 1819   3.543   2.889  12.678 -2.0822 -1.6495  0.1342
  119MPD2    H2 1820   3.544   3.223  12.921  0.8984 -0.1559 -0.6656
  119MPD2    H3 1821   3.628   3.085  12.730 -0.5560  0.5844  0.0729
  119MPD2     N 1822   3.342   2.757  12.799  0.2541  0.0759  0.6887
  119MPD2    H5 1823   3.375   2.704  12.720  0.8120  0.7662  0.4547
  119MPD2    N1 1824   3.343   3.160  13.090  0.6252 -0.1970 -0.6448
  119MPD2    H7 1825   3.389   3.247  13.113  1.1140  0.0836 -2.6180
  120TCq2    C1 1826   3.250   2.691  12.876  0.4071  0.6844  0.7655
  120TCq2    O2 1827   3.194   2.719  12.982 -0.3591  0.0343 -0.3836
  120TCq2    C2 1828   3.233   2.558  12.831  0.3837  0.2392 -0.7614
  120TCq2    C3 1829   3.244   2.507  12.704  0.1293 -0.3031 -0.1082
  120TCq2    C4 1830   3.214   2.380  12.678  0.0996 -0.3474 -0.5245
  120TCq2    C5 1831   3.168   2.294  12.775 -0.4628  0.6016  0.1130
  120TCq2    C6 1832   3.164   2.344  12.897 -0.8196  0.0074  0.0353
  120TCq2    C7 1833   3.185   2.475  12.930  0.2489  0.9521  0.1081
  120TCq2    C8 1834   3.088   2.262  12.994  0.1983 -0.3995 -0.1676
  120TCq2    O4 1835   3.024   2.176  12.939  0.2905 -0.1119 -0.3227
  120TCq2    C9 1836   3.219   2.338  12.541 -0.4617 -0.1858  0.0610
  120TCq2    O5 1837   3.292   2.410  12.465 -0.2392  0.1138  0.1002
  120TCq2    O6 1838   3.192   2.217  12.524  0.3999  0.0713 -0.2556
  120TCq2    H2 1839   3.272   2.568  12.619  0.5083 -0.9382 -0.4371
  120TCq2    H3 1840   3.136   2.194  12.748 -0.6463  1.0087 -1.2214
  120TCq2    H4 1841   3.166   2.504  13.032  1.0614  0.8843  0.2844
  121TMC2    C1 1842   0.081   3.787  14.257  0.4171 -0.5130 -0.4624
  121TMC2    C2 1843   0.102   3.662  14.303  0.2156 -0.3349 -0.2931
  121TMC2    C3 1844   4.723   3.582  14.307 -0.0621  0.3770 -0.3125
  121TMC2    C4 1845   4.700   3.836  14.195 -0.0198 -0.2077  0.2034
  121TMC2    C5 1846   4.596   3.741  14.196  0.3038 -0.1651  0.2633
  121TMC2    C6 1847   4.605   3.618  14.247  0.4548 -0.2638  0.5867
  121TMC2     C 1848   0.199   3.878  14.246 -0.1405  0.2289 -0.1448
  121TMC2     O 1849   0.283   3.891  14.333 -0.4667 -0.1866  0.0642
  121TMC2     H 1850   0.197   3.642  14.352  1.2426  0.4952 -1.9502
  121TMC2    H1 1851   4.683   3.939  14.169 -0.7425 -0.4748 -0.3941
  121TMC2    H2 1852   4.517   3.555  14.249 -1.9121  3.0576  0.3597
  121TMC2    C7 1853   4.464   3.777  14.150  0.2471 -0.0345  0.2178
  121TMC2    C8 1854   0.012   3.439  14.351  0.0431  0.1973 -0.1133
  121TMC2    O1 1855   4.363   3.721  14.192 -0.0388  0.6591 -0.7316
  121TMC2    O2 1856   4.679   3.349  14.289 -0.2098 -0.0198  0.6267
  121TMC2    O5 1857   0.072   3.427  14.466  0.8753  0.3354  0.0890
  121TMC2    H5 1858   0.105   3.511  14.505  2.2748 -0.0352 -0.2677
  122MPD2     C 1859   0.338   4.116  14.170 -0.2539  0.2497  0.1531
  122MPD2    C1 1860   0.277   4.038  14.075 -0.2050  0.3103  0.1600
  122MPD2    C2 1861   0.296   4.068  13.937  0.0007  0.5756 -0.2138
  122MPD2    C3 1862   0.360   4.189  13.899  0.5646 -0.0378 -0.7503
  122MPD2    C4 1863   0.421   4.266  13.993  0.7015 -0.8470  0.1399
  122MPD2    C5 1864   0.414   4.224  14.127  0.0485  0.1701  0.0249
  122MPD2     H 1865   0.251   4.005  13.861  0.3039  1.4006 -1.0750
  122MPD2    H1 1866   0.503   4.330  13.963 -0.4198  0.6019  0.1324
  122MPD2    H2 1867   0.337   4.102  14.278 -0.2972  0.6821  0.2124
  122MPD2    H3 1868   0.465   4.284  14.202  0.1879  0.1339 -0.0408
  122MPD2     N 1869   0.375   4.235  13.766 -0.1511 -0.2124 -0.4925
  122MPD2    H5 1870   0.424   4.322  13.747  2.2713 -1.5483 -0.2239
  122MPD2    N1 1871   0.202   3.929  14.117 -0.2870 -0.9329 -0.4204
  122MPD2    H7 1872   0.139   3.876  14.057  1.3385  0.2837 -3.2178
  123MPD2     C 1873   2.962   3.013   9.805 -0.0691 -0.8315  0.3755
  123MPD2    C1 1874   2.927   2.890   9.850 -0.0513  0.2938 -0.6436
  123MPD2    C2 1875   2.900   2.791   9.757  0.4935 -0.2045 -1.0026
  123MPD2    C3 1876   2.915   2.820   9.624 -0.3195 -1.3299  0.3276
  123MPD2    C4 1877   2.945   2.947   9.575 -0.0340 -0.3087 -0.4776
  123MPD2    C5 1878   2.974   3.042   9.667 -0.4618 -0.2421 -1.0927
  123MPD2     H 1879   2.871   2.690   9.781 -1.0530  0.9439  1.9809
  123MPD2    H1 1880   2.952   2.973   9.470 -0.9001  0.9661 -0.2215
  123MPD2    H2 1881   2.988   3.090   9.877 -2.8494  0.0796  0.4257
  123MPD2    H3 1882   3.016   3.137   9.638  1.3989  0.2578  3.2354
  123MPD2     N 1883   2.900   2.709   9.541  0.2732 -0.4629 -0.3208
  123MPD2    H5 1884   2.853   2.624   9.571  1.4117 -1.5976 -1.7403
  123MPD2    N1 1885   2.944   2.871   9.988  0.0937 -0.9035 -0.8286
  123MPD2    H7 1886   2.984   2.951  10.037  0.5869 -1.4142 -0.3874
  124TCq2    C1 1887   2.948   2.705   9.409  0.6822 -0.1948  0.6300
  124TCq2    O2 1888   3.028   2.783   9.354 -0.0123 -0.4941  0.0734
  124TCq2    C2 1889   2.922   2.578   9.338  0.6019 -0.3136 -0.0534
  124TCq2    C3 1890   2.926   2.561   9.203  0.0081 -0.2517  0.9187
  124TCq2    C4 1891   2.931   2.432   9.147 -0.0262 -0.0835 -0.3743
  124TCq2    C5 1892   2.917   2.317   9.222 -0.2258 -0.0923 -0.5964
  124TCq2    C6 1893   2.897   2.336   9.358  0.1180  0.3429 -0.0899
  124TCq2    C7 1894   2.912   2.461   9.416 -0.0477 -0.4548  0.1004
  124TCq2    C8 1895   2.924   2.224   9.449 -0.2391  0.0213  0.1712
  124TCq2    O4 1896   2.965   2.254   9.560  0.0168  0.4829 -0.1111
  124TCq2    C9 1897   2.953   2.413   9.005 -0.3948  0.5232 -0.1590
  124TCq2    O5 1898   2.985   2.518   8.940 -0.0183 -0.0437  0.5675
  124TCq2    O6 1899   2.951   2.297   8.952  0.1367 -0.2377  0.1044
  124TCq2    H2 1900   2.935   2.650   9.141  0.7104 -1.8081 -1.2056
  124TCq2    H3 1901   2.911   2.222   9.170  1.3289  0.2805 -1.4562
  124TCq2    H4 1902   2.905   2.459   9.524 -1.9638 -0.1390 -0.0225
  125TMC2    C1 1903   3.761   3.845   9.631  0.3791 -0.6237  0.5360
  125TMC2    C2 1904   3.706   3.727   9.672 -0.4834  0.4294 -0.2570
  125TMC2    C3 1905   3.777   3.656   9.765 -0.0253 -0.1766 -0.7111
  125TMC2    C4 1906   3.877   3.896   9.681  0.9986  0.1668 -0.0296
  125TMC2    C5 1907   3.932   3.820   9.784 -0.2800 -0.4041  0.0331
  125TMC2    C6 1908   3.893   3.699   9.822 -0.3333  0.6853  0.5499
  125TMC2     C 1909   3.679   3.927   9.542 -0.4090  0.2377 -0.4819
  125TMC2     O 1910   3.746   4.015   9.486  0.4396  1.2525  0.4043
  125TMC2     H 1911   3.614   3.686   9.632  0.2385 -0.8383 -0.6194
  125TMC2    H1 1912   3.923   3.983   9.637  0.8337 -0.5645 -1.6277
  125TMC2    H2 1913   3.925   3.655   9.916  0.0718  0.7408  0.4374
  125TMC2    C7 1914   4.057   3.867   9.845  0.2091  0.0636 -0.0251
  125TMC2    C8 1915   3.740   3.528   9.796 -0.8685 -0.0873 -0.0483
  125TMC2    O1 1916   4.087   3.986   9.816  0.6170 -0.6170 -0.4517
  125TMC2    O2 1917   3.784   3.466   9.891 -0.2718 -0.3160 -0.4719
  125TMC2    O5 1918   3.708   3.466   9.680  0.5011  0.0852 -0.1807
  125TMC2    H5 1919   3.709   3.523   9.601  0.9670 -1.7893 -1.5441
  126MPD1     C 1920   3.276   4.069   9.261  0.5359 -0.0248  0.5448
  126MPD1    C1 1921   3.229   3.989   9.362  0.3222  0.5883  0.2945
  126MPD1    C2 1922   3.324   3.928   9.453 -0.5683 -0.6379 -0.4845
  126MPD1    C3 1923   3.460   3.969   9.447  0.2849  0.3642  0.2343
  126MPD1    C4 1924   3.500   4.051   9.346  0.6275 -0.0846 -0.4021
  126MPD1    C5 1925   3.409   4.099   9.251  0.9179 -0.3258  0.7638
  126MPD1     H 1926   3.286   3.868   9.534 -0.5717 -1.6228 -1.2195
  126MPD1    H1 1927   3.603   4.083   9.337  0.5917 -0.7131 -2.9685
  126MPD1    H2 1928   3.215   4.103   9.178  1.7249 -0.9364 -0.6988
  126MPD1    H3 1929   3.448   4.160   9.170 -0.6683 -1.3970 -0.8200
  126MPD1     N 1930   3.546   3.900   9.535 -0.8390  0.7259  0.1784
  126MPD1    H5 1931   3.506   3.844   9.609 -2.4767  1.6400 -0.0285
  126MPD1    N1 1932   3.097   3.939   9.364  0.1210  0.3318  0.2091
  126MPD1    H6 1933   3.030   4.004   9.322 -1.0022 -2.0090 -1.5978
  126MPD1    H7 1934   3.053   3.911   9.451  0.4603 -0.3440  0.1624
  127MPD2     C 1935   0.733   2.463   9.810 -0.1222  0.4119 -0.0293
  127MPD2    C1 1936   0.854   2.434   9.867 -0.4304  0.3745  0.0412
  127MPD2    C2 1937   0.900   2.506   9.981  0.1065  1.2092  0.5924
  127MPD2    C3 1938   0.831   2.619  10.026  0.0330 -0.5018  0.6036
  127MPD2    C4 1939   0.730   2.666   9.941 -0.1605  1.0899  0.3274
  127MPD2    C5 1940   0.680   2.582   9.844  0.6644  0.0128  0.2958
  127MPD2     H 1941   0.991   2.479  10.034  0.3702 -1.5563 -1.2880
  127MPD2    H1 1942   0.681   2.762   9.953  0.6409  1.7740 -1.7515
  127MPD2    H2 1943   0.696   2.401   9.730 -3.2887  0.7638  1.1711
  127MPD2    H3 1944   0.589   2.607   9.792  0.3237  0.9144  1.3364
  127MPD2     N 1945   0.883   2.694  10.131 -0.3407 -0.0930 -0.4499
  127MPD2    H5 1946   0.970   2.663  10.173 -1.4524 -3.0431 -0.3317
  127MPD2    N1 1947   0.914   2.315   9.820  0.1741  0.3141 -0.2248
  127MPD2    H7 1948   0.862   2.263   9.750 -3.0373  0.6546  1.8905
  128TCq2    C1 1949   1.018   2.252   9.875 -0.5596 -0.3792 -0.4626
  128TCq2    O2 1950   1.083   2.284   9.972 -0.1863 -0.4411  0.3996
  128TCq2    C2 1951   1.021   2.116   9.818 -0.1677 -0.5555 -0.4282
  128TCq2    C3 1952   1.052   2.012   9.899  0.3336  0.3464  0.3970
  128TCq2    C4 1953   1.033   1.883   9.843  0.2535 -0.2872 -0.4477
  128TCq2    C5 1954   0.986   1.860   9.716  0.3489  0.1353 -0.4488
  128TCq2    C6 1955   0.977   1.968   9.637  0.3845 -1.1716  0.0667
  128TCq2    C7 1956   0.987   2.095   9.684 -0.0388 -0.0018  0.3053
  128TCq2    C8 1957   0.890   1.957   9.518 -0.6873 -0.2680 -0.0333
  128TCq2    O4 1958   0.908   2.049   9.438 -0.2001  1.0306  0.2438
  128TCq2    C9 1959   1.055   1.763   9.927 -0.9768 -0.2070  0.9593
  128TCq2    O5 1960   1.075   1.652   9.873 -0.1599  0.3582 -0.2419
  128TCq2    O6 1961   1.056   1.789  10.053 -0.5272 -0.7094  0.8085
  128TCq2    H2 1962   1.082   2.024  10.002  1.9127 -0.8272  0.0706
  128TCq2    H3 1963   0.978   1.756   9.685 -0.0152  0.4067 -1.2469
  128TCq2    H4 1964   0.972   2.178   9.615  0.3833  1.9069  2.4942
  129MPD2     C 1965   0.822   3.719   1.159 -0.2185  0.5484  0.0938
  129MPD2    C1 1966   0.715   3.813   1.175  0.0412  0.3822  0.2027
  129MPD2    C2 1967   0.730   3.932   1.106  0.5552  0.0936 -0.7148
  129MPD2    C3 1968   0.838   3.946   1.016  0.1726 -0.1754 -0.3094
  129MPD2    C4 1969   0.934   3.849   0.996  0.7570 -0.3712 -0.3881
  129MPD2    C5 1970   0.929   3.742   1.078 -0.2300 -0.4150 -0.0338
  129MPD2     H 1971   0.657   4.012   1.110  0.5689 -0.1988  4.4035
  129MPD2    H1 1972   1.017   3.860   0.927  0.0540  2.1019 -0.8541
  129MPD2    H2 1973   0.839   3.635   1.226  0.6003  0.4667 -0.2075
  129MPD2    H3 1974   1.015   3.677   1.089  0.2589 -0.0847 -1.9778
  129MPD2     N 1975   0.827   4.060   0.939 -0.5984  0.4430 -0.1587
  129MPD2    H5 1976   0.745   4.118   0.953 -0.3095  0.7651  0.2097
  129MPD2    N1 1977   0.608   3.802   1.266  0.3163  0.0443  0.7533
  129MPD2    H7 1978   0.541   3.879   1.268 -0.0160 -0.1881 -1.7332
  130TCq2    C1 1979   0.600   3.701   1.357 -0.4125 -1.1568 -0.1508
  130TCq2    O2 1980   0.689   3.625   1.386  0.3164  0.5754  0.0052
  130TCq2    C2 1981   0.491   3.703   1.444 -0.3933 -0.7146  0.0031
  130TCq2    C3 1982   0.520   3.680   1.576 -0.2157 -0.2302  0.2744
  130TCq2    C4 1983   0.418   3.693   1.670  0.3146  0.6078  0.3591
  130TCq2    C5 1984   0.291   3.736   1.630  0.2994 -0.1296  0.5114
  130TCq2    C6 1985   0.263   3.762   1.500 -0.2467  0.5811  0.7962
  130TCq2    C7 1986   0.368   3.752   1.407 -0.0704  0.2739  0.1074
  130TCq2    C8 1987   0.126   3.808   1.464  0.4297  0.3389 -0.0529
  130TCq2    O4 1988   0.032   3.766   1.527 -0.3735  0.1794 -0.6568
  130TCq2    C9 1989   0.448   3.678   1.812  0.7193  0.2351  0.1243
  130TCq2    O5 1990   0.367   3.738   1.888 -1.0000  0.3334  0.2265
  130TCq2    O6 1991   0.567   3.656   1.845  0.2391  0.0556  0.1074
  130TCq2    H2 1992   0.618   3.649   1.611 -0.0649  0.3076  0.3256
  130TCq2    H3 1993   0.211   3.748   1.702  0.2884 -2.2030  0.8437
  130TCq2    H4 1994   0.349   3.781   1.304  0.7555 -0.0236 -0.1271
  131MPD2     C 1995   3.010   3.410  10.655 -0.7231 -0.3883  0.5363
  131MPD2    C1 1996   3.029   3.405  10.523  0.3064  0.1594  0.5049
  131MPD2    C2 1997   3.028   3.282  10.451 -0.0685  0.0731  0.3031
  131MPD2    C3 1998   2.997   3.164  10.519 -0.5362 -0.0926 -0.4452
  131MPD2    C4 1999   2.973   3.177  10.659  0.3132  0.3311 -0.2566
  131MPD2    C5 2000   2.974   3.303  10.724  0.0711 -0.3140 -0.5145
  131MPD2     H 2001   3.041   3.279  10.344  1.7287 -0.1819  0.5222
  131MPD2    H1 2002   2.937   3.088  10.709  2.5830 -0.9895 -0.9811
  131MPD2    H2 2003   3.010   3.505  10.707 -0.7985 -1.4260  2.3993
  131MPD2    H3 2004   2.961   3.303  10.831  0.4142  1.4419 -0.4815
  131MPD2     N 2005   2.993   3.045  10.442 -0.5942  0.0467  0.8679
  131MPD2    H5 2006   3.007   3.050  10.342  1.7362 -1.3796  1.1203
  131MPD2    N1 2007   3.073   3.532  10.474  0.1559  0.5616  0.3686
  131MPD2    H7 2008   3.094   3.610  10.536  1.5575  1.8615 -1.7164
  132TCq2    C1 2009   3.126   3.885  10.022  0.3589 -0.6695  0.0812
  132TCq2    O2 2010   3.020   3.844   9.979  0.4250 -0.8237 -0.5199
  132TCq2    C2 2011   3.181   3.827  10.141 -0.2650 -0.3129 -0.0793
  132TCq2    C3 2012   3.304   3.862  10.196 -0.3013  0.2153 -0.1269
  132TCq2    C4 2013   3.350   3.795  10.305  0.6173  0.1317  1.1139
  132TCq2    C5 2014   3.277   3.694  10.358  0.3403  0.6008 -0.5979
  132TCq2    C6 2015   3.153   3.668  10.302 -0.1981  0.2844 -0.6657
  132TCq2    C7 2016   3.101   3.728  10.189 -0.1290 -0.6898  0.4751
  132TCq2    C8 2017   3.089   3.549  10.337  0.0837 -0.6939 -0.0854
  132TCq2    O4 2018   3.055   3.479  10.242  0.2180 -0.7387 -0.0590
  132TCq2    C9 2019   3.478   3.836  10.368 -0.3463  0.4687 -0.0927
  132TCq2    O5 2020   3.535   3.928  10.307 -1.0650  0.5116  0.8698
  132TCq2    O6 2021   3.523   3.780  10.470 -0.0717  0.0504  0.3074
  132TCq2    H2 2022   3.364   3.948  10.172  0.2645 -0.6876 -2.0058
  132TCq2    H3 2023   3.322   3.636  10.438 -2.4586 -0.0402  0.5386
  132TCq2    H4 2024   3.003   3.705  10.150  0.8049 -2.1964 -1.0231
  133MPD2     C 2025   2.587   2.021   9.142 -0.3911  0.0572 -0.2682
  133MPD2    C1 2026   2.557   2.049   9.272  0.0548 -0.8146  0.1514
  133MPD2    C2 2027   2.548   2.184   9.318  0.0643 -0.2089  0.7260
  133MPD2    C3 2028   2.560   2.286   9.228  0.1335 -0.0124 -0.1263
  133MPD2    C4 2029   2.593   2.258   9.095  0.8931 -0.2138 -0.2298
  133MPD2    C5 2030   2.604   2.122   9.057  0.2192  0.5132 -0.2049
  133MPD2     H 2031   2.499   2.200   9.413 -1.0174 -1.0694  0.3220
  133MPD2    H1 2032   2.608   2.338   9.024 -1.9594  1.0639  0.6226
  133MPD2    H2 2033   2.598   1.926   9.091  0.9601 -1.2148  2.4023
  133MPD2    H3 2034   2.624   2.090   8.956 -1.2925 -0.4609 -0.1807
  133MPD2     N 2035   2.526   2.419   9.259  0.5958  0.0629  0.2728
  133MPD2    H5 2036   2.552   2.487   9.188 -0.3829 -0.7815 -0.8877
  133MPD2    N1 2037   2.538   1.939   9.355 -0.6405 -0.2293  0.3453
  133MPD2    H7 2038   2.519   1.853   9.305 -0.9228 -0.6701  1.2179
  134TCq2    C1 2039   2.547   1.944   9.492 -0.0087  0.1484  0.0594
  134TCq2    O2 2040   2.595   2.037   9.554 -0.1088 -0.3964  0.0380
  134TCq2    C2 2041   2.500   1.813   9.557  0.3780  0.0295  0.1912
  134TCq2    C3 2042   2.472   1.699   9.485 -0.8237 -0.2149 -0.2997
  134TCq2    C4 2043   2.416   1.594   9.553 -0.7377  0.4255 -0.7194
  134TCq2    C5 2044   2.385   1.594   9.682 -0.6535  0.0706 -0.2081
  134TCq2    C6 2045   2.417   1.708   9.754  0.3985  0.0221 -0.3365
  134TCq2    C7 2046   2.474   1.815   9.692  0.1647  0.0202 -0.0266
  134TCq2    C8 2047   2.351   1.718   9.883 -0.0130  0.2269 -0.3346
  134TCq2    O4 2048   2.303   1.618   9.933 -0.1846  0.1388  0.6211
  134TCq2    C9 2049   2.402   1.472   9.481  0.1781  0.8512  0.4553
  134TCq2    O5 2050   2.471   1.445   9.380 -0.0206 -0.2932  0.1434
  134TCq2    O6 2051   2.310   1.393   9.530  0.1928  0.4031  0.3655
  134TCq2    H2 2052   2.497   1.690   9.380  0.1278  1.9255 -0.2597
  134TCq2    H3 2053   2.346   1.503   9.728  0.0338  0.7752  1.7726
  134TCq2    H4 2054   2.511   1.902   9.745 -1.4421  0.1550  0.8973
  135MPD2     C 2055   0.028   4.699   9.573  0.4497 -0.6298 -0.3451
  135MPD2    C1 2056   4.681   4.633   9.478  0.3991  1.1972  0.1320
  135MPD2    C2 2057   4.662   4.498   9.481 -0.4721  0.4005 -0.3272
  135MPD2    C3 2058   0.000   4.430   9.583  0.4141  0.1418  0.3388
  135MPD2    C4 2059   0.086   4.492   9.668  0.5649 -0.3046  0.5136
  135MPD2    C5 2060   0.102   4.629   9.660 -0.0366  0.1199  0.1800
  135MPD2     H 2061   4.608   4.452   9.400 -0.4587 -1.1604  0.5570
  135MPD2    H1 2062   0.157   4.437   9.730  0.7248  0.7604  1.2687
  135MPD2    H2 2063   0.047   0.080   9.569 -0.9179 -0.2983  2.2234
  135MPD2    H3 2064   0.166   4.684   9.729  0.0347  0.2706 -0.0075
  135MPD2     N 2065   4.711   4.291   9.609  0.6013  0.2956 -0.6750
  135MPD2    H5 2066   0.022   4.258   9.698  2.5842  2.0255 -0.8277
  135MPD2    N1 2067   4.611   4.692   9.368 -0.2191  0.5551  0.4740
  135MPD2    H7 2068   4.569   4.632   9.298 -0.0843  1.3043 -0.2473
  136TCq2    C1 2069   4.588   0.097   9.348 -0.0179  0.0479 -0.2765
  136TCq2    O2 2070   4.602   0.191   9.426 -0.4817  0.1551 -0.3308
  136TCq2    C2 2071   4.556   0.134   9.212 -0.6759 -0.4717 -0.4004
  136TCq2    C3 2072   4.554   0.268   9.177 -0.4964 -0.9624  0.2307
  136TCq2    C4 2073   4.508   0.305   9.053  0.3995  0.3668 -0.4385
  136TCq2    C5 2074   4.488   0.211   8.962  0.1026  0.0891  0.6825
  136TCq2    C6 2075   4.492   0.081   8.994  0.2984 -0.2249 -0.2510
  136TCq2    C7 2076   4.527   0.036   9.119 -0.0133  0.5516 -0.6976
  136TCq2    C8 2077   4.417   4.721   8.899  0.3497  0.3340  0.0239
  136TCq2    O4 2078   4.357   0.048   8.811 -0.7554 -0.3261  0.0181
  136TCq2    C9 2079   4.523   0.439   9.004 -0.4082 -0.1474  0.4565
  136TCq2    O5 2080   4.553   0.456   8.880  0.0565  0.4671  0.3048
  136TCq2    O6 2081   4.518   0.530   9.093 -0.0669 -0.3027  0.0060
  136TCq2    H2 2082   4.581   0.347   9.248  0.2855 -1.4604  0.4947
  136TCq2    H3 2083   4.457   0.246   8.864  0.6181  1.8981  1.1789
  136TCq2    H4 2084   4.511   4.657   9.147  1.9676 -0.2822 -2.6887
  137MPD2     C 2085   3.849   0.784   9.598  0.1947  0.2905 -0.3348
  137MPD2    C1 2086   3.971   0.712   9.592  0.3657 -0.4114 -0.3076
  137MPD2    C2 2087   4.047   0.705   9.476  0.3519  0.1742 -0.7355
  137MPD2    C3 2088   3.993   0.764   9.364 -0.4670 -0.4645 -0.3592
  137MPD2    C4 2089   3.885   0.848   9.374 -0.5862  0.3347 -0.1356
  137MPD2    C5 2090   3.812   0.862   9.488 -0.3248 -0.5140 -0.2812
  137MPD2     H 2091   4.121   0.627   9.460  1.3452  0.3639  3.0459
  137MPD2    H1 2092   3.838   0.898   9.290  1.0297 -1.3110 -2.0109
  137MPD2    H2 2093   3.795   0.779   9.692  0.5549 -0.7466 -0.1776
  137MPD2    H3 2094   3.722   0.923   9.487  0.3500  0.4965  0.5533
  137MPD2     N 2095   4.051   0.729   9.243  0.9345 -0.3086  0.0912
  137MPD2    H5 2096   4.111   0.647   9.241  0.4846 -0.6374 -0.1394
  137MPD2    N1 2097   4.030   0.661   9.715  0.3054 -0.5067 -0.0404
  137MPD2    H7 2098   3.981   0.681   9.801  0.3831 -1.9040  0.3221
  138TCq2    C1 2099   4.143   0.589   9.729  0.1517 -0.1683  0.0842
  138TCq2    O2 2100   4.217   0.544   9.642 -0.1887 -0.2666 -0.1389
  138TCq2    C2 2101   4.176   0.555   9.866 -0.4945 -0.3865 -0.1783
  138TCq2    C3 2102   4.112   0.632   9.962 -0.1769  0.1333  0.4231
  138TCq2    C4 2103   4.124   0.592  10.096 -0.7163 -0.2532  0.7724
  138TCq2    C5 2104   4.174   0.472  10.122  0.6059  0.0279  0.0244
  138TCq2    C6 2105   4.214   0.389  10.019  0.9013 -0.8463 -0.1306
  138TCq2    C7 2106   4.214   0.426   9.888 -0.0056 -0.0485  0.2234
  138TCq2    C8 2107   4.224   0.247  10.047 -0.0711 -0.5920  0.3156
  138TCq2    O4 2108   4.299   0.222  10.140 -0.6336 -0.0776 -0.3732
  138TCq2    C9 2109   4.093   0.679  10.215  0.6341  0.2413  0.9685
  138TCq2    O5 2110   4.075   0.624  10.331 -0.2296 -0.1669 -0.2822
  138TCq2    O6 2111   4.046   0.792  10.185  0.2552 -0.1859  0.3025
  138TCq2    H2 2112   4.089   0.734   9.936  0.3650  0.6822  2.0934
  138TCq2    H3 2113   4.200   0.434  10.220  0.2307 -4.1788 -1.4862
  138TCq2    H4 2114   4.236   0.364   9.802 -1.1600 -0.0787 -0.0599
  139TMC2    C1 2115   0.205   2.138  13.326  0.2359  0.5564  0.0550
  139TMC2    C2 2116   0.311   2.224  13.311  0.0458 -0.2414 -0.5120
  139TMC2    C3 2117   0.286   2.355  13.309 -0.9889 -0.4707  0.0756
  139TMC2    C4 2118   0.089   2.178  13.378 -0.1045  0.3183  0.6921
  139TMC2    C5 2119   0.073   2.313  13.391 -0.2225  0.1202 -0.1119
  139TMC2    C6 2120   0.169   2.401  13.353 -0.1377  0.5054  0.1572
  139TMC2     C 2121   0.235   1.991  13.316  0.8132 -0.3642 -0.2945
  139TMC2     O 2122   0.349   1.955  13.311  0.5323  0.2024 -0.0980
  139TMC2     H 2123   0.404   2.182  13.276  0.3843  0.5015 -0.4974
  139TMC2    H1 2124   0.030   2.104  13.431 -0.1703 -1.2696 -1.6230
  139TMC2    H2 2125   0.156   2.509  13.349 -3.1782  0.0760 -1.7088
  139TMC2    C7 2126   4.700   2.364  13.479  0.7798  0.2849 -0.3777
  139TMC2    C8 2127   0.375   2.453  13.255  0.0430  0.2628 -0.0346
  139TMC2    O1 2128   4.702   2.486  13.491  0.2589 -0.5682 -0.2261
  139TMC2    O2 2129   0.340   2.561  13.211  0.0636 -0.5560 -0.2326
  139TMC2    O5 2130   0.501   2.407  13.244  0.0540 -0.4548  0.7942
  139TMC2    H5 2131   0.517   2.342  13.316  1.8873 -0.8799  0.0185
  140MPD2     C 2132   4.697   1.728  13.304  0.1984  0.5757 -0.8654
  140MPD2    C1 2133   0.100   1.778  13.295  0.0360  0.6142 -0.4160
  140MPD2    C2 2134   0.208   1.700  13.271 -0.2224 -0.2036  0.1174
  140MPD2    C3 2135   0.185   1.566  13.274  0.2205  0.3462  0.4522
  140MPD2    C4 2136   0.053   1.514  13.278  0.2165  0.4369 -0.4471
  140MPD2    C5 2137   4.673   1.596  13.303  0.5220  0.1526  0.5051
  140MPD2     H 2138   0.310   1.736  13.265 -0.4181  0.2540 -0.4247
  140MPD2    H1 2139   0.030   1.410  13.261 -1.4050  0.0012  4.3515
  140MPD2    H2 2140   4.612   1.794  13.295 -1.5704 -1.7473 -1.2077
  140MPD2    H3 2141   4.570   1.564  13.315  0.3686 -0.4222 -2.2923
  140MPD2     N 2142   0.296   1.479  13.256 -0.5596 -0.0050 -0.0807
  140MPD2    H5 2143   0.382   1.531  13.247 -0.4442 -0.3741 -1.0795
  140MPD2    N1 2144   0.115   1.921  13.307 -0.1125 -0.5482  0.3524
  140MPD2    H7 2145   0.028   1.973  13.312 -0.0915 -0.3910 -0.7408
  141TCq2    C1 2146   1.411   3.280  14.245  0.9079 -0.4092  0.1805
  141TCq2    O2 2147   1.341   3.369  14.198 -0.3567 -0.1787 -0.3815
  141TCq2    C2 2148   1.414   3.272  14.385 -0.0669 -0.4629 -0.3006
  141TCq2    C3 2149   1.437   3.148  14.437 -0.5378 -0.8721  0.5644
  141TCq2    C4 2150   1.445   3.137  14.573  0.3105 -0.2527 -0.0338
  141TCq2    C5 2151   1.430   3.240  14.659  0.0146 -0.2419 -0.5315
  141TCq2    C6 2152   1.389   3.357  14.604 -0.0220 -0.5055  0.7793
  141TCq2    C7 2153   1.385   3.372  14.468  0.3043  0.1701  0.3317
  141TCq2    C8 2154   1.337   3.451  14.700  0.4041 -0.5452  0.7993
  141TCq2    O4 2155   1.303   3.411  14.810  0.0646  0.0006  0.0752
  141TCq2    C9 2156   1.457   3.007  14.632 -0.0289  0.2845  0.3362
  141TCq2    O5 2157   1.510   3.003  14.750  0.1091  0.4778  0.3627
  141TCq2    O6 2158   1.408   2.914  14.565  0.1331  0.0691  0.1914
  141TCq2    H2 2159   1.474   3.065  14.377  1.4443 -0.5539  1.3376
  141TCq2    H3 2160   1.441   3.232  14.767 -1.0365  2.4932 -0.2207
  141TCq2    H4 2161   1.361   3.470  14.428  1.9649  0.0232 -1.0026
  142MPD2     C 2162   3.478   1.414  10.487  0.1321  0.7369  0.3944
  142MPD2    C1 2163   3.383   1.407  10.389  0.3010  0.2507 -0.4421
  142MPD2    C2 2164   3.399   1.487  10.279  0.0532  0.3123  0.2298
  142MPD2    C3 2165   3.513   1.560  10.259  0.1400 -0.0154  0.2744
  142MPD2    C4 2166   3.622   1.537  10.346 -1.3528  0.0937 -0.4086
  142MPD2    C5 2167   3.599   1.469  10.462  0.0351  0.4783 -0.9483
  142MPD2     H 2168   3.321   1.492  10.203 -0.9585  1.5694  1.3535
  142MPD2    H1 2169   3.716   1.591  10.334 -0.7357 -0.2203  2.8850
  142MPD2    H2 2170   3.468   1.357  10.579  2.3014 -0.6269 -0.1978
  142MPD2    H3 2171   3.681   1.459  10.532 -1.1382  1.9454  0.6520
  142MPD2     N 2172   3.534   1.638  10.146 -0.9811  0.2835  0.1029
  142MPD2    H5 2173   3.626   1.680  10.155  0.7299 -3.8820  2.3118
  142MPD2    N1 2174   3.262   1.339  10.421  0.3507 -0.2696 -0.3280
  142MPD2    H7 2175   3.247   1.295  10.511  0.9205  0.5956  0.1900
  143TCq2    C1 2176   3.455   1.655  10.040  0.2684 -0.2751 -0.2430
  143TCq2    O2 2177   3.339   1.625  10.018 -0.3359  0.2102  0.0257
  143TCq2    C2 2178   3.491   1.769   9.958  0.8562 -0.3102 -1.2263
  143TCq2    C3 2179   3.560   1.866  10.021  0.0315 -0.3182  0.7028
  143TCq2    C4 2180   3.549   1.989   9.971 -0.0254 -0.2873 -0.0014
  143TCq2    C5 2181   3.475   2.021   9.858  0.5404 -0.2028 -0.0990
  143TCq2    C6 2182   3.401   1.916   9.800 -0.3461 -0.4556  0.1552
  143TCq2    C7 2183   3.414   1.785   9.844 -1.1364  0.2938  0.5891
  143TCq2    C8 2184   3.287   1.944   9.708  0.3970  0.2091  0.3101
  143TCq2    O4 2185   3.273   2.063   9.699  0.2194  0.1992 -0.2016
  143TCq2    C9 2186   3.611   2.100  10.047  0.0173 -0.4674  0.2076
  143TCq2    O5 2187   3.655   2.082  10.161  0.2343 -0.1479  0.2640
  143TCq2    O6 2188   3.636   2.204   9.978  0.6853 -0.5145 -0.1733
  143TCq2    H2 2189   3.625   1.849  10.107  0.7097  0.1180  0.2740
  143TCq2    H3 2190   3.453   2.124   9.832  2.4604 -0.4848 -2.7583
  143TCq2    H4 2191   3.353   1.708   9.798 -0.8909 -0.0651  0.8704
  144MPD2     C 2192   1.781   1.545   0.731 -0.1923  0.6128  0.7763
  144MPD2    C1 2193   1.801   1.412   0.738 -0.0923  0.2675 -0.0616
  144MPD2    C2 2194   1.919   1.365   0.783  0.2974 -0.2348  1.2356
  144MPD2    C3 2195   2.021   1.452   0.834 -0.4147  0.4514  0.1694
  144MPD2    C4 2196   1.990   1.585   0.844  0.3839  0.6251 -0.9572
  144MPD2    C5 2197   1.876   1.630   0.786  0.4245 -0.8720  0.4468
  144MPD2     H 2198   1.933   1.258   0.787 -0.2719 -0.3180  1.0598
  144MPD2    H1 2199   2.052   1.659   0.894 -1.2883  0.2937  1.6115
  144MPD2    H2 2200   1.703   1.597   0.677  1.2059 -0.6215 -2.4452
  144MPD2    H3 2201   1.859   1.737   0.784 -0.9608 -1.0904  0.3765
  144MPD2     N 2202   2.146   1.409   0.879  0.7266  0.6722 -0.4285
  144MPD2    H5 2203   2.209   1.482   0.909 -0.5702  0.3657  3.1005
  144MPD2    N1 2204   1.710   1.311   0.693  1.0697 -0.7859 -0.1843
  144MPD2    H7 2205   1.739   1.213   0.697 -2.6569 -1.9400 -2.1327
  145TCq2    C1 2206   2.191   1.275   0.865 -0.0824 -0.3496  0.0189
  145TCq2    O2 2207   2.141   1.177   0.803 -0.2818 -0.8844  0.4224
  145TCq2    C2 2208   2.332   1.271   0.884  0.0585  0.0739  0.5764
  145TCq2    C3 2209   2.382   1.142   0.850  0.5627  0.5340  0.6662
  145TCq2    C4 2210   2.507   1.110   0.881 -0.4804 -0.0380 -0.3140
  145TCq2    C5 2211   2.578   1.187   0.971  0.1979 -0.4914 -0.7211
  145TCq2    C6 2212   2.526   1.299   1.016 -0.3352 -0.4925  0.1401
  145TCq2    C7 2213   2.407   1.348   0.971 -0.1326  0.0801 -0.5515
  145TCq2    C8 2214   2.632   1.394   1.072 -0.5051  0.6124 -0.4947
  145TCq2    O4 2215   2.744   1.349   1.089 -0.2949 -0.4197  0.3140
  145TCq2    C9 2216   2.571   0.995   0.819 -0.4176  0.3320 -0.0446
  145TCq2    O5 2217   2.665   0.949   0.885 -0.0627 -0.0129 -0.0790
  145TCq2    O6 2218   2.511   0.949   0.717 -0.3567 -0.2866  0.1819
  145TCq2    H2 2219   2.322   1.066   0.801 -0.4081  2.4003 -1.0714
  145TCq2    H3 2220   2.681   1.157   0.987  0.4867  2.0420  2.0766
  145TCq2    H4 2221   2.363   1.442   1.002  0.0539  0.6940 -2.1757
  146TMC2    C1 2222   2.719   4.306  11.777 -0.1177 -0.6445  0.1911
  146TMC2    C2 2223   2.664   4.319  11.654  0.6816 -0.0135  0.3106
  146TMC2    C3 2224   2.728   4.270  11.542 -0.1678  0.2893  0.3396
  146TMC2    C4 2225   2.843   4.245  11.785 -0.5155  0.1115 -0.1507
  146TMC2    C5 2226   2.915   4.206  11.673 -0.2187 -0.0905  0.5757
  146TMC2    C6 2227   2.854   4.214  11.550  0.4011 -0.8055  0.0908
  146TMC2     C 2228   2.619   4.300  11.887  0.0052 -0.7131 -0.0182
  146TMC2     O 2229   2.506   4.265  11.850 -0.6288 -0.2935  0.4510
  146TMC2     H 2230   2.559   4.348  11.649  0.7435  0.3848  1.3346
  146TMC2    H1 2231   2.880   4.244  11.886 -1.0145  1.7012  0.0426
  146TMC2    H2 2232   2.897   4.166  11.463  0.6667  0.6527 -0.5808
  146TMC2    C7 2233   3.046   4.150  11.683  0.0501 -0.3092  0.1380
  146TMC2    C8 2234   2.677   4.273  11.407  0.4463 -0.5071  0.1093
  146TMC2    O1 2235   3.101   4.150  11.573  0.2553 -0.0979 -0.0901
  146TMC2    O2 2236   2.741   4.223  11.315  0.9676  0.2581 -0.1046
  146TMC2    O5 2237   2.612   4.398  11.402 -0.5075 -0.3754 -0.6666
  146TMC2    H5 2238   2.619   4.450  11.484 -0.1028 -0.0772 -0.8943
  147MPD2     C 2239   3.470   3.980  11.928  0.2401  0.4488  0.2292
  147MPD2    C1 2240   3.363   3.983  12.016 -0.5285 -0.4793 -0.6381
  147MPD2    C2 2241   3.237   4.015  11.968  0.1463 -0.2600 -0.3157
  147MPD2    C3 2242   3.215   4.047  11.837  0.0628  0.3828  0.2256
  147MPD2    C4 2243   3.319   4.035  11.747 -0.1102 -0.1730  0.2434
  147MPD2    C5 2244   3.443   4.003  11.791 -0.2870 -0.6213  0.0476
  147MPD2     H 2245   3.148   4.026  12.029 -0.4318 -0.1269 -1.1846
  147MPD2    H1 2246   3.308   4.058  11.642  0.0039  0.8402  0.4531
  147MPD2    H2 2247   3.572   3.967  11.961 -0.6298 -0.3210  2.5921
  147MPD2    H3 2248   3.519   4.008  11.714  0.9083 -0.5952  1.2317
  147MPD2     N 2249   3.087   4.102  11.808 -0.3444  0.1390 -0.2729
  147MPD2    H5 2250   3.018   4.082  11.879 -0.9218  0.9911 -0.6022
  147MPD2    N1 2251   3.398   3.991  12.152 -0.5084  0.2422 -0.6711
  147MPD2    H7 2252   3.493   3.965  12.172  0.1045  2.6214 -0.4226
  148MPD2     C 2253   2.716   3.454  10.863 -0.2485  0.1839 -0.1264
  148MPD2    C1 2254   2.723   3.350  10.946 -0.2537 -0.7558  0.0201
  148MPD2    C2 2255   2.671   3.225  10.902 -0.0856 -0.0064 -0.2213
  148MPD2    C3 2256   2.633   3.210  10.770 -0.6345  0.7636 -0.8932
  148MPD2    C4 2257   2.632   3.324  10.688  0.5908 -0.2251 -0.2697
  148MPD2    C5 2258   2.673   3.441  10.736 -0.9488  0.6003 -0.5092
  148MPD2     H 2259   2.669   3.144  10.974  0.2626 -0.6336 -0.9144
  148MPD2    H1 2260   2.596   3.316  10.585 -1.5944 -1.3184  0.5646
  148MPD2    H2 2261   2.740   3.554  10.896 -0.5926 -0.3860  1.8585
  148MPD2    H3 2262   2.677   3.527  10.670 -0.1659  2.3804  1.8405
  148MPD2     N 2263   2.593   3.080  10.725  0.0948  0.5237  0.3728
  148MPD2    H5 2264   2.558   3.073  10.631 -0.7286  0.9575  0.6473
  148MPD2    N1 2265   2.783   3.367  11.074  0.9837 -0.4925  0.0343
  148MPD2    H7 2266   2.827   3.455  11.097 -1.6844  0.7850  0.2595
  149TCq2    C1 2267   2.801   3.263  11.160  1.3013 -0.1693  0.2645
  149TCq2    O2 2268   2.730   3.168  11.179  0.1026  0.1764 -0.1941
  149TCq2    C2 2269   2.938   3.262  11.209  0.6814  0.7059  0.3138
  149TCq2    C3 2270   3.038   3.312  11.123 -0.0808 -0.5387  0.4482
  149TCq2    C4 2271   3.159   3.260  11.150 -0.0589 -0.2373 -0.3090
  149TCq2    C5 2272   3.177   3.144  11.222  0.3463  0.5155  0.4196
  149TCq2    C6 2273   3.076   3.104  11.302 -0.3792  0.1676 -0.0512
  149TCq2    C7 2274   2.954   3.164  11.308  0.1280 -0.0176  0.1112
  149TCq2    C8 2275   3.071   2.969  11.339 -0.5201 -0.3577  0.8081
  149TCq2    O4 2276   3.032   2.942  11.454  0.1448 -0.7405 -0.1960
  149TCq2    C9 2277   3.255   3.287  11.047 -0.6103  0.1566  0.3484
  149TCq2    O5 2278   3.222   3.377  10.962 -0.0783 -0.0538 -0.0554
  149TCq2    O6 2279   3.354   3.206  11.032  0.1300 -0.2189  0.0863
  149TCq2    H2 2280   3.023   3.390  11.049 -0.4749 -0.6701  0.3919
  149TCq2    H3 2281   3.266   3.083  11.215  0.1585  0.3635 -0.5802
  149TCq2    H4 2282   2.868   3.131  11.366 -1.4144  2.6826 -0.6526
  150MPD2     C 2283   3.923   2.442  11.857  0.7795  0.2446 -0.6006
  150MPD2    C1 2284   4.011   2.452  11.749  0.0495  0.5410  0.0760
  150MPD2    C2 2285   4.145   2.496  11.772  0.0141 -0.7168  0.6521
  150MPD2    C3 2286   4.174   2.562  11.888 -0.5225  0.0797  0.3526
  150MPD2    C4 2287   4.085   2.551  11.997  0.1368  0.4206 -0.6393
  150MPD2    C5 2288   3.966   2.490  11.980  0.1876 -0.5530  0.4473
  150MPD2     H 2289   4.219   2.497  11.692  0.4252  0.4434  1.0470
  150MPD2    H1 2290   4.097   2.605  12.090  0.7323 -1.2167  0.2298
  150MPD2    H2 2291   3.830   2.386  11.857  1.5137 -0.9891  1.8168
  150MPD2    H3 2292   3.893   2.496  12.061 -0.0462 -0.7840  0.2517
  150MPD2     N 2293   4.296   2.639  11.894 -0.7729  0.2910 -0.6755
  150MPD2    H5 2294   4.347   2.646  11.806  0.5658  1.2179  0.1794
  150MPD2    N1 2295   3.969   2.379  11.632 -0.4519  0.1675 -0.1010
  150MPD2    H7 2296   3.868   2.365  11.637 -0.5686  1.5367  1.3152
  151TCq2    C1 2297   4.359   2.685  12.002  0.8816 -0.6053  0.3574
  151TCq2    O2 2298   4.325   2.687  12.120 -0.5107  0.1484 -0.8284
  151TCq2    C2 2299   4.486   2.754  11.975  0.1303  0.4512 -0.6187
  151TCq2    C3 2300   4.521   2.771  11.844  0.3346  0.1080  0.3474
  151TCq2    C4 2301   4.647   2.811  11.820 -0.2594 -0.2236  0.6632
  151TCq2    C5 2302   0.010   2.825  11.924  0.6474 -0.6680 -0.1101
  151TCq2    C6 2303   4.701   2.789  12.048  0.5254 -0.5811  0.4512
  151TCq2    C7 2304   4.572   2.747  12.076 -0.0204 -0.0131 -0.2451
  151TCq2    C8 2305   0.071   2.783  12.163  0.4311  0.5988 -0.2098
  151TCq2    O4 2306   0.129   2.885  12.197  0.3046 -0.6515 -0.5316
  151TCq2    C9 2307   4.688   2.836  11.682 -0.7821 -0.8233 -0.1277
  151TCq2    O5 2308   0.079   2.889  11.668 -0.2314  0.2936  0.5281
  151TCq2    O6 2309   4.618   2.792  11.591  0.3026  0.4188  0.3983
  151TCq2    H2 2310   4.453   2.759  11.760  1.1180 -0.0558 -0.2663
  151TCq2    H3 2311   0.112   2.858  11.907  0.9960 -1.8472 -0.2839
  151TCq2    H4 2312   4.531   2.727  12.175 -0.8639  6.7096  0.7373
  152MPD2     C 2313   4.392   1.970  12.753 -0.0468 -1.1530 -0.0877
  152MPD2    C1 2314   4.424   2.103  12.732 -0.2767  0.0715 -0.4306
  152MPD2    C2 2315   4.324   2.203  12.764  1.1149 -0.3019 -0.0567
  152MPD2    C3 2316   4.204   2.157  12.816 -0.1804  1.4945 -0.8519
  152MPD2    C4 2317   4.182   2.026  12.842 -0.6253  1.0468 -0.6495
  152MPD2    C5 2318   4.269   1.933  12.802  0.7882 -0.5252  0.0736
  152MPD2     H 2319   4.340   2.308  12.743 -3.0179  0.3966  0.2468
  152MPD2    H1 2320   4.086   1.991  12.878 -0.8657  1.1257 -1.2092
  152MPD2    H2 2321   4.461   1.892  12.723  1.0056  0.4242 -1.7944
  152MPD2    H3 2322   4.237   1.829  12.801  0.5742 -0.4517 -1.4701
  152MPD2     N 2323   4.098   2.254  12.826  0.2498  0.1657 -0.2774
  152MPD2    H5 2324   4.132   2.349  12.816  0.5573  0.0705 -0.1487
  152MPD2    N1 2325   4.550   2.134  12.675  0.2629  0.1148  0.5458
  152MPD2    H7 2326   4.617   2.058  12.669  0.9641  0.6641  1.3668
  153TCq2    C1 2327   4.593   2.259  12.649 -0.5603 -0.6700 -0.6351
  153TCq2    O2 2328   4.530   2.367  12.639 -0.1589 -0.1273 -0.1864
  153TCq2    C2 2329   0.006   2.280  12.668 -0.2032 -0.1924  0.0645
  153TCq2    C3 2330   0.091   2.180  12.710 -0.6628  0.4779  0.1243
  153TCq2    C4 2331   0.204   2.213  12.774  0.4895 -0.3523  0.2255
  153TCq2    C5 2332   0.237   2.340  12.795 -0.3056  0.5838 -0.0822
  153TCq2    C6 2333   0.165   2.441  12.731  0.0718 -0.4633  0.0953
  153TCq2    C7 2334   0.045   2.416  12.672 -0.0869 -0.0792  0.6181
  153TCq2    C8 2335   0.176   2.581  12.770  0.3375 -0.4890  0.5080
  153TCq2    O4 2336   0.086   2.655  12.743 -0.7010 -0.4293 -0.0686
  153TCq2    C9 2337   0.282   2.108  12.847  0.5406 -0.6948 -0.1480
  153TCq2    O5 2338   0.213   2.031  12.914 -0.0180 -0.3108  0.2765
  153TCq2    O6 2339   0.406   2.136  12.860 -0.3269  0.0572  0.5754
  153TCq2    H2 2340   0.068   2.074  12.700  1.3446  0.1195 -0.7505
  153TCq2    H3 2341   0.315   2.370  12.864 -0.6735  0.1995  0.4962
  153TCq2    H4 2342   4.723   2.498  12.617  0.9229 -0.5511 -0.9409
  154MPD2     C 2343   1.829   2.457   0.207  0.2027 -0.6409 -0.0574
  154MPD2    C1 2344   1.898   2.500   0.319  0.3421  0.4643  0.2818
  154MPD2    C2 2345   1.840   2.591   0.408  0.1154  0.2364  0.1355
  154MPD2    C3 2346   1.711   2.631   0.391 -0.2183 -0.1252 -0.2730
  154MPD2    C4 2347   1.637   2.585   0.280 -0.3797 -0.0395  0.0924
  154MPD2    C5 2348   1.691   2.496   0.192  0.4501 -0.2185 -0.2258
  154MPD2     H 2349   1.886   2.615   0.503 -0.0236 -1.0729  0.5358
  154MPD2    H1 2350   1.539   2.625   0.253  0.0554 -0.1730 -1.6860
  154MPD2    H2 2351   1.874   2.382   0.143 -0.4004  1.4478 -2.9044
  154MPD2    H3 2352   1.635   2.458   0.107  1.1762  0.4240 -0.9874
  154MPD2     N 2353   1.655   2.716   0.490  0.3727 -0.1363  0.6693
  154MPD2    H5 2354   1.723   2.748   0.558 -0.0482  0.3844  0.8428
  154MPD2    N1 2355   2.024   2.441   0.334  0.4595  0.6698  0.4837
  154MPD2    H7 2356   2.046   2.373   0.262  0.9831  1.6584 -0.2965
  155TCq2    C1 2357   2.122   2.474   0.424  0.1247  0.0638 -0.2219
  155TCq2    O2 2358   2.128   2.572   0.496 -0.2254 -0.1568  0.4891
  155TCq2    C2 2359   2.246   2.391   0.417  0.0526 -0.0398  0.5539
  155TCq2    C3 2360   2.362   2.453   0.447  0.4552 -0.2476 -0.2611
  155TCq2    C4 2361   2.480   2.389   0.431 -0.1369  0.0684  0.2713
  155TCq2    C5 2362   2.477   2.263   0.371  0.5196 -0.6998  0.3300
  155TCq2    C6 2363   2.364   2.206   0.332 -0.9739  0.3136 -0.3770
  155TCq2    C7 2364   2.247   2.267   0.355 -0.0148  0.0751 -0.9587
  155TCq2    C8 2365   2.383   2.069   0.289  0.0810  0.6339  0.1247
  155TCq2    O4 2366   2.480   2.004   0.323 -0.2535 -0.1378 -0.0723
  155TCq2    C9 2367   2.610   2.440   0.475 -0.0865  0.6097 -0.3828
  155TCq2    O5 2368   2.612   2.559   0.509 -0.0229  0.2301 -0.3558
  155TCq2    O6 2369   2.714   2.389   0.435  0.4288  0.0169  0.4598
  155TCq2    H2 2370   2.373   2.554   0.486 -3.0116  0.9319 -2.3346
  155TCq2    H3 2371   2.569   2.212   0.342 -0.4920 -1.5349 -1.3914
  155TCq2    H4 2372   2.155   2.217   0.328 -0.9528  0.6856  1.1067
  156MPD2     C 2373   4.274   4.436  11.645 -0.1926  0.0117 -0.9044
  156MPD2    C1 2374   4.319   4.559  11.604 -0.0285 -0.5085  0.0203
  156MPD2    C2 2375   4.424   4.610  11.673  0.0662 -0.3756  0.2993
  156MPD2    C3 2376   4.472   4.541  11.788  0.0589  0.2077 -0.0694
  156MPD2    C4 2377   4.434   4.409  11.817 -0.0108 -0.2433 -0.2677
  156MPD2    C5 2378   4.334   4.362  11.744 -0.1885 -0.8080 -0.1475
  156MPD2     H 2379   4.473   4.703  11.646  0.0735 -1.0925 -2.1848
  156MPD2    H1 2380   4.468   4.354  11.904 -0.8009 -0.1602  0.0973
  156MPD2    H2 2381   4.185   4.404  11.592 -0.3292  0.5186 -0.9731
  156MPD2    H3 2382   4.294   4.261  11.754 -1.1848 -0.5740 -1.8697
  156MPD2     N 2383   4.565   4.610  11.865  0.0952  0.3922 -0.9911
  156MPD2    H5 2384   4.594   4.700  11.827  1.1889  0.4749  0.0502
  156MPD2    N1 2385   4.241   4.622  11.503 -0.2966  0.4487  0.2426
  156MPD2    H7 2386   4.161   4.573  11.463  0.5937  1.1982 -2.4789
  157TCq2    C1 2387   4.283   0.018  11.443 -0.0252  0.7248 -0.0232
  157TCq2    O2 2388   4.362   0.102  11.483  0.3036  0.2556  0.1684
  157TCq2    C2 2389   4.203   0.046  11.326  0.3715 -0.3530  1.0141
  157TCq2    C3 2390   4.088   4.690  11.306  0.5664 -0.3438 -0.4642
  157TCq2    C4 2391   3.980   0.017  11.250  0.2197 -0.3241 -0.0878
  157TCq2    C5 2392   3.978   0.153  11.216  0.2812  0.0537 -0.0566
  157TCq2    C6 2393   4.080   0.232  11.252 -0.1183 -1.0858 -0.2411
  157TCq2    C7 2394   4.197   0.174  11.296 -0.1234  0.2192 -0.1465
  157TCq2    C8 2395   4.085   0.371  11.209 -0.6020 -0.0513  0.5249
  157TCq2    O4 2396   4.193   0.426  11.210  0.3847  0.1968 -0.3601
  157TCq2    C9 2397   3.870   4.659  11.210  0.6132  0.0226  0.0705
  157TCq2    O5 2398   3.870   4.539  11.237 -0.6290  0.7788 -0.1820
  157TCq2    O6 2399   3.803   4.713  11.117  0.3305  0.1042  0.1429
  157TCq2    H2 2400   4.080   4.584  11.328 -1.8926 -0.2596 -0.9276
  157TCq2    H3 2401   3.890   0.192  11.165  0.1059  1.9864  1.7120
  157TCq2    H4 2402   4.281   0.237  11.325  1.5206 -1.6363 -0.8762
  158TMC2    C1 2403   0.495   3.490  13.811  1.2622  0.1803  0.4238
  158TMC2    C2 2404   0.544   3.610  13.779 -1.1627 -0.5619  0.3248
  158TMC2    C3 2405   0.473   3.723  13.798 -0.5167  0.5628 -0.5873
  158TMC2    C4 2406   0.371   3.476  13.869 -0.4104 -0.4505 -0.5216
  158TMC2    C5 2407   0.300   3.590  13.890  0.9238  0.5558 -0.2757
  158TMC2    C6 2408   0.354   3.717  13.860 -0.0493 -0.1806  0.2579
  158TMC2     C 2409   0.576   3.378  13.766  0.2876 -0.4841  0.4145
  158TMC2     O 2410   0.657   3.397  13.675  0.6843  0.5197 -0.2227
  158TMC2     H 2411   0.642   3.620  13.735 -0.6777  2.9836  2.2405
  158TMC2    H1 2412   0.327   3.377  13.880  1.1218 -1.0576  0.2067
  158TMC2    H2 2413   0.291   3.805  13.867 -0.7712 -0.5555 -1.5526
  158TMC2    C7 2414   0.155   3.586  13.923 -0.6532  0.1558 -0.6620
  158TMC2    C8 2415   0.538   3.847  13.761  0.2506  0.0163  0.4150
  158TMC2    O1 2416   0.099   3.697  13.913 -0.7949  0.3308  0.1896
  158TMC2    O2 2417   0.614   3.847  13.661 -0.4012 -0.2245  0.0828
  158TMC2    O5 2418   0.565   3.909  13.886  0.2317  0.4137  0.1211
  158TMC2    H5 2419   0.512   3.866  13.956 -2.1655  1.6312 -0.9530
  159MPD2     C 2420   0.746   2.897  13.808 -0.2115 -0.4662 -0.6171
  159MPD2    C1 2421   0.704   2.945  13.930  0.3312  0.0009 -0.1175
  159MPD2    C2 2422   0.635   3.060  13.942  0.8034  0.4484  0.3451
  159MPD2    C3 2423   0.625   3.141  13.828  0.2042  0.3075 -0.1680
  159MPD2    C4 2424   0.683   3.107  13.709 -0.0142 -0.0388  0.1389
  159MPD2    C5 2425   0.734   2.979  13.703  0.3657  0.2142 -0.1747
  159MPD2     H 2426   0.603   3.104  14.036  0.0709  1.1792 -0.2552
  159MPD2    H1 2427   0.673   3.169  13.621  4.7208  0.1581 -0.2668
  159MPD2    H2 2428   0.798   2.804  13.789  0.8680  0.2323 -1.0777
  159MPD2    H3 2429   0.768   2.953  13.604  1.6958 -2.6230  1.0323
  159MPD2     N 2430   0.560   3.264  13.847  0.1224  1.1050 -0.7892
  159MPD2    H5 2431   0.505   3.270  13.931  0.0027  0.0282 -0.7885
  159MPD2    N1 2432   0.728   2.862  14.038 -0.1974  0.3484  0.5864
  159MPD2    H7 2433   0.757   2.766  14.020  0.5209  1.1133 -2.3124
  160TMC2    C1 2434   1.050   1.718   1.069  0.0687 -0.3359 -0.1108
  160TMC2    C2 2435   1.042   1.584   1.062  0.4762 -0.3973 -0.3497
  160TMC2    C3 2436   1.131   1.511   0.989  0.5365 -0.4760  0.7547
  160TMC2    C4 2437   1.158   1.783   1.003 -0.1827 -0.2259 -0.0421
  160TMC2    C5 2438   1.261   1.706   0.950 -0.1058  0.7310  0.3401
  160TMC2    C6 2439   1.242   1.571   0.934 -0.3607 -0.3235  0.3585
  160TMC2     C 2440   0.953   1.789   1.152  0.4336 -0.7587  0.2256
  160TMC2     O 2441   0.890   1.723   1.230  0.4394 -0.1191 -0.0446
  160TMC2     H 2442   0.957   1.536   1.109  0.6307 -0.6701 -0.3492
  160TMC2    H1 2443   1.155   1.892   1.008  0.9021 -0.1783 -0.4686
  160TMC2    H2 2444   1.314   1.525   0.868 -0.9436 -0.5648 -0.1017
  160TMC2    C7 2445   1.383   1.773   0.895  0.4130 -0.3249  0.3139
  160TMC2    C8 2446   1.087   1.374   0.962  0.0060 -0.2212 -0.0958
  160TMC2    O1 2447   1.446   1.709   0.814 -0.1043  0.1327 -0.0097
  160TMC2    O2 2448   0.970   1.340   0.971 -0.3093 -0.1529 -0.4425
  160TMC2    O5 2449   1.197   1.290   0.960  0.2610  0.7770 -0.3281
  160TMC2    H5 2450   1.287   1.331   0.958  0.5804  0.0700 -0.4704
  161MPD2     C 2451   0.712   1.956   1.218 -0.1937 -0.6120 -0.8477
  161MPD2    C1 2452   0.790   1.979   1.103  0.4893  1.0348 -0.5585
  161MPD2    C2 2453   0.745   2.071   1.010  0.9388 -0.4848  0.3287
  161MPD2    C3 2454   0.630   2.135   1.026 -0.3722  0.2969 -0.1280
  161MPD2    C4 2455   0.552   2.110   1.139 -0.0067 -0.1402 -1.0584
  161MPD2    C5 2456   0.603   2.031   1.236 -0.1151  0.2357  0.1281
  161MPD2     H 2457   0.803   2.076   0.918 -1.0591  0.3105 -0.8898
  161MPD2    H1 2458   0.460   2.163   1.159 -0.2616 -0.1666 -2.1812
  161MPD2    H2 2459   0.749   1.889   1.294  2.3396 -0.6005 -2.0765
  161MPD2    H3 2460   0.544   2.011   1.324 -2.2922  2.9781 -0.7062
  161MPD2     N 2461   0.567   2.223   0.934  0.1083  0.4746  0.2936
  161MPD2    H5 2462   0.481   2.267   0.964 -0.9735 -2.8265  1.9748
  161MPD2    N1 2463   0.911   1.905   1.082 -0.0423 -0.5902  0.2861
  161MPD2    H7 2464   0.953   1.905   0.989 -2.3077 -1.2640 -0.7430
  162TMC2    C1 2465   3.298   4.173   0.703 -1.1623  0.2034 -0.5232
  162TMC2    C2 2466   3.277   4.306   0.699  0.6182 -0.1413 -0.2245
  162TMC2    C3 2467   3.215   4.376   0.799 -0.2207  0.5460 -0.0431
  162TMC2    C4 2468   3.252   4.103   0.810 -0.5700  0.5441  0.3566
  162TMC2    C5 2469   3.184   4.171   0.910 -0.2340 -0.3831 -0.1212
  162TMC2    C6 2470   3.171   4.311   0.907 -0.1604 -0.1210  0.7763
  162TMC2     C 2471   3.377   4.107   0.605  0.1768 -0.3568  0.7886
  162TMC2     O 2472   3.345   3.990   0.578  0.4230  0.7437  0.2528
  162TMC2     H 2473   3.315   4.365   0.616 -0.7662 -1.4194 -1.7652
  162TMC2    H1 2474   3.254   3.995   0.811  1.2960  0.5866  1.6390
  162TMC2    H2 2475   3.129   4.362   0.993  2.1958  0.7947  1.3973
  162TMC2    C7 2476   3.176   4.114   1.041 -0.6763  0.2403  0.3043
  162TMC2    C8 2477   3.229   4.519   0.794 -0.4342  1.2185  0.0627
  162TMC2    O1 2478   3.086   4.138   1.122 -0.7548  0.2702 -0.0285
  162TMC2    O2 2479   3.242   4.571   0.685 -0.1908 -0.3304 -0.4194
  162TMC2    O5 2480   3.272   4.567   0.911 -0.3321 -0.0296  0.0108
  162TMC2    H5 2481   3.281   4.501   0.983 -0.0331 -0.1802 -0.1639
  163MPD2     C 2482   3.737   4.138   0.240 -0.3761 -0.1378 -0.1474
  163MPD2    C1 2483   3.628   4.052   0.252  0.0462 -0.0317  0.2196
  163MPD2    C2 2484   3.536   4.068   0.356 -0.2931 -0.1064  0.6527
  163MPD2    C3 2485   3.553   4.172   0.446 -0.1768 -0.0594 -0.7125
  163MPD2    C4 2486   3.652   4.261   0.427 -0.7329 -0.1511 -0.4831
  163MPD2    C5 2487   3.749   4.248   0.323  0.3163  0.0393  0.3350
  163MPD2     H 2488   3.452   4.000   0.362  0.2650 -0.8983 -0.5248
  163MPD2    H1 2489   3.655   4.351   0.487 -3.1394 -1.0737  1.0092
  163MPD2    H2 2490   3.805   4.125   0.156 -0.0620  3.6552 -0.4714
  163MPD2    H3 2491   3.829   4.319   0.309 -0.2974  0.9102  1.2400
  163MPD2     N 2492   3.479   4.188   0.565  0.5951 -0.1361  0.2811
  163MPD2    H5 2493   3.493   4.271   0.622 -1.2683 -0.5289  1.3164
  163MPD2    N1 2494   3.618   3.949   0.156 -0.7875  0.0795 -0.3843
  163MPD2    H7 2495   3.701   3.930   0.101 -0.3618 -3.0028  1.3379
  164TCq2    C1 2496   3.509   3.243  11.504  0.0313 -0.7117  0.0139
  164TCq2    O2 2497   3.484   3.211  11.622 -0.0111 -0.1672  0.2570
  164TCq2    C2 2498   3.471   3.378  11.475 -0.1991  0.0747  0.1189
  164TCq2    C3 2499   3.536   3.436  11.370 -0.2558  0.8455  0.3834
  164TCq2    C4 2500   3.466   3.534  11.297 -0.5966  0.0740 -0.1535
  164TCq2    C5 2501   3.327   3.547  11.317 -0.5166  0.3919  0.4773
  164TCq2    C6 2502   3.261   3.480  11.420 -0.3419  0.3018  0.1045
  164TCq2    C7 2503   3.336   3.396  11.502  0.1962  0.0865  0.0944
  164TCq2    C8 2504   3.116   3.494  11.430  0.2817 -0.5695 -0.9169
  164TCq2    O4 2505   3.069   3.592  11.375 -0.4368 -0.2804 -0.0014
  164TCq2    C9 2506   3.529   3.592  11.185 -0.4313  0.3080 -0.0847
  164TCq2    O5 2507   3.606   3.512  11.125 -0.0969 -0.0921  0.0982
  164TCq2    O6 2508   3.477   3.698  11.135  0.1532 -0.8279  0.6427
  164TCq2    H2 2509   3.639   3.410  11.349 -1.3384 -1.8073 -1.5769
  164TCq2    H3 2510   3.260   3.593  11.245  2.4582  1.5415 -1.5852
  164TCq2    H4 2511   3.291   3.350  11.590  0.2474 -1.5813 -0.7618
  165MPD2     C 2512   0.862   0.393   2.120  0.3061 -0.1173 -0.3908
  165MPD2    C1 2513   0.779   0.344   2.026 -0.4887  0.0497 -0.0530
  165MPD2    C2 2514   0.663   0.416   1.989 -0.8123  0.4508 -0.7112
  165MPD2    C3 2515   0.634   0.526   2.064 -1.0085  0.0735 -0.6417
  165MPD2    C4 2516   0.711   0.566   2.167 -0.4836 -0.1839 -0.0329
  165MPD2    C5 2517   0.833   0.504   2.193  0.1464  0.4222 -0.4846
  165MPD2     H 2518   0.595   0.370   1.920  1.6167 -1.9127 -1.5240
  165MPD2    H1 2519   0.685   0.645   2.237  0.3629  1.3649 -1.4432
  165MPD2    H2 2520   0.951   0.335   2.144 -0.8103 -1.1942  1.1447
  165MPD2    H3 2521   0.896   0.539   2.274  0.0104 -2.2810  0.7638
  165MPD2     N 2522   0.513   0.599   2.056 -0.0733  0.2552  0.2495
  165MPD2    H5 2523   0.514   0.679   2.119  1.2269  1.7427 -1.7048
  165MPD2    N1 2524   0.810   0.219   1.968  0.3211  0.4698 -0.4248
  165MPD2    H7 2525   0.906   0.188   1.971  0.6279  1.4695 -0.0397
  166TCq2    C1 2526   0.397   0.576   1.986  0.2273 -0.4988 -0.1819
  166TCq2    O2 2527   0.358   0.480   1.920  0.0127 -0.2756  0.5402
  166TCq2    C2 2528   0.319   0.691   1.960  0.6050 -0.2065 -0.2349
  166TCq2    C3 2529   0.193   0.661   1.911  0.0213  0.0625 -0.3420
  166TCq2    C4 2530   0.133   0.740   1.819  0.0225 -0.5998 -0.1360
  166TCq2    C5 2531   0.207   0.851   1.782 -0.2427 -0.5546 -0.1197
  166TCq2    C6 2532   0.325   0.885   1.837  0.0693  0.2234  0.0538
  166TCq2    C7 2533   0.386   0.805   1.924 -0.5247 -0.9796 -0.2478
  166TCq2    C8 2534   0.414   0.982   1.773  0.6153 -0.5179  0.4011
  166TCq2    O4 2535   0.505   1.031   1.838 -0.6076  0.0635 -0.1699
  166TCq2    C9 2536   4.724   0.711   1.781 -0.1723  0.5861 -0.1756
  166TCq2    O5 2537   4.662   0.796   1.712 -0.2807  0.5900 -0.5591
  166TCq2    O6 2538   4.665   0.620   1.851  0.4857 -0.2429 -0.2824
  166TCq2    H2 2539   0.142   0.572   1.946 -0.2250  0.9155  1.4919
  166TCq2    H3 2540   0.154   0.926   1.725 -0.7041 -1.2368 -0.6002
  166TCq2    H4 2541   0.485   0.829   1.959 -0.3557 -0.7850 -0.8602
  167TMC2    C1 2542   2.346   3.475  12.753  0.5145  0.0271 -0.5241
  167TMC2    C2 2543   2.335   3.585  12.834  0.5070  0.9035  0.6241
  167TMC2    C3 2544   2.393   3.567  12.955 -0.5425 -0.4453 -0.5762
  167TMC2    C4 2545   2.412   3.361  12.780 -0.9495 -0.8207 -0.3911
  167TMC2    C5 2546   2.470   3.352  12.902 -0.3608 -0.8037  0.1563
  167TMC2    C6 2547   2.453   3.453  12.997 -0.3343  0.0876  0.0451
  167TMC2     C 2548   2.274   3.486  12.617 -0.3316  0.1115  0.2050
  167TMC2     O 2549   2.232   3.597  12.594  0.7312  0.1255 -0.1624
  167TMC2     H 2550   2.283   3.676  12.806 -0.2713 -0.0108 -0.9390
  167TMC2    H1 2551   2.440   3.294  12.699  0.1707  1.9712 -2.3116
  167TMC2    H2 2552   2.488   3.454  13.100 -0.2428  1.0424  0.0097
  167TMC2    C7 2553   2.486   3.214  12.952 -0.9083 -0.4011 -0.2059
  167TMC2    C8 2554   2.350   3.653  13.061 -0.3770  0.0459  0.1021
  167TMC2    O1 2555   2.446   3.190  13.067  0.3812  0.6142 -0.0390
  167TMC2    O2 2556   2.330   3.624  13.177  0.3229 -0.3372  0.5829
  167TMC2    O5 2557   2.328   3.776  13.010 -0.2005 -0.0176 -0.0406
  167TMC2    H5 2558   2.389   3.784  12.933  1.5999  0.7522  1.4708
  168MPD2     C 2559   2.148   3.448  12.347  0.4278  0.7412  0.4001
  168MPD2    C1 2560   2.221   3.352  12.413 -0.5056 -0.3688  0.3350
  168MPD2    C2 2561   2.231   3.235  12.346 -0.0665 -0.9889 -0.3642
  168MPD2    C3 2562   2.157   3.204  12.225 -1.6716  0.3762 -0.1339
  168MPD2    C4 2563   2.089   3.306  12.163 -0.1011  0.2543 -0.4312
  168MPD2    C5 2564   2.087   3.425  12.227 -0.0077  0.0528 -0.0048
  168MPD2     H 2565   2.298   3.159  12.383  1.7739  0.9845  0.3969
  168MPD2    H1 2566   2.039   3.287  12.068  0.8958  1.4285 -1.1899
  168MPD2    H2 2567   2.128   3.539  12.402 -0.7886  0.9569 -0.4118
  168MPD2    H3 2568   2.026   3.506  12.190 -2.2031 -1.7824 -0.4055
  168MPD2     N 2569   2.175   3.076  12.150  0.0038 -0.6386  0.6203
  168MPD2    H5 2570   2.139   3.072  12.056  0.5428 -1.1603  0.4345
  168MPD2    N1 2571   2.278   3.367  12.544  0.1365  0.4972  0.1665
  168MPD2    H7 2572   2.334   3.287  12.573  0.2431 -0.1131 -1.7033
  169MPD1     C 2573   1.653   2.683   9.284  0.4483 -0.2068  0.3831
  169MPD1    C1 2574   1.567   2.672   9.390  0.0929  0.2653 -0.5973
  169MPD1    C2 2575   1.485   2.563   9.396 -0.5784  0.5912 -1.0353
  169MPD1    C3 2576   1.501   2.457   9.301  0.0716  0.2612 -0.1542
  169MPD1    C4 2577   1.587   2.471   9.196 -0.3084  0.0950  0.3576
  169MPD1    C5 2578   1.666   2.577   9.199 -0.0210  0.8147 -0.7247
  169MPD1     H 2579   1.414   2.548   9.476 -0.0781 -1.5390 -0.9954
  169MPD1    H1 2580   1.604   2.394   9.121 -1.7410  0.2528 -0.1391
  169MPD1    H2 2581   1.725   2.764   9.275  0.5483 -0.3049  0.2970
  169MPD1    H3 2582   1.739   2.597   9.122  1.1189 -0.8965 -0.0975
  169MPD1     N 2583   1.427   2.341   9.324  0.6824  0.0638 -0.8926
  169MPD1    H5 2584   1.370   2.344   9.407 -1.3396 -1.2123 -2.2390
  169MPD1    N1 2585   1.560   2.776   9.494  0.0831 -0.1307 -0.2600
  169MPD1    H6 2586   1.631   2.849   9.484  1.1486 -1.4011 -2.0837
  169MPD1    H7 2587   1.568   2.753   9.592 -4.2159  2.1359  0.6187
  170MPD1     C 2588   3.040   0.093  13.315 -0.0290 -0.1439 -0.6161
  170MPD1    C1 2589   3.082   0.072  13.444  0.3725  0.3461 -0.7769
  170MPD1    C2 2590   3.208   0.124  13.476  0.6468  0.5158 -0.2788
  170MPD1    C3 2591   3.284   0.203  13.392 -0.5499  0.2747  0.8708
  170MPD1    C4 2592   3.235   0.229  13.271  0.2856 -0.2000 -0.4401
  170MPD1    C5 2593   3.118   0.167  13.233 -0.7328 -0.2012 -0.4095
  170MPD1     H 2594   3.237   0.121  13.580  1.0851  0.9635 -0.3893
  170MPD1    H1 2595   3.281   0.296  13.199 -0.1776 -0.4043 -0.9244
  170MPD1    H2 2596   2.941   0.077  13.276 -0.9365 -0.7144  1.9103
  170MPD1    H3 2597   3.084   0.201  13.136 -0.0287  1.8618  0.0630
  170MPD1     N 2598   3.398   0.265  13.451  0.2696  0.0875  0.4524
  170MPD1    H5 2599   3.412   0.260  13.551 -2.3685 -2.3192  0.7074
  170MPD1    N1 2600   2.988   0.029  13.532  0.2803  0.3786  0.2010
  170MPD1    H6 2601   2.909   4.707  13.488  1.0879  0.9020 -1.7660
  170MPD1    H7 2602   3.023   4.693  13.606  0.8440 -0.3100 -0.6295
  171MPD1     C 2603   2.662   1.864  15.296 -0.5262 -0.2419 -0.1619
  171MPD1    C1 2604   2.611   1.734  15.307  0.1804 -0.1874  0.0760
  171MPD1    C2 2605   2.619   1.673  15.433 -0.2571 -0.0481  0.4776
  171MPD1    C3 2606   2.687   1.728  15.543  0.1490  0.1222  0.7406
  171MPD1    C4 2607   2.755   1.845  15.516 -0.5349 -0.3234 -0.2037
  171MPD1    C5 2608   2.742   1.907  15.393  0.4684 -0.6354  0.1567
  171MPD1     H 2609   2.592   1.568  15.431 -1.2760  0.2060  0.8159
  171MPD1    H1 2610   2.817   1.903  15.584  2.0903  0.2222 -3.1004
  171MPD1    H2 2611   2.662   1.914  15.200  1.4969  1.4135  0.7084
  171MPD1    H3 2612   2.804   1.994  15.370 -1.7275  1.0202  0.5105
  171MPD1     N 2613   2.691   1.659  15.671 -0.4149 -0.3587 -0.5004
  171MPD1    H5 2614   2.753   1.708  15.735 -1.6132 -1.5659  1.5954
  171MPD1    N1 2615   2.528   1.685  15.205 -0.8334  0.1082  0.1017
  171MPD1    H6 2616   2.540   1.585  15.184  1.5080  0.7596 -1.6945
  171MPD1    H7 2617   2.542   1.720  15.110  0.7898  1.2761  0.8008
  172MPD1     C 2618   2.025   0.765   0.309  0.1773 -0.0186  0.0718
  172MPD1    C1 2619   1.931   0.865   0.332 -0.7455  1.2773 -0.0031
  172MPD1    C2 2620   1.977   0.996   0.356 -0.4956 -0.7534 -0.1437
  172MPD1    C3 2621   2.103   1.009   0.397 -0.1216 -0.1756 -0.8366
  172MPD1    C4 2622   2.199   0.915   0.370  0.0150 -0.3845 -0.6432
  172MPD1    C5 2623   2.156   0.795   0.332  0.1588  0.3799 -0.5841
  172MPD1     H 2624   1.910   1.077   0.383 -1.4605 -1.3751 -0.6887
  172MPD1    H1 2625   2.306   0.926   0.387 -0.1064  2.0185 -1.4776
  172MPD1    H2 2626   2.003   0.663   0.279 -3.2440  1.1352 -1.2885
  172MPD1    H3 2627   2.224   0.711   0.329  0.4415  0.6102 -0.6824
  172MPD1     N 2628   2.159   1.131   0.441  0.2247 -0.5339  0.3908
  172MPD1    H5 2629   2.259   1.139   0.456  0.2688 -1.5697  0.6922
  172MPD1    N1 2630   1.790   0.839   0.302 -0.2489 -0.1354 -0.6237
  172MPD1    H6 2631   1.767   0.741   0.318  0.8104 -0.2951 -0.0294
  172MPD1    H7 2632   1.724   0.895   0.356 -2.6628 -1.7005 -1.9597
  173MPD1     C 2633   3.185   1.326  14.320  0.8191 -0.1122  0.0879
  173MPD1    C1 2634   3.196   1.199  14.270 -0.4578 -0.1353 -0.6031
  173MPD1    C2 2635   3.146   1.100  14.351 -0.5708 -0.4108  0.1948
  173MPD1    C3 2636   3.074   1.128  14.467 -0.0279 -0.6956 -0.7095
  173MPD1    C4 2637   3.044   1.258  14.500 -0.0171 -0.5329  0.0315
  173MPD1    C5 2638   3.103   1.354  14.431  0.3153 -0.4752  0.5004
  173MPD1     H 2639   3.165   0.996  14.328  0.1205 -0.8376  2.6493
  173MPD1    H1 2640   2.986   1.281  14.589 -0.0207 -0.6939  0.0712
  173MPD1    H2 2641   3.240   1.411  14.281 -2.0051  0.7582 -1.9381
  173MPD1    H3 2642   3.076   1.453  14.466 -2.5520 -0.9308 -0.4016
  173MPD1     N 2643   3.035   1.018  14.543 -0.3555  0.1648 -0.0021
  173MPD1    H5 2644   3.074   0.933  14.502 -1.6753  0.2795 -1.4913
  173MPD1    N1 2645   3.275   1.169  14.160  0.5774  0.3406  0.0148
  173MPD1    H6 2646   3.273   1.238  14.085 -0.4772  1.2600  0.8804
  173MPD1    H7 2647   3.233   1.082  14.129  0.5457  1.1527 -2.2616
  174MPD1     C 2648   3.261   0.263  14.277  0.4763 -0.5602  0.7671
  174MPD1    C1 2649   3.180   0.221  14.378  1.0945  0.4717 -0.4369
  174MPD1    C2 2650   3.101   0.308  14.447 -0.4401  0.2758  0.4397
  174MPD1    C3 2651   3.121   0.443  14.433  0.5270 -0.0554 -0.3336
  174MPD1    C4 2652   3.221   0.484  14.348 -0.2138 -0.1693 -0.5679
  174MPD1    C5 2653   3.285   0.397  14.266  0.3511 -0.1077 -0.3370
  174MPD1     H 2654   3.027   0.266  14.513  0.2343  0.3350  1.2254
  174MPD1    H1 2655   3.248   0.588  14.336 -1.1908  0.1530 -0.0394
  174MPD1    H2 2656   3.313   0.190  14.216  0.3216 -0.3076  0.3313
  174MPD1    H3 2657   3.351   0.444  14.194 -0.3071 -1.3748 -1.7798
  174MPD1     N 2658   3.048   0.543  14.505 -0.5523  0.1187 -1.0846
  174MPD1    H5 2659   3.093   0.634  14.509 -3.1144  1.2600  1.5045
  174MPD1    N1 2660   3.163   0.081  14.403  0.0189  0.0426  0.1739
  174MPD1    H6 2661   3.130   0.058  14.496  4.9814 -0.1238  1.8738
  174MPD1    H7 2662   3.238   0.018  14.375  2.3604  2.4114  1.2374
  175MPD1     C 2663   1.835   1.416  15.625 -0.2364 -0.2870 -0.1716
  175MPD1    C1 2664   1.703   1.379  15.661  0.3850 -0.0999 -0.0062
  175MPD1    C2 2665   1.676   1.371  15.799 -0.0401 -0.5711 -0.5215
  175MPD1    C3 2666   1.772   1.384  15.899 -0.3720 -0.1864  0.2057
  175MPD1    C4 2667   1.903   1.412  15.862  0.1147  0.2187  0.5778
  175MPD1    C5 2668   1.933   1.430  15.721 -0.3179 -0.9375  0.7579
  175MPD1     H 2669   1.572   1.360  15.829  0.3087  0.5351  1.1354
  175MPD1    H1 2670   1.981   1.419  15.937  0.9257 -2.2692 -0.0090
  175MPD1    H2 2671   1.857   1.430  15.520  0.2416 -1.7902 -0.2682
  175MPD1    H3 2672   2.037   1.442  15.693 -0.0802  0.5157  2.2325
  175MPD1     N 2673   1.738   1.374  16.034 -0.1755  0.7169  0.1341
  175MPD1    H5 2674   1.818   1.363  16.096 -0.5451  4.3906  1.2358
  175MPD1    N1 2675   1.608   1.388  15.560  0.5421  0.0057 -0.4294
  175MPD1    H6 2676   1.634   1.348  15.470 -1.0503 -1.1370 -0.3799
  175MPD1    H7 2677   1.526   1.338  15.594  1.0137 -0.8334 -0.5464
  176MPD1     C 2678   2.907   3.909   0.394 -0.0751 -0.1908 -0.1226
  176MPD1    C1 2679   2.946   4.025   0.453 -0.1026 -0.5413 -0.1562
  176MPD1    C2 2680   3.028   4.117   0.395  0.0150 -0.2696  0.3162
  176MPD1    C3 2681   3.072   4.100   0.269  0.1575 -0.5359 -0.1441
  176MPD1    C4 2682   3.044   3.976   0.206 -0.2202  0.3692  0.6965
  176MPD1    C5 2683   2.957   3.886   0.271  0.8738  0.1031  0.3419
  176MPD1     H 2684   3.050   4.212   0.442  1.0871 -0.9427  1.1880
  176MPD1    H1 2685   3.072   3.953   0.104 -0.4046  1.1687  0.4643
  176MPD1    H2 2686   2.848   3.834   0.447  1.7986 -2.6002 -1.4706
  176MPD1    H3 2687   2.929   3.793   0.223 -0.7187  0.1542  1.1664
  176MPD1     N 2688   3.153   4.201   0.208  0.4239 -0.4540  0.2339
  176MPD1    H5 2689   3.171   4.293   0.248  1.5820 -0.0294 -1.2550
  176MPD1    N1 2690   2.879   4.063   0.573  0.5885 -0.0045 -0.1793
  176MPD1    H6 2691   2.853   3.982   0.629  1.4082 -0.0039  0.1991
  176MPD1    H7 2692   2.934   4.128   0.627 -0.2268  0.2505  0.3376
  177MPD1     C 2693   1.676   2.906  10.672  0.4441 -0.1318 -0.4799
  177MPD1    C1 2694   1.577   2.939  10.760  0.1558  0.0140 -0.4555
  177MPD1    C2 2695   1.441   2.927  10.724  0.0864 -0.0345  0.2482
  177MPD1    C3 2696   1.415   2.882  10.595 -0.4851 -0.2751 -0.0013
  177MPD1    C4 2697   1.515   2.865  10.505  0.1669  0.4737 -0.1760
  177MPD1    C5 2698   1.645   2.869  10.543  0.2094 -0.1000  0.4129
  177MPD1     H 2699   1.367   2.939  10.802  1.1275 -2.8632  1.6535
  177MPD1    H1 2700   1.495   2.828  10.405 -3.6447  2.3745 -0.0835
  177MPD1    H2 2701   1.780   2.916  10.703  0.0195 -2.3183  1.6576
  177MPD1    H3 2702   1.724   2.836  10.477 -0.5503 -1.0057 -0.0534
  177MPD1     N 2703   1.278   2.869  10.566 -0.2695 -0.3528 -0.0578
  177MPD1    H5 2704   1.207   2.880  10.638 -1.2807 -1.8401 -0.8255
  177MPD1    N1 2705   1.609   2.991  10.880  0.2567 -0.0054 -0.1701
  177MPD1    H6 2706   1.552   2.970  10.962 -1.0600  1.1892 -0.7870
  177MPD1    H7 2707   1.709   2.980  10.899  0.1641  2.2319  1.6021
  178MPD1     C 2708   3.599   4.191  17.590  0.7286 -0.9695 -0.1361
  178MPD1    C1 2709   3.507   4.191  17.485  0.0471  0.4234 -0.2377
  178MPD1    C2 2710   3.540   4.263  17.372  0.7706  0.6756  0.3218
  178MPD1    C3 2711   3.653   4.355  17.370 -0.4172 -0.2451  0.3230
  178MPD1    C4 2712   3.723   4.369  17.489 -0.4546 -0.7691 -0.8984
  178MPD1    C5 2713   3.702   4.283  17.592 -0.0173 -0.7114  0.3828
  178MPD1     H 2714   3.466   4.273  17.293  0.9281  1.4947  0.2750
  178MPD1    H1 2715   3.804   4.440  17.492  0.4929 -1.9107  0.0964
  178MPD1    H2 2716   3.582   4.124  17.673  2.1220  1.5146  2.1297
  178MPD1    H3 2717   3.776   4.278  17.671  1.9375 -0.8362 -1.4466
  178MPD1     N 2718   3.689   4.429  17.250 -0.1168  0.2288  0.3236
  178MPD1    H5 2719   3.767   4.494  17.258  0.1122 -0.1624  1.3044
  178MPD1    N1 2720   3.403   4.105  17.486  0.3688  0.4554 -0.4587
  178MPD1    H6 2721   3.330   4.127  17.419  0.6017  3.5940  0.3091
  178MPD1    H7 2722   3.375   4.086  17.582  0.6050 -0.7213 -0.6232
  179MPD1     C 2723   3.403   2.981  15.036 -0.3065 -0.2691 -0.0159
  179MPD1    C1 2724   3.510   2.912  15.095 -0.0811  0.5333  0.3008
  179MPD1    C2 2725   3.480   2.807  15.179 -0.5426  0.2281 -0.5214
  179MPD1    C3 2726   3.360   2.792  15.236  0.1818  0.5330 -0.3355
  179MPD1    C4 2727   3.262   2.869  15.191 -0.4598 -0.0143 -0.0626
  179MPD1    C5 2728   3.278   2.953  15.086  0.2194 -0.0888  0.6061
  179MPD1     H 2729   3.566   2.745  15.202 -1.7987 -1.6236 -0.8231
  179MPD1    H1 2730   3.161   2.857  15.230  0.0953  1.3071  1.7409
  179MPD1    H2 2731   3.419   3.056  14.960 -1.1255  1.4778  1.5231
  179MPD1    H3 2732   3.192   3.000  15.041  0.0270  0.4698  1.5653
  179MPD1     N 2733   3.328   2.695  15.333 -0.7687 -0.3259 -0.0156
  179MPD1    H5 2734   3.229   2.673  15.342 -0.6041 -1.7987 -1.8789
  179MPD1    N1 2735   3.644   2.946  15.057 -0.7685  0.3211  0.1682
  179MPD1    H6 2736   3.709   2.940  15.135  0.5661 -0.5041 -0.9916
  179MPD1    H7 2737   3.662   3.015  14.984  0.3266  0.3114  0.4305
  180MPD1     C 2738   2.993   4.184  15.324  0.8225 -0.4928  0.0802
  180MPD1    C1 2739   3.049   4.278  15.236  0.6660 -0.3232 -0.1336
  180MPD1    C2 2740   3.053   4.243  15.096 -0.0761 -0.2731 -0.3209
  180MPD1    C3 2741   2.990   4.129  15.053 -0.4292 -0.2109 -0.5213
  180MPD1    C4 2742   2.920   4.050  15.145 -0.2243  0.0128  0.3178
  180MPD1    C5 2743   2.922   4.081  15.281 -0.2318  1.2759  0.4610
  180MPD1     H 2744   3.105   4.309  15.027  0.4728 -0.0614  0.2909
  180MPD1    H1 2745   2.870   3.957  15.119  1.1687 -1.0098  1.2672
  180MPD1    H2 2746   3.000   4.193  15.432 -1.6546 -0.3834  0.2379
  180MPD1    H3 2747   2.878   4.015  15.355 -0.3871  1.8742  0.9052
  180MPD1     N 2748   3.007   4.092  14.921 -0.2826 -0.5714  0.4608
  180MPD1    H5 2749   3.086   4.138  14.877 -0.5127 -1.7969 -1.2062
  180MPD1    N1 2750   3.138   4.370  15.291 -0.0648 -0.1691  0.2592
  180MPD1    H6 2751   3.222   4.315  15.303 -0.1577 -0.4138 -0.2310
  180MPD1    H7 2752   3.100   4.397  15.382 -0.1226 -1.0760  0.4990
  181MPD1     C 2753   0.191   4.602  10.294 -0.1032  0.3001  0.4882
  181MPD1    C1 2754   0.276   4.686  10.217  0.6491 -0.0746  0.3945
  181MPD1    C2 2755   0.278   0.097  10.246 -0.2240 -1.0289  0.3336
  181MPD1    C3 2756   0.223   0.151  10.364  0.3756  0.1913 -0.2919
  181MPD1    C4 2757   0.155   0.067  10.447  1.0194 -0.6562  0.0835
  181MPD1    C5 2758   0.139   4.657  10.412 -0.0730  0.1069 -0.0432
  181MPD1     H 2759   0.328   0.160  10.175 -2.4197  1.9163  1.3875
  181MPD1    H1 2760   0.104   0.108  10.534 -1.2631 -2.7798 -0.2574
  181MPD1    H2 2761   0.173   4.498  10.273 -0.9022  0.2454  1.4063
  181MPD1    H3 2762   0.091   4.581  10.472  0.9364 -1.1027 -0.7720
  181MPD1     N 2763   0.239   0.286  10.400 -0.8019 -0.1361 -0.3633
  181MPD1    H5 2764   0.176   0.318  10.472 -0.9047 -0.3858 -0.3445
  181MPD1    N1 2765   0.318   4.647  10.092 -0.6686 -0.5787 -0.1067
  181MPD1    H6 2766   0.380   4.710  10.042 -0.6656 -1.5331 -1.2897
  181MPD1    H7 2767   0.336   4.548  10.083  1.1290 -0.4353  1.9661
  182MPD1     C 2768   0.889   0.763   1.855  0.6750 -0.4121 -0.5661
  182MPD1    C1 2769   0.999   0.729   1.788 -0.0642  0.1465  0.0870
  182MPD1    C2 2770   1.014   0.770   1.656 -0.0449  0.0172 -0.0831
  182MPD1    C3 2771   0.899   0.821   1.597 -0.4491  0.2512 -0.0618
  182MPD1    C4 2772   0.783   0.833   1.656 -0.1007 -0.0323 -0.2443
  182MPD1    C5 2773   0.778   0.808   1.790 -0.0495 -0.9117  0.4413
  182MPD1     H 2774   1.111   0.766   1.607  0.2166  0.2099  0.4166
  182MPD1    H1 2775   0.698   0.874   1.603 -0.3541 -0.0001  0.1853
  182MPD1    H2 2776   0.882   0.751   1.962 -1.1663  1.2369 -0.4979
  182MPD1    H3 2777   0.685   0.820   1.844  1.1844  0.1487  2.3595
  182MPD1     N 2778   0.901   0.864   1.464  0.0050  0.1905  0.2333
  182MPD1    H5 2779   0.821   0.911   1.422 -1.4703 -2.4216  0.1642
  182MPD1    N1 2780   1.113   0.702   1.868 -0.0930 -0.2629 -0.3028
  182MPD1    H6 2781   1.193   0.663   1.818  0.0962 -1.3441  0.8460
  182MPD1    H7 2782   1.093   0.633   1.941 -1.8319  0.5309 -0.0457
  183MPD1     C 2783   0.381   4.219   9.534 -0.1351 -0.8370 -1.1887
  183MPD1    C1 2784   0.506   4.206   9.593  0.2511 -0.5240  0.2992
  183MPD1    C2 2785   0.582   4.321   9.625  0.3292 -0.4448 -0.6551
  183MPD1    C3 2786   0.531   4.439   9.587  0.2018  0.1401 -0.3839
  183MPD1    C4 2787   0.409   4.449   9.520 -0.0043  0.0674 -0.4110
  183MPD1    C5 2788   0.343   4.336   9.489 -0.5365 -0.3719  0.2109
  183MPD1     H 2789   0.673   4.321   9.684 -0.0916 -1.3485 -0.0077
  183MPD1    H1 2790   0.372   4.544   9.483  1.1771  0.8221  0.3539
  183MPD1    H2 2791   0.335   4.134   9.485 -0.5987 -1.2829  0.0186
  183MPD1    H3 2792   0.249   4.343   9.436 -1.0318  0.0601  1.1501
  183MPD1     N 2793   0.606   4.556   9.617  0.4643 -0.0660  0.5349
  183MPD1    H5 2794   0.690   4.541   9.671  1.1213 -1.9390 -1.0083
  183MPD1    N1 2795   0.539   4.088   9.649 -0.5685  0.3820  0.2241
  183MPD1    H6 2796   0.638   4.063   9.655 -0.5373 -1.0155 -5.3472
  183MPD1    H7 2797   0.499   4.023   9.581 -0.7808  0.0839  0.6345
  184MPD1     C 2798   4.594   2.886  10.566 -0.8963  0.2635 -0.0516
  184MPD1    C1 2799   4.683   2.971  10.627 -0.3414 -0.8495  0.2771
  184MPD1    C2 2800   4.671   3.112  10.621 -0.5204 -0.2177  0.9082
  184MPD1    C3 2801   4.558   3.167  10.569  0.2303 -0.5007 -0.3640
  184MPD1    C4 2802   4.457   3.082  10.526  0.0351 -0.3638  0.4481
  184MPD1    C5 2803   4.484   2.948  10.511  0.6583 -0.5876 -0.1076
  184MPD1     H 2804   0.032   3.169  10.654  0.5556 -0.9007 -0.7343
  184MPD1    H1 2805   4.357   3.116  10.498 -1.4087 -2.3748  3.2676
  184MPD1    H2 2806   4.602   2.778  10.571 -0.4940  0.3442  1.0601
  184MPD1    H3 2807   4.408   2.890  10.458 -0.8722 -0.6194  2.1296
  184MPD1     N 2808   4.547   3.307  10.560  0.0360  0.2896 -0.3499
  184MPD1    H5 2809   4.467   3.339  10.505  0.5487 -0.0178 -1.2713
  184MPD1    N1 2810   0.077   2.927  10.678 -0.7815 -1.3321 -0.5526
  184MPD1    H6 2811   0.122   2.984  10.749 -1.0678 -2.1734  0.3132
  184MPD1    H7 2812   0.086   2.833  10.718 -0.5248 -1.4804 -0.9553
  185MPD1     C 2813   3.891   3.621  10.198 -0.9198 -0.0917  0.2502
  185MPD1    C1 2814   3.935   3.751  10.240  0.5247  0.5438  0.1107
  185MPD1    C2 2815   4.060   3.758  10.295 -0.1323 -0.4327  0.4711
  185MPD1    C3 2816   4.138   3.645  10.299 -0.5945 -0.3629  0.3412
  185MPD1    C4 2817   4.091   3.521  10.249 -0.0270 -1.1047 -0.4228
  185MPD1    C5 2818   3.967   3.505  10.197 -0.2588 -0.0574 -0.4660
  185MPD1     H 2819   4.090   3.860  10.319 -1.5417  0.1886 -0.3449
  185MPD1    H1 2820   4.132   3.423  10.270  2.4037  0.1746  0.7818
  185MPD1    H2 2821   3.794   3.611  10.149 -1.5170  1.1302  1.1738
  185MPD1    H3 2822   3.920   3.418  10.151  3.3037 -1.5826 -1.2622
  185MPD1     N 2823   4.268   3.645  10.350  0.1135 -0.5136  0.2956
  185MPD1    H5 2824   4.318   3.558  10.338  0.8635  0.1084 -1.0012
  185MPD1    N1 2825   3.846   3.856  10.260  0.0697  0.2879 -0.2778
  185MPD1    H6 2826   3.904   3.939  10.265  2.2946 -1.2356 -1.0113
  185MPD1    H7 2827   3.788   3.874  10.178  0.8769  1.1445 -0.6533
  186MPD1     C 2828   4.016   3.513  15.145 -0.1688  0.2449  0.2036
  186MPD1    C1 2829   3.965   3.544  15.270 -0.1472  0.6865 -0.1918
  186MPD1    C2 2830   3.969   3.447  15.364 -0.1669  0.4003 -0.3015
  186MPD1    C3 2831   4.047   3.335  15.350 -0.3878 -0.3734 -0.2438
  186MPD1    C4 2832   4.110   3.312  15.228 -0.2975  0.2102 -0.3515
  186MPD1    C5 2833   4.090   3.404  15.127  0.1271 -0.5023 -0.0417
  186MPD1     H 2834   3.917   3.463  15.458 -1.3089 -2.9479 -0.3487
  186MPD1    H1 2835   4.162   3.219  15.209  0.3697  1.0489 -2.6984
  186MPD1    H2 2836   3.999   3.579  15.060 -2.2699 -1.0514 -0.3709
  186MPD1    H3 2837   4.143   3.394  15.033 -2.2431  1.4995 -1.5877
  186MPD1     N 2838   4.060   3.234  15.448  0.2525  0.9775 -1.3508
  186MPD1    H5 2839   4.124   3.156  15.432  0.8359  1.3190 -0.6548
  186MPD1    N1 2840   3.883   3.665  15.270 -0.3047 -0.3160  0.1098
  186MPD1    H6 2841   3.858   3.704  15.360 -0.3834 -0.6991  0.2538
  186MPD1    H7 2842   3.914   3.745  15.215 -0.1358 -0.5183 -0.0900
  187MPD1     C 2843   3.253   0.008   0.200  0.4185  0.4520 -0.0577
  187MPD1    C1 2844   3.332   0.102   0.126  0.0542  0.5433  0.0033
  187MPD1    C2 2845   3.265   0.166   0.020 -0.0411 -0.3762 -0.1222
  187MPD1    C3 2846   3.130   0.148  17.696 -0.3458 -0.4825 -0.4679
  187MPD1    C4 2847   3.065   0.054   0.071 -0.0753  0.1705 -0.7140
  187MPD1    C5 2848   3.120   4.706   0.167 -0.0142  0.7865 -0.0199
  187MPD1     H 2849   3.330   0.229  17.662 -0.6596 -2.6139 -3.2641
  187MPD1    H1 2850   2.963   0.023   0.051 -0.0955  1.5759 -2.8414
  187MPD1    H2 2851   3.296   4.689   0.289  0.4697  0.2993 -0.1557
  187MPD1    H3 2852   3.060   4.633   0.220 -3.5343  2.2637 -1.9605
  187MPD1     N 2853   3.053   0.229  17.598  0.7341  0.0526 -0.1683
  187MPD1    H5 2854   2.963   0.186  17.578  0.9497 -1.4309  2.0527
  187MPD1    N1 2855   3.467   0.118   0.164 -0.0467 -0.1839 -1.2055
  187MPD1    H6 2856   3.504   0.211   0.147  1.4841 -0.2959  1.5291
  187MPD1    H7 2857   3.503   0.072   0.248 -1.0268  0.4769 -0.4238
  188MPD1     C 2858   2.800   0.075  10.013  0.5458 -0.4284  0.1820
  188MPD1    C1 2859   2.748   0.047   9.893  0.4132  0.0318  0.3971
  188MPD1    C2 2860   2.725   4.640   9.861 -0.0667  0.0029  0.3019
  188MPD1    C3 2861   2.747   4.540   9.953  0.1109 -0.5637 -0.6799
  188MPD1    C4 2862   2.786   4.580  10.079  0.4980  0.1711  0.1587
  188MPD1    C5 2863   2.826   4.706  10.109 -0.0107  0.3747 -0.3108
  188MPD1     H 2864   2.685   4.616   9.763 -0.2016 -0.1839  0.4023
  188MPD1    H1 2865   2.825   4.505  10.147 -1.1183  0.7328  1.6721
  188MPD1    H2 2866   2.839   0.171  10.046  1.1251 -0.8882  0.8478
  188MPD1    H3 2867   2.872   0.010  10.203  1.4980 -2.3294 -0.2407
  188MPD1     N 2868   2.711   4.403   9.940 -0.5132  0.2400 -0.2701
  188MPD1    H5 2869   2.723   4.344  10.021  1.3414 -0.5731 -1.1225
  188MPD1    N1 2870   2.740   0.138   9.792 -0.0422 -0.0624 -0.0931
  188MPD1    H6 2871   2.745   0.233   9.829 -0.6305  0.0140 -0.2014
  188MPD1    H7 2872   2.659   0.119   9.733 -0.4039 -3.4491  1.4983
  189MPD1     C 2873   0.869   0.826  17.427 -0.1885  0.0376 -0.0221
  189MPD1    C1 2874   0.855   0.742  17.533  0.7566  0.1293  0.1347
  189MPD1    C2 2875   0.734   0.738  17.593  0.4512  0.2946 -0.6134
  189MPD1    C3 2876   0.631   0.827  17.565  0.1450  0.3977 -0.1394
  189MPD1    C4 2877   0.649   0.913  17.465 -0.4084 -0.8323 -0.0296
  189MPD1    C5 2878   0.768   0.911  17.394 -0.1542 -0.0339 -0.2511
  189MPD1     H 2879   0.728   0.676  17.682  0.5679  0.6837 -0.3332
  189MPD1    H1 2880   0.566   0.974  17.431  0.7952  0.3857 -0.8034
  189MPD1    H2 2881   0.966   0.827  17.378  0.0143 -1.7375  0.3717
  189MPD1    H3 2882   0.788   0.982  17.315 -0.4533 -0.4240 -0.6784
  189MPD1     N 2883   0.516   0.819  17.648 -0.0692  0.1867 -0.0497
  189MPD1    H5 2884   0.522   0.747   0.019  0.0564 -1.3926 -1.6759
  189MPD1    N1 2885   0.951   0.641  17.559  0.1242  0.1920 -0.2792
  189MPD1    H6 2886   1.043   0.683  17.555 -0.1132  0.6568 -0.8835
  189MPD1    H7 2887   0.936   0.601  17.652  2.3638 -1.5548 -0.6672
  190MPD1     C 2888   3.580   3.393  15.696  0.2014 -0.1731  0.4168
  190MPD1    C1 2889   3.512   3.477  15.784  0.2893 -0.7775  0.2029
  190MPD1    C2 2890   3.535   3.611  15.775  0.2464 -0.5917  0.2191
  190MPD1    C3 2891   3.610   3.657  15.667 -0.1837  0.6193 -1.1169
  190MPD1    C4 2892   3.658   3.569  15.573 -0.3083  0.4441 -0.0501
  190MPD1    C5 2893   3.642   3.439  15.584  0.7632  0.2407  0.4278
  190MPD1     H 2894   3.496   3.679  15.850 -0.3134  0.7077 -1.2571
  190MPD1    H1 2895   3.704   3.594  15.479  2.7075 -1.0867  1.0350
  190MPD1    H2 2896   3.584   3.287  15.718 -0.8437 -0.5262 -1.0855
  190MPD1    H3 2897   3.693   3.367  15.522 -0.3823 -0.6288  0.4991
  190MPD1     N 2898   3.640   3.797  15.660 -0.2800  0.0137 -0.2289
  190MPD1    H5 2899   3.588   3.847  15.731  0.6538  0.4770  0.1225
  190MPD1    N1 2900   3.451   3.420  15.897 -0.4426 -0.0879 -0.1486
  190MPD1    H6 2901   3.436   3.322  15.872 -0.5938 -0.6802  2.2416
  190MPD1    H7 2902   3.365   3.460  15.935 -0.6378  1.4991 -2.2655
  191MPD1     C 2903   2.845   0.174  12.951  0.3203 -0.1543  0.4534
  191MPD1    C1 2904   2.914   0.252  12.857  0.1700  0.4143 -0.9545
  191MPD1    C2 2905   2.851   0.368  12.810 -0.3461 -0.4697 -0.2830
  191MPD1    C3 2906   2.716   0.382  12.828 -0.2871  0.3450  0.2490
  191MPD1    C4 2907   2.642   0.295  12.906 -0.1105  0.0140  0.6716
  191MPD1    C5 2908   2.714   0.194  12.967  0.2280  0.1574  0.1120
  191MPD1     H 2909   2.904   0.439  12.749 -1.8969 -0.8149 -2.0366
  191MPD1    H1 2910   2.536   0.300  12.926 -0.0131 -0.9105  1.3987
  191MPD1    H2 2911   2.886   0.095  13.014 -0.5243 -1.6583 -0.8818
  191MPD1    H3 2912   2.661   0.139  13.044 -0.1100  1.2488  0.6522
  191MPD1     N 2913   2.652   0.496  12.778  0.1274 -0.6813  0.2408
  191MPD1    H5 2914   2.713   0.568  12.740 -3.0656  1.7569 -0.2032
  191MPD1    N1 2915   3.057   0.245  12.850  0.3828 -0.2176  0.2725
  191MPD1    H6 2916   3.093   0.151  12.868  1.3399  0.4305  1.7570
  191MPD1    H7 2917   3.093   0.284  12.764 -1.9104  1.6569  0.1616
  192MPD1     C 2918   1.810   1.187  12.750  0.2130 -0.0891 -0.6337
  192MPD1    C1 2919   1.807   1.051  12.770  0.0778 -0.1118 -0.1068
  192MPD1    C2 2920   1.924   0.981  12.769 -0.5038  0.5527  0.2014
  192MPD1    C3 2921   2.044   1.052  12.771 -0.0321  0.2970 -0.3561
  192MPD1    C4 2922   2.043   1.191  12.767  0.5122 -0.5307 -0.5173
  192MPD1    C5 2923   1.926   1.261  12.751 -0.1430 -0.5057  0.4570
  192MPD1     H 2924   1.928   0.873  12.772  1.1577  0.5482 -2.5672
  192MPD1    H1 2925   2.136   1.244  12.781  0.1760  0.6543 -2.8088
  192MPD1    H2 2926   1.718   1.240  12.730 -0.0003 -0.0943  0.3314
  192MPD1    H3 2927   1.927   1.369  12.740 -0.0048 -0.8212 -2.7480
  192MPD1     N 2928   2.170   0.989  12.780 -0.3950  0.0593  0.0240
  192MPD1    H5 2929   2.248   1.052  12.799  1.2353 -2.0370  0.3176
  192MPD1    N1 2930   1.682   0.986  12.769 -0.6167  0.4639 -0.6315
  192MPD1    H6 2931   1.673   0.888  12.792  1.4414  0.1167 -1.3049
  192MPD1    H7 2932   1.615   1.038  12.825 -1.1126 -2.5329  1.5314
  193MPD1     C 2933   2.473   1.399  16.236  0.3785  0.3099  0.1196
  193MPD1    C1 2934   2.456   1.529  16.264 -0.3372  0.1997 -0.1485
  193MPD1    C2 2935   2.550   1.579  16.349 -0.3565  0.4647  0.7547
  193MPD1    C3 2936   2.647   1.505  16.411 -0.1171  0.0845  0.3926
  193MPD1    C4 2937   2.654   1.370  16.392 -0.3175  0.7724  0.6570
  193MPD1    C5 2938   2.555   1.318  16.312  0.5445 -0.6099 -0.2595
  193MPD1     H 2939   2.551   1.686  16.370 -3.1085  0.4673  0.8165
  193MPD1    H1 2940   2.727   1.303  16.434 -1.2788 -0.7671 -0.1042
  193MPD1    H2 2941   2.402   1.349  16.171 -0.7548  0.5386  1.1875
  193MPD1    H3 2942   2.537   1.213  16.293  1.0469 -0.6005 -0.7889
  193MPD1     N 2943   2.749   1.557  16.498  0.0790 -0.1382  0.7541
  193MPD1    H5 2944   2.823   1.497  16.533 -2.3241 -3.0945  0.7208
  193MPD1    N1 2945   2.370   1.616  16.187 -0.3321 -0.5521 -0.2559
  193MPD1    H6 2946   2.339   1.707  16.221  0.9047 -0.4139  0.5206
  193MPD1    H7 2947   2.292   1.559  16.157  0.8856 -2.5719  0.4486
  194MPD1     C 2948   4.644   3.612  16.623  0.5243  0.2026  0.0088
  194MPD1    C1 2949   0.041   3.580  16.573  0.2227 -0.1390  0.6232
  194MPD1    C2 2950   0.106   3.465  16.631  0.6768 -0.5104 -0.2269
  194MPD1    C3 2951   0.066   3.414  16.752 -0.5673 -0.6018 -0.1304
  194MPD1    C4 2952   4.675   3.464  16.808  0.3215 -0.2116 -0.5340
  194MPD1    C5 2953   4.601   3.553  16.733  0.0141 -0.4260  0.1382
  194MPD1     H 2954   0.210   3.453  16.601  0.0571 -0.3203 -2.4285
  194MPD1    H1 2955   4.634   3.430  16.902 -1.1605 -3.0958 -2.2263
  194MPD1    H2 2956   4.581   3.691  16.583 -0.2270 -1.6155 -2.3602
  194MPD1    H3 2957   4.507   3.577  16.781  0.4494  2.0529 -0.2796
  194MPD1     N 2958   0.142   3.330  16.834 -0.4560  0.9686 -0.3957
  194MPD1    H5 2959   0.109   3.311  16.928  0.0768 -2.8287 -0.9681
  194MPD1    N1 2960   0.094   3.652  16.459 -0.7171 -0.2353 -0.8562
  194MPD1    H6 2961   0.102   3.752  16.477  1.2930 -0.1225 -2.3460
  194MPD1    H7 2962   0.194   3.632  16.452 -0.5313  0.0103  1.0613
  195MPD1     C 2963   3.222   0.086   1.634  0.0123 -0.6923  0.1929
  195MPD1    C1 2964   3.118   0.149   1.566  0.3006 -0.2384  0.1913
  195MPD1    C2 2965   3.128   0.164   1.429  0.5074  0.0364 -0.0219
  195MPD1    C3 2966   3.234   0.100   1.359 -1.1865  0.0520  0.7043
  195MPD1    C4 2967   3.325   0.018   1.424 -0.4038 -0.4339  0.2724
  195MPD1    C5 2968   3.319   0.018   1.564 -0.4354 -0.3071 -0.3484
  195MPD1     H 2969   3.054   0.230   1.385 -0.3654 -0.3395  0.8805
  195MPD1    H1 2970   3.400   4.680   1.377  0.2955  0.0779  0.6964
  195MPD1    H2 2971   3.222   0.107   1.740 -1.4881  0.4670 -0.0449
  195MPD1    H3 2972   3.396   4.694   1.623  1.3911  1.4052 -1.3106
  195MPD1     N 2973   3.249   0.113   1.221  0.6241  0.0725 -0.0731
  195MPD1    H5 2974   3.333   0.073   1.180 -0.2344 -0.4806 -1.2735
  195MPD1    N1 2975   3.032   0.236   1.632  0.7504  0.0113  0.8024
  195MPD1    H6 2976   2.993   0.201   1.720 -0.8392 -0.2553 -0.0083
  195MPD1    H7 2977   2.943   0.256   1.588  0.1972 -0.4431  1.6942
  196MPD1     C 2978   2.133   4.507   0.126  0.5513 -0.5471  0.1694
  196MPD1    C1 2979   2.052   4.426   0.209 -0.9082  0.8317  0.7838
  196MPD1    C2 2980   2.011   4.474   0.331  0.2088  0.2812  0.1528
  196MPD1    C3 2981   2.056   4.593   0.380 -0.1894  0.0927 -0.5497
  196MPD1    C4 2982   2.145   4.671   0.302 -0.5024  0.4763  0.2648
  196MPD1    C5 2983   2.181   4.632   0.175  0.2488  0.0877 -0.2144
  196MPD1     H 2984   1.940   4.410   0.381  1.4033  0.7745  2.4404
  196MPD1    H1 2985   2.186   0.043   0.330 -1.4348  0.4817  1.6111
  196MPD1    H2 2986   2.175   4.467   0.035  1.3421 -1.8105  1.0798
  196MPD1    H3 2987   2.258   4.693   0.127  1.4510 -0.9463  0.3895
  196MPD1     N 2988   2.016   4.656   0.498  0.0292 -0.2356 -0.6188
  196MPD1    H5 2989   2.060   0.021   0.515  2.6738 -1.4181 -1.2273
  196MPD1    N1 2990   1.986   4.317   0.148  0.2498 -0.4518 -0.3876
  196MPD1    H6 2991   1.915   4.282   0.212  1.6203  1.2850  2.0977
  196MPD1    H7 2992   2.050   4.240   0.127  1.1699 -0.0049  0.8233
  197MPD1     C 2993   1.486   1.672   0.070 -0.2450  0.2350  0.3444
  197MPD1    C1 2994   1.589   1.750   0.073  0.7049  0.8775 -0.5513
  197MPD1    C2 2995   1.596   1.850  17.680  0.3886 -0.0011  0.2556
  197MPD1    C3 2996   1.506   1.866  17.577  0.4367  0.3466 -0.1714
  197MPD1    C4 2997   1.407   1.777  17.567  0.3238 -0.0477 -0.7842
  197MPD1    C5 2998   1.400   1.686  17.672  0.0022  0.1632 -0.5808
  197MPD1     H 2999   1.687   1.908  17.672 -0.7937  1.6240 -1.3043
  197MPD1    H1 3000   1.328   1.776  17.492 -0.4627 -2.1343  0.0558
  197MPD1    H2 3001   1.467   1.596   0.145 -0.7820  0.4552  0.4286
  197MPD1    H3 3002   1.317   1.617  17.674  1.2275 -1.3198 -0.2812
  197MPD1     N 3003   1.520   1.955  17.468 -0.3849  0.3809 -0.2749
  197MPD1    H5 3004   1.457   1.943  17.390 -0.2329  0.9485 -0.4900
  197MPD1    N1 3005   1.675   1.736   0.181 -0.0806 -0.0138 -0.0854
  197MPD1    H6 3006   1.773   1.746   0.153 -0.1504  1.8502  0.3773
  197MPD1    H7 3007   1.667   1.645   0.226  1.1728 -0.4108 -0.6406
  198MPD1     C 3008   3.008   0.437  15.958  0.5010  0.0674  0.0819
  198MPD1    C1 3009   3.130   0.436  15.902  0.4849 -0.2364 -0.5944
  198MPD1    C2 3010   3.226   0.521  15.952 -0.6446 -0.4819  0.0929
  198MPD1    C3 3011   3.207   0.581  16.067  0.1395 -0.1486 -0.2513
  198MPD1    C4 3012   3.088   0.569  16.139  1.0493 -0.1908 -0.7182
  198MPD1    C5 3013   2.989   0.496  16.079 -0.2272  0.2080  0.0804
  198MPD1     H 3014   3.322   0.522  15.902 -0.7504  0.8360 -0.0737
  198MPD1    H1 3015   3.067   0.624  16.229 -0.0247 -1.0817 -0.4232
  198MPD1    H2 3016   2.924   0.383  15.916  1.6775 -1.0828 -0.7794
  198MPD1    H3 3017   2.890   0.497  16.125  0.3060  0.2365  1.2168
  198MPD1     N 3018   3.310   0.667  16.121  0.3993  0.1147  0.1626
  198MPD1    H5 3019   3.395   0.680  16.067  0.4999 -1.9205 -0.1801
  198MPD1    N1 3020   3.158   0.379  15.777  0.2247 -0.0498 -0.3171
  198MPD1    H6 3021   3.105   0.292  15.781  0.2259  0.0289  1.5474
  198MPD1    H7 3022   3.257   0.360  15.761 -0.3431 -0.0428 -3.7895
  199MPD1     C 3023   0.822   0.528   9.950  1.2216 -0.1054 -0.5067
  199MPD1    C1 3024   0.905   0.623   9.892  0.1407 -0.3226 -0.1976
  199MPD1    C2 3025   0.854   0.736   9.839  0.3751 -0.5020  0.1260
  199MPD1    C3 3026   0.721   0.770   9.835 -0.5354 -0.7178  0.1040
  199MPD1    C4 3027   0.635   0.672   9.884  0.6459 -0.6271  0.1767
  199MPD1    C5 3028   0.683   0.555   9.935  1.0003  0.4955  0.3544
  199MPD1     H 3029   0.920   0.811   9.797 -0.0572 -1.2153 -1.8159
  199MPD1    H1 3030   0.528   0.692   9.884  0.5241 -1.2950 -0.1289
  199MPD1    H2 3031   0.858   0.435   9.994 -1.7899 -1.2197 -0.4366
  199MPD1    H3 3032   0.614   0.480   9.972 -1.2535  2.6628  0.5515
  199MPD1     N 3033   0.666   0.890   9.776  0.0937 -0.5794  0.9427
  199MPD1    H5 3034   0.565   0.894   9.769  0.2363  0.1917 -0.7224
  199MPD1    N1 3035   1.041   0.617   9.903 -0.0198  0.0276  0.6473
  199MPD1    H6 3036   1.072   0.522   9.926 -0.9097 -0.3460  0.2824
  199MPD1    H7 3037   1.075   0.676   9.980  3.2965  0.4528 -1.1254
  200MPD1     C 3038   4.094   1.135  14.689  0.3313 -0.9640 -0.0252
  200MPD1    C1 3039   4.055   1.195  14.567  0.0713  0.4206  0.9602
  200MPD1    C2 3040   4.151   1.245  14.490  0.2263  0.1486 -0.0719
  200MPD1    C3 3041   4.289   1.247  14.522 -0.0816  0.2315  0.1272
  200MPD1    C4 3042   4.320   1.188  14.639 -0.3198  0.1296 -0.3907
  200MPD1    C5 3043   4.229   1.129  14.720  1.4538 -0.1423  0.3882
  200MPD1     H 3044   4.123   1.293  14.397 -1.2894 -0.4282  0.0720
  200MPD1    H1 3045   4.423   1.176  14.672 -0.4703 -1.9705 -0.6837
  200MPD1    H2 3046   4.021   1.082  14.750  0.4093 -0.9515  0.0786
  200MPD1    H3 3047   4.261   1.073  14.807  1.8372 -0.4822  0.0231
  200MPD1     N 3048   4.377   1.309  14.437 -0.3298 -0.2635  0.1833
  200MPD1    H5 3049   4.344   1.344  14.348 -0.3652  0.9142  0.6654
  200MPD1    N1 3050   3.922   1.218  14.531  0.5192 -0.0614 -0.2313
  200MPD1    H6 3051   3.850   1.154  14.565  1.1403 -1.1007 -0.8686
  200MPD1    H7 3052   3.917   1.230  14.430 -1.0434  0.8338 -0.0536
  201MPD1     C 3053   2.099   1.093  13.582 -0.2194 -0.0834  0.6025
  201MPD1    C1 3054   1.979   1.017  13.564 -0.0029  0.0302 -0.0602
  201MPD1    C2 3055   1.996   0.894  13.515 -0.0054 -0.6556  0.2202
  201MPD1    C3 3056   2.122   0.843  13.482  0.1761  0.3044 -0.6185
  201MPD1    C4 3057   2.232   0.918  13.494 -0.0717  0.2523  0.5708
  201MPD1    C5 3058   2.222   1.047  13.538  0.1781 -0.4408 -0.4969
  201MPD1     H 3059   1.906   0.834  13.513  1.3026 -2.5524 -1.3837
  201MPD1    H1 3060   2.331   0.883  13.468 -1.2962 -2.3690 -0.6354
  201MPD1    H2 3061   2.095   1.191  13.629 -0.7645 -0.5815  1.6125
  201MPD1    H3 3062   2.307   1.114  13.544  0.1541 -0.6267  1.8005
  201MPD1     N 3063   2.124   0.702  13.460  0.0473  0.1090 -0.5023
  201MPD1    H5 3064   2.038   0.648  13.449  0.3682 -0.9598  2.3727
  201MPD1    N1 3065   1.857   1.058  13.615 -0.0187  0.1405  0.5210
  201MPD1    H6 3066   1.791   0.991  13.577  0.8539 -0.4217  0.0097
  201MPD1    H7 3067   1.830   1.152  13.584  0.1739  1.1223  3.3393
  202MPD1     C 3068   0.730   3.560   9.881 -0.2630  1.2163  0.4983
  202MPD1    C1 3069   0.696   3.678   9.930  0.3457  0.3318 -0.1872
  202MPD1    C2 3070   0.802   3.756   9.973 -0.4137 -0.0005  0.7549
  202MPD1    C3 3071   0.925   3.707  10.016  0.1459 -0.2563 -0.1438
  202MPD1    C4 3072   0.951   3.575   9.985  0.3534 -0.0513 -0.6060
  202MPD1    C5 3073   0.844   3.499   9.925  0.1489  0.3092  0.3891
  202MPD1     H 3074   0.774   3.860   9.988  0.9866  0.4107  0.4628
  202MPD1    H1 3075   1.045   3.526  10.009  1.6282  2.7622  0.0814
  202MPD1    H2 3076   0.660   3.489   9.838  0.0238  1.4139 -0.2932
  202MPD1    H3 3077   0.869   3.396   9.904  0.8523  0.7581 -0.9725
  202MPD1     N 3078   1.028   3.787  10.077 -0.4180 -0.1938 -0.1543
  202MPD1    H5 3079   1.107   3.742  10.122  0.4256  0.9154 -0.5218
  202MPD1    N1 3080   0.581   3.740   9.883 -0.2211 -0.1164  0.2969
  202MPD1    H6 3081   0.503   3.675   9.896  1.3536 -2.1154 -0.2676
  202MPD1    H7 3082   0.573   3.828   9.932 -2.0869  0.2815 -0.6987
  203MPD1     C 3083   4.482   0.952  12.419 -0.5636 -0.1954  0.1959
  203MPD1    C1 3084   4.463   0.841  12.326  0.5119  0.1405 -0.2204
  203MPD1    C2 3085   4.531   0.724  12.364  0.3205  0.0847 -0.2315
  203MPD1    C3 3086   4.597   0.709  12.485  0.0489  0.9021  0.0615
  203MPD1    C4 3087   4.607   0.812  12.577 -0.4131 -0.8186 -0.0779
  203MPD1    C5 3088   4.546   0.930  12.539  0.2097  0.2179 -0.3080
  203MPD1     H 3089   4.537   0.640  12.297  1.1449  0.7055 -0.9384
  203MPD1    H1 3090   4.639   0.805  12.680 -1.6075  0.0374  0.3478
  203MPD1    H2 3091   4.439   1.051  12.409  2.1428  0.6616 -2.7777
  203MPD1    H3 3092   4.548   1.014  12.609  0.6010 -1.3786  1.6000
  203MPD1     N 3093   4.645   0.576  12.505  1.0536  0.1383  0.3578
  203MPD1    H5 3094   4.633   0.521  12.421 -0.3735  1.3771 -0.2306
  203MPD1    N1 3095   4.406   0.856  12.201 -0.6142 -0.3831 -0.4341
  203MPD1    H6 3096   4.349   0.774  12.181 -0.1751 -0.4252 -1.4981
  203MPD1    H7 3097   4.353   0.943  12.205  0.9335  0.5414  0.1045
  204MPD1     C 3098   4.289   2.413  16.958  0.0839 -0.6542  0.6203
  204MPD1    C1 3099   4.304   2.331  16.849  0.1290  0.5868 -0.8162
  204MPD1    C2 3100   4.349   2.199  16.873  0.0755 -0.3481  0.8691
  204MPD1    C3 3101   4.386   2.155  17.002 -0.4304 -0.6454 -0.6852
  204MPD1    C4 3102   4.368   2.242  17.109  0.2990 -0.0085  0.0804
  204MPD1    C5 3103   4.322   2.369  17.086  0.0929  0.0893  0.4500
  204MPD1     H 3104   4.375   2.132  16.792 -0.3009 -1.4549  1.6704
  204MPD1    H1 3105   4.380   2.209  17.211  1.8199 -2.3316 -0.8658
  204MPD1    H2 3106   4.269   2.517  16.934 -0.0467 -1.2110 -1.7235
  204MPD1    H3 3107   4.303   2.432  17.173  2.4404 -2.4973  2.8345
  204MPD1     N 3108   4.423   2.020  17.017 -0.3368 -0.0610 -0.3370
  204MPD1    H5 3109   4.446   1.963  16.936  2.0438  0.7633 -0.2551
  204MPD1    N1 3110   4.271   2.369  16.719 -0.1158 -0.8235 -0.3868
  204MPD1    H6 3111   4.220   2.457  16.716 -0.8484 -1.2509 -0.5136
  204MPD1    H7 3112   4.211   2.299  16.675  2.0559 -1.4979 -2.2511
  205MPD1     C 3113   0.823   0.948  16.598 -0.4130 -0.3878 -0.4692
  205MPD1    C1 3114   0.880   0.858  16.691  0.0766  0.2282 -0.3015
  205MPD1    C2 3115   0.806   0.831  16.804  0.3564  0.4521 -0.3491
  205MPD1    C3 3116   0.678   0.888  16.819 -0.1626 -0.1282 -0.6832
  205MPD1    C4 3117   0.625   0.972  16.723  0.0219  0.0915  0.1342
  205MPD1    C5 3118   0.699   1.008  16.609 -0.4174 -0.2622  0.5538
  205MPD1     H 3119   0.845   0.762  16.878  2.0346  0.2581 -1.4170
  205MPD1    H1 3120   0.522   1.004  16.730 -0.0526 -0.6084  2.5016
  205MPD1    H2 3121   0.875   0.996  16.516  0.4901 -0.0128  0.3304
  205MPD1    H3 3122   0.652   1.062  16.528  0.3721  0.7797  0.7855
  205MPD1     N 3123   0.594   0.862  16.932  0.1926  0.5230  0.9205
  205MPD1    H5 3124   0.499   0.896  16.938  0.3618  0.6923  2.5775
  205MPD1    N1 3125   1.014   0.831  16.671 -0.0814 -0.0172  0.2483
  205MPD1    H6 3126   1.041   0.743  16.716  1.6146  1.2278  1.6544
  205MPD1    H7 3127   1.050   0.826  16.576  1.2625  3.5685  0.5944
  206MPD1     C 3128   0.433   3.786  16.688  0.9118  0.1494  0.0325
  206MPD1    C1 3129   0.450   3.666  16.633 -0.0968 -0.1793 -0.9021
  206MPD1    C2 3130   0.458   3.655  16.488  0.0196 -0.2026  0.1184
  206MPD1    C3 3131   0.426   3.763  16.410 -0.3930  0.8315 -0.4068
  206MPD1    C4 3132   0.409   3.886  16.478 -1.0196 -0.4770 -0.4249
  206MPD1    C5 3133   0.425   3.897  16.617  0.6833  0.0124 -0.8460
  206MPD1     H 3134   0.472   3.554  16.452  0.9000 -0.2130  0.4932
  206MPD1    H1 3135   0.382   3.975  16.422 -1.7439 -0.9296 -0.7975
  206MPD1    H2 3136   0.442   3.802  16.795 -0.0849 -0.4651  0.2096
  206MPD1    H3 3137   0.438   3.995  16.661 -0.1515 -0.0527 -0.4478
  206MPD1     N 3138   0.400   3.750  16.272 -0.2596 -0.5938 -0.0043
  206MPD1    H5 3139   0.387   3.838  16.225 -1.9177 -1.1578 -0.5890
  206MPD1    N1 3140   0.498   3.561  16.716 -0.2231  0.2345 -0.1851
  206MPD1    H6 3141   0.484   3.468  16.678 -0.2141 -0.8685  2.5202
  206MPD1    H7 3142   0.464   3.561  16.812 -0.4025 -2.6955 -0.2440
  207MPD1     C 3143   2.499   1.156   9.787  0.7426  0.8909  0.0318
  207MPD1    C1 3144   2.546   1.042   9.844 -0.6800  0.3204 -0.6152
  207MPD1    C2 3145   2.610   1.044   9.963  0.7495 -0.2624 -0.9028
  207MPD1    C3 3146   2.634   1.166  10.031  0.6161  0.3620 -0.6172
  207MPD1    C4 3147   2.584   1.276   9.967 -0.1951 -0.1302 -0.2055
  207MPD1    C5 3148   2.511   1.271   9.848  0.3791  0.9271 -0.5196
  207MPD1     H 3149   2.635   0.951  10.012  0.0886 -0.4157 -0.8617
  207MPD1    H1 3150   2.597   1.366  10.025  0.8685 -0.4771  0.0994
  207MPD1    H2 3151   2.429   1.153   9.704  0.6626  0.9098  0.0988
  207MPD1    H3 3152   2.455   1.362   9.827 -0.0632  0.8977  0.4947
  207MPD1     N 3153   2.706   1.182  10.149  0.5568  0.4965  0.6980
  207MPD1    H5 3154   2.719   1.275  10.188  0.3711  0.5222  0.7019
  207MPD1    N1 3155   2.530   0.918   9.786 -0.2724  0.2912 -0.2253
  207MPD1    H6 3156   2.512   0.946   9.690  0.4994  0.2041 -0.3922
  207MPD1    H7 3157   2.618   0.868   9.780  1.2623  2.9488  0.3817
  208MPD1     C 3158   1.707   0.505   0.305  0.1109  0.3554 -0.8673
  208MPD1    C1 3159   1.641   0.506   0.428 -0.3110  0.2282 -0.4552
  208MPD1    C2 3160   1.505   0.481   0.422  0.0353  0.4371  0.2228
  208MPD1    C3 3161   1.447   0.433   0.309  0.5258  0.1640  0.3765
  208MPD1    C4 3162   1.515   0.405   0.195  0.2404 -0.6206  0.4872
  208MPD1    C5 3163   1.650   0.453   0.189 -0.2056  0.1142  0.1018
  208MPD1     H 3164   1.448   0.495   0.513  0.9417 -2.1537  1.1893
  208MPD1    H1 3165   1.460   0.372   0.108  0.6328 -0.8260  0.3193
  208MPD1    H2 3166   1.809   0.538   0.293  0.0879  0.6414 -0.2974
  208MPD1    H3 3167   1.711   0.432   0.103  2.9846 -0.5810  2.5414
  208MPD1     N 3168   1.314   0.385   0.336  0.8709 -0.6713  0.6010
  208MPD1    H5 3169   1.292   0.396   0.435  1.1977  1.8980  0.3988
  208MPD1    N1 3170   1.706   0.570   0.535 -0.0248 -0.4099 -0.6868
  208MPD1    H6 3171   1.656   0.548   0.621  1.7234 -1.3251  0.1116
  208MPD1    H7 3172   1.803   0.545   0.555 -0.2304 -0.2627  0.4705
  209MPD1     C 3173   3.211   0.293  11.932 -0.4952 -0.3402  0.1941
  209MPD1    C1 3174   3.139   0.398  11.987 -0.1272 -0.2856 -0.4156
  209MPD1    C2 3175   3.125   0.513  11.915 -0.3694 -0.2736  0.5526
  209MPD1    C3 3176   3.161   0.510  11.778  1.2407  0.0496 -0.0742
  209MPD1    C4 3177   3.218   0.394  11.720 -0.4703  0.3174 -0.5357
  209MPD1    C5 3178   3.243   0.290  11.801  0.0102  0.6922  0.7242
  209MPD1     H 3179   3.085   0.604  11.960  1.3990  0.8379 -0.1211
  209MPD1    H1 3180   3.242   0.379  11.616 -2.4597  1.0017 -1.0925
  209MPD1    H2 3181   3.227   0.202  11.988  3.4738 -0.7556 -1.6120
  209MPD1    H3 3182   3.283   0.203  11.750 -1.8607  1.3261 -1.7808
  209MPD1     N 3183   3.124   0.618  11.696 -0.0237 -0.1399  0.1505
  209MPD1    H5 3184   3.075   0.696  11.738 -1.4332 -1.5894  1.1920
  209MPD1    N1 3185   3.113   0.405  12.124 -0.3999 -0.2270 -0.5943
  209MPD1    H6 3186   3.082   0.322  12.174 -1.9640 -1.5950 -3.9010
  209MPD1    H7 3187   3.036   0.470  12.136 -1.3851 -1.5050  0.0462
  210MPD1     C 3188   2.680   1.497  11.702  0.6457  0.2907 -0.7252
  210MPD1    C1 3189   2.682   1.378  11.771  0.0960  0.5929  0.1065
  210MPD1    C2 3190   2.745   1.263  11.719 -0.3327  0.2989 -0.1682
  210MPD1    C3 3191   2.821   1.283  11.597  0.4335  0.4237  0.0967
  210MPD1    C4 3192   2.810   1.400  11.523  0.3078 -0.3994  0.0145
  210MPD1    C5 3193   2.751   1.512  11.584 -0.6353 -0.0792  0.4237
  210MPD1     H 3194   2.759   1.172  11.777  0.1035  1.0697  0.9237
  210MPD1    H1 3195   2.854   1.418  11.426  0.0545 -1.1220 -0.2306
  210MPD1    H2 3196   2.616   1.580  11.731 -0.0296 -1.0538  1.6504
  210MPD1    H3 3197   2.771   1.612  11.547 -0.2610 -0.0440  0.7177
  210MPD1     N 3198   2.894   1.177  11.542 -0.1819 -0.0207  0.0751
  210MPD1    H5 3199   2.927   1.195  11.448 -0.0862 -0.1873  0.0775
  210MPD1    N1 3200   2.607   1.371  11.888  0.1831 -0.4402 -0.1288
  210MPD1    H6 3201   2.594   1.462  11.933  0.4936 -0.4143 -0.0900
  210MPD1    H7 3202   2.629   1.297  11.955  1.8738  0.6552  0.5486
  211MPD1     C 3203   1.485   0.513  16.205 -0.0349  0.5062 -0.6654
  211MPD1    C1 3204   1.372   0.487  16.273 -0.3287 -0.3901  0.2179
  211MPD1    C2 3205   1.268   0.569  16.250 -0.2674  0.2554  1.0630
  211MPD1    C3 3206   1.267   0.659  16.146  0.0859  0.4272 -0.2934
  211MPD1    C4 3207   1.382   0.683  16.074  0.1999 -0.2971 -0.3187
  211MPD1    C5 3208   1.492   0.610  16.109 -0.0405  0.4480  0.1845
  211MPD1     H 3209   1.177   0.549  16.305  0.7308 -1.3909  2.1083
  211MPD1    H1 3210   1.386   0.763  16.001 -0.8662 -0.9523 -1.0999
  211MPD1    H2 3211   1.578   0.462  16.230  0.1944  1.1520 -0.2041
  211MPD1    H3 3212   1.592   0.622  16.068 -0.2642  2.1378  0.1554
  211MPD1     N 3213   1.149   0.739  16.139  0.0634  0.1203  0.7070
  211MPD1    H5 3214   1.090   0.722  16.220  2.9020 -0.8728  2.5829
  211MPD1    N1 3215   1.376   0.391  16.377  0.0956  0.2894  0.0503
  211MPD1    H6 3216   1.289   0.343  16.400  1.0738 -2.0411 -1.1064
  211MPD1    H7 3217   1.438   0.319  16.339 -0.8157 -1.1648  1.3422
  212MPD1     C 3218   4.595   4.038  15.957  0.3514  0.4124  0.3406
  212MPD1    C1 3219   4.489   4.096  16.016  0.3055 -0.8610  0.3310
  212MPD1    C2 3220   4.443   4.026  16.129  0.2680  0.6909  0.4643
  212MPD1    C3 3221   4.502   3.901  16.165 -0.0342 -0.3490  1.4593
  212MPD1    C4 3222   4.611   3.850  16.098  0.4896 -0.1666  0.7634
  212MPD1    C5 3223   4.656   3.924  15.991 -0.9054  0.0513  0.2578
  212MPD1     H 3224   4.358   4.065  16.184  0.2491 -0.3817  1.1997
  212MPD1    H1 3225   4.653   3.754  16.123  2.3369  0.4306 -0.0361
  212MPD1    H2 3226   4.630   4.076  15.861  1.5111  1.3081  1.1225
  212MPD1    H3 3227   0.007   3.887  15.922 -0.7207  0.1688  0.3993
  212MPD1     N 3228   4.441   3.820  16.260  0.2663  0.8015 -0.5039
  212MPD1    H5 3229   4.480   3.726  16.268  0.9235  1.0524 -0.7507
  212MPD1    N1 3230   4.413   4.206  15.958 -0.1556  0.0922  0.1577
  212MPD1    H6 3231   4.461   4.259  15.886 -0.3542 -0.5474 -0.4417
  212MPD1    H7 3232   4.366   4.269  16.023  0.3402 -1.8245  2.4225
  213MPD1     C 3233   2.943   4.046  16.159 -0.3842  0.0314  0.2747
  213MPD1    C1 3234   2.806   4.025  16.152  0.2395 -0.2233  0.2501
  213MPD1    C2 3235   2.746   4.063  16.028 -0.3560  0.0549 -0.9733
  213MPD1    C3 3236   2.808   4.162  15.955 -0.2929 -0.2984  0.1376
  213MPD1    C4 3237   2.929   4.214  15.989  0.2096 -0.2365 -0.0976
  213MPD1    C5 3238   2.999   4.152  16.094  0.1082 -0.2266  0.3719
  213MPD1     H 3239   2.657   4.018  15.986 -0.0365  0.4961 -2.1044
  213MPD1    H1 3240   2.983   4.290  15.933  0.4754  0.3305  0.9243
  213MPD1    H2 3241   3.006   4.010  16.239 -1.9534 -1.7915  0.6757
  213MPD1    H3 3242   3.102   4.184  16.111  0.3765 -0.8504 -0.0777
  213MPD1     N 3243   2.742   4.216  15.837  0.1366  0.2735  0.1295
  213MPD1    H5 3244   2.646   4.189  15.816  1.1570 -1.1617 -2.7194
  213MPD1    N1 3245   2.757   3.908  16.215  0.2431  1.0999 -0.1200
  213MPD1    H6 3246   2.791   3.896  16.311  2.2310 -2.4084 -1.2513
  213MPD1    H7 3247   2.656   3.909  16.225  0.3646  2.1150  1.0842
  214MPD1     C 3248   2.705   3.638  15.251  0.4684  0.0001 -0.3519
  214MPD1    C1 3249   2.696   3.758  15.181 -0.0704  0.4599 -0.2512
  214MPD1    C2 3250   2.656   3.869  15.254 -0.0532 -0.1372  0.3877
  214MPD1    C3 3251   2.634   3.865  15.389  0.2465 -0.1473  0.0964
  214MPD1    C4 3252   2.667   3.747  15.460  0.5276 -0.9335 -0.5855
  214MPD1    C5 3253   2.703   3.634  15.388 -0.4117  0.2120  0.2835
  214MPD1     H 3254   2.634   3.958  15.195 -0.7846  0.1992  1.1730
  214MPD1    H1 3255   2.658   3.754  15.568 -0.3499 -1.0730 -0.6513
  214MPD1    H2 3256   2.721   3.540  15.207  2.3994  1.6632 -3.3175
  214MPD1    H3 3257   2.724   3.540  15.438 -2.5294  0.1784  1.1173
  214MPD1     N 3258   2.609   3.986  15.452 -0.0808 -0.9391  0.4222
  214MPD1    H5 3259   2.619   3.989  15.553 -2.8397  2.2915  0.6131
  214MPD1    N1 3260   2.701   3.759  15.038  0.6400  0.1883 -0.6858
  214MPD1    H6 3261   2.769   3.689  15.010 -0.6199 -1.2197 -0.2275
  214MPD1    H7 3262   2.722   3.854  15.008  0.9743 -0.2554 -1.8288
  215MPD1     C 3263   2.868   4.633  10.638  0.1405  0.0768 -0.0763
  215MPD1    C1 3264   2.819   4.660  10.762  0.6925 -0.9605  0.9883
  215MPD1    C2 3265   2.792   0.070  10.802 -0.1060  0.4031  0.0669
  215MPD1    C3 3266   2.798   0.172  10.709  0.1633  0.3977  0.7420
  215MPD1    C4 3267   2.825   0.137  10.580 -0.6752 -0.0475  0.3098
  215MPD1    C5 3268   2.863   0.008  10.544  0.4418 -0.6038 -0.3799
  215MPD1     H 3269   2.777   0.098  10.906  2.0125  1.0076  0.2042
  215MPD1    H1 3270   2.819   0.215  10.505 -1.2263 -1.7414 -1.4060
  215MPD1    H2 3271   2.890   4.532  10.607  0.7756  0.2896 -0.3239
  215MPD1    H3 3272   2.869   4.694  10.443 -1.7896  0.1991 -0.8114
  215MPD1     N 3273   2.773   0.303  10.761  0.2917  0.4789  0.1404
  215MPD1    H5 3274   2.772   0.315  10.862 -1.3590 -0.5671  0.2571
  215MPD1    N1 3275   2.831   4.557  10.864  0.6510 -0.7312  0.6272
  215MPD1    H6 3276   2.823   4.468  10.816 -0.4930 -0.1993 -0.1521
  215MPD1    H7 3277   2.763   4.557  10.940 -1.2182 -1.0996 -1.0607
  216MPD1     C 3278   0.214   2.887  17.497 -0.2083 -0.1109 -0.2658
  216MPD1    C1 3279   0.289   2.781  17.552 -0.1350  0.2472  0.3358
  216MPD1    C2 3280   0.216   2.683  17.618  0.2640 -0.2257 -0.0834
  216MPD1    C3 3281   0.079   2.678  17.615  0.7449 -0.0275 -0.3282
  216MPD1    C4 3282   0.010   2.769  17.543 -0.2184  0.5456 -0.9113
  216MPD1    C5 3283   0.077   2.873  17.486  0.0762  0.0407  0.3386
  216MPD1     H 3284   0.279   2.615  17.675  0.0659  0.4447  0.9232
  216MPD1    H1 3285   4.627   2.783  17.545 -0.3605 -1.1211  2.8967
  216MPD1    H2 3286   0.255   2.979  17.456  1.9231 -1.3107 -0.8383
  216MPD1    H3 3287   0.020   2.952  17.438  1.7269  0.5194 -0.8321
  216MPD1     N 3288   0.028   2.576  17.694 -0.2279 -0.1203 -0.1144
  216MPD1    H5 3289   0.098   2.504   0.011 -0.7197 -1.2140 -2.8315
  216MPD1    N1 3290   0.422   2.795  17.577  0.2692 -0.4496  0.4897
  216MPD1    H6 3291   0.454   2.698  17.578 -0.2041 -0.5708  2.5771
  216MPD1    H7 3292   0.473   2.836  17.499 -1.6377 -1.7555 -1.4440
  217MPD1     C 3293   3.915   3.700   9.342 -0.0537  1.1070 -0.2926
  217MPD1    C1 3294   3.985   3.618   9.427  0.1778 -0.4070  1.2507
  217MPD1    C2 3295   4.103   3.664   9.488 -0.2278 -0.5526 -0.9001
  217MPD1    C3 3296   4.147   3.795   9.459  0.0328 -0.1412  0.3635
  217MPD1    C4 3297   4.074   3.869   9.365 -1.0536 -0.5370 -0.4541
  217MPD1    C5 3298   3.960   3.825   9.303  0.3312  0.2187 -0.7572
  217MPD1     H 3299   4.159   3.596   9.550  0.2813 -1.0235 -1.8784
  217MPD1    H1 3300   4.122   3.962   9.339 -0.6485 -0.5369  0.2819
  217MPD1    H2 3301   3.816   3.677   9.303  0.3635  1.7028 -1.7221
  217MPD1    H3 3302   3.911   3.882   9.225 -1.3166 -1.9366 -1.2962
  217MPD1     N 3303   4.259   3.856   9.515 -0.7973 -0.4636  0.9074
  217MPD1    H5 3304   4.287   3.950   9.491 -0.9942 -0.8003 -0.6382
  217MPD1    N1 3305   3.916   3.501   9.472  0.1383 -0.2919  0.8162
  217MPD1    H6 3306   3.855   3.472   9.396  1.3799  0.9782 -0.6640
  217MPD1    H7 3307   3.986   3.431   9.497 -0.6871 -1.4300 -0.0589
  218MPD1     C 3308   1.840   0.354  12.813  0.6520  0.9437 -0.8873
  218MPD1    C1 3309   1.948   0.445  12.842 -0.1587 -0.3896 -0.3741
  218MPD1    C2 3310   2.078   0.391  12.824 -0.2105  0.0769  0.0573
  218MPD1    C3 3311   2.101   0.262  12.777 -0.0482 -0.2584 -0.4932
  218MPD1    C4 3312   1.994   0.189  12.727  0.1249  0.5066 -0.4941
  218MPD1    C5 3313   1.863   0.235  12.746  0.5273  0.1603  0.1844
  218MPD1     H 3314   2.162   0.450  12.859  1.0853 -1.0531 -1.1912
  218MPD1    H1 3315   2.003   0.087  12.691  0.4971 -0.0391  1.1854
  218MPD1    H2 3316   1.739   0.385  12.835  0.6077  0.2347 -0.0918
  218MPD1    H3 3317   1.783   0.176  12.703 -0.7667  0.1690  2.5833
  218MPD1     N 3318   2.234   0.220  12.759 -0.1761 -0.6399  0.4078
  218MPD1    H5 3319   2.307   0.289  12.774  0.0840 -0.3959 -1.9228
  218MPD1    N1 3320   1.932   0.582  12.876  0.6097 -1.0404  0.1326
  218MPD1    H6 3321   1.838   0.621  12.864  1.7693  1.6578 -0.2523
  218MPD1    H7 3322   2.003   0.639  12.830  0.5738 -1.6372 -0.6644
  219MPD1     C 3323   2.716   0.732  12.271  0.1261 -0.3994  0.3842
  219MPD1    C1 3324   2.809   0.632  12.292  0.4638 -0.6079  0.2318
  219MPD1    C2 3325   2.765   0.526  12.365 -0.2797  0.1813  0.3448
  219MPD1    C3 3326   2.634   0.508  12.407 -0.3454  0.6360  0.0580
  219MPD1    C4 3327   2.546   0.605  12.371 -0.0004  0.0406  0.5976
  219MPD1    C5 3328   2.586   0.716  12.306  0.2727  0.5212  0.1014
  219MPD1     H 3329   2.851   0.466  12.392  2.2216  3.8242  0.3622
  219MPD1    H1 3330   2.440   0.587  12.389  0.2488 -1.5231  0.4933
  219MPD1    H2 3331   2.742   0.822  12.216  0.5613 -0.0434  1.1796
  219MPD1    H3 3332   2.516   0.796  12.287 -0.4823 -0.9858 -3.6964
  219MPD1     N 3333   2.586   0.394  12.467 -0.2697 -0.3546  0.2911
  219MPD1    H5 3334   2.489   0.402  12.495 -0.7338  1.1842 -1.6629
  219MPD1    N1 3335   2.936   0.632  12.229 -0.0216 -0.0966 -0.0834
  219MPD1    H6 3336   2.970   0.727  12.216 -3.0302  1.0589  0.5612
  219MPD1    H7 3337   3.002   0.604  12.302 -0.4549  0.0507  0.3602
  220MPD1     C 3338   2.040   0.374   9.670 -0.5876  0.3374  0.7362
  220MPD1    C1 3339   1.990   0.488   9.610 -0.1940  0.0388 -0.1298
  220MPD1    C2 3340   2.038   0.602   9.664 -0.6559 -0.0339  0.7737
  220MPD1    C3 3341   2.126   0.611   9.773  0.2914  0.3536 -0.3871
  220MPD1    C4 3342   2.173   0.496   9.828  0.3406  0.3285  0.4820
  220MPD1    C5 3343   2.129   0.382   9.773  0.0609 -0.4825  1.2409
  220MPD1     H 3344   1.984   0.693   9.639  0.1355  1.1415  3.2621
  220MPD1    H1 3345   2.229   0.483   9.920 -0.9181 -0.9173  1.0811
  220MPD1    H2 3346   2.004   0.275   9.644 -0.9572  0.9510 -1.1130
  220MPD1    H3 3347   2.160   0.290   9.821  2.2254 -0.8346 -0.8656
  220MPD1     N 3348   2.152   0.742   9.815 -0.3974  0.1030  0.0116
  220MPD1    H5 3349   2.124   0.813   9.749  0.5411 -0.4382 -0.9890
  220MPD1    N1 3350   1.883   0.479   9.528 -0.3202  0.4564 -0.5049
  220MPD1    H6 3351   1.890   0.408   9.456 -0.7478  0.6351 -0.7250
  220MPD1    H7 3352   1.866   0.572   9.490 -0.9497  1.2904  1.8395
  221MPD1     C 3353   4.372   0.890  16.365 -0.1162 -0.1400 -0.3222
  221MPD1    C1 3354   4.429   0.927  16.250  0.3267 -0.2171 -0.7976
  221MPD1    C2 3355   4.548   0.868  16.208 -0.0781 -0.0325 -0.5518
  221MPD1    C3 3356   4.610   0.777  16.288  0.5469 -0.2805 -0.5246
  221MPD1    C4 3357   4.555   0.742  16.410 -0.2612 -0.0502 -0.5127
  221MPD1    C5 3358   4.441   0.803  16.450  0.6604  0.3288 -0.2660
  221MPD1     H 3359   4.579   0.895  16.108  0.5394  0.2917 -0.2781
  221MPD1    H1 3360   4.602   0.667  16.473 -1.4844 -0.0919  0.3426
  221MPD1    H2 3361   4.274   0.928  16.391 -1.0585 -1.0741 -2.4880
  221MPD1    H3 3362   4.391   0.769  16.540  0.1692  1.7360 -0.0109
  221MPD1     N 3363   0.011   0.723  16.260  0.1612 -0.4176  0.3667
  221MPD1    H5 3364   0.046   0.655  16.328 -1.0682 -0.8809  0.5337
  221MPD1    N1 3365   4.350   0.992  16.159  0.1022 -0.6903  0.1881
  221MPD1    H6 3366   4.398   1.042  16.084 -1.6119 -0.9540 -1.0800
  221MPD1    H7 3367   4.273   1.047  16.195 -0.4750 -1.0133 -0.5545
  222MPD1     C 3368   4.039   3.224  17.126 -0.2429 -0.5107 -0.2085
  222MPD1    C1 3369   4.092   3.343  17.084  0.1718 -0.2739  0.2078
  222MPD1    C2 3370   4.175   3.410  17.167 -0.2727  0.0429 -0.1461
  222MPD1    C3 3371   4.196   3.371  17.298  0.8817  0.5396  0.3986
  222MPD1    C4 3372   4.134   3.251  17.337 -0.0228  0.5942  0.3998
  222MPD1    C5 3373   4.050   3.190  17.254 -0.6413  0.6589  0.2899
  222MPD1     H 3374   4.206   3.508  17.133 -2.2899 -0.2246 -2.8272
  222MPD1    H1 3375   4.141   3.217  17.440  0.9260 -1.1832 -0.2402
  222MPD1    H2 3376   3.989   3.150  17.064  1.9748 -3.6611  1.7410
  222MPD1    H3 3377   4.006   3.096  17.284  0.6846  0.4171  1.5234
  222MPD1     N 3378   4.273   3.447  17.387 -0.3342  0.4528 -0.3007
  222MPD1    H5 3379   4.267   3.421  17.485  1.1873  0.1928 -0.2791
  222MPD1    N1 3380   4.085   3.380  16.949 -0.1930  0.3708 -0.7902
  222MPD1    H6 3381   4.004   3.352  16.894 -1.7385 -0.1884  1.7936
  222MPD1    H7 3382   4.091   3.480  16.930 -0.0646  0.6103  0.5419
  223MPD1     C 3383   0.222   3.447   0.407 -0.5268 -0.2216 -0.0565
  223MPD1    C1 3384   0.216   3.584   0.388 -1.1024  0.4982 -0.3090
  223MPD1    C2 3385   0.130   3.637   0.295 -0.8321  1.2219 -0.1574
  223MPD1    C3 3386   0.051   3.548   0.224  0.5136 -0.0937  0.0098
  223MPD1    C4 3387   0.050   3.414   0.252  0.4185  0.2420  0.6572
  223MPD1    C5 3388   0.140   3.361   0.341 -1.2889  0.6426 -0.3882
  223MPD1     H 3389   0.116   3.741   0.267 -0.2309  1.1708 -0.6549
  223MPD1    H1 3390   4.721   3.343   0.191 -0.4044 -0.1710  1.8825
  223MPD1    H2 3391   0.274   3.404   0.492 -1.1327 -0.4010  0.2153
  223MPD1    H3 3392   0.131   3.256   0.367 -0.0039  0.8668  0.9226
  223MPD1     N 3393   4.700   3.592   0.113 -0.3858  0.0574  0.1875
  223MPD1    H5 3394   4.719   3.690   0.097 -0.9419  0.2598  0.7648
  223MPD1    N1 3395   0.300   3.667   0.462 -0.4760 -0.3975 -0.3366
  223MPD1    H6 3396   0.375   3.611   0.501  0.2696  2.2588  2.0500
  223MPD1    H7 3397   0.322   3.759   0.423  0.2577 -0.1024  0.7824
  224MPD1     C 3398   0.270   0.427   9.724  0.5621 -0.8938  0.3476
  224MPD1    C1 3399   0.332   0.304   9.687  0.1437 -0.0796 -0.1652
  224MPD1    C2 3400   0.413   0.245   9.783  0.0914 -0.4479 -0.1856
  224MPD1    C3 3401   0.421   0.286   9.915 -0.2041  0.5787  0.3822
  224MPD1    C4 3402   0.358   0.400   9.947  0.0128  0.5922  0.4998
  224MPD1    C5 3403   0.280   0.474   9.856 -0.0829 -0.4757 -1.1823
  224MPD1     H 3404   0.475   0.161   9.755  1.1969  0.9396 -1.8793
  224MPD1    H1 3405   0.362   0.453  10.041  3.8883 -0.2838  0.8099
  224MPD1    H2 3406   0.212   0.486   9.654  0.8746  0.5904  1.3386
  224MPD1    H3 3407   0.246   0.573   9.882 -0.0394 -0.3965 -1.4207
  224MPD1     N 3408   0.498   0.230  10.019  0.0964  0.1883  0.2601
  224MPD1    H5 3409   0.481   0.280  10.106  0.1024  0.1920  0.2591
  224MPD1    N1 3410   0.352   0.262   9.553 -0.1486  0.1550  0.1015
  224MPD1    H6 3411   0.273   0.289   9.494 -1.5516 -0.0455  1.9242
  224MPD1    H7 3412   0.369   0.162   9.548  2.7701  0.6790 -0.6552
  225MPD1     C 3413   1.913   1.696  12.925 -0.4926 -0.2362 -0.0221
  225MPD1    C1 3414   1.886   1.566  12.949 -1.3692  0.0419  0.7377
  225MPD1    C2 3415   1.761   1.522  12.897 -0.3930 -0.2555  0.2082
  225MPD1    C3 3416   1.678   1.602  12.815 -0.2801  0.5010  0.5015
  225MPD1    C4 3417   1.722   1.730  12.785  0.4378  0.0858  0.3101
  225MPD1    C5 3418   1.836   1.775  12.849 -0.3677 -0.0842 -0.3186
  225MPD1     H 3419   1.723   1.425  12.927  1.2559 -1.2693 -1.0299
  225MPD1    H1 3420   1.678   1.797  12.712  0.6621 -0.2299 -0.1107
  225MPD1    H2 3421   1.997   1.752  12.965 -0.9373  1.1759 -1.0416
  225MPD1    H3 3422   1.884   1.868  12.819 -2.2583  0.9393 -0.1883
  225MPD1     N 3423   1.558   1.556  12.757  0.0958 -0.0362  0.2339
  225MPD1    H5 3424   1.530   1.613  12.678  2.0206  1.7611  0.8548
  225MPD1    N1 3425   1.964   1.482  13.030 -0.4284 -0.3501 -0.1922
  225MPD1    H6 3426   1.990   1.407  12.966  2.5657 -1.2360  2.0501
  225MPD1    H7 3427   2.043   1.529  13.074 -1.5765  0.8012  0.6500
  226MPD1     C 3428   1.119   1.679   8.663  0.2370 -0.1506  0.1942
  226MPD1    C1 3429   1.197   1.674   8.774 -0.6574  0.6877  0.0760
  226MPD1    C2 3430   1.165   1.580   8.869  0.2592 -0.6733  0.6057
  226MPD1    C3 3431   1.056   1.503   8.870  0.7037  0.1299 -0.5393
  226MPD1    C4 3432   0.972   1.518   8.767  0.4629 -0.4993  1.1708
  226MPD1    C5 3433   1.002   1.605   8.662 -0.0402 -1.1349  0.1991
  226MPD1     H 3434   1.237   1.567   8.950 -0.5643  0.9993  1.5950
  226MPD1    H1 3435   0.882   1.460   8.752  1.4751 -0.9332 -3.2083
  226MPD1    H2 3436   1.146   1.733   8.573 -1.2508 -0.9543 -0.7381
  226MPD1    H3 3437   0.940   1.621   8.575 -1.7514 -1.4900  1.3678
  226MPD1     N 3438   1.041   1.406   8.975 -0.2417  0.3078  0.0484
  226MPD1    H5 3439   1.117   1.399   9.041  2.3952  0.2575 -3.0060
  226MPD1    N1 3440   1.331   1.726   8.774  0.6559  0.1871  0.1968
  226MPD1    H6 3441   1.322   1.810   8.718 -0.0958 -0.0712 -0.0763
  226MPD1    H7 3442   1.351   1.768   8.864  0.9320  0.6041 -0.0588
  227MPD1     C 3443   1.382   0.995   9.817 -0.6458  0.4249  0.3847
  227MPD1    C1 3444   1.297   0.893   9.780 -0.7881  0.9882 -0.1056
  227MPD1    C2 3445   1.206   0.924   9.677 -0.1497  0.4879 -0.0747
  227MPD1    C3 3446   1.208   1.045   9.603  0.0496 -0.0931  0.9439
  227MPD1    C4 3447   1.303   1.134   9.645 -0.3816  0.6691  0.3511
  227MPD1    C5 3448   1.382   1.119   9.752 -0.0881  0.0062 -0.1334
  227MPD1     H 3449   1.134   0.844   9.662 -1.3442  1.6082 -0.3917
  227MPD1    H1 3450   1.320   1.226   9.590  2.1301 -0.8248 -1.3429
  227MPD1    H2 3451   1.468   0.980   9.882  0.2745  1.4773 -0.5763
  227MPD1    H3 3452   1.455   1.197   9.774 -1.5684  1.4919 -0.4729
  227MPD1     N 3453   1.132   1.066   9.486  0.7400  0.1038 -0.4983
  227MPD1    H5 3454   1.068   0.990   9.467  2.1739 -1.2614  0.1184
  227MPD1    N1 3455   1.318   0.761   9.829 -0.1059 -0.6791 -0.5224
  227MPD1    H6 3456   1.228   0.714   9.838 -0.5533  0.0577 -1.2722
  227MPD1    H7 3457   1.348   0.770   9.926 -2.2737  1.3600 -0.0576
  228MPD1     C 3458   4.170   4.295  12.261 -0.1599 -0.3140 -0.2155
  228MPD1    C1 3459   4.065   4.321  12.174 -0.2045 -0.6923  0.4163
  228MPD1    C2 3460   3.937   4.266  12.215  0.7611  0.8991 -0.2395
  228MPD1    C3 3461   3.915   4.228  12.345  0.0499  0.0358 -0.4510
  228MPD1    C4 3462   4.015   4.223  12.435 -0.3496  0.0052  0.2250
  228MPD1    C5 3463   4.147   4.242  12.388 -0.7194 -0.6728 -0.9241
  228MPD1     H 3464   3.849   4.263  12.151  0.0140 -0.1242  0.8373
  228MPD1    H1 3465   4.002   4.196  12.540  0.7037  0.5829  0.5064
  228MPD1    H2 3466   4.268   4.321  12.224 -0.3659  1.6615  0.6167
  228MPD1    H3 3467   4.237   4.230  12.447 -2.5587  1.3280  2.2938
  228MPD1     N 3468   3.784   4.188  12.373 -0.0493 -0.4046  0.4284
  228MPD1    H5 3469   3.716   4.219  12.304  1.2033  1.5410  0.0598
  228MPD1    N1 3470   4.087   4.363  12.045  0.2333  0.2307 -0.4853
  228MPD1    H6 3471   4.004   4.404  12.002 -0.1219  0.7717  0.7300
  228MPD1    H7 3472   4.171   4.419  12.034  0.2425  0.2504 -0.3068
  229MPD1     C 3473   3.775   3.134  14.792 -0.7594 -0.2763  0.5010
  229MPD1    C1 3474   3.700   3.047  14.715  0.9097 -0.2641 -0.8693
  229MPD1    C2 3475   3.740   2.916  14.686 -0.2360  0.4318 -0.1278
  229MPD1    C3 3476   3.860   2.872  14.740 -0.1143  0.3822  0.7991
  229MPD1    C4 3477   3.940   2.964  14.803 -0.2205  0.5372  0.2455
  229MPD1    C5 3478   3.899   3.093  14.830 -0.3476  0.2770  0.3040
  229MPD1     H 3479   3.672   2.841  14.646 -1.3133  1.4842 -0.2849
  229MPD1    H1 3480   4.041   2.933  14.828 -1.0722 -2.2253  0.3476
  229MPD1    H2 3481   3.738   3.231  14.822 -1.0374 -0.2153 -0.0402
  229MPD1    H3 3482   3.969   3.154  14.886 -2.3700  1.7281  1.2511
  229MPD1     N 3483   3.913   2.739  14.737  0.2106  0.2213  0.4570
  229MPD1    H5 3484   4.006   2.726  14.773  0.4355  0.3356 -0.0802
  229MPD1    N1 3485   3.583   3.091  14.647 -0.4489 -0.8339  0.1505
  229MPD1    H6 3486   3.515   3.017  14.629  0.2772 -1.0851 -1.5045
  229MPD1    H7 3487   3.543   3.160  14.711 -0.0009 -0.4543  0.0118
  230MPD1     C 3488   4.119   1.997  15.350  0.4871  0.3485 -0.0731
  230MPD1    C1 3489   4.078   1.924  15.244  0.2471  0.4048 -0.1212
  230MPD1    C2 3490   4.030   1.984  15.134  0.2361 -0.5372 -0.7533
  230MPD1    C3 3491   4.016   2.122  15.135  0.0722  0.4124  0.0624
  230MPD1    C4 3492   4.039   2.194  15.247  0.3056  0.5572 -0.4511
  230MPD1    C5 3493   4.089   2.132  15.353 -1.1995 -0.3295 -0.2372
  230MPD1     H 3494   4.015   1.933  15.039  2.4684 -0.4640 -1.1270
  230MPD1    H1 3495   4.041   2.302  15.250  0.2811  0.6005 -2.0940
  230MPD1    H2 3496   4.174   1.960  15.436  1.6778 -0.9475 -1.3859
  230MPD1    H3 3497   4.117   2.180  15.446  0.1092 -1.9222  0.1879
  230MPD1     N 3498   3.979   2.183  15.007  0.7219  0.5202  0.4002
  230MPD1    H5 3499   3.965   2.122  14.928  1.4141  1.5857 -0.5451
  230MPD1    N1 3500   4.138   1.797  15.225 -0.3451  0.7727  0.3927
  230MPD1    H6 3501   4.069   1.736  15.181 -0.0798  0.3580  0.5497
  230MPD1    H7 3502   4.138   1.755  15.318 -1.1606 -1.6703 -0.7128
  231MPD1     C 3503   1.631   4.371  15.602 -0.7157 -0.0675  0.5516
  231MPD1    C1 3504   1.613   4.455  15.496  0.3027  0.0747 -0.0259
  231MPD1    C2 3505   1.717   4.529  15.451  1.1156 -0.1285 -1.0091
  231MPD1    C3 3506   1.836   4.543  15.518 -0.0757  0.3376  0.1129
  231MPD1    C4 3507   1.852   4.467  15.631 -0.6763 -0.3148 -1.0575
  231MPD1    C5 3508   1.752   4.378  15.666 -0.3705 -0.1016 -0.4193
  231MPD1     H 3509   1.706   4.589  15.361  0.8384  1.6707  0.2246
  231MPD1    H1 3510   1.947   4.457  15.684 -1.1235  0.3874 -0.1192
  231MPD1    H2 3511   1.551   4.310  15.644  0.1201 -0.8107  1.0510
  231MPD1    H3 3512   1.768   4.317  15.754 -0.0262 -0.0307 -0.4332
  231MPD1     N 3513   1.936   4.610  15.453  0.3522  0.3210 -0.0640
  231MPD1    H5 3514   1.905   4.645  15.363 -1.6771  1.4365  1.0653
  231MPD1    N1 3515   1.502   4.433  15.414  0.4223  0.2801  0.1726
  231MPD1    H6 3516   1.480   4.515  15.358  0.4517  0.2825  0.1646
  231MPD1    H7 3517   1.415   4.402  15.457 -0.5460  0.5759 -1.5807
  232MPD1     C 3518   0.267   2.351  17.526  0.0685  0.2758  0.9871
  232MPD1    C1 3519   0.306   2.272  17.628 -0.2128 -0.7361  0.4328
  232MPD1    C2 3520   0.215   2.176  17.666 -0.8229 -0.3276  0.1720
  232MPD1    C3 3521   0.082   2.171  17.618  0.2335 -0.3131  0.2663
  232MPD1    C4 3522   0.045   2.253  17.515  0.1552  0.4519 -0.0895
  232MPD1    C5 3523   0.141   2.336  17.475 -0.0236  0.6052  0.0298
  232MPD1     H 3524   0.240   2.115   0.052  0.1801 -0.9627 -0.5724
  232MPD1    H1 3525   4.679   2.241  17.457  1.2289  0.1529 -1.6907
  232MPD1    H2 3526   0.339   2.425  17.492  0.4892  0.2536  1.8312
  232MPD1    H3 3527   0.117   2.392  17.385  0.2725 -2.2387 -1.8244
  232MPD1     N 3528   4.723   2.066  17.674  0.0877 -0.5500 -0.0603
  232MPD1    H5 3529   0.032   2.022   0.059  0.7963 -0.1652 -0.1473
  232MPD1    N1 3530   0.440   2.281  17.669 -0.0109 -0.0907 -0.2294
  232MPD1    H6 3531   0.466   2.250   0.063  1.0035 -1.8058 -1.0638
  232MPD1    H7 3532   0.487   2.369  17.650  1.0211 -0.4093  0.8546
  233MPD1     C 3533   4.119   1.106   0.545 -0.0460  0.5231 -0.9654
  233MPD1    C1 3534   4.176   1.184   0.645  0.4654 -0.1402 -0.4206
  233MPD1    C2 3535   4.287   1.140   0.714  0.2793  0.1503 -0.0383
  233MPD1    C3 3536   4.334   1.013   0.693 -0.5287 -0.1485  0.8422
  233MPD1    C4 3537   4.281   0.933   0.590 -0.1990  0.1078  0.0137
  233MPD1    C5 3538   4.171   0.980   0.514 -0.6754  0.6831  0.1076
  233MPD1     H 3539   4.329   1.199   0.795  3.8686 -2.1681 -0.1862
  233MPD1    H1 3540   4.323   0.838   0.560  1.3851 -0.4339  3.9158
  233MPD1    H2 3541   4.048   1.155   0.480 -0.8975  0.1259 -0.3393
  233MPD1    H3 3542   4.138   0.917   0.432 -1.3911  3.0279 -1.4270
  233MPD1     N 3543   4.441   0.954   0.762  0.5568 -0.2163  0.0817
  233MPD1    H5 3544   4.457   0.854   0.761 -1.1060 -0.4804 -2.2382
  233MPD1    N1 3545   4.142   1.321   0.657  0.0595 -0.9117 -0.5098
  233MPD1    H6 3546   4.162   1.351   0.753 -1.7911 -0.5406 -0.2377
  233MPD1    H7 3547   4.045   1.329   0.628  0.1076  2.7001  0.3231
  234MPD1     C 3548   1.203   3.099  10.132  0.4272  0.8391 -0.4477
  234MPD1    C1 3549   1.239   3.176  10.243  0.1299 -0.6538 -0.0990
  234MPD1    C2 3550   1.153   3.281  10.274  0.6725 -0.2433  0.4683
  234MPD1    C3 3551   1.024   3.287  10.226 -0.0245  0.5689  0.2490
  234MPD1    C4 3552   0.984   3.196  10.128  0.2548 -0.2694  0.0427
  234MPD1    C5 3553   1.075   3.110  10.074 -0.1546  0.0764  0.2534
  234MPD1     H 3554   1.179   3.359  10.345 -2.3553 -1.2887  2.7119
  234MPD1    H1 3555   0.886   3.186  10.082  0.1511  0.3205  0.1302
  234MPD1    H2 3556   1.274   3.030  10.089  1.0404  1.1042  0.1351
  234MPD1    H3 3557   1.051   3.062   9.980  1.8316 -0.4274  0.0021
  234MPD1     N 3558   0.940   3.384  10.286 -0.5094 -0.0085 -0.0632
  234MPD1    H5 3559   0.981   3.468  10.327  0.1726 -1.2217  1.7400
  234MPD1    N1 3560   1.376   3.175  10.271  0.4850  0.2722  0.4687
  234MPD1    H6 3561   1.390   3.197  10.370  1.9890 -0.9594  0.5131
  234MPD1    H7 3562   1.414   3.083  10.254  0.1333  0.1471  0.3634
  235MPD1     C 3563   2.908   2.037  10.449  0.1952  0.4132  0.2820
  235MPD1    C1 3564   2.850   2.101  10.339 -0.2325  0.0113 -0.0619
  235MPD1    C2 3565   2.904   2.223  10.313 -0.2349  0.2994 -0.3641
  235MPD1    C3 3566   3.005   2.280  10.382  0.1845  0.3552  0.3958
  235MPD1    C4 3567   3.076   2.200  10.467 -0.3423 -0.0008  0.2514
  235MPD1    C5 3568   3.022   2.083  10.501 -0.0290  0.8942 -0.1506
  235MPD1     H 3569   2.851   2.290  10.247  2.5440  0.4059 -2.4887
  235MPD1    H1 3570   3.167   2.236  10.515 -1.5386  3.7065 -0.2422
  235MPD1    H2 3571   2.880   1.936  10.477  0.2027 -0.0993 -1.5981
  235MPD1    H3 3572   3.073   2.038  10.586  2.1987 -0.3262 -2.1583
  235MPD1     N 3573   3.035   2.415  10.353 -0.5395  0.0557  0.1582
  235MPD1    H5 3574   2.981   2.451  10.274  1.4177  0.9486 -0.7758
  235MPD1    N1 3575   2.733   2.054  10.279 -0.7195  0.3335 -0.2955
  235MPD1    H6 3576   2.728   1.952  10.271 -2.9321  0.4236  0.0537
  235MPD1    H7 3577   2.728   2.093  10.185  0.5823  0.6907 -0.2211
  236MPD1     C 3578   2.146   2.908  10.005  0.6181  0.4349  0.0432
  236MPD1    C1 3579   2.127   2.785  10.069  0.4174 -0.2197 -0.4588
  236MPD1    C2 3580   2.188   2.770  10.193 -0.5596 -0.2841  0.0873
  236MPD1    C3 3581   2.270   2.863  10.252 -0.3007  0.3253  0.1252
  236MPD1    C4 3582   2.284   2.983  10.188 -1.2915  0.4685 -0.0697
  236MPD1    C5 3583   2.225   3.005  10.067  0.6231 -0.2260 -0.0744
  236MPD1     H 3584   2.160   2.685  10.253  2.2842 -0.0121  1.8058
  236MPD1    H1 3585   2.343   3.059  10.237 -0.7999  0.8480 -1.2556
  236MPD1    H2 3586   2.091   2.935   9.916 -0.1498 -0.4320  0.2496
  236MPD1    H3 3587   2.244   3.098  10.015 -0.0811  0.2522  0.5513
  236MPD1     N 3588   2.337   2.843  10.374 -0.8395 -0.3453 -0.0267
  236MPD1    H5 3589   2.385   2.926  10.407 -2.3118  0.5316 -0.1294
  236MPD1    N1 3590   2.007   2.708  10.040  0.6034  0.1929  0.4764
  236MPD1    H6 3591   2.039   2.614  10.063  0.4611  0.1087  0.3350
  236MPD1    H7 3592   1.972   2.698   9.945  0.2071 -1.9918  0.8341
  237MPD1     C 3593   1.918   1.318  14.287 -1.0481 -0.6985  0.7078
  237MPD1    C1 3594   1.794   1.364  14.333  0.5656 -0.2895 -0.3642
  237MPD1    C2 3595   1.698   1.271  14.370 -0.0271 -0.0573  0.0823
  237MPD1    C3 3596   1.722   1.135  14.360  0.2021  0.3594 -0.3047
  237MPD1    C4 3597   1.849   1.095  14.321  0.4493 -0.3515  0.0679
  237MPD1    C5 3598   1.950   1.185  14.292  0.2744  0.5065 -0.6485
  237MPD1     H 3599   1.603   1.317  14.395  0.5464  0.8899  0.5187
  237MPD1    H1 3600   1.868   0.989  14.336  0.0754 -0.4164  0.0911
  237MPD1    H2 3601   1.987   1.388  14.241 -2.0068 -1.1291 -1.4148
  237MPD1    H3 3602   2.052   1.155  14.270  0.2523 -0.1548  0.1353
  237MPD1     N 3603   1.624   1.041  14.390 -0.5412  0.3755 -0.4963
  237MPD1    H5 3604   1.647   0.942  14.389  0.7976  0.6944 -1.5890
  237MPD1    N1 3605   1.757   1.502  14.320 -0.5383 -0.9502 -0.3976
  237MPD1    H6 3606   1.681   1.520  14.386  0.1817  0.2762  0.0965
  237MPD1    H7 3607   1.830   1.569  14.342 -1.6123 -0.1238  0.6775
  238MPD1     C 3608   4.595   0.042  15.147 -0.3533 -0.2333 -0.2836
  238MPD1    C1 3609   4.486   0.045  15.228  0.5777  0.6267 -0.4905
  238MPD1    C2 3610   4.372   4.707  15.188 -0.1192  0.3290 -0.1993
  238MPD1    C3 3611   4.353   4.663  15.058 -0.4499  0.2020  0.2448
  238MPD1    C4 3612   4.455   4.677  14.972  0.3089 -0.4886 -0.9782
  238MPD1    C5 3613   4.574   0.001  15.014 -0.2125 -0.0206  0.0470
  238MPD1     H 3614   4.297   4.714  15.266  0.8035 -0.2969  0.7476
  238MPD1    H1 3615   4.450   4.646  14.868 -2.8184  0.2872 -1.0644
  238MPD1    H2 3616   4.689   0.085  15.179 -0.9145  0.4413  0.4626
  238MPD1    H3 3617   4.653   0.014  14.942  1.0362 -1.1138  1.2202
  238MPD1     N 3618   4.227   4.609  15.000  0.4747 -0.2486  0.5606
  238MPD1    H5 3619   4.215   4.580  14.904  2.3723  0.8185  0.0040
  238MPD1    N1 3620   4.510   0.089  15.360 -0.3937  0.0019 -0.5668
  238MPD1    H6 3621   4.597   0.141  15.368 -0.1773 -0.7582  1.9888
  238MPD1    H7 3622   4.439   0.144  15.407  1.4570  3.7372 -2.1452
  239MPD1     C 3623   4.033   0.264  15.071 -0.1101 -0.2423  0.8450
  239MPD1    C1 3624   4.144   0.297  14.986  0.4327  0.6849 -0.0047
  239MPD1    C2 3625   4.135   0.408  14.908  0.1440 -0.4913 -0.1715
  239MPD1    C3 3626   4.021   0.485  14.916 -0.2812  0.6737  0.4886
  239MPD1    C4 3627   3.912   0.443  14.990 -0.0299 -0.2117 -0.1725
  239MPD1    C5 3628   3.916   0.332  15.069 -0.6826 -0.4831  0.5101
  239MPD1     H 3629   4.218   0.441  14.846 -0.2093  0.3874 -0.1753
  239MPD1    H1 3630   3.822   0.500  15.006 -0.0855 -0.4811  0.4823
  239MPD1    H2 3631   4.043   0.186  15.146 -1.3490  0.5156  1.7976
  239MPD1    H3 3632   3.827   0.302  15.124 -0.9512 -1.0530 -0.2453
  239MPD1     N 3633   4.000   0.598  14.833 -0.2270 -0.0063  0.5251
  239MPD1    H5 3634   3.901   0.620  14.834 -0.2217  0.0381 -0.0990
  239MPD1    N1 3635   4.273   0.233  14.993 -0.7072 -0.2176 -0.9582
  239MPD1    H6 3636   4.336   0.299  15.038 -0.6324 -0.4803 -0.6771
  239MPD1    H7 3637   4.279   0.145  15.045  0.5025  0.9886  0.9397
  240MPD1     C 3638   3.858   0.031  14.646  0.6391  0.0726  0.0512
  240MPD1    C1 3639   3.755   4.679  14.616  0.1464 -0.2461 -1.3304
  240MPD1    C2 3640   3.649   4.660  14.709 -0.2794 -0.1969  0.5919
  240MPD1    C3 3641   3.671   4.699  14.842  0.1524  0.2349  0.2771
  240MPD1    C4 3642   3.796   0.021  14.874  0.5009 -0.5201 -0.4648
  240MPD1    C5 3643   3.879   0.061  14.781  0.2253  0.0965  0.0403
  240MPD1     H 3644   3.555   4.622  14.671 -0.3670 -0.1244  0.7402
  240MPD1    H1 3645   3.812   0.065  14.972 -0.6903  2.7690 -1.7173
  240MPD1    H2 3646   3.940   0.056  14.579  1.1967 -0.2648  0.6036
  240MPD1    H3 3647   3.971   0.108  14.814 -0.3669 -0.2250  2.1445
  240MPD1     N 3648   3.565   4.694  14.932  0.5339  0.4297  0.0920
  240MPD1    H5 3649   3.475   4.664  14.895  1.7007 -0.7429 -1.7855
  240MPD1    N1 3650   3.730   4.667  14.480  0.1149 -0.3059 -0.5776
  240MPD1    H6 3651   3.820   4.670  14.432  1.1001  1.1264  1.3343
  240MPD1    H7 3652   3.683   4.580  14.457  1.0447 -0.8115 -0.6089
  241MPD1     C 3653   3.428   0.727  15.539 -0.2010  0.4553  0.2728
  241MPD1    C1 3654   3.327   0.642  15.583 -0.2391  0.6934  0.1035
  241MPD1    C2 3655   3.300   0.530  15.506  0.0561 -0.1391 -0.8002
  241MPD1    C3 3656   3.389   0.491  15.408  0.5867  0.2975 -0.0109
  241MPD1    C4 3657   3.495   0.571  15.375 -1.1339  0.0608 -0.4411
  241MPD1    C5 3658   3.509   0.686  15.433 -0.1644 -0.6235 -0.2619
  241MPD1     H 3659   3.214   0.469  15.529 -0.9564  1.2995 -0.8048
  241MPD1    H1 3660   3.577   0.547  15.307 -0.1641 -0.6630  0.9772
  241MPD1    H2 3661   3.456   0.812  15.600  2.9708 -0.1909 -0.3034
  241MPD1    H3 3662   3.588   0.756  15.407  1.1723 -0.1596  5.0264
  241MPD1     N 3663   3.374   0.366  15.335 -0.6906 -0.8815 -0.1807
  241MPD1    H5 3664   3.457   0.351  15.277  1.7471  3.0989  2.2931
  241MPD1    N1 3665   3.244   0.675  15.690  0.1415  0.7478  0.1180
  241MPD1    H6 3666   3.204   0.591  15.731  1.0646  0.4400  0.3814
  241MPD1    H7 3667   3.289   0.741  15.753 -0.9148  0.0604  1.5996
  242MPD1     C 3668   3.101   2.636  15.940  0.7185  0.3105  0.1239
  242MPD1    C1 3669   3.022   2.721  15.871  0.2946 -0.4612 -0.3562
  242MPD1    C2 3670   3.085   2.793  15.770  0.6439  0.3443  0.8980
  242MPD1    C3 3671   3.222   2.794  15.752  0.2299 -0.0065 -0.2509
  242MPD1    C4 3672   3.298   2.715  15.833  0.8098  0.7419  0.4453
  242MPD1    C5 3673   3.231   2.637  15.921 -0.3917 -0.5354 -0.4813
  242MPD1     H 3674   3.018   2.854  15.711 -0.1307 -0.9166  0.4940
  242MPD1    H1 3675   3.404   2.694  15.819  0.8711  1.9608 -0.8782
  242MPD1    H2 3676   3.055   2.566  16.009  2.5191 -2.0390 -1.0154
  242MPD1    H3 3677   3.281   2.558  15.976 -0.2781 -0.8274 -1.0022
  242MPD1     N 3678   3.301   2.884  15.666 -0.3474  0.2605  0.1967
  242MPD1    H5 3679   3.402   2.876  15.674 -0.1847  0.6787 -1.5095
  242MPD1    N1 3680   2.883   2.718  15.882  0.0941  0.1754  0.1282
  242MPD1    H6 3681   2.850   2.713  15.978  1.2018 -1.3312  0.4310
  242MPD1    H7 3682   2.851   2.806  15.843 -0.5596  0.0209  0.3125
  243MPD1     C 3683   0.900   2.207   0.167 -0.9304  0.1330  0.1778
  243MPD1    C1 3684   0.936   2.329   0.118  0.7221  0.1052  0.0648
  243MPD1    C2 3685   0.922   2.343  17.676  0.6188 -0.3293  0.1396
  243MPD1    C3 3686   0.858   2.247  17.603  0.8804  0.3099  0.2275
  243MPD1    C4 3687   0.818   2.129  17.664 -0.2389  0.1926  0.4247
  243MPD1    C5 3688   0.844   2.107   0.096  0.4081 -0.1152 -0.4179
  243MPD1     H 3689   0.948   2.436  17.626 -0.5078  0.4114  0.9268
  243MPD1    H1 3690   0.769   2.054  17.604  0.0839 -0.8803  1.4718
  243MPD1    H2 3691   0.924   2.178   0.269 -0.4742  0.9018  0.2889
  243MPD1    H3 3692   0.813   2.015   0.145 -1.0779  1.4400  1.5870
  243MPD1     N 3693   0.831   2.279  17.470  0.1214  0.4938  0.2565
  243MPD1    H5 3694   0.858   2.372  17.441 -0.1231  0.7417  0.8311
  243MPD1    N1 3695   1.013   2.420   0.198  0.0275  0.7498  0.0765
  243MPD1    H6 3696   0.981   2.406   0.294  0.0620 -1.7463 -0.2932
  243MPD1    H7 3697   1.022   2.519   0.175  2.4234  0.2208 -1.3012
  244MPD1     C 3698   0.081   2.815  17.053 -0.1247  0.9785  0.4871
  244MPD1    C1 3699   0.089   2.710  16.965  0.1248 -0.7205  0.0903
  244MPD1    C2 3700   0.193   2.620  16.989  0.0079  0.4365 -0.3707
  244MPD1    C3 3701   0.292   2.636  17.082 -0.0242 -0.2031 -0.0411
  244MPD1    C4 3702   0.286   2.748  17.161 -0.0315 -0.8255  0.1932
  244MPD1    C5 3703   0.173   2.835  17.148  0.6076 -0.0975  0.0234
  244MPD1     H 3704   0.193   2.528  16.932 -1.9158 -0.1005  0.4993
  244MPD1    H1 3705   0.367   2.769  17.230  0.6782 -2.0260 -0.2690
  244MPD1    H2 3706   4.722   2.883  17.041 -0.1165  0.8832 -0.1079
  244MPD1    H3 3707   0.176   2.925  17.208 -2.9386  1.2876 -1.9122
  244MPD1     N 3708   0.405   2.551  17.078  0.1237  0.9816 -0.0336
  244MPD1    H5 3709   0.386   2.461  17.036 -3.0073  1.5331  0.1769
  244MPD1    N1 3710   4.723   2.680  16.867  0.2573  0.0812  0.0947
  244MPD1    H6 3711   0.042   2.631  16.789  2.9566 -0.5726  2.0301
  244MPD1    H7 3712   4.673   2.764  16.839  0.4552 -0.0300 -0.6009
  245MPD1     C 3713   1.401   2.448  13.515  0.9153 -0.2159  1.1346
  245MPD1    C1 3714   1.411   2.585  13.495  0.1412  0.0857  0.1737
  245MPD1    C2 3715   1.534   2.640  13.496 -0.0733  0.4595  0.1703
  245MPD1    C3 3716   1.646   2.564  13.520  0.5669  0.2048 -0.3447
  245MPD1    C4 3717   1.639   2.431  13.530  0.3050  0.6989 -0.0987
  245MPD1    C5 3718   1.515   2.371  13.527 -0.5465  0.0429 -0.1940
  245MPD1     H 3719   1.548   2.748  13.498 -1.7334  0.7004 -1.9002
  245MPD1    H1 3720   1.725   2.369  13.552  1.7405  2.1345 -1.6067
  245MPD1    H2 3721   1.304   2.401  13.529 -0.2853  0.7056 -4.0881
  245MPD1    H3 3722   1.511   2.266  13.552  0.0692  0.6865  2.7156
  245MPD1     N 3723   1.765   2.645  13.541  0.3675 -0.6666 -0.5724
  245MPD1    H5 3724   1.752   2.746  13.537 -0.3518 -0.8372 -2.5896
  245MPD1    N1 3725   1.297   2.666  13.488 -0.0185 -0.1952 -0.3811
  245MPD1    H6 3726   1.306   2.751  13.433 -3.3106  2.0122  2.5711
  245MPD1    H7 3727   1.223   2.609  13.447 -0.2794 -0.8626  1.0353
  246MPD1     C 3728   2.203   2.003  10.279  0.1257  0.1451  0.1438
  246MPD1    C1 3729   2.187   1.873  10.263  0.0761 -0.2075  1.1025
  246MPD1    C2 3730   2.240   1.810  10.150 -0.0537 -0.2743 -0.2762
  246MPD1    C3 3731   2.327   1.878  10.063  0.0007 -0.6957 -1.3449
  246MPD1    C4 3732   2.364   2.003  10.105 -0.2871 -0.1531  0.3205
  246MPD1    C5 3733   2.306   2.063  10.214 -0.8121  0.1449 -0.5220
  246MPD1     H 3734   2.213   1.709  10.119  2.8800 -0.9633 -0.5413
  246MPD1    H1 3735   2.423   2.070  10.043 -0.9635  0.1554  0.0085
  246MPD1    H2 3736   2.165   2.061  10.363  1.7448  0.7533  0.4546
  246MPD1    H3 3737   2.312   2.171  10.224 -1.2751  0.0414  0.8655
  246MPD1     N 3738   2.375   1.843   9.932 -0.2339  0.2216  0.0267
  246MPD1    H5 3739   2.443   1.897   9.880 -0.3765  2.1068  1.7922
  246MPD1    N1 3740   2.081   1.806  10.339  0.0686 -0.2922 -0.0815
  246MPD1    H6 3741   2.111   1.708  10.341  1.5600  0.1366 -1.3405
  246MPD1    H7 3742   2.068   1.848  10.431 -2.4056  0.1186 -0.6248
  247MPD1     C 3743   0.858   1.946  15.909 -0.0437 -0.3163  0.1532
  247MPD1    C1 3744   0.819   2.045  15.991  0.3968  0.5976 -0.8135
  247MPD1    C2 3745   0.912   2.121  16.053 -0.5008 -0.5226  0.1933
  247MPD1    C3 3746   1.051   2.102  16.034  0.1530  0.5508  0.8183
  247MPD1    C4 3747   1.085   2.007  15.943 -0.0636 -0.2087 -0.0808
  247MPD1    C5 3748   0.992   1.925  15.888  0.2350 -0.2629  0.3613
  247MPD1     H 3749   0.872   2.187  16.130 -3.5784 -0.7567 -1.1987
  247MPD1    H1 3750   1.191   1.988  15.933  0.4078  2.2044  0.3375
  247MPD1    H2 3751   0.792   1.870  15.869  1.1351 -2.2847  1.9381
  247MPD1    H3 3752   1.028   1.835  15.839 -0.9498  0.7351 -2.3237
  247MPD1     N 3753   1.160   2.176  16.084 -0.7301  0.7107 -0.4563
  247MPD1    H5 3754   1.251   2.147  16.048 -0.9489 -1.7403  0.9891
  247MPD1    N1 3755   0.685   2.041  16.033  0.0700  0.2328  0.6089
  247MPD1    H6 3756   0.622   2.014  15.958 -0.4346 -0.3726  1.2519
  247MPD1    H7 3757   0.654   2.134  16.060  1.1053  0.7634 -0.0330
  248MPD1     C 3758   2.149   1.655   0.087  0.0791 -0.0325 -0.9148
  248MPD1    C1 3759   2.076   1.764   0.053  0.3399  0.7109  0.7649
  248MPD1    C2 3760   2.120   1.889   0.107  0.6943  0.6560 -0.6219
  248MPD1    C3 3761   2.241   1.900   0.171  0.8905 -0.7251  0.2321
  248MPD1    C4 3762   2.310   1.783   0.199 -0.0394 -0.1655  0.2494
  248MPD1    C5 3763   2.260   1.659   0.162 -0.1945 -0.4540 -0.3102
  248MPD1     H 3764   2.071   1.983   0.082 -0.0686  0.7015  1.0146
  248MPD1    H1 3765   2.414   1.777   0.229  0.2972 -0.0007 -0.8736
  248MPD1    H2 3766   2.103   1.557   0.071 -0.4612  0.1662 -0.5682
  248MPD1    H3 3767   2.311   1.567   0.189  0.0670 -0.0970  0.4399
  248MPD1     N 3768   2.281   2.031   0.206 -0.3318  0.2244 -0.2031
  248MPD1    H5 3769   2.223   2.106   0.169 -1.3315  0.3452  1.6310
  248MPD1    N1 3770   1.954   1.746  17.700 -0.0897  0.4643 -0.1506
  248MPD1    H6 3771   1.940   1.830  17.644 -0.7518  0.9724  0.7678
  248MPD1    H7 3772   1.941   1.667  17.637 -1.7546 -0.4565  1.3380
  249MPD1     C 3773   3.128   0.923  10.228  0.0366  0.2972 -0.2445
  249MPD1    C1 3774   3.123   0.999  10.113  0.1305 -0.0390  0.5767
  249MPD1    C2 3775   3.240   1.067  10.090  1.0112  0.2122  0.3237
  249MPD1    C3 3776   3.349   1.071  10.183 -0.2249  0.1090  0.3332
  249MPD1    C4 3777   3.342   1.004  10.300 -0.4117 -0.5528 -0.2781
  249MPD1    C5 3778   3.228   0.936  10.327 -0.3559 -0.0457 -0.4192
  249MPD1     H 3779   3.249   1.116   9.994 -1.1244 -2.5486 -1.2787
  249MPD1    H1 3780   3.416   1.015  10.378 -0.0374  0.7226 -0.8070
  249MPD1    H2 3781   3.042   0.861  10.251 -0.5349  0.8765 -0.8119
  249MPD1    H3 3782   3.221   0.887  10.423  1.3113  1.1038  0.2875
  249MPD1     N 3783   3.458   1.152  10.141 -0.3548  0.2809 -0.1481
  249MPD1    H5 3784   3.450   1.218  10.064 -2.3456  0.2378  0.0332
  249MPD1    N1 3785   3.013   1.004  10.021 -0.0974 -0.1680 -0.0986
  249MPD1    H6 3786   2.924   0.985  10.065 -1.5290  0.9502 -2.5052
  249MPD1    H7 3787   3.002   1.100   9.988  1.9175 -0.5334 -1.9116
  250MPD2     C 3788   4.708   1.046  13.044 -0.0960 -0.2052  0.2494
  250MPD2    C1 3789   4.616   1.141  12.990  0.6766  0.5542 -0.1865
  250MPD2    C2 3790   4.507   1.095  12.923 -0.3497 -0.6805 -0.7145
  250MPD2    C3 3791   4.480   0.959  12.903 -0.3911  0.0098 -0.3002
  250MPD2    C4 3792   4.577   0.870  12.952 -0.5604  0.5507 -0.1180
  250MPD2    C5 3793   4.685   0.915  13.031 -0.6079  0.1537 -0.1932
  250MPD2     H 3794   4.434   1.169  12.893 -1.8208 -1.1707  1.7059
  250MPD2    H1 3795   4.572   0.762  12.947 -0.9787  0.5195  0.9393
  250MPD2    H2 3796   0.070   1.076  13.102 -0.4052 -0.3876  0.7959
  250MPD2    H3 3797   0.022   0.838  13.077 -2.9731 -0.4978  1.9065
  250MPD2     N 3798   4.370   0.905  12.824 -0.0537  0.2404  0.6720
  250MPD2    H5 3799   4.390   0.808  12.802 -0.2417  1.0384 -3.0305
  250MPD2    N1 3800   4.642   1.277  13.014  0.0994  0.1664 -0.4237
  250MPD2    H7 3801   0.010   1.296  13.052  0.0412  1.7135 -1.0553
  251TMC3    C1 3802   4.623   1.506  12.955 -0.9172  0.5196  0.4864
  251TMC3    C2 3803   4.557   1.621  12.973  0.1243 -0.2909 -0.5517
  251TMC3    C3 3804   4.627   1.739  12.954  0.3257  0.1990  0.1909
  251TMC3    C4 3805   0.034   1.503  12.933 -0.3254  0.2306  0.2128
  251TMC3    C5 3806   0.103   1.621  12.912 -0.1052  0.2641  0.1686
  251TMC3    C6 3807   0.037   1.741  12.921 -0.1158 -0.0522  0.0194
  251TMC3     C 3808   4.555   1.379  12.972  0.0058  0.3116  0.1731
  251TMC3     O 3809   4.431   1.378  12.951 -0.3211  0.2043  0.7130
  251TMC3     H 3810   4.451   1.624  12.995  0.5248  0.5171  1.2572
  251TMC3    H1 3811   0.098   1.416  12.941 -0.2247  0.3522  0.7562
  251TMC3    H2 3812   0.084   1.836  12.896  1.5644 -0.3985  1.8699
  251TMC3    C7 3813   0.248   1.619  12.918  0.2681 -0.3896  0.4924
  251TMC3    C8 3814   4.562   1.862  13.005  0.6698  0.2018  0.4053
  251TMC3    O1 3815   0.305   1.506  12.935 -0.0375 -0.0704  0.3559
  251TMC3    O2 3816   4.464   1.839  13.077  0.0019 -0.2148  0.6783
  252TMC3    C1 3817   1.354   2.129   9.291  0.0362  0.4677  0.0981
  252TMC3    C2 3818   1.364   2.101   9.426 -0.3695  0.4054  0.0551
  252TMC3    C3 3819   1.308   1.983   9.469  0.1355  0.9873 -0.3368
  252TMC3    C4 3820   1.265   2.053   9.207  0.0435 -0.5732 -0.7735
  252TMC3    C5 3821   1.203   1.947   9.266 -0.3315  0.5223 -0.5114
  252TMC3    C6 3822   1.231   1.901   9.388 -0.7289  0.9037  0.7622
  252TMC3     C 3823   1.423   2.238   9.235  0.0582  0.4867  0.1239
  252TMC3     O 3824   1.450   2.224   9.116 -1.0278  0.2937 -0.3016
  252TMC3     H 3825   1.432   2.162   9.485 -0.3325 -0.1541  0.5873
  252TMC3    H1 3826   1.258   2.072   9.101 -0.8512 -1.1915 -0.8310
  252TMC3    H2 3827   1.185   1.813   9.433 -0.4185 -0.5228 -1.6472
  252TMC3    C7 3828   1.123   1.872   9.176  0.3601  0.3714 -0.3107
  252TMC3    C8 3829   1.350   1.935   9.599  0.4225  0.3270 -0.5938
  252TMC3    O1 3830   1.092   1.923   9.072  0.4254 -0.0307  0.5464
  252TMC3    O2 3831   1.406   1.829   9.611  0.1475  0.2880  0.3947
  253MPD2     C 3832   1.799   1.123  15.228 -0.1283 -0.8025  0.0999
  253MPD2    C1 3833   1.661   1.102  15.242 -0.6259 -0.6035 -0.3213
  253MPD2    C2 3834   1.621   1.065  15.375  0.3542 -0.5123 -0.4602
  253MPD2    C3 3835   1.714   1.054  15.480  0.1696 -0.3462  0.7787
  253MPD2    C4 3836   1.851   1.082  15.456 -0.2942 -0.2857 -0.5484
  253MPD2    C5 3837   1.890   1.116  15.333  0.4164  0.0014 -0.1184
  253MPD2     H 3838   1.518   1.038  15.391  0.3018 -0.4200 -0.6372
  253MPD2    H1 3839   1.924   1.072  15.535 -0.5206  1.3703 -0.1261
  253MPD2    H2 3840   1.841   1.148  15.132 -0.9733 -0.0351 -0.0759
  253MPD2    H3 3841   1.994   1.132  15.306  0.6022 -0.7639  0.1247
  253MPD2     N 3842   1.675   1.024  15.614 -0.1011 -0.3849  0.2438
  253MPD2    H5 3843   1.750   1.027  15.683  0.5299  3.9794 -0.6333
  253MPD2    N1 3844   1.562   1.120  15.148 -0.7230 -0.2615  0.0151
  253MPD2    H7 3845   1.465   1.099  15.171 -0.3725 -2.0184 -0.0734
  254TMC3    C1 3846   1.525   1.009  15.801  0.3733 -0.1597  0.1052
  254TMC3    C2 3847   1.402   1.054  15.840 -0.3043  0.9896 -0.0050
  254TMC3    C3 3848   1.389   1.064  15.974 -0.6916  0.5921  0.5573
  254TMC3    C4 3849   1.619   0.972  15.884 -0.3633 -0.3666 -0.4097
  254TMC3    C5 3850   1.588   0.981  16.015 -0.1941  0.7684 -0.5351
  254TMC3    C6 3851   1.478   1.030  16.073 -0.0603  0.0708  0.2086
  254TMC3     C 3852   1.542   1.009  15.658  0.1410 -0.5367 -0.7719
  254TMC3     O 3853   1.441   0.991  15.592 -0.4627  0.0196  0.0657
  254TMC3     H 3854   1.322   1.071  15.769  0.0107 -1.3489 -0.9238
  254TMC3    H1 3855   1.720   0.939  15.863 -0.4495 -0.9748  0.1110
  254TMC3    H2 3856   1.467   1.045  16.180  0.1311  3.2380 -0.2281
  254TMC3    C7 3857   1.691   0.971  16.110  0.6495 -0.1216  0.5116
  254TMC3    C8 3858   1.290   1.147  16.030  0.2227 -0.0128 -0.4774
  254TMC3    O1 3859   1.656   0.923  16.219 -0.1767  0.2327 -0.1261
  254TMC3    O2 3860   1.268   1.137  16.151  0.3030  0.6575 -0.3119
  255MPD2     C 3861   3.674   0.407   8.358  0.5530  0.1508 -0.0716
  255MPD2    C1 3862   3.761   0.319   8.416 -0.6174  1.2190  0.3093
  255MPD2    C2 3863   3.860   0.359   8.504 -0.6290 -0.9251 -0.5477
  255MPD2    C3 3864   3.875   0.493   8.526  0.3238  0.3850 -0.0064
  255MPD2    C4 3865   3.795   0.586   8.463  0.4989  0.6578  0.3226
  255MPD2    C5 3866   3.695   0.543   8.380 -0.6553 -0.5103 -0.5258
  255MPD2     H 3867   3.937   0.299   8.550 -1.7362 -1.3697  0.7416
  255MPD2    H1 3868   3.800   0.692   8.488 -0.7675  1.0194 -1.0214
  255MPD2    H2 3869   3.587   0.384   8.298 -0.2957  1.8915  0.5085
  255MPD2    H3 3870   3.640   0.612   8.317 -2.0059 -0.3416  0.8249
  255MPD2     N 3871   3.969   0.526   8.626 -0.0612 -0.2656 -0.4524
  255MPD2    H5 3872   4.012   0.445   8.670  0.2411  0.4787  0.6392
  255MPD2    N1 3873   3.736   0.177   8.409 -0.1405  0.1192  0.8629
  255MPD2    H7 3874   3.643   0.149   8.381  0.1587 -1.3402  1.3208
  256TMC3    C1 3875   3.783   4.678   8.447  0.1034 -0.1353  0.0349
  256TMC3    C2 3876   3.869   4.576   8.486  0.1505  0.0427  0.2737
  256TMC3    C3 3877   3.829   4.458   8.546 -0.5481 -0.3251  0.1751
  256TMC3    C4 3878   3.649   4.657   8.469 -0.2101  0.0646  1.0703
  256TMC3    C5 3879   3.612   4.539   8.529  0.1182  0.0395  0.1823
  256TMC3    C6 3880   3.698   4.433   8.564 -0.3234 -0.3685 -0.0392
  256TMC3     C 3881   3.834   0.087   8.419 -0.0756 -0.0130 -0.3333
  256TMC3     O 3882   3.954   0.097   8.413  0.4009 -0.8558  0.0094
  256TMC3     H 3883   3.973   4.596   8.465  0.1732 -1.5593 -1.2001
  256TMC3    H1 3884   3.573   0.009   8.458 -1.6597 -1.3544  1.2069
  256TMC3    H2 3885   3.669   4.342   8.616 -1.0700  1.1227  2.1697
  256TMC3    C7 3886   3.501   4.552   8.616  0.4529 -0.1274  0.4663
  256TMC3    C8 3887   3.927   4.394   8.626 -0.0446  0.1907  0.7881
  256TMC3    O1 3888   3.407   4.623   8.580 -0.8278 -0.6119 -0.1212
  256TMC3    O2 3889   3.904   4.281   8.663  0.0512  0.3160 -0.8338
  257MPD2     C 3890   3.670   1.200  13.279 -0.3296  0.2736 -0.3016
  257MPD2    C1 3891   3.643   1.098  13.187 -0.7311  0.5758  0.7364
  257MPD2    C2 3892   3.660   0.969  13.229 -0.1031 -0.0133  0.6703
  257MPD2    C3 3893   3.704   0.935  13.355  0.5377  0.6820  0.0594
  257MPD2    C4 3894   3.720   1.036  13.444 -0.5218 -0.1413  0.1882
  257MPD2    C5 3895   3.704   1.168  13.413 -0.1659  0.0164 -0.0295
  257MPD2     H 3896   3.661   0.892  13.151 -0.9757  0.4916  0.1620
  257MPD2    H1 3897   3.750   1.024  13.547 -0.0494 -1.9026 -0.1528
  257MPD2    H2 3898   3.647   1.303  13.256 -1.3748  0.8181  3.1578
  257MPD2    H3 3899   3.726   1.251  13.479  2.1389 -0.5161 -0.1376
  257MPD2     N 3900   3.713   0.802  13.389  0.2454 -0.2817 -0.7578
  257MPD2    H5 3901   3.696   0.739  13.310  0.4267 -0.0509 -0.9824
  257MPD2    N1 3902   3.591   1.132  13.060 -0.2191 -0.1968  0.2759
  257MPD2    H7 3903   3.601   1.225  13.021  0.0366 -0.3667 -0.0709
  258TMC3    C1 3904   3.718   0.597  13.517  0.3046  0.4271  0.4284
  258TMC3    C2 3905   3.622   0.546  13.435 -0.7572  0.4965  0.3929
  258TMC3    C3 3906   3.571   0.424  13.477  0.1462 -0.3131  0.6215
  258TMC3    C4 3907   3.760   0.536  13.633 -0.4867  0.2223 -0.4154
  258TMC3    C5 3908   3.712   0.411  13.668  0.2104  0.0845  0.2535
  258TMC3    C6 3909   3.616   0.351  13.583  1.1120 -0.8895  0.8881
  258TMC3     C 3910   3.743   0.740  13.512  0.3692 -0.0911  0.2517
  258TMC3     O 3911   3.785   0.792  13.616 -1.0333 -0.4563 -0.0086
  258TMC3     H 3912   3.576   0.598  13.352 -0.4707  1.3577  0.7702
  258TMC3    H1 3913   3.823   0.577  13.711 -0.5535 -0.2157 -0.1273
  258TMC3    H2 3914   3.581   0.252  13.611  0.7240 -1.3523 -1.1901
  258TMC3    C7 3915   3.742   0.339  13.790 -0.0555 -1.1839 -0.6228
  258TMC3    C8 3916   3.480   0.356  13.391 -0.2803 -1.0659 -0.6525
  258TMC3    O1 3917   3.658   0.261  13.834 -0.3497 -0.0787  0.9186
  258TMC3    O2 3918   3.468   0.398  13.276  0.3706 -0.3509 -0.4853
  259MPD2     C 3919   3.862   2.562   1.641 -1.0996 -0.0873 -0.0431
  259MPD2    C1 3920   3.758   2.563   1.550 -0.2831  0.1730  0.2478
  259MPD2    C2 3921   3.761   2.484   1.442  0.7795 -0.3043  0.4072
  259MPD2    C3 3922   3.852   2.382   1.428 -0.4474 -0.3268 -1.1791
  259MPD2    C4 3923   3.954   2.380   1.521  0.2667  0.6208 -0.2885
  259MPD2    C5 3924   3.955   2.467   1.625 -0.8549 -0.4536 -0.2186
  259MPD2     H 3925   3.694   2.508   1.359  0.3193  0.6620  1.0554
  259MPD2    H1 3926   4.043   2.319   1.513 -1.0009 -1.2263 -0.2137
  259MPD2    H2 3927   3.872   2.637   1.719 -0.6981 -0.5880  0.3864
  259MPD2    H3 3928   4.037   2.456   1.695 -0.5738  2.4206 -0.1107
  259MPD2     N 3929   3.852   2.296   1.313 -0.3483 -0.4377 -0.7213
  259MPD2    H5 3930   3.800   2.328   1.232 -1.0912  0.0281 -0.0538
  259MPD2    N1 3931   3.666   2.667   1.563 -0.3367  0.0255 -0.1185
  259MPD2    H7 3932   3.692   2.747   1.620  0.8381 -0.2831 -0.2159
  260TMC3    C1 3933   3.926   2.115   1.172  0.1543 -0.0563 -0.1908
  260TMC3    C2 3934   4.032   2.039   1.133  0.1289  0.0448 -0.2551
  260TMC3    C3 3935   4.035   1.995   0.997 -0.2464  0.0396 -0.0763
  260TMC3    C4 3936   3.823   2.144   1.078 -0.9823  0.2539 -0.0990
  260TMC3    C5 3937   3.834   2.104   0.953 -0.1475 -0.3684  0.2909
  260TMC3    C6 3938   3.938   2.025   0.912  0.5016  0.1672  0.6354
  260TMC3     C 3939   3.933   2.180   1.302  0.7838  0.1806 -0.5311
  260TMC3     O 3940   3.985   2.118   1.395  0.2335  0.7897  0.4136
  260TMC3     H 3941   4.109   2.029   1.208 -0.4647 -0.6472  0.2743
  260TMC3    H1 3942   3.727   2.181   1.111 -0.7178  3.0492 -2.4431
  260TMC3    H2 3943   3.929   1.963   0.823  0.6672 -1.0759  1.4888
  260TMC3    C7 3944   3.730   2.135   0.855  0.3251  0.7382  0.0953
  260TMC3    C8 3945   4.159   1.934   0.956 -0.1241  0.0591 -0.1880
  260TMC3    O1 3946   3.723   2.068   0.752  0.1273  0.2753 -0.0164
  260TMC3    O2 3947   4.236   1.922   1.052 -0.5417  0.2741  0.0418
  261MPD2     C 3948   3.680   0.983  12.312  0.1847 -0.1294  0.1609
  261MPD2    C1 3949   3.786   1.067  12.357  0.0325 -0.4783 -0.0666
  261MPD2    C2 3950   3.775   1.198  12.352 -0.4219 -0.0418 -0.0984
  261MPD2    C3 3951   3.668   1.260  12.294 -0.0588 -0.2208 -0.6126
  261MPD2    C4 3952   3.562   1.183  12.243  0.3677  0.2121  0.4015
  261MPD2    C5 3953   3.570   1.049  12.251  0.2034 -0.3263  0.2946
  261MPD2     H 3954   3.859   1.259  12.385 -1.4926  1.8981 -0.9333
  261MPD2    H1 3955   3.471   1.223  12.199  1.0001  2.1621  0.8616
  261MPD2    H2 3956   3.675   0.875  12.323  3.6007 -0.2881  0.0577
  261MPD2    H3 3957   3.481   0.994  12.223  0.8107 -0.5243 -1.2444
  261MPD2     N 3958   3.680   1.397  12.276  0.5744 -0.3457 -0.3587
  261MPD2    H5 3959   3.765   1.449  12.298  0.3577  0.1166 -0.6204
  261MPD2    N1 3960   3.910   1.010  12.410  0.1172  0.9195  0.8480
  261MPD2    H7 3961   3.995   1.064  12.423  0.8017 -0.1724  0.8954
  262TMC3    C1 3962   3.647   1.605  12.182 -0.2257  0.6442 -0.7295
  262TMC3    C2 3963   3.594   1.672  12.081 -0.3376 -0.3720  0.4309
  262TMC3    C3 3964   3.639   1.797  12.053 -1.3076  0.2894  0.3201
  262TMC3    C4 3965   3.762   1.650  12.240  0.4342  0.2793 -0.1401
  262TMC3    C5 3966   3.810   1.776  12.211  0.0319  0.4693  0.8465
  262TMC3    C6 3967   3.737   1.857  12.128  0.1223 -0.1365 -0.6963
  262TMC3     C 3968   3.595   1.474  12.204 -0.1360  0.2768 -0.5539
  262TMC3     O 3969   3.479   1.450  12.174 -0.1094  0.7263 -0.7583
  262TMC3     H 3970   3.509   1.630  12.029 -0.1634  0.9538 -0.9192
  262TMC3    H1 3971   3.830   1.592  12.301 -2.9087 -2.9740  0.5220
  262TMC3    H2 3972   3.769   1.957  12.101 -1.9391  1.0651  1.2894
  262TMC3    C7 3973   3.950   1.773  12.169 -0.0076  0.7348 -0.0365
  262TMC3    C8 3974   3.632   1.844  11.913 -0.6104 -0.3707 -0.8883
  262TMC3    O1 3975   4.029   1.721  12.245 -0.0568 -0.3583  0.1993
  262TMC3    O2 3976   3.731   1.902  11.874 -0.1019  0.3331 -0.5209
  263MPD2     C 3977   0.045   0.555  11.381  0.0837 -0.4374  0.2635
  263MPD2    C1 3978   0.184   0.569  11.386  0.1949  0.4596 -0.2974
  263MPD2    C2 3979   0.240   0.678  11.317 -0.1566 -0.8443  0.5430
  263MPD2    C3 3980   0.157   0.771  11.249  0.0195 -0.3085 -0.4008
  263MPD2    C4 3981   0.020   0.754  11.245  0.5047 -0.1784  0.3097
  263MPD2    C5 3982   4.695   0.648  11.311 -0.4454  0.3850  0.7407
  263MPD2     H 3983   0.346   0.696  11.320 -0.5558  1.6682 -0.9757
  263MPD2    H1 3984   4.670   0.814  11.194  0.6303 -0.4309 -0.1686
  263MPD2    H2 3985   4.713   0.476  11.429 -1.0222 -0.8584 -1.7174
  263MPD2    H3 3986   4.586   0.643  11.310 -0.4082 -0.4276  1.1419
  263MPD2     N 3987   0.225   0.876  11.178 -0.6729  0.3721  0.3965
  263MPD2    H5 3988   0.326   0.879  11.188 -0.5698 -1.2374 -0.2308
  263MPD2    N1 3989   0.257   0.472  11.458 -0.7501  0.0833  0.2135
  263MPD2    H7 3990   0.204   0.402  11.509  1.3361 -0.9370  0.9604
  264TMC3    C1 3991   0.250   1.071  11.038  0.8633 -0.2918 -0.1453
  264TMC3    C2 3992   0.199   1.204  11.016  0.3640  0.1125 -0.0074
  264TMC3    C3 3993   0.232   1.285  10.915 -0.1258  0.1805  0.1959
  264TMC3    C4 3994   0.348   1.023  10.948  0.0140  0.4347  0.1832
  264TMC3    C5 3995   0.374   1.110  10.846 -0.4085 -0.1219  0.0903
  264TMC3    C6 3996   0.311   1.228  10.819  0.2163  0.2619  0.2719
  264TMC3     C 3997   0.162   0.979  11.109  0.2517 -0.4991  0.2015
  264TMC3     O 3998   0.042   1.004  11.099 -0.2738  0.3719 -0.1116
  264TMC3     H 3999   0.128   1.261  11.075  0.0626 -1.6940  1.3621
  264TMC3    H1 4000   0.408   0.934  10.956 -0.3330  0.3313  1.5437
  264TMC3    H2 4001   0.326   1.274  10.722 -0.9393  0.3181  0.1132
  264TMC3    C7 4002   0.513   1.113  10.798 -0.2292  0.1393  0.8741
  264TMC3    C8 4003   0.294   1.418  10.940  0.4740 -0.3243 -0.0679
  264TMC3    O1 4004   0.579   1.010  10.791  0.5358 -0.4436 -0.0594
  264TMC3    O2 4005   0.401   1.442  10.883  0.0679 -0.2140  0.1627
  265MPD2     C 4006   2.753   0.849  15.877  0.4004 -0.9787  0.0842
  265MPD2    C1 4007   2.791   0.940  15.789 -0.9139 -0.0311 -0.1261
  265MPD2    C2 4008   2.852   0.905  15.666 -0.3403 -0.2511  0.0420
  265MPD2    C3 4009   2.885   0.772  15.645  1.0551 -0.5659 -0.8128
  265MPD2    C4 4010   2.854   0.678  15.744 -0.0929 -0.1770  0.4354
  265MPD2    C5 4011   2.783   0.718  15.858  0.9044  0.3272  0.2565
  265MPD2     H 4012   2.892   0.982  15.600 -0.7260 -0.6268 -0.6259
  265MPD2    H1 4013   2.881   0.574  15.730 -0.3984 -0.4102  1.5894
  265MPD2    H2 4014   2.723   0.869  15.980 -0.6300 -1.5771 -0.0985
  265MPD2    H3 4015   2.765   0.639  15.930 -0.0727  1.1737  0.9336
  265MPD2     N 4016   2.952   0.728  15.535  1.0009 -0.3323 -0.0643
  265MPD2    H5 4017   2.968   0.628  15.546 -0.1384 -0.4162  0.8666
  265MPD2    N1 4018   2.777   1.078  15.817 -0.1244  0.5661  0.3231
  265MPD2    H7 4019   2.812   1.142  15.746  1.2406  0.2566  0.7318
  266TMC3    C1 4020   2.749   1.275  15.933 -0.7258 -0.4124  0.0188
  266TMC3    C2 4021   2.779   1.345  16.045  0.9093 -0.2265  0.5177
  266TMC3    C3 4022   2.774   1.480  16.036 -0.0386 -0.6311 -0.1879
  266TMC3    C4 4023   2.686   1.333  15.824  0.2299 -0.1681  0.2105
  266TMC3    C5 4024   2.677   1.471  15.821  0.0916 -0.6027 -0.0647
  266TMC3    C6 4025   2.726   1.545  15.926 -0.0230  0.0054 -0.0213
  266TMC3     C 4026   2.737   1.133  15.938 -0.0291  0.6710  0.3979
  266TMC3     O 4027   2.687   1.086  16.043 -0.1903  0.5016  0.8102
  266TMC3     H 4028   2.834   1.298  16.127 -0.4998 -1.3029  0.8457
  266TMC3    H1 4029   2.657   1.280  15.734 -1.6649  0.8053  0.2513
  266TMC3    H2 4030   2.701   1.651  15.921 -0.9044 -0.0979  2.1358
  266TMC3    C7 4031   2.649   1.531  15.697  0.3248  0.4289 -0.1287
  266TMC3    C8 4032   2.865   1.553  16.128 -0.2775  0.1391  0.2371
  266TMC3    O1 4033   2.615   1.449  15.614  0.0045 -0.0470  0.1638
  266TMC3    O2 4034   2.946   1.481  16.191 -0.0609  0.1387  0.6582
  267MPD2     C 4035   0.608   2.233   0.394 -0.2207 -0.6364  0.1908
  267MPD2    C1 4036   0.564   2.356   0.345  0.2956  0.0336  0.4962
  267MPD2    C2 4037   0.428   2.380   0.333  0.2781  0.2904 -0.2837
  267MPD2    C3 4038   0.329   2.281   0.342 -0.5802 -0.2562  0.0070
  267MPD2    C4 4039   0.382   2.155   0.378  0.2262  0.3561 -0.1631
  267MPD2    C5 4040   0.516   2.130   0.405 -0.5059 -0.7511 -0.1030
  267MPD2     H 4041   0.402   2.480   0.300  2.0940  1.1405  0.8957
  267MPD2    H1 4042   0.321   2.066   0.393 -1.1294  1.3791  0.4187
  267MPD2    H2 4043   0.711   2.215   0.423  0.0682 -0.0472 -0.4644
  267MPD2    H3 4044   0.536   2.032   0.447 -2.4917 -0.5703  1.2625
  267MPD2     N 4045   0.196   2.308   0.321 -0.0254 -0.5415 -0.0328
  267MPD2    H5 4046   0.181   2.408   0.316 -1.6389 -0.7901 -0.2256
  267MPD2    N1 4047   0.669   2.454   0.326  0.3250 -0.8573  0.2209
  267MPD2    H7 4048   0.763   2.435   0.359  0.1110 -0.7055  0.9220
  268TMC3    C1 4049   0.749   2.673   0.272  0.3497  0.2426 -0.1978
  268TMC3    C2 4050   0.740   2.777   0.185 -0.1285  0.0866  0.3382
  268TMC3    C3 4051   0.802   2.891   0.226 -0.2243 -0.7778 -0.1881
  268TMC3    C4 4052   0.827   2.671   0.384 -0.1998  0.0526 -0.1385
  268TMC3    C5 4053   0.867   2.793   0.426 -0.0014  0.5148 -0.2580
  268TMC3    C6 4054   0.861   2.903   0.349 -0.0280 -0.2162 -0.3647
  268TMC3     C 4055   0.642   2.570   0.260  0.3546 -0.5650 -0.1549
  268TMC3     O 4056   0.545   2.618   0.204  0.2369 -0.8787  0.1019
  268TMC3     H 4057   0.687   2.761   0.091 -0.1902 -2.8113  0.8621
  268TMC3    H1 4058   0.846   2.586   0.448 -1.6462  0.7868  1.2958
  268TMC3    H2 4059   0.904   2.997   0.383  0.0508  0.2231 -1.6752
  268TMC3    C7 4060   0.968   2.796   0.521  0.4121  0.2967  0.1807
  268TMC3    C8 4061   0.797   3.016   0.143 -0.6924 -0.1213  0.0261
  268TMC3    O1 4062   1.037   2.696   0.545  0.1134 -0.2356 -0.5353
  268TMC3    O2 4063   0.858   3.113   0.187 -0.3182  0.7452  0.4084
  269MPD2     C 4064   0.753   1.556  15.491 -0.4119 -0.7683  0.1999
  269MPD2    C1 4065   0.621   1.571  15.521  0.4107  0.0100  0.1536
  269MPD2    C2 4066   0.571   1.696  15.558  0.0346  0.7288 -0.4780
  269MPD2    C3 4067   0.648   1.806  15.559  0.2115  0.3572  0.3203
  269MPD2    C4 4068   0.786   1.787  15.547  0.1238 -0.8779 -0.7566
  269MPD2    C5 4069   0.834   1.663  15.511  0.0957 -0.8763 -0.1112
  269MPD2     H 4070   0.465   1.712  15.570  0.2958  1.9359  0.2455
  269MPD2    H1 4071   0.864   1.863  15.546 -0.7236 -0.0021 -0.9924
  269MPD2    H2 4072   0.791   1.461  15.454  2.3691  0.3777  0.0875
  269MPD2    H3 4073   0.937   1.649  15.479  0.4601  0.4492  0.5097
  269MPD2     N 4074   0.589   1.933  15.566 -0.1184 -0.1894 -0.3125
  269MPD2    H5 4075   0.488   1.941  15.568 -0.1633 -0.6275 -0.8705
  269MPD2    N1 4076   0.551   1.449  15.532 -0.6451 -0.4731 -0.1371
  269MPD2    H7 4077   0.610   1.371  15.507 -2.4755 -2.6530  2.2473
  270TMC3    C1 4078   0.381   1.295  15.576  0.0014  0.1188  0.6280
  270TMC3    C2 4079   0.251   1.275  15.592  0.0881  0.0092 -0.3423
  270TMC3    C3 4080   0.203   1.150  15.617 -0.1147 -0.0641  0.8157
  270TMC3    C4 4081   0.479   1.198  15.582 -0.3760 -0.1339 -0.1322
  270TMC3    C5 4082   0.432   1.076  15.623  0.2088 -0.1095  0.4270
  270TMC3    C6 4083   0.297   1.048  15.640  0.2797  0.0927 -0.0903
  270TMC3     C 4084   0.416   1.427  15.561  0.7369 -0.3338  1.1589
  270TMC3     O 4085   0.331   1.514  15.576  0.3285  0.7205 -0.3422
  270TMC3     H 4086   0.177   1.345  15.554  0.4093  1.3786  1.5207
  270TMC3    H1 4087   0.585   1.210  15.563 -0.6255  0.2622 -1.3022
  270TMC3    H2 4088   0.260   0.957  15.685  0.0100  0.7845  1.0895
  270TMC3    C7 4089   0.518   0.967  15.582  0.2310  0.6273  0.1294
  270TMC3    C8 4090   0.117   1.109  15.504  0.4843  0.3008 -0.4232
  270TMC3    O1 4091   0.637   0.982  15.594 -0.3224 -0.3493 -0.2897
  270TMC3    O2 4092   0.115   1.174  15.399  0.2441  0.3206 -0.0806
  271MPD2     C 4093   4.350   1.120  13.944  0.0242  0.2295  0.2052
  271MPD2    C1 4094   4.303   1.101  14.076 -0.2371  0.6818  0.0917
  271MPD2    C2 4095   4.173   1.136  14.101 -0.0542  0.8595  0.2438
  271MPD2    C3 4096   4.101   1.203  14.003 -0.3125  0.6128  0.0610
  271MPD2    C4 4097   4.151   1.229  13.879 -0.6313  0.1050  0.1069
  271MPD2    C5 4098   4.274   1.186  13.851  0.2993  0.0252 -0.2332
  271MPD2     H 4099   4.133   1.113  14.199  0.0058  0.2741  0.1316
  271MPD2    H1 4100   4.085   1.275  13.806  1.5179  3.4734  0.2786
  271MPD2    H2 4101   4.451   1.107  13.908  0.2416 -0.7588  1.1629
  271MPD2    H3 4102   4.310   1.202  13.750  1.8701 -0.2641  0.2759
  271MPD2     N 4103   3.970   1.248  14.024  1.0072 -0.0815  0.0409
  271MPD2    H5 4104   3.926   1.287  13.941 -0.7070  1.5167  1.6888
  271MPD2    N1 4105   4.390   1.045  14.175 -0.1968 -0.3875 -0.3530
  271MPD2    H7 4106   4.344   1.010  14.259  0.1111  1.1584  0.4755
  272TMC3    C1 4107   4.590   0.954  14.266 -0.1514  0.1704 -0.0790
  272TMC3    C2 4108   4.712   0.884  14.248  0.1829  0.5472  0.3103
  272TMC3    C3 4109   0.054   0.832  14.357  0.6556  0.0261  0.4445
  272TMC3    C4 4110   4.534   0.970  14.392  0.2614  0.2124  0.6356
  272TMC3    C5 4111   4.605   0.904  14.493 -0.1745 -0.2813 -0.7969
  272TMC3    C6 4112   0.001   0.843  14.485 -0.5887 -0.6615  0.3883
  272TMC3     C 4113   4.522   1.009  14.149 -0.3049  0.4228  0.0983
  272TMC3     O 4114   4.603   1.037  14.061 -0.0430 -0.1539  0.5529
  272TMC3     H 4115   0.027   0.873  14.148 -2.4864  2.8637 -1.0228
  272TMC3    H1 4116   4.452   1.036  14.418 -0.0723  0.1596 -0.2928
  272TMC3    H2 4117   0.049   0.798  14.571 -2.7149  1.5203  2.7151
  272TMC3    C7 4118   4.547   0.914  14.620  0.5428 -0.1614 -0.3066
  272TMC3    C8 4119   0.197   0.801  14.343  0.4476  0.3928  0.1103
  272TMC3    O1 4120   4.429   0.881  14.643  0.5832 -0.1618 -0.1070
  272TMC3    O2 4121   0.253   0.838  14.242 -0.1838  0.5509  0.3175
  273MPD2     C 4122   0.899   4.176  11.518 -0.4069  0.2392 -0.1188
  273MPD2    C1 4123   1.010   4.161  11.447  0.6643  0.5896  0.0001
  273MPD2    C2 4124   0.993   4.160  11.306 -0.8780  0.2779  0.3786
  273MPD2    C3 4125   0.865   4.168  11.249 -0.3504  0.1317  0.4328
  273MPD2    C4 4126   0.752   4.174  11.327 -0.0023  0.8938  0.0285
  273MPD2    C5 4127   0.776   4.191  11.464 -0.4404  0.3856  0.0643
  273MPD2     H 4128   1.080   4.173  11.243 -2.6108 -0.6060 -2.2370
  273MPD2    H1 4129   0.649   4.189  11.297 -0.1317  0.6915  0.3772
  273MPD2    H2 4130   0.901   4.184  11.626 -1.2152 -0.0728 -0.0833
  273MPD2    H3 4131   0.687   4.207  11.524  1.4196  0.9105  2.6351
  273MPD2     N 4132   0.840   4.168  11.108 -0.0795  0.3751  0.5158
  273MPD2    H5 4133   0.746   4.189  11.076 -0.1433  0.6637  0.8856
  273MPD2    N1 4134   1.139   4.178  11.512 -0.2187  0.4732  0.2147
  273MPD2    H7 4135   1.141   4.193  11.612 -0.7867 -1.4439  0.5181
  274TMC3    C1 4136   0.919   4.269  10.921 -0.4910 -0.7353 -0.5047
  274TMC3    C2 4137   0.803   4.293  10.855 -0.4263  1.0255  0.7669
  274TMC3    C3 4138   0.773   4.423  10.822  1.0753 -0.5214  0.3995
  274TMC3    C4 4139   0.996   4.372  10.960  0.9950  0.5536  0.5492
  274TMC3    C5 4140   0.962   4.499  10.934  0.6640 -0.3631 -0.0767
  274TMC3    C6 4141   0.858   4.524  10.847  0.2813  0.0609  0.2055
  274TMC3     C 4142   0.933   4.161  11.013  0.0797 -0.6909 -0.0444
  274TMC3     O 4143   1.047   4.112  11.018  0.0485  0.5705 -0.5662
  274TMC3     H 4144   0.731   4.219  10.822  2.2810 -1.4262  0.3968
  274TMC3    H1 4145   1.081   4.349  11.023  0.4645 -0.4098  0.9098
  274TMC3    H2 4146   0.815   4.622  10.831 -0.6580 -0.0948  1.8072
  274TMC3    C7 4147   0.954   4.578  11.062 -0.1674  0.8951 -0.2751
  274TMC3    C8 4148   0.655   4.452  10.738 -0.4498 -0.9030  1.1207
  274TMC3    O1 4149   0.862   4.657  11.062 -0.0874 -0.2696  0.2357
  274TMC3    O2 4150   0.665   4.548  10.659 -0.2829  0.5997  0.4445
  275MPD2     C 4151   1.373   1.965  14.131  0.4623  0.0412 -0.0481
  275MPD2    C1 4152   1.289   2.024  14.220  0.8741 -0.0464 -0.1013
  275MPD2    C2 4153   1.158   1.975  14.226 -0.7267  0.5257 -0.0503
  275MPD2    C3 4154   1.114   1.877  14.137  0.7620  0.2201 -0.5087
  275MPD2    C4 4155   1.204   1.812  14.053 -0.9265  0.5147  0.7410
  275MPD2    C5 4156   1.336   1.861  14.050  0.6927 -0.1312 -0.3952
  275MPD2     H 4157   1.087   2.028  14.288 -2.6557 -1.8326 -0.2844
  275MPD2    H1 4158   1.179   1.722  13.999 -0.0863  2.4142 -2.8432
  275MPD2    H2 4159   1.474   2.005  14.119 -0.0794  1.2532 -0.5894
  275MPD2    H3 4160   1.408   1.812  13.987  1.4791  0.9624 -0.3464
  275MPD2     N 4161   0.977   1.837  14.145 -0.0198  0.2990  0.0046
  275MPD2    H5 4162   0.945   1.753  14.097  0.5687 -0.8309  1.5892
  275MPD2    N1 4163   1.314   2.125  14.311 -0.1708  0.5357  0.3306
  275MPD2    H7 4164   1.231   2.164  14.356 -1.7635 -0.8095 -1.4343
  276TMC3    C1 4165   1.417   2.207  14.502 -0.3515  0.0564  0.0669
  276TMC3    C2 4166   1.303   2.187  14.575  0.3907 -0.1717 -0.4807
  276TMC3    C3 4167   1.304   2.222  14.704  0.3295  0.2906  0.0640
  276TMC3    C4 4168   1.527   2.271  14.561  0.6898 -0.3170  0.1596
  276TMC3    C5 4169   1.513   2.325  14.686  0.0773  0.6569  0.0285
  276TMC3    C6 4170   1.397   2.302  14.760 -0.4386 -0.2908 -0.1149
  276TMC3     C 4171   1.435   2.152  14.363 -0.2449  0.3278  0.8622
  276TMC3     O 4172   1.544   2.120  14.320 -0.6283  0.1941  0.2591
  276TMC3     H 4173   1.221   2.134  14.529  0.7344 -0.1802 -1.0760
  276TMC3    H1 4174   1.614   2.283  14.498  1.2539 -1.1869  0.7812
  276TMC3    H2 4175   1.381   2.338  14.861 -0.9053 -1.7655  0.3392
  276TMC3    C7 4176   1.624   2.366  14.761 -0.2149 -0.2891  0.0579
  276TMC3    C8 4177   1.206   2.161  14.785  0.9240  0.2952  0.8701
  276TMC3    O1 4178   1.599   2.392  14.880 -0.7259 -0.5776  0.0983
  276TMC3    O2 4179   1.137   2.232  14.856 -0.2260  0.4088 -0.7651
  277MPD2     C 4180   3.400   0.779  13.658  0.5081  0.1341  0.5683
  277MPD2    C1 4181   3.292   0.689  13.647 -0.0444 -0.0924 -0.4170
  277MPD2    C2 4182   3.229   0.655  13.759 -0.3909 -0.1531  0.4273
  277MPD2    C3 4183   3.235   0.725  13.874  0.1116  0.5102  0.0612
  277MPD2    C4 4184   3.332   0.821  13.882 -0.3967  0.0825  0.4640
  277MPD2    C5 4185   3.419   0.850  13.777 -0.4796 -1.3308  0.6130
  277MPD2     H 4186   3.148   0.583  13.758 -0.0908 -0.4679 -1.0303
  277MPD2    H1 4187   3.350   0.885  13.968  1.1653  2.0368 -1.3291
  277MPD2    H2 4188   3.453   0.820  13.573  1.1529 -0.3240  0.7507
  277MPD2    H3 4189   3.503   0.918  13.782 -1.1290 -0.3405 -2.1126
  277MPD2     N 4190   3.145   0.691  13.974 -0.3645  0.2905  0.3268
  277MPD2    H5 4191   3.083   0.613  13.956 -0.9365  0.4020  1.7781
  277MPD2    N1 4192   3.250   0.651  13.517  0.0688  0.1547  0.5576
  277MPD2    H7 4193   3.304   0.690  13.440 -0.1503 -0.0467  0.3029
  278TMC3    C1 4194   3.018   0.710  14.172  0.0290 -0.2512 -0.2527
  278TMC3    C2 4195   2.980   0.580  14.156 -0.4331  0.7612  0.1833
  278TMC3    C3 4196   2.847   0.543  14.164  0.3011 -0.6851  0.0069
  278TMC3    C4 4197   2.917   0.806  14.178  0.1839  0.0641 -0.3243
  278TMC3    C5 4198   2.784   0.769  14.182  0.3951 -0.4886 -0.2102
  278TMC3    C6 4199   2.746   0.637  14.172 -0.1075 -0.5391  0.3553
  278TMC3     C 4200   3.138   0.758  14.094 -0.0184 -0.8049  0.1332
  278TMC3     O 4201   3.185   0.865  14.124  0.3351  0.0014 -0.0254
  278TMC3     H 4202   3.054   0.501  14.153 -2.3755 -1.0215 -0.2967
  278TMC3    H1 4203   2.943   0.911  14.179 -0.0194  0.0718  2.1603
  278TMC3    H2 4204   2.643   0.608  14.188 -0.5765  0.3083 -1.1876
  278TMC3    C7 4205   2.682   0.874  14.186 -0.5466  0.0611  0.9911
  278TMC3    C8 4206   2.819   0.402  14.132 -0.1663  0.3159  0.7039
  278TMC3    O1 4207   2.713   0.980  14.235 -0.0182  0.0500 -0.0884
  278TMC3    O2 4208   2.908   0.317  14.147 -0.1316 -1.0064 -0.6149
  279MPD2     C 4209   2.723   1.193   0.181 -0.6591 -0.0175  0.4277
  279MPD2    C1 4210   2.655   1.311   0.211 -0.5420 -0.2420 -0.6208
  279MPD2    C2 4211   2.670   1.419   0.124 -0.4886 -0.0822 -0.7462
  279MPD2    C3 4212   2.714   1.405  17.695 -0.2362 -0.4387 -0.2858
  279MPD2    C4 4213   2.772   1.286  17.667 -0.0975 -0.3241  0.2488
  279MPD2    C5 4214   2.787   1.181   0.055 -0.8600 -0.4612 -0.1260
  279MPD2     H 4215   2.630   1.517   0.147  0.2424  0.2145 -0.7443
  279MPD2    H1 4216   2.820   1.273  17.570  0.6314  1.1172  0.4124
  279MPD2    H2 4217   2.708   1.112   0.250 -1.9231 -0.8889 -0.8595
  279MPD2    H3 4218   2.838   1.088   0.034  0.7200  0.0908  1.2653
  279MPD2     N 4219   2.707   1.521  17.611 -0.2304  0.1885  0.3264
  279MPD2    H5 4220   2.666   1.602  17.656 -2.0894 -0.6203  0.0847
  279MPD2    N1 4221   2.575   1.326   0.326  0.3709  0.0084  0.6174
  279MPD2    H7 4222   2.531   1.242   0.364  0.3279  0.9698  2.6513
  280TMC3    C1 4223   2.409   1.441   0.460 -0.3296  0.3368 -0.5037
  280TMC3    C2 4224   2.320   1.336   0.455 -0.4161 -0.7719 -0.1007
  280TMC3    C3 4225   2.185   1.352   0.488 -0.1301 -0.4975 -0.3736
  280TMC3    C4 4226   2.366   1.558   0.518  0.4365  0.1893  0.1110
  280TMC3    C5 4227   2.231   1.570   0.548  0.5398 -0.4412  0.3489
  280TMC3    C6 4228   2.139   1.469   0.536  0.6288 -0.1785 -0.8889
  280TMC3     C 4229   2.528   1.446   0.376  0.5598  0.0329  0.0387
  280TMC3     O 4230   2.575   1.558   0.366 -0.0405 -0.1914 -0.6374
  280TMC3     H 4231   2.362   1.253   0.400 -0.2654 -0.9204  0.2356
  280TMC3    H1 4232   2.431   1.644   0.510  1.3740 -0.5598 -0.3818
  280TMC3    H2 4233   2.033   1.473   0.562  0.5004 -1.0914 -1.2801
  280TMC3    C7 4234   2.179   1.705   0.572 -0.2343 -0.0032  0.2986
  280TMC3    C8 4235   2.091   1.246   0.467 -0.3764  0.0984 -0.6203
  280TMC3    O1 4236   2.259   1.779   0.631 -0.7194  0.4810 -0.4250
  280TMC3    O2 4237   1.971   1.270   0.466  0.1895 -0.2830  0.1544
  281TMC3    C1 4238   0.415   1.296  13.185 -0.1380 -0.0303  0.2435
  281TMC3    C2 4239   0.523   1.381  13.189  0.6588  0.0578  0.4922
  281TMC3    C3 4240   0.606   1.371  13.078 -0.4712 -0.3746  0.1596
  281TMC3    C4 4241   0.397   1.200  13.089 -0.5512 -0.9415 -0.4308
  281TMC3    C5 4242   0.495   1.182  12.994 -0.1221 -0.0063 -0.2078
  281TMC3    C6 4243   0.595   1.274  12.985  0.1437  0.3845 -0.1131
  281TMC3     C 4244   0.288   1.347  13.224 -0.1910 -0.1474 -0.0892
  281TMC3     O 4245   0.191   1.272  13.201  0.4090  0.0405 -0.7977
  281TMC3     H 4246   0.541   1.456  13.265  0.0179 -0.5649  1.2523
  281TMC3    H1 4247   0.312   1.133  13.086 -1.5516  0.4082 -1.8779
  281TMC3    H2 4248   0.669   1.258  12.909  0.4292 -1.7324  0.6131
  281TMC3    C7 4249   0.541   1.050  12.955 -0.2089 -0.4295 -0.2151
  281TMC3    C8 4250   0.740   1.428  13.081  0.9200  0.2918 -0.3437
  281TMC3    O1 4251   0.620   1.037  12.867 -0.0451 -0.0298  0.2640
  281TMC3    O2 4252   0.826   1.343  13.060  0.9303  0.2422  1.0419
  282MPD2     C 4253   2.759   2.524  14.946  0.4560  0.2390 -0.8613
  282MPD2    C1 4254   2.653   2.589  14.998 -0.4160  0.5235 -0.5561
  282MPD2    C2 4255   2.559   2.627  14.910  0.3143 -0.3880  0.1647
  282MPD2    C3 4256   2.561   2.609  14.777 -0.3064  0.4926  0.1621
  282MPD2    C4 4257   2.670   2.547  14.726 -0.0492 -0.0359  0.0028
  282MPD2    C5 4258   2.769   2.503  14.809  0.1622 -0.2884  0.3592
  282MPD2     H 4259   2.473   2.683  14.943  0.8445 -0.1637  1.1507
  282MPD2    H1 4260   2.698   2.540  14.621 -2.0930  3.3867 -0.7680
  282MPD2    H2 4261   2.835   2.473  15.004 -1.6013  1.3497  2.7750
  282MPD2    H3 4262   2.857   2.460  14.764  0.7303  1.7095 -0.4466
  282MPD2     N 4263   2.464   2.674  14.695  0.6187  0.3257  0.3873
  282MPD2    H5 4264   2.394   2.733  14.738 -0.6583 -1.4483  0.7352
  282MPD2    N1 4265   2.638   2.601  15.136  0.0913  0.1819  0.2907
  282MPD2    H7 4266   2.710   2.558  15.193  1.3926  0.4680 -1.1200
  283TMC3    C1 4267   2.604   2.701  15.343  0.4670  0.2318 -0.0424
  283TMC3    C2 4268   2.656   2.813  15.402  0.7478 -0.2629 -0.6288
  283TMC3    C3 4269   2.671   2.802  15.538 -0.9506  0.6392 -0.1203
  283TMC3    C4 4270   2.555   2.591  15.410  0.4748 -0.3272 -0.1344
  283TMC3    C5 4271   2.573   2.593  15.543 -0.1769  0.4313 -0.1685
  283TMC3    C6 4272   2.626   2.693  15.610 -0.5645 -0.0156  0.4407
  283TMC3     C 4273   2.561   2.699  15.197  0.0252  0.3993  0.0869
  283TMC3     O 4274   2.497   2.797  15.160  0.6208  0.3740  0.0976
  283TMC3     H 4275   2.671   2.908  15.352 -0.3180  0.7479  0.9865
  283TMC3    H1 4276   2.504   2.505  15.367 -0.8320  0.7759 -0.7809
  283TMC3    H2 4277   2.613   2.697  15.717  1.3612  0.3389  0.6688
  283TMC3    C7 4278   2.489   2.503  15.630 -0.1981  0.6217  0.1772
  283TMC3    C8 4279   2.715   2.919  15.618 -0.4097  0.7416 -0.0209
  283TMC3    O1 4280   2.477   2.532  15.748 -0.1080  0.0490  0.4047
  283TMC3    O2 4281   2.706   2.901  15.737  0.2277  0.0400 -0.2820
  284MPD2     C 4282   0.695   1.571  12.089 -0.7005  0.2073  0.1526
  284MPD2    C1 4283   0.661   1.671  11.997 -0.3713  0.0473 -0.6468
  284MPD2    C2 4284   0.555   1.657  11.912  0.3263 -0.1418 -0.5737
  284MPD2    C3 4285   0.475   1.544  11.931 -0.0288 -0.3929 -1.3642
  284MPD2    C4 4286   0.500   1.445  12.027  0.2753 -0.1300 -0.5922
  284MPD2    C5 4287   0.609   1.464  12.102 -0.1053  0.9304  0.2635
  284MPD2     H 4288   0.537   1.735  11.839  0.6619 -1.0661 -1.6249
  284MPD2    H1 4289   0.445   1.351  12.030 -0.1272  0.1670  1.1901
  284MPD2    H2 4290   0.778   1.567  12.158 -1.5909  0.8805  1.2622
  284MPD2    H3 4291   0.635   1.384  12.170 -1.2729 -0.3473 -0.7919
  284MPD2     N 4292   0.357   1.517  11.862  0.6975 -0.1303 -0.0919
  284MPD2    H5 4293   0.301   1.442  11.901  1.4940 -0.2286  0.8643
  284MPD2    N1 4294   0.746   1.787  11.970  0.7514 -0.0604  0.3888
  284MPD2    H7 4295   0.710   1.868  11.920 -1.0648  0.4878  2.5270
  285TMC3    C1 4296   0.940   1.911  11.949  0.0738 -0.2332 -0.3670
  285TMC3    C2 4297   1.077   1.909  11.941  0.4232 -0.2357 -0.0357
  285TMC3    C3 4298   1.147   2.027  11.925  0.1523  0.3384 -0.2557
  285TMC3    C4 4299   0.873   2.027  11.969 -0.0665 -0.1421 -0.4989
  285TMC3    C5 4300   0.953   2.141  11.973 -1.0470  0.5103  0.3225
  285TMC3    C6 4301   1.084   2.144  11.943 -1.1033 -0.0311 -0.5194
  285TMC3     C 4302   0.880   1.787  11.986 -0.6690  0.6903 -0.0475
  285TMC3     O 4303   0.954   1.694  12.022  0.6786 -0.4533 -0.2126
  285TMC3     H 4304   1.126   1.815  11.919  0.7182 -0.4815  1.6482
  285TMC3    H1 4305   0.768   2.038  11.991 -0.6097 -2.0257 -2.1452
  285TMC3    H2 4306   1.132   2.240  11.927  0.7636 -0.4409  2.6251
  285TMC3    C7 4307   0.893   2.273  11.990  0.2349  0.0381  0.2566
  285TMC3    C8 4308   1.240   2.018  11.813  1.1101  0.7724 -0.1937
  285TMC3    O1 4309   0.793   2.305  11.930 -0.2245  0.7088  0.2676
  285TMC3    O2 4310   1.238   1.914  11.749 -0.2790  0.2074 -0.7376
  286MPD2     C 4311   1.395   0.852   1.718  0.2838 -0.5433  0.1573
  286MPD2    C1 4312   1.387   0.873   1.584  0.4811  0.0900 -0.8891
  286MPD2    C2 4313   1.478   0.803   1.502 -0.3897 -0.6483 -0.1854
  286MPD2    C3 4314   1.572   0.711   1.554  0.0241  0.1650  0.4696
  286MPD2    C4 4315   1.569   0.684   1.689  0.4676  0.3871 -0.3953
  286MPD2    C5 4316   1.484   0.759   1.765 -0.2457 -0.0863  0.8237
  286MPD2     H 4317   1.481   0.815   1.395 -0.8369  3.1833  0.2527
  286MPD2    H1 4318   1.638   0.613   1.733  2.2841  0.9587 -2.3201
  286MPD2    H2 4319   1.330   0.892   1.795 -0.0786 -0.3594 -0.2404
  286MPD2    H3 4320   1.483   0.753   1.873  0.2768  0.5806  0.8629
  286MPD2     N 4321   1.662   0.639   1.471 -0.3457  0.1219  0.4443
  286MPD2    H5 4322   1.725   0.579   1.523 -1.5940 -3.3742 -2.1294
  286MPD2    N1 4323   1.303   0.977   1.532 -0.1869 -0.3369 -0.4673
  286MPD2    H7 4324   1.315   0.993   1.433 -0.9384  3.3787  0.0459
  287TMC3    C1 4325   1.798   0.591   1.276  0.1691  0.2263 -0.3081
  287TMC3    C2 4326   1.793   0.529   1.152  0.3546 -1.0617 -0.6240
  287TMC3    C3 4327   1.909   0.476   1.108  0.0085 -0.6540 -0.6945
  287TMC3    C4 4328   1.914   0.591   1.348  0.5760 -0.3200 -0.0445
  287TMC3    C5 4329   2.032   0.553   1.288  0.1387  0.6540  0.1493
  287TMC3    C6 4330   2.034   0.491   1.167  0.3440 -0.3820  0.4362
  287TMC3     C 4331   1.677   0.647   1.333 -0.3267 -0.0918  0.1095
  287TMC3     O 4332   1.614   0.714   1.255  0.4193  0.9446 -0.1621
  287TMC3     H 4333   1.707   0.519   1.087  0.0828 -1.5433 -0.1872
  287TMC3    H1 4334   1.905   0.636   1.446  0.1436  1.5963 -0.9687
  287TMC3    H2 4335   2.122   0.457   1.115  0.9318  1.0072  0.5084
  287TMC3    C7 4336   2.157   0.593   1.349  0.5371 -0.3390  0.0899
  287TMC3    C8 4337   1.899   0.412   0.977 -0.2815 -0.6103 -0.3004
  287TMC3    O1 4338   2.160   0.688   1.428 -0.1102  0.2718  0.6236
  287TMC3    O2 4339   1.806   0.337   0.953 -0.1208 -0.0890  0.7386
  288TMC3    C1 4340   2.915   0.645  14.668  0.6259  0.1672 -0.2902
  288TMC3    C2 4341   2.880   0.623  14.803 -0.4752  0.1464  0.2527
  288TMC3    C3 4342   2.857   0.735  14.881  0.5843 -0.3264 -0.2183
  288TMC3    C4 4343   2.936   0.770  14.616 -0.1274  0.7324  0.1704
  288TMC3    C5 4344   2.919   0.880  14.699  0.0626 -0.2392  1.0293
  288TMC3    C6 4345   2.881   0.860  14.829 -0.3406  0.1987 -0.0948
  288TMC3     C 4346   2.939   0.524  14.590 -0.1897 -0.4306  0.1476
  288TMC3     O 4347   2.873   0.420  14.621 -0.4393 -0.6707 -0.1211
  288TMC3     H 4348   2.887   0.524  14.848  0.8767 -0.0244 -0.3216
  288TMC3    H1 4349   2.947   0.783  14.509  2.1137  0.0211  0.3143
  288TMC3    H2 4350   2.863   0.947  14.891 -0.0995 -1.4594  2.2959
  288TMC3    C7 4351   2.955   1.012  14.660 -0.4647  0.1057 -1.2463
  288TMC3    C8 4352   2.836   0.730  15.020 -0.1328  1.0422 -0.1494
  288TMC3    O1 4353   2.901   1.104  14.718  1.2692 -0.4718 -0.2456
  288TMC3    O2 4354   2.853   0.828  15.089  0.3483  0.1348  0.0575
  289MPD2     C 4355   2.812   4.490  15.142  0.1824 -0.3234 -0.4238
  289MPD2    C1 4356   2.883   4.577  15.070  0.1987  0.0013  0.1133
  289MPD2    C2 4357   2.844   4.607  14.938 -0.5003 -0.1766  0.2372
  289MPD2    C3 4358   2.727   4.552  14.889 -0.0750 -0.1941  0.1140
  289MPD2    C4 4359   2.662   4.457  14.967 -0.4135 -0.3933 -0.3932
  289MPD2    C5 4360   2.704   4.427  15.092  0.2794  0.6432  0.2994
  289MPD2     H 4361   2.896   4.681  14.878 -0.1758  1.5056  2.5516
  289MPD2    H1 4362   2.576   4.396  14.944  0.9927 -2.6183  0.1961
  289MPD2    H2 4363   2.845   4.468  15.243 -2.7945 -0.0218  0.6372
  289MPD2    H3 4364   2.641   4.355  15.143  2.0032 -1.1776 -0.1635
  289MPD2     N 4365   2.689   4.555  14.751  0.0134  0.8798  0.3871
  289MPD2    H5 4366   2.623   4.487  14.713  0.6970 -0.3165  1.3122
  289MPD2    N1 4367   3.003   4.621  15.129  0.6750  0.2170  0.4817
  289MPD2    H7 4368   3.027   4.596  15.224 -1.1788  0.2893  0.9716
  290TMC3    C1 4369   2.652   4.627  14.518 -0.5748 -0.0768  0.5317
  290TMC3    C2 4370   2.645   0.013  14.446 -0.2291 -0.6625 -0.1913
  290TMC3    C3 4371   2.552   0.016  14.348 -0.2708 -1.0518  0.1818
  290TMC3    C4 4372   2.585   4.514  14.494 -0.0104  0.5196 -0.3555
  290TMC3    C5 4373   2.502   4.518  14.390 -0.2079 -0.3837  0.6538
  290TMC3    C6 4374   2.465   4.633  14.330 -0.0612  0.2333  0.2847
  290TMC3     C 4375   2.709   4.650  14.652 -0.1244 -0.4198  0.0685
  290TMC3     O 4376   2.763   0.032  14.673 -0.9617 -0.0954  0.2441
  290TMC3     H 4377   2.712   0.096  14.463 -0.6204 -0.4264  0.2097
  290TMC3    H1 4378   2.598   4.423  14.552 -1.1230  1.0939  0.7817
  290TMC3    H2 4379   2.382   4.628  14.261  0.8149 -1.0592 -0.6780
  290TMC3    C7 4380   2.394   4.424  14.399 -0.0254 -0.2380 -0.2365
  290TMC3    C8 4381   2.514   0.139  14.278  0.2634 -0.5739  0.6281
  290TMC3    O1 4382   2.283   4.466  14.421  0.3382  0.9705  0.1235
  290TMC3    O2 4383   2.439   0.124  14.183 -0.6126 -0.2022 -0.0233
  291MPD2     C 4384   2.742   0.069   0.263 -0.4492  0.8321 -0.1816
  291MPD2    C1 4385   2.720   0.003   0.385  0.0355  0.4983  0.0006
  291MPD2    C2 4386   2.803   0.043   0.492  0.2608  0.5340  0.5251
  291MPD2    C3 4387   2.911   0.129   0.475 -0.0815 -0.0506 -0.2797
  291MPD2    C4 4388   2.919   0.194   0.347  0.1232 -0.0003 -1.0223
  291MPD2    C5 4389   2.836   0.161   0.244 -0.2214  0.6967 -0.0313
  291MPD2     H 4390   2.787   4.717   0.586 -2.5253 -0.1774 -0.3370
  291MPD2    H1 4391   2.999   0.262   0.319  0.1239 -0.0847 -1.2242
  291MPD2    H2 4392   2.695   0.031   0.174 -2.3092  0.5284  0.9297
  291MPD2    H3 4393   2.866   0.208   0.151  0.5767 -0.1622 -0.2102
  291MPD2     N 4394   3.005   0.154   0.567 -0.8431  1.0796 -0.0525
  291MPD2    H5 4395   3.083   0.213   0.538  1.4687 -1.1710  1.5007
  291MPD2    N1 4396   2.610   4.635   0.404 -0.0846  0.2804 -0.6188
  291MPD2    H7 4397   2.602   4.592   0.496 -4.1070 -1.2785 -1.6778
  292TMC3    C1 4398   2.444   4.485   0.376 -0.1341  0.0640  0.6335
  292TMC3    C2 4399   2.379   4.524   0.488 -0.0812 -0.0407  0.5196
  292TMC3    C3 4400   2.306   4.434   0.560  0.0195 -0.3846 -1.0394
  292TMC3    C4 4401   2.418   4.367   0.322 -0.5973  0.5452 -0.1931
  292TMC3    C5 4402   2.341   4.279   0.395  0.2079 -0.2364  0.2131
  292TMC3    C6 4403   2.289   4.307   0.519 -0.3921  0.6585 -0.3877
  292TMC3     C 4404   2.532   4.579   0.309  0.4319  0.0736  0.1303
  292TMC3     O 4405   2.523   4.589   0.190 -0.6695  0.3564  0.2328
  292TMC3     H 4406   2.397   4.625   0.524 -1.4673  0.2876  0.2806
  292TMC3    H1 4407   2.464   4.346   0.226  0.0610  0.3680  0.1610
  292TMC3    H2 4408   2.236   4.230   0.573 -0.9312 -0.7916 -2.9553
  292TMC3    C7 4409   2.311   4.154   0.326 -0.3506  0.5961 -0.1344
  292TMC3    C8 4410   2.263   4.477   0.690 -0.4371 -0.0795 -0.1254
  292TMC3    O1 4411   2.377   4.126   0.228  0.0551 -0.1683  0.5739
  292TMC3    O2 4412   2.298   4.587   0.722  0.7307  0.6635 -0.1112
  293MPD2     C 4413   3.770   0.927  12.708  0.0771 -0.3709 -0.5823
  293MPD2    C1 4414   3.786   0.808  12.774 -0.3122 -0.2808  0.0939
  293MPD2    C2 4415   3.851   0.807  12.896  0.4159  0.1568  0.5140
  293MPD2    C3 4416   3.886   0.930  12.951 -0.9200  0.0648  0.6192
  293MPD2    C4 4417   3.870   1.046  12.884  0.4483  0.2555 -0.7245
  293MPD2    C5 4418   3.809   1.044  12.764 -0.0168 -0.2326 -0.3806
  293MPD2     H 4419   3.881   0.715  12.945 -4.7098 -1.5966  0.3619
  293MPD2    H1 4420   3.905   1.139  12.929  0.3622 -0.1237  0.1392
  293MPD2    H2 4421   3.727   0.924  12.608 -1.5762 -1.9941  0.1872
  293MPD2    H3 4422   3.799   1.134  12.704 -2.0177 -2.9846 -4.1754
  293MPD2     N 4423   3.941   0.959  13.078  0.4673  0.1174 -0.6172
  293MPD2    H5 4424   3.956   1.056  13.105  1.3805  0.0692 -0.9725
  293MPD2    N1 4425   3.738   0.698  12.703  0.0859 -0.1676 -0.9593
  293MPD2    H7 4426   3.691   0.720  12.616 -1.3311  1.8698  0.3035
  294TMC3    C1 4427   3.668   0.488  12.645  0.2131  0.1773 -0.0919
  294TMC3    C2 4428   3.575   0.392  12.675  0.3814 -0.1187 -0.4747
  294TMC3    C3 4429   3.519   0.335  12.565 -0.0582  0.4538 -1.0241
  294TMC3    C4 4430   3.728   0.505  12.521  0.2412 -0.2392 -0.0279
  294TMC3    C5 4431   3.672   0.435  12.418 -0.3353 -0.2705 -0.2006
  294TMC3    C6 4432   3.565   0.349  12.441 -0.0516 -0.4256  0.7682
  294TMC3     C 4433   3.717   0.575  12.756 -0.4469 -0.1986  0.0495
  294TMC3     O 4434   3.723   0.527  12.868  0.2464  0.0087 -0.1674
  294TMC3     H 4435   3.533   0.386  12.774  0.4740  0.0410 -0.4260
  294TMC3    H1 4436   3.800   0.583  12.500  1.7511 -1.2113  1.5489
  294TMC3    H2 4437   3.505   0.333  12.352  0.3181  1.3420  0.1926
  294TMC3    C7 4438   3.683   0.475  12.281 -0.0119 -0.6042  0.1842
  294TMC3    C8 4439   3.392   0.271  12.591  0.4007  0.1629  0.1349
  294TMC3    O1 4440   3.598   0.461  12.197  0.2893  0.4366 -0.0386
  294TMC3    O2 4441   3.332   0.291  12.694 -0.1071 -0.5358  0.2953
  295MPD2     C 4442   0.897   4.277  17.652  0.4133 -1.1860 -0.0356
  295MPD2    C1 4443   0.778   4.313   0.001 -0.2919  0.0834  0.2882
  295MPD2    C2 4444   0.772   4.320   0.139 -0.7104  0.0357 -0.3438
  295MPD2    C3 4445   0.872   4.280   0.227  0.5325 -0.4932 -0.0941
  295MPD2    C4 4446   0.994   4.264   0.165  0.0574 -0.3840  0.5899
  295MPD2    C5 4447   1.003   4.256   0.029  0.0425 -0.3659 -0.2720
  295MPD2     H 4448   0.681   4.358   0.184  0.2278  0.6911  0.9868
  295MPD2    H1 4449   1.083   4.238   0.220  0.5043 -0.4841 -0.1883
  295MPD2    H2 4450   0.913   4.263  17.545 -1.9504 -0.6724 -0.4627
  295MPD2    H3 4451   1.096   4.232  17.678 -0.4266 -3.6515  0.4386
  295MPD2     N 4452   0.860   4.282   0.365 -0.0950  0.3119  0.1153
  295MPD2    H5 4453   0.947   4.262   0.413  0.1947  0.8044 -0.2048
  295MPD2    N1 4454   0.667   4.356  17.622  0.5227 -0.3354 -0.4005
  295MPD2    H7 4455   0.587   4.384  17.678 -0.8198  0.7373 -2.8390
  296TMC3    C1 4456   0.769   4.298   0.582 -0.3898  0.3166 -0.0728
  296TMC3    C2 4457   0.697   4.384   0.659 -0.6449 -0.3156  0.4416
  296TMC3    C3 4458   0.723   4.389   0.791 -0.7659 -0.2101 -0.5958
  296TMC3    C4 4459   0.863   4.221   0.637  0.1744 -0.7151  0.4292
  296TMC3    C5 4460   0.876   4.213   0.773  0.7831  0.4202 -0.0525
  296TMC3    C6 4461   0.805   4.300   0.852 -0.1503 -0.0933  0.4726
  296TMC3     C 4462   0.746   4.304   0.438 -0.1998 -0.7168 -0.0500
  296TMC3     O 4463   0.630   4.333   0.406 -0.0145  0.2607 -0.9324
  296TMC3     H 4464   0.611   4.438   0.621  0.0645  0.4916 -0.0207
  296TMC3    H1 4465   0.944   4.173   0.584  0.2711 -1.1248  0.9432
  296TMC3    H2 4466   0.818   4.297   0.959 -1.6965 -0.1982  0.6586
  296TMC3    C7 4467   0.903   4.079   0.824 -0.0459 -0.5598 -0.0945
  296TMC3    C8 4468   0.653   4.498   0.866  0.1836  0.5448 -0.4021
  296TMC3    O1 4469   0.962   4.000   0.750  0.6421 -0.2139  0.4924
  296TMC3    O2 4470   0.568   4.562   0.805  0.1026  0.1344 -0.2140
  297MPD2     C 4471   2.100   1.583  16.605  0.3518 -0.2654 -0.4431
  297MPD2    C1 4472   2.025   1.628  16.494  0.0855 -1.2222  0.4874
  297MPD2    C2 4473   2.082   1.722  16.414 -0.0288 -0.4838 -0.2181
  297MPD2    C3 4474   2.207   1.774  16.441 -0.2130 -0.4287  0.0557
  297MPD2    C4 4475   2.278   1.726  16.554 -0.6850  0.6555  0.2511
  297MPD2    C5 4476   2.221   1.636  16.631 -0.6078 -0.5979  0.3579
  297MPD2     H 4477   2.020   1.751  16.330 -2.0234 -0.4837  1.2626
  297MPD2    H1 4478   2.374   1.766  16.586 -0.3849  0.0322  0.1257
  297MPD2    H2 4479   2.062   1.506  16.672 -1.1995  0.6800 -0.2220
  297MPD2    H3 4480   2.263   1.611  16.728  0.5730 -0.5932 -0.1462
  297MPD2     N 4481   2.264   1.872  16.350 -0.0350  0.0238  0.5429
  297MPD2    H5 4482   2.354   1.910  16.375 -0.0558  1.5841 -1.8167
  297MPD2    N1 4483   1.898   1.574  16.447  0.2301 -0.0959  0.3779
  297MPD2    H7 4484   1.873   1.603  16.353  0.5756 -4.1373 -0.9407
  298TMC3    C1 4485   1.703   1.444  16.440 -0.2024 -0.7690  0.0374
  298TMC3    C2 4486   1.716   1.420  16.305 -0.4999  0.3140 -0.5343
  298TMC3    C3 4487   1.603   1.401  16.230  0.1422  0.2758 -0.0647
  298TMC3    C4 4488   1.580   1.442  16.502 -0.2477  0.0350  0.1379
  298TMC3    C5 4489   1.469   1.438  16.422 -0.0769 -0.2620 -0.9190
  298TMC3    C6 4490   1.478   1.416  16.288 -0.6910 -0.6967  0.6639
  298TMC3     C 4491   1.810   1.502  16.520 -0.2552  0.4981  0.3402
  298TMC3     O 4492   1.802   1.474  16.635  0.0523  0.3992 -0.1377
  298TMC3     H 4493   1.815   1.413  16.261 -0.0233 -0.4560  0.6664
  298TMC3    H1 4494   1.566   1.481  16.602  4.1153  2.2938 -0.1239
  298TMC3    H2 4495   1.391   1.422  16.223  1.0453  2.4606 -1.3370
  298TMC3    C7 4496   1.366   1.525  16.472  0.0779  0.6552 -0.4592
  298TMC3    C8 4497   1.610   1.380  16.091 -0.0527 -0.1401 -0.4608
  298TMC3    O1 4498   1.347   1.537  16.591  0.2914  0.4358 -0.1488
  298TMC3    O2 4499   1.502   1.352  16.046 -0.4447 -0.3640  0.2041
  299MPD2     C 4500   2.176   1.008  10.555 -0.1063  0.3442  0.1967
  299MPD2    C1 4501   2.166   1.142  10.578 -0.3331 -0.2330 -0.2915
  299MPD2    C2 4502   2.074   1.215  10.507 -0.1270 -0.1854  0.2299
  299MPD2    C3 4503   1.995   1.152  10.412 -0.0729  0.5745 -0.1945
  299MPD2    C4 4504   1.998   1.018  10.386  0.1790 -0.6734 -0.7146
  299MPD2    C5 4505   2.088   0.950  10.465 -0.0772  0.4003 -0.3161
  299MPD2     H 4506   2.060   1.320  10.530 -0.3084 -0.3511  0.8659
  299MPD2    H1 4507   1.942   0.957  10.316 -1.0929 -2.8306  2.1629
  299MPD2    H2 4508   2.246   0.935  10.594 -1.9445 -1.9106 -0.7312
  299MPD2    H3 4509   2.092   0.843  10.449  0.7492  0.6531 -1.8508
  299MPD2     N 4510   1.903   1.224  10.337 -0.2591 -0.2653  0.1342
  299MPD2    H5 4511   1.827   1.172  10.295 -0.8138 -0.4943  1.4308
  299MPD2    N1 4512   2.246   1.197  10.685 -0.0722  0.1742  0.2131
  299MPD2    H7 4513   2.313   1.134  10.729 -2.0177 -0.4485  2.2395
  300TMC3    C1 4514   1.736   1.389  10.297  0.4724  0.3068  0.5953
  300TMC3    C2 4515   1.724   1.520  10.278  0.3796 -0.3838 -0.1690
  300TMC3    C3 4516   1.604   1.578  10.311 -0.0534 -0.6454 -0.5107
  300TMC3    C4 4517   1.639   1.316  10.367 -0.1944  0.0439 -0.5288
  300TMC3    C5 4518   1.532   1.375  10.409 -0.4348  0.6847 -0.2551
  300TMC3    C6 4519   1.508   1.505  10.380 -0.0180 -0.1986 -0.1235
  300TMC3     C 4520   1.872   1.358  10.337 -0.1944  0.1765 -0.5757
  300TMC3     O 4521   1.937   1.445  10.397  0.6056  0.0940  0.0360
  300TMC3     H 4522   1.797   1.584  10.231 -1.5294  0.9350 -1.3623
  300TMC3    H1 4523   1.669   1.216  10.395 -1.9280 -0.4215 -0.3810
  300TMC3    H2 4524   1.415   1.554  10.407  0.3433 -0.2859  1.2895
  300TMC3    C7 4525   1.452   1.302  10.501  0.0049 -0.7956 -0.3338
  300TMC3    C8 4526   1.602   1.719  10.319  0.3256  0.3119 -0.5657
  300TMC3    O1 4527   1.466   1.180  10.503 -0.2527  0.0170 -0.4466
  300TMC3    O2 4528   1.704   1.775  10.347 -0.3648  0.3666 -0.0127
  301MPD2     C 4529   0.652   3.150   0.513 -0.0327  0.0587 -0.0655
  301MPD2    C1 4530   0.573   3.069   0.424  0.4594  0.4535 -0.5446
  301MPD2    C2 4531   0.548   2.937   0.467 -0.2519 -0.7249  0.1638
  301MPD2    C3 4532   0.590   2.885   0.594  0.2952  0.3805  0.2284
  301MPD2    C4 4533   0.659   2.973   0.674  0.3100 -0.5137  0.6070
  301MPD2    C5 4534   0.699   3.099   0.632 -0.2398  0.3946  0.9916
  301MPD2     H 4535   0.492   2.872   0.402  0.7740  0.5359 -1.9792
  301MPD2    H1 4536   0.703   2.946   0.769 -0.5850  0.7306  1.3654
  301MPD2    H2 4537   0.660   3.258   0.510 -1.3031  0.1493 -0.2951
  301MPD2    H3 4538   0.745   3.154   0.713  0.8771 -0.9557  1.2588
  301MPD2     N 4539   0.567   2.748   0.643 -0.1139 -0.2712  0.1804
  301MPD2    H5 4540   0.627   2.714   0.718  1.3305 -0.6330 -1.1321
  301MPD2    N1 4541   0.518   3.112   0.305 -0.3369  0.8969  0.3261
  301MPD2    H7 4542   0.458   3.049   0.254  4.2398 -2.4288 -0.9579
  302TMC3    C1 4543   0.464   2.536   0.641  0.1871 -0.4497  0.3024
  302TMC3    C2 4544   0.565   2.461   0.687  0.0479 -0.5845 -0.1171
  302TMC3    C3 4545   0.527   2.341   0.741 -0.4608 -0.5220  0.6930
  302TMC3    C4 4546   0.336   2.491   0.644  0.4460  0.4076 -0.1688
  302TMC3    C5 4547   0.302   2.362   0.690  0.1910 -0.3217 -0.0628
  302TMC3    C6 4548   0.399   2.287   0.737  0.3662  0.0919 -0.5575
  302TMC3     C 4549   0.482   2.664   0.575 -0.5774  0.4549  0.3628
  302TMC3     O 4550   0.394   2.699   0.496  0.0441  0.0594 -0.4895
  302TMC3     H 4551   0.670   2.489   0.684  0.1753 -1.0241  0.2453
  302TMC3    H1 4552   0.262   2.562   0.611  1.7407  2.7704  2.0404
  302TMC3    H2 4553   0.391   2.183   0.765 -1.8171 -0.1442 -2.0300
  302TMC3    C7 4554   0.165   2.306   0.673  0.1594  0.1680  0.3307
  302TMC3    C8 4555   0.621   2.261   0.813  0.1452 -0.3977 -0.5205
  302TMC3    O1 4556   0.150   2.190   0.707 -0.5031 -0.4981 -0.4823
  302TMC3    O2 4557   0.733   2.245   0.757 -0.4390 -0.1556  0.5904
  303MPD2     C 4558   4.320   0.879  10.653 -0.5512 -0.9328  0.0979
  303MPD2    C1 4559   4.347   0.776  10.566 -0.2442 -0.1003  0.2720
  303MPD2    C2 4560   4.374   0.801  10.432 -0.2811 -0.0283 -0.6878
  303MPD2    C3 4561   4.366   0.928  10.382  0.3520  0.0075  0.2872
  303MPD2    C4 4562   4.335   1.030  10.472 -0.0325  0.3972 -0.1363
  303MPD2    C5 4563   4.323   1.007  10.602 -0.4541  0.1102 -0.3278
  303MPD2     H 4564   4.392   0.718  10.365  0.7112  0.5924 -1.1861
  303MPD2    H1 4565   4.310   1.131  10.442 -0.2643  0.2703 -0.3700
  303MPD2    H2 4566   4.309   0.877  10.761 -1.0013  3.1848  0.1501
  303MPD2    H3 4567   4.299   1.094  10.662 -0.1903 -0.8197  1.1262
  303MPD2     N 4568   4.374   0.959  10.244  0.1897 -0.4080 -0.2983
  303MPD2    H5 4569   4.354   1.053  10.213  2.5309 -0.1961 -1.2049
  303MPD2    N1 4570   4.351   0.649  10.624 -0.2151 -0.6932  0.7771
  303MPD2    H7 4571   4.327   0.643  10.723 -1.9654  0.9050  0.4483
  304TMC3    C1 4572   4.356   0.412  10.640 -0.7431  0.0469 -0.2467
  304TMC3    C2 4573   4.322   0.444  10.767  0.0407 -0.4395  0.0894
  304TMC3    C3 4574   4.215   0.387  10.829 -0.2981 -0.2184 -0.4783
  304TMC3    C4 4575   4.297   0.313  10.573 -0.0336 -0.4845  0.5993
  304TMC3    C5 4576   4.195   0.243  10.630 -0.0049 -0.0795  0.6322
  304TMC3    C6 4577   4.158   0.287  10.755 -0.1469  0.0750 -0.2577
  304TMC3     C 4578   4.370   0.528  10.560  0.0123 -0.2249  0.8501
  304TMC3     O 4579   4.408   0.506  10.445 -0.0154  0.4732 -0.1809
  304TMC3     H 4580   4.381   0.516  10.822 -1.2876 -0.1694  1.1669
  304TMC3    H1 4581   4.321   0.305  10.468 -0.2212  0.7553  0.4595
  304TMC3    H2 4582   4.074   0.231  10.796 -0.2519  1.7921  1.8796
  304TMC3    C7 4583   4.080   0.239  10.547  0.4870 -0.2473  0.1981
  304TMC3    C8 4584   4.132   0.493  10.873  0.4037  0.4556 -0.7567
  304TMC3    O1 4585   3.981   0.285  10.610  0.4138 -0.2090 -0.2419
  304TMC3    O2 4586   4.184   0.599  10.908  0.2500 -0.1293 -1.0246
  305MPD2     C 4587   2.788   3.400  14.086  0.7875 -0.8065 -0.2283
  305MPD2    C1 4588   2.817   3.263  14.102  0.8335  0.3326 -0.5199
  305MPD2    C2 4589   2.779   3.168  14.006 -0.7067 -0.6353 -0.0627
  305MPD2    C3 4590   2.702   3.216  13.896 -0.0713 -0.3651 -0.0689
  305MPD2    C4 4591   2.675   3.353  13.884 -0.0648  0.0757 -1.5348
  305MPD2    C5 4592   2.717   3.443  13.978 -0.2336  0.2060 -0.7406
  305MPD2     H 4593   2.785   3.062  14.025  0.4261 -0.5119  0.2166
  305MPD2    H1 4594   2.636   3.397  13.792  0.0160 -1.6579 -2.3979
  305MPD2    H2 4595   2.809   3.482  14.153 -1.7356 -0.7079  0.4698
  305MPD2    H3 4596   2.699   3.548  13.958  1.1778  0.2092 -1.9398
  305MPD2     N 4597   2.671   3.135  13.782  0.0955 -0.1489  0.4313
  305MPD2    H5 4598   2.620   3.180  13.707  3.1417  1.6564 -0.5679
  305MPD2    N1 4599   2.900   3.228  14.209 -0.0510 -0.0665  0.0766
  305MPD2    H7 4600   2.929   3.298  14.277 -0.0264  0.6217 -0.6389
  306TMC3    C1 4601   3.014   3.095  14.360  0.1836 -0.0025  0.1582
  306TMC3    C2 4602   2.983   2.983  14.432 -0.0075 -0.2573 -0.1965
  306TMC3    C3 4603   2.999   2.995  14.570  0.5588  0.3180 -0.1936
  306TMC3    C4 4604   3.058   3.215  14.414 -0.4510  0.8147 -0.4737
  306TMC3    C5 4605   3.064   3.224  14.555 -0.5619  0.7862 -0.7158
  306TMC3    C6 4606   3.033   3.115  14.629 -0.1841  0.2907 -0.0861
  306TMC3     C 4607   2.959   3.102  14.226 -0.0785  0.0413 -0.3048
  306TMC3     O 4608   2.937   2.993  14.171  0.1134  0.6797 -0.3983
  306TMC3     H 4609   2.970   2.884  14.390  1.0638 -0.4589 -0.0407
  306TMC3    H1 4610   3.104   3.285  14.345 -1.0850  0.8790 -0.8378
  306TMC3    H2 4611   3.064   3.116  14.733  0.4662 -0.9368 -0.2699
  306TMC3    C7 4612   3.180   3.295  14.606 -0.2377 -0.5570 -0.2704
  306TMC3    C8 4613   3.040   2.883  14.649 -0.1362 -0.0226 -0.3944
  306TMC3    O1 4614   3.262   3.323  14.526 -0.2753 -0.6676 -0.1150
  306TMC3    O2 4615   3.115   2.802  14.592  0.2310  0.0263 -0.2431
  307MPD2     C 4616   1.213   0.777  17.622 -0.2289 -0.1659 -0.0010
  307MPD2    C1 4617   1.152   0.898  17.650  0.3694 -0.4883  0.5350
  307MPD2    C2 4618   1.116   0.929   0.081  0.1454  0.0119  0.1815
  307MPD2    C3 4619   1.123   0.830   0.178 -0.4092 -0.2701 -0.8960
  307MPD2    C4 4620   1.198   0.712   0.151  0.0224 -0.5332  0.1402
  307MPD2    C5 4621   1.232   0.686   0.022 -0.5164  0.0738  0.5341
  307MPD2     H 4622   1.089   1.031   0.106 -1.2164 -0.3682  0.3006
  307MPD2    H1 4623   1.226   0.643   0.230 -0.8804 -2.0014 -0.8276
  307MPD2    H2 4624   1.234   0.745  17.520 -1.2864 -0.4359 -0.1347
  307MPD2    H3 4625   1.285   0.593   0.009 -0.3651 -0.0226  1.7792
  307MPD2     N 4626   1.081   0.858   0.307 -0.7866 -0.5990  0.1582
  307MPD2    H5 4627   1.054   0.953   0.331  0.7424 -0.0043 -0.4421
  307MPD2    N1 4628   1.142   1.000  17.558  0.6793 -0.3591 -0.2377
  307MPD2    H7 4629   1.118   1.092  17.593 -1.7048 -1.0907  0.0424
  308TMC3    C1 4630   0.695   0.852   0.501 -0.0018  0.1303 -0.3570
  308TMC3    C2 4631   0.716   0.978   0.566  0.3345  0.2796  0.3760
  308TMC3    C3 4632   0.846   1.015   0.575  0.3778 -0.4098  0.6881
  308TMC3    C4 4633   0.796   0.778   0.451 -0.2039 -0.1581  0.2728
  308TMC3    C5 4634   0.921   0.828   0.465 -0.1244  0.0495 -0.2771
  308TMC3    C6 4635   0.954   0.947   0.523 -0.3657  0.0392 -0.1688
  308TMC3     C 4636   0.560   0.797   0.484 -0.3329  0.0413  0.1572
  308TMC3     O 4637   0.544   0.685   0.446 -0.1825  0.6810  0.5956
  308TMC3     H 4638   0.633   1.032   0.609  0.8913  0.8435  0.7285
  308TMC3    H1 4639   0.785   0.676   0.415  3.3441  0.0894 -1.4809
  308TMC3    H2 4640   1.059   0.972   0.532 -0.5900  0.8242  0.2208
  308TMC3    C7 4641   1.029   0.764   0.391 -0.1710  0.1607 -0.5924
  308TMC3    C8 4642   0.893   1.138   0.640 -0.5164 -0.1794 -0.6046
  308TMC3    O1 4643   1.022   0.643   0.375  0.0956  0.4875  0.6026
  308TMC3    O2 4644   1.005   1.139   0.690  0.1828  0.0411 -0.2896
  309MPD2     C 4645   4.640   1.282  16.877  0.0326  0.1889 -0.0973
  309MPD2    C1 4646   4.596   1.403  16.838  0.3061  0.4086 -0.3905
  309MPD2    C2 4647   4.494   1.459  16.913  0.3540  0.1562  0.3655
  309MPD2    C3 4648   4.451   1.394  17.029  0.1857 -0.4705  0.7356
  309MPD2    C4 4649   4.517   1.280  17.071 -0.4735 -0.6067 -0.0922
  309MPD2    C5 4650   4.606   1.224  16.989 -0.1248 -0.0214  0.7450
  309MPD2     H 4651   4.456   1.557  16.886  0.7983  0.1229 -0.3704
  309MPD2    H1 4652   4.506   1.239  17.171  0.3840  1.3654  0.8215
  309MPD2    H2 4653   4.720   1.230  16.824  1.0513  0.5379  1.0943
  309MPD2    H3 4654   4.649   1.126  17.002 -0.5085 -0.1709  0.8943
  309MPD2     N 4655   4.343   1.435  17.114  0.3409  0.0419  0.3735
  309MPD2    H5 4656   4.313   1.383  17.195  2.7345  1.7500  2.3343
  309MPD2    N1 4657   4.647   1.469  16.719 -0.2765  0.0580  0.4955
  309MPD2    H7 4658   4.606   1.559  16.694 -0.3936  0.7691  3.2894
  310TMC3    C1 4659   0.065   1.490  16.522  0.6968 -0.3095 -0.3069
  310TMC3    C2 4660   4.707   1.576  16.456  0.6043  0.3933 -0.5070
  310TMC3    C3 4661   0.018   1.624  16.335  0.0539  0.0367 -0.5123
  310TMC3    C4 4662   0.182   1.453  16.459 -0.1697 -0.1505 -0.0285
  310TMC3    C5 4663   0.212   1.503  16.336  0.2899  0.7997  0.3314
  310TMC3    C6 4664   0.135   1.593  16.275 -0.6411 -0.0910 -0.1003
  310TMC3     C 4665   0.033   1.420  16.644 -0.4818  0.3762  0.1786
  310TMC3     O 4666   0.101   1.320  16.647  0.1171 -0.2630  0.2670
  310TMC3     H 4667   4.617   1.624  16.491 -0.5897 -1.7814 -0.5708
  310TMC3    H1 4668   0.251   1.378  16.498 -1.6507 -2.0851 -1.1483
  310TMC3    H2 4669   0.165   1.632  16.179 -1.8526 -0.4777 -0.6271
  310TMC3    C7 4670   0.332   1.446  16.273 -0.0692  1.0907 -0.0306
  310TMC3    C8 4671   4.648   1.710  16.272  1.0461  0.0948  0.5084
  310TMC3    O1 4672   0.403   1.365  16.332 -0.5136 -0.0543 -0.2567
  310TMC3    O2 4673   4.533   1.684  16.295 -0.2204  0.4551  1.0095
  311MPD2     C 4674   1.721   2.537  13.162 -0.8366 -0.2633 -0.8627
  311MPD2    C1 4675   1.719   2.673  13.139  0.5532 -0.2060  0.4371
  311MPD2    C2 4676   1.600   2.739  13.125  0.4056  0.2411  0.3037
  311MPD2    C3 4677   1.481   2.662  13.142  0.5106 -0.1039  0.1705
  311MPD2    C4 4678   1.486   2.526  13.168 -0.3339 -0.2078  0.0303
  311MPD2    C5 4679   1.605   2.469  13.181 -0.1583  0.6826  0.4215
  311MPD2     H 4680   1.607   2.846  13.107  1.3359 -0.0532 -1.1249
  311MPD2    H1 4681   1.403   2.458  13.178 -0.2929 -0.2064  0.3711
  311MPD2    H2 4682   1.814   2.483  13.178 -1.2978 -0.9100 -0.3913
  311MPD2    H3 4683   1.613   2.371  13.227  0.2860  0.7611  0.5094
  311MPD2     N 4684   1.353   2.726  13.133 -0.4879  0.4379  0.5106
  311MPD2    H5 4685   1.367   2.824  13.110  1.1999 -0.0080 -0.3442
  311MPD2    N1 4686   1.837   2.749  13.115  0.3752  0.3494  0.0488
  311MPD2    H7 4687   1.834   2.844  13.080  0.6891 -0.6056 -2.5707
  312TMC3    C1 4688   1.114   2.764  13.100  0.2542 -0.7547  0.4580
  312TMC3    C2 4689   0.996   2.719  13.041 -0.1865 -0.2549  0.0131
  312TMC3    C3 4690   0.918   2.809  12.974  0.3238 -0.8903  0.3085
  312TMC3    C4 4691   1.146   2.902  13.101 -0.0823 -0.5772 -0.1276
  312TMC3    C5 4692   1.052   2.996  13.051  0.0793 -0.0853 -0.6275
  312TMC3    C6 4693   0.939   2.950  12.987  0.0114 -0.4396  0.0622
  312TMC3     C 4694   1.224   2.665  13.127 -0.3341 -0.3042  0.8123
  312TMC3     O 4695   1.199   2.548  13.117  0.1895  0.0784 -0.2323
  312TMC3     H 4696   0.979   2.612  13.034 -1.4502  0.0331 -1.3618
  312TMC3    H1 4697   1.236   2.930  13.153 -1.6148  3.3367  0.3851
  312TMC3    H2 4698   0.872   3.027  12.950  1.3180  0.8599  0.3646
  312TMC3    C7 4699   1.033   3.117  13.126  0.5048 -0.3225 -0.4628
  312TMC3    C8 4700   0.789   2.761  12.919  0.0775 -0.0018  0.0044
  312TMC3    O1 4701   0.950   3.194  13.077  0.4374  0.2302  0.2864
  312TMC3    O2 4702   0.767   2.642  12.929 -0.5103  0.1401 -0.5992
  313MPD2     C 4703   1.111   2.053  10.857 -0.2994 -0.5080 -0.0987
  313MPD2    C1 4704   0.972   2.075  10.881 -0.0461 -0.4104 -0.1325
  313MPD2    C2 4705   0.876   2.005  10.804 -0.0434  0.7383  0.8000
  313MPD2    C3 4706   0.924   1.927  10.692 -0.2589  0.1519 -0.5280
  313MPD2    C4 4707   1.054   1.918  10.661  0.2996  0.1632 -0.2711
  313MPD2    C5 4708   1.143   1.975  10.746  0.0925  0.3944 -0.1055
  313MPD2     H 4709   0.771   2.014  10.827 -0.4714  0.4399 -1.0883
  313MPD2    H1 4710   1.102   1.861  10.583  2.1703 -0.6176  1.4461
  313MPD2    H2 4711   1.190   2.101  10.913  0.6777 -1.2030 -0.8898
  313MPD2    H3 4712   1.247   1.959  10.720 -0.0985 -1.8336  0.4574
  313MPD2     N 4713   0.816   1.862  10.614  0.1540 -0.4013  0.2760
  313MPD2    H5 4714   0.720   1.876  10.643 -1.2906 -1.6048 -3.9696
  313MPD2    N1 4715   0.921   2.162  10.974 -0.4240 -0.8888  0.4557
  313MPD2    H7 4716   0.820   2.173  10.978 -0.1956  0.7571  2.0375
  314TMC3    C1 4717   0.914   2.354  11.104 -0.6808 -0.3056  0.2580
  314TMC3    C2 4718   0.969   2.423  11.208 -0.3518 -0.0316  0.9779
  314TMC3    C3 4719   0.934   2.552  11.231  0.4445  0.0989 -0.0958
  314TMC3    C4 4720   0.820   2.414  11.023  0.7931 -0.0636 -0.1353
  314TMC3    C5 4721   0.790   2.543  11.049 -0.2416 -0.9725  0.1016
  314TMC3    C6 4722   0.843   2.614  11.152  0.5505  0.1821  0.1904
  314TMC3     C 4723   0.999   2.249  11.048  1.0406 -0.5970  0.7172
  314TMC3     O 4724   1.117   2.244  11.080 -0.1069 -0.4366  0.3256
  314TMC3     H 4725   1.048   2.372  11.262  2.6721  2.4505 -1.0735
  314TMC3    H1 4726   0.788   2.359  10.935 -1.5007  1.7765 -0.4507
  314TMC3    H2 4727   0.817   2.718  11.164  0.0111  0.1203 -0.4564
  314TMC3    C7 4728   0.779   2.621  10.929  0.6224  0.3374  0.4112
  314TMC3    C8 4729   0.994   2.644  11.321  0.4259 -0.3632 -0.2500
  314TMC3    O1 4730   0.858   2.716  10.913 -1.0932  0.1032  0.4664
  314TMC3    O2 4731   1.009   2.756  11.283 -0.2816  0.5952  0.1798
  315MPD2     C 4732   1.037   1.410   0.295  0.4505 -0.1987  0.1840
  315MPD2    C1 4733   1.149   1.442   0.373  0.2864 -0.2895 -0.4356
  315MPD2    C2 4734   1.200   1.572   0.362  0.1608 -0.2332 -0.1186
  315MPD2    C3 4735   1.135   1.664   0.284  0.2010  0.3842 -0.3605
  315MPD2    C4 4736   1.025   1.637   0.213 -0.1780 -0.9408  0.6571
  315MPD2    C5 4737   0.979   1.508   0.225 -0.3351  0.7999 -0.1947
  315MPD2     H 4738   1.284   1.605   0.421  0.3392 -3.0651  1.1712
  315MPD2    H1 4739   0.973   1.711   0.152 -0.2547 -1.3148  0.2710
  315MPD2    H2 4740   0.998   1.309   0.292  0.9797 -0.3562 -1.1082
  315MPD2    H3 4741   0.885   1.473   0.182  0.3548 -1.4292  0.0811
  315MPD2     N 4742   1.212   1.793   0.273  0.0525  0.0712  0.5991
  315MPD2    H5 4743   1.300   1.797   0.323 -0.1359 -1.5436  1.0640
  315MPD2    N1 4744   1.226   1.350   0.441  0.1366  0.4365 -0.0612
  315MPD2    H7 4745   1.296   1.378   0.509  1.3114 -4.0481  0.5578
  316TMC3    C1 4746   1.286   1.995   0.176  0.2511 -0.1360 -0.2756
  316TMC3    C2 4747   1.408   1.981   0.234 -0.5510  0.3604  0.2522
  316TMC3    C3 4748   1.502   2.081   0.211 -0.4493  0.2994 -0.3047
  316TMC3    C4 4749   1.256   2.104   0.098  0.9578  0.3190 -0.0074
  316TMC3    C5 4750   1.342   2.195   0.068 -0.7609 -0.9589 -0.1157
  316TMC3    C6 4751   1.466   2.184   0.129 -0.3889 -0.1377 -0.5108
  316TMC3     C 4752   1.185   1.891   0.180 -0.3237  0.0389  0.5005
  316TMC3     O 4753   1.094   1.890   0.100 -0.4022 -0.4585 -0.1441
  316TMC3     H 4754   1.440   1.905   0.305 -0.5187 -0.7024 -0.9046
  316TMC3    H1 4755   1.158   2.112   0.052  0.5785 -0.1272  0.7074
  316TMC3    H2 4756   1.546   2.255   0.111  0.2981 -0.6951  0.3827
  316TMC3    C7 4757   1.325   2.297  17.670 -0.3128  0.1280  0.1579
  316TMC3    C8 4758   1.610   2.101   0.304 -0.1699 -1.6320 -0.4780
  316TMC3    O1 4759   1.402   2.392  17.685  0.1407 -0.1931  0.3409
  316TMC3    O2 4760   1.624   2.218   0.333  0.4979  0.0003  0.2318
  317MPD2     C 4761   2.476   4.247  12.158 -0.1088 -0.3636 -0.2708
  317MPD2    C1 4762   2.605   4.290  12.139 -0.1757  0.1499 -0.2761
  317MPD2    C2 4763   2.694   4.289  12.242  0.2961 -0.4742 -0.0352
  317MPD2    C3 4764   2.654   4.258  12.369 -0.3019 -0.7731  0.4646
  317MPD2    C4 4765   2.518   4.235  12.393  0.3309 -0.2849  0.0449
  317MPD2    C5 4766   2.430   4.225  12.288 -0.6061  0.0698  0.9261
  317MPD2     H 4767   2.797   4.314  12.222  0.3415  1.0129  2.0149
  317MPD2    H1 4768   2.479   4.194  12.486 -0.7413  1.8637  0.5452
  317MPD2    H2 4769   2.410   4.261  12.073  1.2529 -1.3263 -1.4940
  317MPD2    H3 4770   2.323   4.218  12.304 -0.7629  2.4014  0.9070
  317MPD2     N 4771   2.744   4.246  12.482 -0.2888  0.4613  0.3353
  317MPD2    H5 4772   2.710   4.208  12.570 -1.0284  0.7908  0.1932
  317MPD2    N1 4773   2.669   4.317  12.014 -0.4344 -0.3581  0.5768
  317MPD2    H7 4774   2.766   4.347  12.026 -0.7374  1.4004 -1.2946
  318TMC3    C1 4775   2.955   4.242  12.598  0.5249 -0.0104  0.8858
  318TMC3    C2 4776   2.876   4.229  12.707  0.6450  0.8565 -0.0684
  318TMC3    C3 4777   2.921   4.265  12.825  1.2413 -0.4269  0.0253
  318TMC3    C4 4778   3.079   4.300  12.594 -0.4681  0.1978  0.0407
  318TMC3    C5 4779   3.117   4.345  12.723  0.4995 -0.2391  0.0360
  318TMC3    C6 4780   3.051   4.319  12.836 -1.0504  0.2295  0.0870
  318TMC3     C 4781   2.883   4.265  12.476  1.0137 -0.1732 -0.1227
  318TMC3     O 4782   2.943   4.316  12.383  0.2071 -0.5103 -0.0407
  318TMC3     H 4783   2.781   4.175  12.711  1.5594 -0.7422  0.3901
  318TMC3    H1 4784   3.135   4.323  12.504  1.2143  2.6218  1.7028
  318TMC3    H2 4785   3.089   4.352  12.932 -2.0404  1.3856  0.0754
  318TMC3    C7 4786   3.261   4.361  12.743  0.2753  0.3540 -0.1749
  318TMC3    C8 4787   2.880   4.189  12.945  0.3298 -0.6985 -0.5727
  318TMC3    O1 4788   3.322   4.401  12.642  0.5288  0.0302 -0.4745
  318TMC3    O2 4789   2.967   4.162  13.027 -0.7632 -0.0623 -0.7308
  319MPD2     C 4790   3.541   1.230  16.984  0.1670  0.6421 -0.2981
  319MPD2    C1 4791   3.506   1.102  17.024 -0.7828  0.4048  0.1299
  319MPD2    C2 4792   3.410   1.024  16.963 -0.1654  0.1546  0.3318
  319MPD2    C3 4793   3.343   1.082  16.858  0.2902  0.3728  0.7796
  319MPD2    C4 4794   3.367   1.217  16.830  0.3772  0.2869 -0.1389
  319MPD2    C5 4795   3.473   1.288  16.884  0.3722  0.3149 -0.2670
  319MPD2     H 4796   3.398   0.919  16.986  0.1500  0.2319  0.8260
  319MPD2    H1 4797   3.319   1.260  16.743 -0.7147  0.2827  0.4620
  319MPD2    H2 4798   3.628   1.285  17.018  2.1692 -2.8061  0.0991
  319MPD2    H3 4799   3.486   1.392  16.856 -3.2166  1.1819  1.2206
  319MPD2     N 4800   3.241   1.021  16.779 -0.4964 -0.1506  0.0185
  319MPD2    H5 4801   3.216   1.072  16.695  0.1273 -0.6193 -0.4507
  319MPD2    N1 4802   3.577   1.036  17.120  0.0795  0.6728  0.3589
  319MPD2    H7 4803   3.541   0.946  17.151 -0.2097  1.1682  1.4765
  320TMC3    C1 4804   3.079   0.867  16.707 -0.7075  0.5605  0.3745
  320TMC3    C2 4805   3.029   0.957  16.625  0.1862 -0.3577 -0.4535
  320TMC3    C3 4806   2.991   0.914  16.505 -0.0074 -0.5979  0.4315
  320TMC3    C4 4807   3.060   0.734  16.682  0.2078 -0.3511 -0.2424
  320TMC3    C5 4808   3.009   0.689  16.567 -0.5553  0.2257 -0.7242
  320TMC3    C6 4809   2.976   0.783  16.472 -0.4715  0.1421 -0.3347
  320TMC3     C 4810   3.183   0.898  16.807 -0.1904  0.0696 -0.5270
  320TMC3     O 4811   3.221   0.810  16.888 -0.0480  0.3779  0.1070
  320TMC3     H 4812   3.039   1.064  16.637 -1.4074  0.0270 -2.6347
  320TMC3    H1 4813   3.097   0.667  16.759  0.1234 -0.3228 -0.1781
  320TMC3    H2 4814   2.943   0.747  16.376  1.3786  1.0140 -1.2974
  320TMC3    C7 4815   3.008   0.551  16.520  0.1091 -0.1788  0.5215
  320TMC3    C8 4816   2.992   1.003  16.396 -0.1970 -0.2845 -0.2482
  320TMC3    O1 4817   2.945   0.526  16.422 -0.1107  0.6463  0.1799
  320TMC3    O2 4818   2.986   1.122  16.425  0.4321 -0.1268  0.4051
  321TMC3    C1 4819   3.773   0.979  17.243  0.0226  0.4872 -0.5652
  321TMC3    C2 4820   3.784   0.860  17.174  0.3502 -0.3405 -0.2410
  321TMC3    C3 4821   3.838   0.761  17.246 -0.8253  0.3454 -0.1476
  321TMC3    C4 4822   3.834   1.010  17.360 -0.2455 -0.5535  0.4611
  321TMC3    C5 4823   3.898   0.903  17.419  0.1656 -0.5061  0.3073
  321TMC3    C6 4824   3.880   0.772  17.371  0.1654 -0.3852  0.0013
  321TMC3     C 4825   3.690   1.085  17.192  0.6296 -0.3048  0.4976
  321TMC3     O 4826   3.733   1.200  17.201 -0.2108  0.3097 -0.0678
  321TMC3     H 4827   3.732   0.832  17.083 -2.3356 -0.7034  1.4160
  321TMC3    H1 4828   3.825   1.112  17.395 -0.7091  0.1773 -1.8512
  321TMC3    H2 4829   3.921   0.690  17.428  1.0599  0.1752  0.1568
  321TMC3    C7 4830   4.037   0.928  17.448 -0.0867 -0.9561  0.3482
  321TMC3    C8 4831   3.938   0.692  17.168  0.2476 -0.2938  0.2038
  321TMC3    O1 4832   4.091   1.012  17.376 -0.1691  0.0766 -0.2563
  321TMC3    O2 4833   4.012   0.617  17.233 -0.1885  0.0898  0.5755
  322MPD2     C 4834   2.509   2.005  13.358  0.0097  0.3482  0.8050
  322MPD2    C1 4835   2.520   1.984  13.497  0.6742 -0.2520 -0.4256
  322MPD2    C2 4836   2.535   1.858  13.541  0.2022 -0.4016 -0.0153
  322MPD2    C3 4837   2.536   1.753  13.445  0.6891  0.0560  0.4119
  322MPD2    C4 4838   2.514   1.771  13.315  0.9440  0.5330  0.1673
  322MPD2    C5 4839   2.491   1.904  13.266 -1.0648 -0.3468  0.3106
  322MPD2     H 4840   2.535   1.836  13.647 -0.3003 -0.5593 -0.0489
  322MPD2    H1 4841   2.506   1.694  13.239  2.4700  0.1017  0.4383
  322MPD2    H2 4842   2.496   2.108  13.327 -0.2529 -0.2625 -1.1484
  322MPD2    H3 4843   2.473   1.916  13.160  0.5724  2.5840  0.3714
  322MPD2     N 4844   2.536   1.623  13.512  0.0838  0.6742 -0.1618
  322MPD2    H5 4845   2.526   1.635  13.612 -2.0513  0.2676 -0.3194
  322MPD2    N1 4846   2.522   2.095  13.573  0.0985 -0.2110 -0.3111
  322MPD2    H7 4847   2.523   2.183  13.521 -0.2458  0.4103  0.7461
  323TMC3    C1 4848   2.566   2.229  13.758  0.1532  0.8934  0.4889
  323TMC3    C2 4849   2.639   2.313  13.682 -0.8539 -0.0174  0.8611
  323TMC3    C3 4850   2.679   2.432  13.737  0.1383  0.1588  0.2226
  323TMC3    C4 4851   2.536   2.254  13.896  0.2424  0.0716  0.9463
  323TMC3    C5 4852   2.577   2.375  13.955  0.6028  0.4116 -0.1073
  323TMC3    C6 4853   2.645   2.467  13.870  0.3288 -0.5520 -0.0250
  323TMC3     C 4854   2.524   2.102  13.707 -0.0790 -0.3576 -0.0900
  323TMC3     O 4855   2.503   2.020  13.794  0.4619  0.2637 -0.0645
  323TMC3     H 4856   2.683   2.282  13.588 -1.6934 -2.0169  1.1194
  323TMC3    H1 4857   2.489   2.175  13.952 -1.7756  0.6580  0.0915
  323TMC3    H2 4858   2.683   2.558  13.916 -0.8979 -0.9605  1.7801
  323TMC3    C7 4859   2.629   2.359  14.092  0.6185 -0.0053 -0.2462
  323TMC3    C8 4860   2.753   2.534  13.657 -0.5152 -0.1355 -0.0542
  323TMC3    O1 4861   2.634   2.241  14.137 -0.1575  0.4279 -0.0338
  323TMC3    O2 4862   2.793   2.629  13.721 -1.0308  0.2714  0.5246
  324MPD2     C 4863   4.428   2.972  14.457 -0.1751  0.6887 -0.0082
  324MPD2    C1 4864   4.482   3.085  14.399 -0.1270  0.1159  0.0536
  324MPD2    C2 4865   4.391   3.179  14.348  0.2832 -0.6725 -0.5857
  324MPD2    C3 4866   4.256   3.156  14.344 -0.3242  0.1275 -0.6650
  324MPD2    C4 4867   4.207   3.044  14.400 -0.1814 -0.1453 -0.5380
  324MPD2    C5 4868   4.290   2.950  14.454 -0.6409  0.2299 -0.0049
  324MPD2     H 4869   4.435   3.274  14.321 -0.7761 -0.0485 -0.1199
  324MPD2    H1 4870   4.101   3.026  14.414  0.3461 -1.9222  1.1781
  324MPD2    H2 4871   4.485   2.885  14.489 -0.2873 -0.0337 -1.7790
  324MPD2    H3 4872   4.253   2.857  14.497 -1.4650 -0.2147 -1.6484
  324MPD2     N 4873   4.159   3.259  14.310  0.5243  0.4811  0.2943
  324MPD2    H5 4874   4.063   3.228  14.313  0.1104  1.6769 -0.8422
  324MPD2    N1 4875   4.621   3.106  14.382  0.0233  0.0985 -0.2319
  324MPD2    H7 4876   4.642   3.191  14.331  0.0452 -2.0180 -3.8035
  325TMC3    C1 4877   4.070   3.476  14.275 -0.2504 -0.7868 -0.0233
  325TMC3    C2 4878   3.989   3.445  14.176 -0.6102 -0.3319  0.0986
  325TMC3    C3 4879   3.874   3.518  14.164 -0.2636  0.6658  0.0549
  325TMC3    C4 4880   4.039   3.584  14.362  0.2582  0.7700 -0.3599
  325TMC3    C5 4881   3.927   3.658  14.341 -0.0236  1.1268 -0.0612
  325TMC3    C6 4882   3.832   3.617  14.251  0.7881  0.4542  0.3811
  325TMC3     C 4883   4.186   3.393  14.303  0.3851 -0.3126  0.3468
  325TMC3     O 4884   4.275   3.450  14.361  0.2742 -0.1524  0.3149
  325TMC3     H 4885   4.022   3.376  14.099 -0.2702 -0.2860  0.2033
  325TMC3    H1 4886   4.113   3.614  14.435  1.1921  0.6965 -1.2721
  325TMC3    H2 4887   3.730   3.652  14.243  0.5907 -0.8318 -2.7533
  325TMC3    C7 4888   3.886   3.748  14.450 -0.8202  0.0712 -0.3762
  325TMC3    C8 4889   3.771   3.466  14.077 -0.8939 -0.1321 -0.1036
  325TMC3    O1 4890   3.982   3.786  14.518 -0.0461 -0.1344  0.0435
  325TMC3    O2 4891   3.689   3.553  14.046  0.2518  0.2508 -0.0605
  326MPD2     C 4892   0.368   4.446  11.140 -0.6181 -0.6866 -0.3833
  326MPD2    C1 4893   0.309   4.573  11.117 -0.6489  0.0241  0.1114
  326MPD2    C2 4894   0.387   4.687  11.122 -0.1754 -0.1601  0.7543
  326MPD2    C3 4895   0.527   4.674  11.119  0.0654 -0.8914  1.0460
  326MPD2    C4 4896   0.586   4.549  11.139 -0.3798 -0.0844 -0.2059
  326MPD2    C5 4897   0.508   4.435  11.152 -0.9222  0.4318  0.1771
  326MPD2     H 4898   0.339   0.058  11.135 -0.5224 -0.3128  0.5791
  326MPD2    H1 4899   0.694   4.543  11.145 -0.3337  0.6846 -0.2167
  326MPD2    H2 4900   0.310   4.355  11.152 -0.0146 -0.9277  0.7256
  326MPD2    H3 4901   0.546   4.335  11.166  1.3804  1.1581 -0.9469
  326MPD2     N 4902   0.617   0.060  11.096  0.2146  0.0051 -0.0460
  326MPD2    H5 4903   0.714   0.035  11.081  1.0970  4.7544 -2.2558
  326MPD2    N1 4904   0.176   4.591  11.091  0.0962 -0.3360  0.4996
  326MPD2    H7 4905   0.154   4.690  11.084  1.5369 -0.0924 -0.5189
  327TMC3    C1 4906   4.695   4.541  10.972 -0.4629  0.0861 -0.0991
  327TMC3    C2 4907   4.679   4.677  10.937  0.7192  0.0091 -0.5435
  327TMC3    C3 4908   4.632   4.705  10.809 -0.5641 -0.2413  0.1545
  327TMC3    C4 4909   4.657   4.442  10.886  0.1730  0.2864  0.1072
  327TMC3    C5 4910   4.614   4.468  10.763  0.2415  0.5544  0.3707
  327TMC3    C6 4911   4.611   4.599  10.722  0.1356  0.0855  0.2596
  327TMC3     C 4912   0.085   4.487  11.055 -1.3098 -0.0338 -0.4750
  327TMC3     O 4913   0.114   4.369  11.050  0.2369  0.3677 -0.2208
  327TMC3     H 4914   4.706   0.024  11.014  2.2527 -1.2409  0.0797
  327TMC3    H1 4915   4.643   4.342  10.924  1.0372  0.0436 -0.2036
  327TMC3    H2 4916   4.574   4.615  10.621  0.2321 -1.0875  0.0487
  327TMC3    C7 4917   4.693   4.389  10.668  0.1902  0.1651 -0.3265
  327TMC3    C8 4918   4.637   0.113  10.760 -0.3591  0.0637 -0.0433
  327TMC3    O1 4919   4.662   4.404  10.554  0.2309 -0.3700 -0.1217
  327TMC3    O2 4920   4.617   0.131  10.638 -0.8990 -0.3740  0.3637
  328MPD2     C 4921   3.403   0.164  17.385 -0.5835  0.7049 -0.0794
  328MPD2    C1 4922   3.324   0.051  17.365 -0.2053  0.2295 -0.5011
  328MPD2    C2 4923   3.241   0.039  17.256 -0.5191  0.0589 -0.6588
  328MPD2    C3 4924   3.250   0.149  17.170  0.7072  0.4008  0.3979
  328MPD2    C4 4925   3.330   0.259  17.185  0.4977  0.1865 -0.2113
  328MPD2    C5 4926   3.402   0.273  17.299  0.3097 -1.0587 -0.0532
  328MPD2     H 4927   3.178   4.677  17.241 -1.0341 -0.0975  2.3199
  328MPD2    H1 4928   3.326   0.345  17.120 -2.7780  2.5629  3.1257
  328MPD2    H2 4929   3.471   0.170  17.469  0.3303  0.7674 -0.8308
  328MPD2    H3 4930   3.457   0.365  17.316 -0.1543 -1.1200  1.7217
  328MPD2     N 4931   3.159   0.161  17.064 -0.4556  0.2479  0.2778
  328MPD2    H5 4932   3.145   0.252  17.023 -0.9054  0.0163 -0.0828
  328MPD2    N1 4933   3.347   4.670  17.455 -0.0489  0.0650  0.1004
  328MPD2    H7 4934   3.416   4.703  17.522  1.4349 -1.4288 -0.6613
  329TMC3    C1 4935   3.330   4.475  17.577  0.0668 -0.1312 -0.3531
  329TMC3    C2 4936   3.431   4.526  17.654 -0.2667 -0.3878 -0.1786
  329TMC3    C3 4937   3.466   4.456   0.062 -0.1655  0.0652  0.2395
  329TMC3    C4 4938   3.247   4.372  17.613 -0.0093  0.0380  0.7990
  329TMC3    C5 4939   3.267   4.322   0.042  0.4377 -0.2273 -0.1862
  329TMC3    C6 4940   3.381   4.358   0.116  0.2964 -0.4716 -0.6577
  329TMC3     C 4941   3.293   4.541  17.453  0.4772 -0.2421 -0.3488
  329TMC3     O 4942   3.210   4.489  17.375  0.3640 -0.1903  0.5581
  329TMC3     H 4943   3.473   4.623  17.633 -1.8574  0.3492  0.0194
  329TMC3    H1 4944   3.163   4.344  17.551  0.8722  1.9212 -1.2340
  329TMC3    H2 4945   3.392   4.308   0.211  1.4143  0.7553 -0.1434
  329TMC3    C7 4946   3.189   4.202   0.073 -0.1765  0.3050  0.1580
  329TMC3    C8 4947   3.559   4.523   0.142 -0.4268 -0.3444 -0.9316
  329TMC3    O1 4948   3.144   4.128  17.687 -0.0669 -0.6453  0.2230
  329TMC3    O2 4949   3.655   4.567   0.082 -0.3540  0.0364 -0.0671
  330TMC3    C1 4950   0.892   3.012  10.466  0.3232  0.2528  0.0412
  330TMC3    C2 4951   0.831   2.954  10.360  0.1812 -0.4249  0.5684
  330TMC3    C3 4952   0.902   2.875  10.280  0.1863 -0.0255 -0.0677
  330TMC3    C4 4953   1.011   2.960  10.513  0.2611  0.7268  0.2597
  330TMC3    C5 4954   1.079   2.870  10.434  0.0513  0.4861 -0.6843
  330TMC3    C6 4955   1.025   2.826  10.319 -0.2464 -0.9126 -0.8373
  330TMC3     C 4956   0.825   3.118  10.539 -0.2570  0.2133  0.1494
  330TMC3     O 4957   0.884   3.172  10.633  0.2691 -0.6399 -0.1233
  330TMC3     H 4958   0.737   2.988  10.319  1.1928 -0.1689 -1.5245
  330TMC3    H1 4959   1.062   3.012  10.594  3.0001  0.2262 -1.1286
  330TMC3    H2 4960   1.072   2.742  10.270 -2.1328 -2.0435 -0.7140
  330TMC3    C7 4961   1.227   2.854  10.435  1.0300  1.2108  0.4763
  330TMC3    C8 4962   0.819   2.804  10.188 -0.6468 -0.1006  0.1980
  330TMC3    O1 4963   1.288   2.829  10.327 -0.6012  0.0122 -0.1679
  330TMC3    O2 4964   0.705   2.840  10.166 -0.4920  0.2025 -0.6549
  331MPD2     C 4965   3.725   3.033  13.216 -0.3674  0.2843  0.2346
  331MPD2    C1 4966   3.820   3.036  13.124  0.7541 -0.1427 -0.5629
  331MPD2    C2 4967   3.821   2.933  13.029 -0.0169  0.3444  0.1454
  331MPD2    C3 4968   3.726   2.830  13.030  0.3339  0.4463  1.0695
  331MPD2    C4 4969   3.627   2.832  13.126 -0.9534  0.1140 -0.0760
  331MPD2    C5 4970   3.622   2.944  13.211 -0.8005  0.1473 -0.0628
  331MPD2     H 4971   3.907   2.922  12.962 -2.1345  0.9463 -2.6777
  331MPD2    H1 4972   3.542   2.766  13.136 -2.0323  1.1751 -2.4262
  331MPD2    H2 4973   3.719   3.102  13.300 -1.8202  1.6295 -0.9801
  331MPD2    H3 4974   3.540   2.953  13.281 -0.8784  2.1586 -0.3968
  331MPD2     N 4975   3.725   2.742  12.921 -0.1486 -0.4210  0.2259
  331MPD2    H5 4976   3.798   2.756  12.852 -1.8917  0.6028 -1.3786
  331MPD2    N1 4977   3.908   3.144  13.129  0.7818 -0.0543  0.6583
  331MPD2    H7 4978   3.893   3.218  13.196 -0.5155  0.3718 -0.0883
  332TMC3    C1 4979   3.732   2.527  12.831 -0.6387 -0.3341  0.3469
  332TMC3    C2 4980   3.759   2.580  12.707 -0.4178 -0.4172 -0.0965
  332TMC3    C3 4981   3.858   2.518  12.634  0.0290  0.0570  0.2599
  332TMC3    C4 4982   3.800   2.414  12.880  0.0369  0.5810  0.2372
  332TMC3    C5 4983   3.898   2.358  12.808 -0.5732  0.2629 -0.1172
  332TMC3    C6 4984   3.929   2.412  12.683  0.7020 -0.2291  1.0246
  332TMC3     C 4985   3.675   2.613  12.931 -0.2627 -0.0381 -0.4668
  332TMC3     O 4986   3.629   2.558  13.027  0.0534 -0.2197 -0.3191
  332TMC3     H 4987   3.709   2.672  12.679  0.5390  0.6170  1.6258
  332TMC3    H1 4988   3.775   2.367  12.974  0.5593 -0.4182 -0.1197
  332TMC3    H2 4989   4.007   2.380  12.615 -0.7010 -1.3577 -0.0672
  332TMC3    C7 4990   3.968   2.238  12.849  1.0801 -0.5912  0.0871
  332TMC3    C8 4991   3.877   2.566  12.492 -0.5662 -0.1232 -0.1639
  332TMC3    O1 4992   3.913   2.144  12.905 -0.1391 -0.4574  0.7200
  332TMC3    O2 4993   3.982   2.542  12.434 -0.6524  0.0729 -0.6708
  333MPD2     C 4994   3.963   2.723  11.420 -0.0048 -0.0591  0.4707
  333MPD2    C1 4995   3.914   2.678  11.304  0.2322 -0.5645  0.2735
  333MPD2    C2 4996   3.801   2.605  11.308 -0.3635 -0.5837  0.5926
  333MPD2    C3 4997   3.740   2.573  11.425  1.0545  0.4987  0.0371
  333MPD2    C4 4998   3.800   2.611  11.546 -0.1689  0.3346  0.1717
  333MPD2    C5 4999   3.915   2.690  11.541  0.6322  0.3209  0.1538
  333MPD2     H 5000   3.755   2.569  11.217  2.4583  0.5080 -1.2372
  333MPD2    H1 5001   3.765   2.573  11.641 -0.1082  0.2931  0.1767
  333MPD2    H2 5002   4.048   2.790  11.408 -0.3039  0.3245  0.4802
  333MPD2    H3 5003   3.969   2.714  11.632  2.6794  0.8776 -1.2040
  333MPD2     N 5004   3.633   2.484  11.420  0.0199  0.4274 -0.2045
  333MPD2    H5 5005   3.588   2.467  11.331  0.0682 -0.3773 -0.0777
  333MPD2    N1 5006   3.981   2.726  11.183  0.1846  0.8428 -0.4743
  333MPD2    H7 5007   4.059   2.787  11.205 -0.1771  0.9992  0.3852
  334TMC3    C1 5008   4.032   2.763  10.962 -0.2038 -0.1024 -0.5592
  334TMC3    C2 5009   4.159   2.752  11.002  0.0206 -0.4183 -1.1374
  334TMC3    C3 5010   4.257   2.821  10.934  0.4222 -0.0120 -0.4540
  334TMC3    C4 5011   3.992   2.852  10.868  0.3288 -0.2124 -0.4642
  334TMC3    C5 5012   4.092   2.925  10.809 -0.0773 -0.2537 -0.6345
  334TMC3    C6 5013   4.228   2.905  10.829  0.5262 -0.1866  0.1883
  334TMC3     C 5014   3.931   2.718  11.052  0.7871 -0.0584 -0.9689
  334TMC3     O 5015   3.820   2.697  11.012  0.1388 -0.4418 -0.1125
  334TMC3     H 5016   4.192   2.679  11.075 -1.8653 -1.5102 -1.3900
  334TMC3    H1 5017   3.887   2.863  10.843 -0.0720  1.7496  2.0267
  334TMC3    H2 5018   4.305   2.963  10.778  0.3469 -0.9286 -0.9456
  334TMC3    C7 5019   4.056   3.038  10.738  0.0532  0.1979 -0.0226
  334TMC3    C8 5020   4.393   2.800  10.983  0.0247  0.2095 -0.2256
  334TMC3    O1 5021   3.963   3.040  10.656 -0.4332 -0.1999 -0.5287
  334TMC3    O2 5022   4.404   2.717  11.075 -0.2923  0.0804  0.4028
  335TMC3    C1 5023   3.732   4.475  17.014  0.5281  0.0059 -0.1001
  335TMC3    C2 5024   3.716   4.422  16.888 -0.2807  0.4209  0.3440
  335TMC3    C3 5025   3.813   4.447  16.790  0.5205 -0.2741  0.3829
  335TMC3    C4 5026   3.842   4.553  17.041  0.9856  0.2863  0.0608
  335TMC3    C5 5027   3.935   4.576  16.941 -0.6847  0.5919  0.3605
  335TMC3    C6 5028   3.914   4.535  16.810 -0.1605 -0.3925 -0.3889
  335TMC3     C 5029   3.636   4.426  17.121  0.1790  0.0400  0.6315
  335TMC3     O 5030   3.542   4.364  17.075  0.2836 -0.1282  0.1605
  335TMC3     H 5031   3.629   4.363  16.862 -0.1495  0.6234 -0.5660
  335TMC3    H1 5032   3.853   4.594  17.141 -1.3216  1.5116 -0.1732
  335TMC3    H2 5033   3.986   4.554  16.731 -1.3866 -1.4408 -1.7324
  335TMC3    C7 5034   4.070   4.611  16.976  0.3105  0.5881 -0.0454
  335TMC3    C8 5035   3.815   4.362  16.671 -0.8045 -0.2116  0.0926
  335TMC3    O1 5036   4.156   4.590  16.895  0.8797 -0.1247  0.7667
  335TMC3    O2 5037   3.897   4.392  16.584  0.5623 -0.1833 -0.4840
  336MPD2     C 5038   3.713   2.171  15.944 -0.0456 -0.0614  0.9539
  336MPD2    C1 5039   3.631   2.110  15.847  0.0573  0.0085 -0.5273
  336MPD2    C2 5040   3.619   1.970  15.846  0.3085  0.8318  0.1666
  336MPD2    C3 5041   3.701   1.896  15.921 -0.1608 -0.5143  0.1564
  336MPD2    C4 5042   3.775   1.956  16.027  0.9999  0.5155 -0.1747
  336MPD2    C5 5043   3.786   2.095  16.033 -0.2476  0.6642  0.0915
  336MPD2     H 5044   3.564   1.919  15.767 -1.0557 -1.6614  2.7062
  336MPD2    H1 5045   3.818   1.896  16.107  1.0264  1.2428  0.3607
  336MPD2    H2 5046   3.715   2.279  15.946 -2.4714  0.0074  0.0527
  336MPD2    H3 5047   3.842   2.134  16.117  0.3048 -1.1980  0.5804
  336MPD2     N 5048   3.712   1.762  15.916 -0.3037  0.6513  0.5722
  336MPD2    H5 5049   3.772   1.722  15.988 -1.1750 -2.5109 -0.4233
  336MPD2    N1 5050   3.546   2.174  15.750  0.0605  0.0041 -0.1209
  336MPD2    H7 5051   3.504   2.116  15.678 -3.5558  1.4338  0.8269
  337TMC3    C1 5052   3.432   2.349  15.621  0.0497 -0.3769  0.2008
  337TMC3    C2 5053   3.350   2.255  15.565  0.2592  0.5464  0.0592
  337TMC3    C3 5054   3.271   2.309  15.467 -0.5279  1.1251 -0.6663
  337TMC3    C4 5055   3.444   2.479  15.573  0.1824  0.0196  0.3269
  337TMC3    C5 5056   3.366   2.518  15.473 -0.0076  0.6503 -0.3571
  337TMC3    C6 5057   3.280   2.431  15.410 -0.1539  0.3660  0.3239
  337TMC3     C 5058   3.527   2.307  15.724  0.2607  0.5461  0.6680
  337TMC3     O 5059   3.580   2.397  15.788 -0.0677  0.0907 -0.2685
  337TMC3     H 5060   3.334   2.155  15.602  0.3926  0.8917  1.0718
  337TMC3    H1 5061   3.507   2.548  15.627  0.8146 -0.1610 -0.1867
  337TMC3    H2 5062   3.216   2.466  15.330 -1.1781 -0.8949  0.5954
  337TMC3    C7 5063   3.424   2.619  15.397  0.6676  0.2086 -0.0596
  337TMC3    C8 5064   3.143   2.240  15.458  0.4812 -0.8205 -0.0314
  337TMC3    O1 5065   3.541   2.650  15.407 -0.4134  0.1205 -0.4486
  337TMC3    O2 5066   3.111   2.161  15.546 -0.1033  0.5312 -0.5252
  338MPD2     C 5067   4.270   1.566   0.984  0.5624 -0.5787 -0.1955
  338MPD2    C1 5068   4.246   1.566   0.848  0.4797 -0.5486 -0.0804
  338MPD2    C2 5069   4.118   1.598   0.804  0.3719  0.2881 -0.3299
  338MPD2    C3 5070   4.011   1.622   0.886  0.0750  0.1888  0.2663
  338MPD2    C4 5071   4.037   1.616   1.019 -0.6318 -0.2709  0.3699
  338MPD2    C5 5072   4.163   1.592   1.067 -0.1705  0.8710 -0.0713
  338MPD2     H 5073   4.091   1.602   0.699  0.8394 -1.4106 -0.5202
  338MPD2    H1 5074   3.966   1.628   1.100 -0.2772 -1.6963  0.9041
  338MPD2    H2 5075   4.369   1.547   1.024 -0.3130 -1.2523  1.6564
  338MPD2    H3 5076   4.187   1.608   1.172 -2.5896 -2.9540  1.0693
  338MPD2     N 5077   3.881   1.657   0.829 -0.4883 -1.0569  0.2715
  338MPD2    H5 5078   3.885   1.670   0.728  0.5323  0.2263  0.4736
  338MPD2    N1 5079   4.350   1.540   0.757 -0.2018  0.0783  0.0855
  338MPD2    H7 5080   4.317   1.537   0.661 -1.0432  2.7898  0.2716
  339TMC3    C1 5081   3.635   1.656   0.813 -0.3653  0.2136  0.0845
  339TMC3    C2 5082   3.549   1.551   0.822  0.2110  0.2839  1.1638
  339TMC3    C3 5083   3.512   1.488   0.708 -0.3391  0.6304 -0.1159
  339TMC3    C4 5084   3.671   1.703   0.689  0.1077  0.6942  0.0889
  339TMC3    C5 5085   3.638   1.638   0.568 -0.6201  0.0544  0.1273
  339TMC3    C6 5086   3.563   1.522   0.589 -0.0673  0.8159  0.0486
  339TMC3     C 5087   3.760   1.644   0.893 -0.0915  0.3242 -0.1392
  339TMC3     O 5088   3.754   1.607   1.011  0.0322  0.1844  0.5165
  339TMC3     H 5089   3.515   1.513   0.918  0.4576  0.4972  1.3357
  339TMC3    H1 5090   3.725   1.796   0.678  0.9993  0.0140 -1.2427
  339TMC3    H2 5091   3.529   1.463   0.504  0.0614  0.7021  0.0758
  339TMC3    C7 5092   3.748   1.632   0.473 -0.2715 -0.3662  0.0548
  339TMC3    C8 5093   3.440   1.362   0.712  0.0174  0.0694  0.1913
  339TMC3    O1 5094   3.856   1.653   0.525 -0.0176 -0.4957 -0.2903
  339TMC3    O2 5095   3.379   1.337   0.609 -0.0265 -0.1016 -0.1050
  340MPD2     C 5096   3.307   4.461   9.081  0.5374 -0.3086  0.3835
  340MPD2    C1 5097   3.442   4.473   9.095 -0.1326 -0.1660  0.3627
  340MPD2    C2 5098   3.519   4.504   8.984  0.1462 -0.3790 -0.3859
  340MPD2    C3 5099   3.460   4.514   8.859 -0.3466  0.1044 -0.0769
  340MPD2    C4 5100   3.321   4.499   8.851 -0.2109  0.1042 -0.1186
  340MPD2    C5 5101   3.249   4.478   8.962  0.1436 -0.6936  0.1584
  340MPD2     H 5102   3.626   4.493   8.998 -0.0603 -0.7566  0.9259
  340MPD2    H1 5103   3.264   4.523   8.761 -0.3008  0.9204  0.1544
  340MPD2    H2 5104   3.237   4.434   9.158 -2.1429 -0.9498 -2.2778
  340MPD2    H3 5105   3.141   4.488   8.953  0.2042  0.2511  0.4663
  340MPD2     N 5106   3.544   4.528   8.746  0.1339 -0.7809 -0.0696
  340MPD2    H5 5107   3.644   4.527   8.762  0.5251  0.3567 -2.2960
  340MPD2    N1 5108   3.494   4.453   9.222  0.1367 -0.0395  0.5167
  340MPD2    H7 5109   3.423   4.463   9.294 -2.0558  0.5437 -1.7379
  341TMC3    C1 5110   3.660   4.448   9.406  0.3013 -0.5347  0.0124
  341TMC3    C2 5111   3.572   4.371   9.483 -0.5080 -0.1918  0.4577
  341TMC3    C3 5112   3.607   4.354   9.615  0.9023  0.4995 -0.1757
  341TMC3    C4 5113   3.779   4.494   9.455 -0.9580 -0.2977 -0.4115
  341TMC3    C5 5114   3.805   4.472   9.583  0.2767 -0.7492 -0.2563
  341TMC3    C6 5115   3.721   4.405   9.666  0.3322  0.3342 -0.5561
  341TMC3     C 5116   3.626   4.461   9.262 -0.3763  0.1014  0.0568
  341TMC3     O 5117   3.725   4.484   9.193 -0.0582  0.0477  0.2635
  341TMC3     H 5118   3.485   4.325   9.438  0.7107 -4.0340  1.9797
  341TMC3    H1 5119   3.843   4.555   9.393  0.8748 -1.7329  0.0767
  341TMC3    H2 5120   3.748   4.381   9.768  0.0002 -1.0131 -0.7940
  341TMC3    C7 5121   3.917   4.557   9.641 -0.2474 -0.0756  0.4543
  341TMC3    C8 5122   3.516   4.290   9.701  0.2456 -0.2010 -1.0846
  341TMC3    O1 5123   3.939   4.664   9.591  0.2333  0.5150  0.0480
  341TMC3    O2 5124   3.546   4.270   9.816 -0.4288  0.5193  0.2593
  342MPD2     C 5125   2.153   2.677   0.102 -0.5243 -0.4059 -0.3027
  342MPD2    C1 5126   2.239   2.717  17.700  0.2871 -0.1973  0.2345
  342MPD2    C2 5127   2.293   2.844   0.013  0.4174 -0.3735  0.7382
  342MPD2    C3 5128   2.268   2.923   0.125  0.5688  0.5360  0.2180
  342MPD2    C4 5129   2.193   2.879   0.229  0.1848 -0.1812 -0.5934
  342MPD2    C5 5130   2.137   2.757   0.208 -0.2983 -0.0869 -0.2206
  342MPD2     H 5131   2.351   2.879  17.629  0.5897  1.7391  1.7364
  342MPD2    H1 5132   2.179   2.942   0.317 -0.8536 -0.5294 -0.5011
  342MPD2    H2 5133   2.098   2.583   0.103  2.8109 -2.3512  0.9048
  342MPD2    H3 5134   2.067   2.733   0.286  0.0139 -0.0454  0.0727
  342MPD2     N 5135   2.330   3.050   0.147 -0.1527  0.3785 -0.2116
  342MPD2    H5 5136   2.304   3.094   0.235 -0.7939  0.6610 -0.5463
  342MPD2    N1 5137   2.280   2.646  17.581 -0.2320  0.2027  0.9458
  342MPD2    H7 5138   2.334   2.698  17.512  0.5111 -2.6243 -0.5904
  343TMC3    C1 5139   2.264   2.472  17.421  0.6948  0.2886 -0.3279
  343TMC3    C2 5140   2.400   2.462  17.380  0.0017 -0.1306 -0.0107
  343TMC3    C3 5141   2.434   2.360  17.294  0.4389  0.3159  0.3562
  343TMC3    C4 5142   2.176   2.379  17.376 -0.6328  0.3333 -0.5702
  343TMC3    C5 5143   2.220   2.273  17.313  0.0845  0.4337  0.7050
  343TMC3    C6 5144   2.350   2.259  17.277 -0.3293 -0.2726  0.3038
  343TMC3     C 5145   2.224   2.525  17.550 -0.1135  0.8308  1.2348
  343TMC3     O 5146   2.154   2.451  17.621  0.2161 -0.4310  0.6198
  343TMC3     H 5147   2.479   2.528  17.413  0.8247 -1.4092  0.6030
  343TMC3    H1 5148   2.074   2.381  17.413 -0.4187  3.9775 -0.1740
  343TMC3    H2 5149   2.386   2.168  17.230 -0.5229  1.1800 -2.6006
  343TMC3    C7 5150   2.139   2.164  17.326  0.2827  0.5241 -0.0048
  343TMC3    C8 5151   2.574   2.355  17.262  0.0012 -0.0466 -0.1463
  343TMC3    O1 5152   2.014   2.174  17.329 -0.6828  0.1642  0.0747
  343TMC3    O2 5153   2.656   2.423  17.321 -0.0588  0.5548 -0.4168
  344MPD2     C 5154   2.441   1.902  11.160 -0.3323  0.2036 -0.3834
  344MPD2    C1 5155   2.482   1.849  11.036  0.6645  0.3080 -0.4288
  344MPD2    C2 5156   2.554   1.922  10.949 -0.4236 -0.2472  0.0847
  344MPD2    C3 5157   2.607   2.047  10.994  0.1406  0.2325 -0.0134
  344MPD2    C4 5158   2.577   2.093  11.127  0.5219  0.2267  0.6493
  344MPD2    C5 5159   2.505   2.015  11.213  0.1454 -0.1154 -0.2835
  344MPD2     H 5160   2.575   1.889  10.848  2.7166  0.0059  0.6472
  344MPD2    H1 5161   2.612   2.187  11.166  2.4762 -0.8001  1.3743
  344MPD2    H2 5162   2.378   1.843  11.226  0.1859 -0.8577 -0.8381
  344MPD2    H3 5163   2.498   2.046  11.316  1.6742 -0.9460  0.0871
  344MPD2     N 5164   2.694   2.131  10.917  0.4938 -0.6121 -0.2502
  344MPD2    H5 5165   2.718   2.219  10.961 -1.0180 -0.3227 -0.0192
  344MPD2    N1 5166   2.457   1.719  10.988 -0.2337 -0.3273  0.2635
  344MPD2    H7 5167   2.487   1.699  10.893 -1.7877  0.8123 -0.4644
  345TMC3    C1 5168   2.798   2.236  10.738  0.0247  0.1550  0.5721
  345TMC3    C2 5169   2.888   2.309  10.823  0.1919  0.1241  0.1205
  345TMC3    C3 5170   2.907   2.444  10.792  0.2223 -0.2613 -0.9553
  345TMC3    C4 5171   2.742   2.307  10.627  0.7489  0.6855 -0.7697
  345TMC3    C5 5172   2.755   2.441  10.612  0.1985 -0.2723  0.2201
  345TMC3    C6 5173   2.842   2.507  10.688 -0.2504  0.2534  0.6040
  345TMC3     C 5174   2.726   2.119  10.782 -0.6395 -0.2508  0.3793
  345TMC3     O 5175   2.710   2.026  10.699 -0.4512  0.2603 -0.2639
  345TMC3     H 5176   2.930   2.264  10.912  3.4383  1.0579 -0.9169
  345TMC3    H1 5177   2.673   2.245  10.570  0.8548  0.0405 -0.1899
  345TMC3    H2 5178   2.872   2.607  10.659 -0.4061 -0.1008 -0.7507
  345TMC3    C7 5179   2.708   2.510  10.493 -0.1746 -0.1924 -0.7661
  345TMC3    C8 5180   2.987   2.528  10.882 -0.1433  0.1569  0.3305
  345TMC3    O1 5181   2.736   2.628  10.477  0.6529 -0.2059 -0.7118
  345TMC3    O2 5182   3.025   2.635  10.838 -0.2741 -0.0811  0.0411
  346MPD2     C 5183   2.653   3.858  13.916 -0.0203 -0.0039 -0.2889
  346MPD2    C1 5184   2.754   3.950  13.911 -0.7049  0.1483 -0.0529
  346MPD2    C2 5185   2.812   3.977  14.031  0.1575  0.3659 -0.8122
  346MPD2    C3 5186   2.769   3.918  14.150 -0.0820 -0.2964  0.1279
  346MPD2    C4 5187   2.666   3.823  14.146 -0.3391  0.4684  0.9474
  346MPD2    C5 5188   2.607   3.792  14.029 -0.6620  0.1643  0.1311
  346MPD2     H 5189   2.891   4.051  14.031  0.0614  0.4624  0.4281
  346MPD2    H1 5190   2.634   3.762  14.230 -0.0412 -2.0528 -0.7553
  346MPD2    H2 5191   2.602   3.829  13.825  0.2339  1.9648 -1.0584
  346MPD2    H3 5192   2.523   3.723  14.023 -1.1120  0.6921  0.3730
  346MPD2     N 5193   2.844   3.942  14.262 -0.0714  0.1832  1.3486
  346MPD2    H5 5194   2.930   3.993  14.244  0.9266 -0.8899  3.0545
  346MPD2    N1 5195   2.804   4.012  13.798  0.3466  0.1580 -0.7613
  346MPD2    H7 5196   2.866   4.092  13.808  0.8917 -0.4517  0.7125
  347TMC3    C1 5197   2.916   3.923  14.497 -0.2800 -0.4038 -0.5465
  347TMC3    C2 5198   3.047   3.924  14.457  0.5346  0.4179 -0.4363
  347TMC3    C3 5199   3.134   3.956  14.559  1.0971  0.2133 -0.0403
  347TMC3    C4 5200   2.871   3.949  14.624 -1.0603 -0.6713  0.0468
  347TMC3    C5 5201   2.962   3.985  14.719 -0.3508  1.0653  0.5072
  347TMC3    C6 5202   3.096   3.987  14.691  0.2722 -0.4378  0.1726
  347TMC3     C 5203   2.811   3.915  14.396 -0.2699  0.3937  0.0084
  347TMC3     O 5204   2.701   3.880  14.432 -0.4453  0.6538  0.3241
  347TMC3     H 5205   3.077   3.893  14.358  2.2831 -1.2362  0.6184
  347TMC3    H1 5206   2.768   3.946  14.657 -1.1367  0.2952 -0.1167
  347TMC3    H2 5207   3.164   4.008  14.772 -0.2975 -1.0238  0.8009
  347TMC3    C7 5208   2.919   4.000  14.859  0.6359  0.4263  0.0271
  347TMC3    C8 5209   3.267   3.946  14.525 -0.5361  0.7111  0.7036
  347TMC3    O1 5210   2.811   3.963  14.899 -0.5650 -0.6500  0.1446
  347TMC3    O2 5211   3.298   3.914  14.410 -0.1483 -0.0868 -0.3523
  348MPD2     C 5212   1.828   3.665  12.382 -0.4365  0.3816 -0.1191
  348MPD2    C1 5213   1.727   3.607  12.314  0.1579  0.2875  0.1258
  348MPD2    C2 5214   1.675   3.678  12.205 -0.4747 -0.2279 -0.6313
  348MPD2    C3 5215   1.725   3.804  12.159  0.0956  0.3618  0.6498
  348MPD2    C4 5216   1.824   3.858  12.236  0.2061 -0.4655  1.0335
  348MPD2    C5 5217   1.873   3.791  12.346 -0.4478 -0.5043  0.9979
  348MPD2     H 5218   1.592   3.634  12.152 -0.0838 -2.9109  0.9479
  348MPD2    H1 5219   1.865   3.951  12.199 -0.9107 -0.3416  0.0686
  348MPD2    H2 5220   1.871   3.615  12.468  0.1372  0.5528 -0.3024
  348MPD2    H3 5221   1.949   3.841  12.404  0.9793 -1.6431  0.0976
  348MPD2     N 5222   1.669   3.849  12.041 -0.2693  0.6497  0.3490
  348MPD2    H5 5223   1.602   3.786  11.999  0.5209 -0.4740  0.7925
  348MPD2    N1 5224   1.662   3.489  12.349  0.8278 -0.1678  0.0220
  348MPD2    H7 5225   1.576   3.469  12.300  0.6814 -0.4460  0.3919
  349TMC3    C1 5226   1.598   3.289  12.450  0.4974  0.2852 -0.5657
  349TMC3    C2 5227   1.634   3.174  12.513  0.2537 -0.1785 -0.2617
  349TMC3    C3 5228   1.544   3.068  12.517 -0.0694  0.1004  0.8610
  349TMC3    C4 5229   1.480   3.306  12.382 -0.4809 -0.6131  0.5468
  349TMC3    C5 5230   1.401   3.196  12.378  0.4257 -0.3012  0.4317
  349TMC3    C6 5231   1.427   3.075  12.446 -0.4304  0.0772  0.7436
  349TMC3     C 5232   1.701   3.391  12.432 -0.0680 -0.1833 -0.8623
  349TMC3     O 5233   1.809   3.375  12.487  0.0722 -0.0877  0.3744
  349TMC3     H 5234   1.720   3.169  12.579 -0.1804 -3.1493  0.0714
  349TMC3    H1 5235   1.448   3.401  12.340  1.3700  0.4620  1.5300
  349TMC3    H2 5236   1.358   2.992  12.457 -1.5264  0.5959 -2.3021
  349TMC3    C7 5237   1.292   3.194  12.283  0.1523  0.4848 -0.4510
  349TMC3    C8 5238   1.599   2.940  12.541 -0.2161 -0.0392  0.0341
  349TMC3    O1 5239   1.206   3.108  12.293  0.9165 -0.6552  0.0621
  349TMC3    O2 5240   1.521   2.843  12.557 -0.2193 -0.3114  0.2708
  350MPD2     C 5241   0.732   0.910  10.170 -0.2493 -0.0697  0.2124
  350MPD2    C1 5242   0.638   0.930  10.272 -0.1020  0.1838 -0.8802
  350MPD2    C2 5243   0.614   1.059  10.307 -0.2117  0.3731 -0.6284
  350MPD2    C3 5244   0.676   1.161  10.246 -0.0584 -0.4449  0.6772
  350MPD2    C4 5245   0.756   1.143  10.136 -0.8958  0.1929  0.4793
  350MPD2    C5 5246   0.783   1.011  10.096  0.1592  0.7255 -0.2606
  350MPD2     H 5247   0.550   1.066  10.394  3.4780  1.9313  1.9533
  350MPD2    H1 5248   0.810   1.222  10.085 -2.1683 -0.1838 -1.4309
  350MPD2    H2 5249   0.756   0.806  10.149 -0.2918 -0.0268 -0.0404
  350MPD2    H3 5250   0.853   0.997  10.014 -0.2333 -1.4077 -0.2188
  350MPD2     N 5251   0.658   1.287  10.306  0.2262  0.1829  0.4191
  350MPD2    H5 5252   0.610   1.282  10.396 -2.3350 -0.5777 -0.9795
  350MPD2    N1 5253   0.582   0.822  10.334 -0.7160 -0.0523 -0.4094
  350MPD2    H7 5254   0.616   0.732  10.303 -2.2351 -1.3578  1.6798
  351TMC3    C1 5255   0.466   0.683  10.470 -0.4312  0.6600 -0.0957
  351TMC3    C2 5256   0.421   0.682  10.595 -0.7133 -0.1206  0.3878
  351TMC3    C3 5257   0.333   0.592  10.629  0.4431  0.0103  0.3125
  351TMC3    C4 5258   0.424   0.597  10.371 -0.0137  0.1518  0.3006
  351TMC3    C5 5259   0.333   0.503  10.413  0.5259  0.3171 -0.3656
  351TMC3    C6 5260   0.280   0.505  10.542 -0.2684 -0.2940 -0.0536
  351TMC3     C 5261   0.477   0.822  10.425 -0.4350 -0.3704  0.6364
  351TMC3     O 5262   0.389   0.906  10.456 -0.0463 -0.0332 -0.6238
  351TMC3     H 5263   0.454   0.756  10.667  1.8502 -0.1409 -0.7758
  351TMC3    H1 5264   0.455   0.606  10.267 -1.5613  2.0898  0.0130
  351TMC3    H2 5265   0.212   0.432  10.586 -1.8029  1.0991 -0.1132
  351TMC3    C7 5266   0.324   0.372  10.344  0.7418 -0.0992 -0.3823
  351TMC3    C8 5267   0.316   0.575  10.778 -0.8132 -0.1718 -0.1723
  351TMC3    O1 5268   0.405   0.350  10.259 -0.0080  0.3417 -0.4805
  351TMC3    O2 5269   0.298   0.681  10.838 -0.1403  0.2073 -0.0216
  352MPD2     C 5270   0.417   4.067   0.011 -0.4841  0.5456  0.5467
  352MPD2    C1 5271   0.301   3.994   0.037  0.2321 -0.2875 -0.2163
  352MPD2    C2 5272   0.299   3.855   0.018 -0.2371  0.4001 -0.2619
  352MPD2    C3 5273   0.418   3.795   0.003  0.0613 -0.4034  0.3472
  352MPD2    C4 5274   0.539   3.867  17.687 -0.0510 -0.3413  0.1080
  352MPD2    C5 5275   0.538   4.003  17.687 -0.0820  0.2851 -0.4214
  352MPD2     H 5276   0.210   3.792   0.022  0.4575 -0.6219 -0.8814
  352MPD2    H1 5277   0.631   3.819  17.659  0.1171 -1.7587  3.1634
  352MPD2    H2 5278   0.426   4.174   0.023  0.4926  0.8340 -2.9269
  352MPD2    H3 5279   0.632   4.057  17.675  0.5701 -0.2993  2.2349
  352MPD2     N 5280   0.434   3.657  17.684 -0.2821 -1.0883  0.4157
  352MPD2    H5 5281   0.525   3.617   0.004 -1.2240 -2.4113  2.0718
  352MPD2    N1 5282   0.178   4.065   0.062  0.0777 -1.0032 -0.1517
  352MPD2    H7 5283   0.185   4.166   0.049  0.5623 -1.5529 -4.1618
  353TMC3    C1 5284   0.362   3.429  17.688 -0.4123 -0.0078  0.5943
  353TMC3    C2 5285   0.451   3.401   0.089 -0.0543  0.2904 -0.2518
  353TMC3    C3 5286   0.442   3.273   0.143 -0.0406  0.5953  0.0898
  353TMC3    C4 5287   0.271   3.337  17.634 -0.0532 -0.2446  0.1296
  353TMC3    C5 5288   0.251   3.227   0.008 -0.1092  0.0223 -0.1788
  353TMC3    C6 5289   0.334   3.195   0.113  0.4278  0.4148  0.3969
  353TMC3     C 5290   0.332   3.569  17.657  0.1320 -0.2314  0.5305
  353TMC3     O 5291   0.223   3.589  17.605 -0.0024  0.2267 -0.8263
  353TMC3     H 5292   0.513   3.481   0.129  0.1198 -1.4272  2.9345
  353TMC3    H1 5293   0.208   3.376  17.555  1.5446 -1.2031 -1.6394
  353TMC3    H2 5294   0.306   3.110   0.174 -0.3034 -0.4217 -1.0800
  353TMC3    C7 5295   0.125   3.158   0.007 -0.2398 -0.3051 -0.0218
  353TMC3    C8 5296   0.527   3.244   0.255 -0.6481 -0.6137  0.7851
  353TMC3    O1 5297   0.094   3.084   0.099 -0.5970  0.1700 -0.1900
  353TMC3    O2 5298   0.597   3.340   0.294  0.1627  0.1810  0.1918
  354TMC3    C1 5299   0.379   4.225  13.527 -0.7935  0.3767  0.2826
  354TMC3    C2 5300   0.336   4.357  13.511  0.6039  1.0844  0.0514
  354TMC3    C3 5301   0.363   4.424  13.395 -0.3577  0.3541 -0.6610
  354TMC3    C4 5302   0.448   4.161  13.426  0.2372  0.4179 -0.7753
  354TMC3    C5 5303   0.475   4.239  13.314  0.0049  0.1447 -0.5313
  354TMC3    C6 5304   0.426   4.363  13.289 -0.7217  0.4841 -0.2030
  354TMC3     C 5305   0.347   4.164  13.656 -0.5793 -0.3989  0.5581
  354TMC3     O 5306   0.319   4.045  13.645 -0.3569  0.2965  0.4024
  354TMC3     H 5307   0.292   4.412  13.593  0.8332 -1.4286  1.8439
  354TMC3    H1 5308   0.504   4.072  13.451 -0.6594  0.5915  1.7937
  354TMC3    H2 5309   0.470   4.419  13.208 -1.2695 -0.5117 -1.1860
  354TMC3    C7 5310   0.579   4.182  13.228 -0.1962 -0.1105 -0.2253
  354TMC3    C8 5311   0.363   4.571  13.400 -0.1402 -0.0687 -0.1064
  354TMC3    O1 5312   0.653   4.107  13.290 -0.1077 -0.3762  0.0456
  354TMC3    O2 5313   0.351   4.622  13.509  0.1983  0.3858  0.1711
  355MPD2     C 5314   0.660   0.387  12.027 -0.4598  0.6737 -1.1414
  355MPD2    C1 5315   0.646   0.464  11.915 -0.4291 -0.5086  0.8416
  355MPD2    C2 5316   0.755   0.473  11.829 -0.1528  0.3119 -0.5068
  355MPD2    C3 5317   0.875   0.408  11.857 -0.0135  0.0896 -0.2449
  355MPD2    C4 5318   0.882   0.318  11.967 -0.0294  0.1190 -0.2876
  355MPD2    C5 5319   0.773   0.311  12.053 -0.0950 -0.7621 -0.5577
  355MPD2     H 5320   0.753   0.532  11.738 -0.4257 -1.1745 -1.4738
  355MPD2    H1 5321   0.962   0.249  11.991 -0.5334 -1.0325 -1.9074
  355MPD2    H2 5322   0.576   0.371  12.094 -0.1203  0.9832 -0.6390
  355MPD2    H3 5323   0.774   0.245  12.139 -1.6655 -0.0455  0.0004
  355MPD2     N 5324   0.998   0.446  11.796  0.0745 -0.0719  0.1741
  355MPD2    H5 5325   1.085   0.410  11.835  1.8282  0.5303 -3.1458
  355MPD2    N1 5326   0.535   0.550  11.912 -0.2055 -0.5719  0.2170
  355MPD2    H7 5327   0.475   0.547  11.994  0.7929  1.5311  1.0373
  356TMC3    C1 5328   1.148   0.614  11.738  0.0486 -0.7825  0.2426
  356TMC3    C2 5329   1.159   0.744  11.689  0.4072  0.4048  0.4458
  356TMC3    C3 5330   1.212   0.845  11.761  0.1089 -0.4675  0.6955
  356TMC3    C4 5331   1.190   0.595  11.871 -0.2033 -0.7036 -0.2538
  356TMC3    C5 5332   1.238   0.698  11.939 -1.4552 -0.2990  0.0629
  356TMC3    C6 5333   1.265   0.825  11.886  0.2492  0.1467  0.0561
  356TMC3     C 5334   1.021   0.557  11.710  0.1726  0.2184 -0.3715
  356TMC3     O 5335   0.952   0.624  11.640 -0.1188 -0.0297 -0.4575
  356TMC3     H 5336   1.136   0.771  11.587 -2.0667  0.7604  1.1107
  356TMC3    H1 5337   1.170   0.507  11.931  1.7025  0.2813  1.8038
  356TMC3    H2 5338   1.343   0.891  11.921  2.5276 -2.6579  0.2382
  356TMC3    C7 5339   1.267   0.673  12.077 -0.0906  0.5556 -0.8223
  356TMC3    C8 5340   1.252   0.965  11.678  1.4815 -0.4559 -0.1233
  356TMC3    O1 5341   1.261   0.559  12.123  0.2706 -0.2443 -0.0729
  356TMC3    O2 5342   1.205   0.965  11.563  0.2823 -0.9901  0.5758
  357MPD2     C 5343   0.625   1.359   0.872  0.3056 -0.2264 -0.4580
  357MPD2    C1 5344   0.628   1.230   0.928 -0.4063 -0.1606 -0.0454
  357MPD2    C2 5345   0.516   1.153   0.926  0.3099 -0.3822 -0.0526
  357MPD2    C3 5346   0.403   1.197   0.860  0.3121 -0.8101 -0.2306
  357MPD2    C4 5347   0.408   1.316   0.794 -0.2987  0.0822  0.5951
  357MPD2    C5 5348   0.518   1.399   0.803 -0.9394 -0.0134 -0.0471
  357MPD2     H 5349   0.526   1.055   0.970  0.7077 -0.2085  0.2469
  357MPD2    H1 5350   0.324   1.343   0.731  0.0241 -0.4845 -0.0845
  357MPD2    H2 5351   0.720   1.411   0.875  0.3770 -0.4142  0.7062
  357MPD2    H3 5352   0.517   1.495   0.752 -1.3006  1.1676  2.1837
  357MPD2     N 5353   0.288   1.115   0.847  0.1615  0.0282  0.5658
  357MPD2    H5 5354   0.221   1.144   0.776  2.4899  3.4929 -0.2127
  357MPD2    N1 5355   0.755   1.177   0.978 -0.1143 -0.7069  0.4246
  357MPD2    H7 5356   0.842   1.229   0.974 -1.2987  1.3526  1.2728
  358TMC3    C1 5357   0.907   1.052   1.105 -0.1496 -0.2726 -0.2001
  358TMC3    C2 5358   0.979   0.991   0.999  0.0317 -0.0921  0.4109
  358TMC3    C3 5359   1.050   0.876   1.023  0.9791 -0.0282 -0.3240
  358TMC3    C4 5360   0.908   0.993   1.231  0.1814 -0.3847  0.8989
  358TMC3    C5 5361   0.990   0.887   1.248  0.0274 -0.2757 -0.4494
  358TMC3    C6 5362   1.071   0.830   1.152 -0.5792 -0.0248 -0.1884
  358TMC3     C 5363   0.769   1.074   1.074  0.3725  0.4679  0.0199
  358TMC3     O 5364   0.696   0.982   1.111 -0.1997 -0.4623  0.3514
  358TMC3     H 5365   0.960   1.019   0.896  1.6991  2.6436  0.8562
  358TMC3    H1 5366   0.852   1.038   1.312 -0.1480 -0.0281  0.4706
  358TMC3    H2 5367   1.100   0.726   1.160 -1.1175 -0.1996 -0.5569
  358TMC3    C7 5368   0.997   0.821   1.373  0.2320 -0.1139 -0.7588
  358TMC3    C8 5369   0.987   0.771   0.949 -0.3332 -0.0521 -1.0876
  358TMC3    O1 5370   1.084   0.735   1.389 -0.7286 -0.1818 -0.4770
  358TMC3    O2 5371   1.061   0.682   0.910  0.1546  0.1554  0.0919
  359MPD2     C 5372   1.393   4.084  12.142  0.5144 -0.1282  0.2888
  359MPD2    C1 5373   1.294   4.097  12.045 -0.5604 -0.4189 -0.2720
  359MPD2    C2 5374   1.173   4.021  12.061  0.6428  0.1572  0.1316
  359MPD2    C3 5375   1.163   3.934  12.173 -0.5803  1.2611 -0.5461
  359MPD2    C4 5376   1.265   3.929  12.271  0.2498 -0.3486 -0.2713
  359MPD2    C5 5377   1.369   4.010  12.254 -0.4482  0.9501 -0.3374
  359MPD2     H 5378   1.099   4.025  11.982  0.5821  0.5372  0.2064
  359MPD2    H1 5379   1.264   3.861  12.355  0.4405  0.9003  0.7566
  359MPD2    H2 5380   1.484   4.142  12.132 -0.4181  1.1354 -0.6946
  359MPD2    H3 5381   1.448   4.002  12.328  0.3406  2.1461 -1.0581
  359MPD2     N 5382   1.059   3.840  12.193 -0.0243 -0.6366 -0.3140
  359MPD2    H5 5383   1.077   3.770  12.264  0.5569 -1.0005 -0.8114
  359MPD2    N1 5384   1.307   4.175  11.925 -0.3386  0.0791 -0.0832
  359MPD2    H7 5385   1.228   4.185  11.863 -0.8937  0.1849  0.6393
  360TMC3    C1 5386   1.410   4.283  11.756  0.5705 -0.3883 -0.1519
  360TMC3    C2 5387   1.496   4.381  11.716  0.5033  0.0097  0.2834
  360TMC3    C3 5388   1.498   4.414  11.581 -0.6394  0.0556  0.2051
  360TMC3    C4 5389   1.354   4.198  11.667 -0.2043  0.0916  0.1511
  360TMC3    C5 5390   1.371   4.221  11.536 -0.1007 -0.1636  0.8918
  360TMC3    C6 5391   1.435   4.339  11.491 -0.8560 -0.4591  0.8262
  360TMC3     C 5392   1.413   4.251  11.896 -0.2506 -0.0369 -0.4648
  360TMC3     O 5393   1.518   4.278  11.959 -0.1887  0.1660 -0.5814
  360TMC3     H 5394   1.519   4.447  11.799 -0.5030  3.1670 -1.9279
  360TMC3    H1 5395   1.300   4.111  11.703 -0.6071 -0.1708 -1.0881
  360TMC3    H2 5396   1.431   4.373  11.388  1.2340 -0.8887  0.6064
  360TMC3    C7 5397   1.265   4.180  11.447 -0.5301 -0.1895 -0.2390
  360TMC3    C8 5398   1.555   4.535  11.544  0.1436 -0.6031  0.0618
  360TMC3    O1 5399   1.302   4.173  11.331 -0.5161  0.3669 -0.3230
  360TMC3    O2 5400   1.506   4.600  11.451  0.5896 -0.0226  0.2460
  361MPD2     C 5401   3.200   2.770  16.283  0.0109 -0.4354  0.4302
  361MPD2    C1 5402   3.190   2.833  16.402  0.0920 -0.1897  0.8814
  361MPD2    C2 5403   3.280   2.804  16.502  0.9735 -1.0393  0.5732
  361MPD2    C3 5404   3.387   2.711  16.486 -0.1962  0.0810  0.2435
  361MPD2    C4 5405   3.389   2.643  16.367  0.0484  0.4055  0.0216
  361MPD2    C5 5406   3.298   2.675  16.268 -0.5218  0.0478 -0.5674
  361MPD2     H 5407   3.269   2.855  16.597 -0.5330 -1.6214  0.7134
  361MPD2    H1 5408   3.453   2.557  16.349  0.4285  0.7378 -0.2167
  361MPD2    H2 5409   3.135   2.786  16.197 -0.4594 -1.2945  0.6267
  361MPD2    H3 5410   3.293   2.608  16.183 -1.0867 -1.8827  0.9692
  361MPD2     N 5411   3.480   2.678  16.583 -0.1016  0.6380  0.1024
  361MPD2    H5 5412   3.548   2.607  16.560 -1.4848 -0.7094  0.1692
  361MPD2    N1 5413   3.082   2.921  16.435 -0.8304  0.1399  0.4539
  361MPD2    H7 5414   3.084   2.953  16.531 -2.1477  0.2098  0.4495
  362TMC3    C1 5415   2.867   3.013  16.445 -0.0893  0.1857  0.8220
  362TMC3    C2 5416   2.883   3.006  16.579 -0.3209  0.2022 -0.1475
  362TMC3    C3 5417   2.803   3.084  16.652 -0.2761 -1.3939  0.1762
  362TMC3    C4 5418   2.788   3.104  16.376 -0.5723  0.2901 -0.3604
  362TMC3    C5 5419   2.727   3.195  16.455 -0.1073 -0.1542 -0.0678
  362TMC3    C6 5420   2.724   3.183  16.596 -0.0272  0.5313  0.1113
  362TMC3     C 5421   2.972   2.950  16.365  0.3584  0.5930 -1.2677
  362TMC3     O 5422   2.961   2.940  16.246  0.0102  0.1953  0.1920
  362TMC3     H 5423   2.955   2.946  16.632 -1.3116 -1.0120 -0.1827
  362TMC3    H1 5424   2.808   3.114  16.270  0.5456 -0.5972 -0.2404
  362TMC3    H2 5425   2.648   3.238  16.649 -2.3326 -2.7540  0.2653
  362TMC3    C7 5426   2.634   3.292  16.402  0.5711  0.0283  0.4815
  362TMC3    C8 5427   2.808   3.070  16.800  0.4074  0.8493 -0.1163
  362TMC3    O1 5428   2.605   3.390  16.470 -0.3820  0.3393  0.1208
  362TMC3    O2 5429   2.880   2.983  16.847  0.5850 -0.2520 -0.3308
  363TMC3    C1 5430   0.673   0.057   9.621 -0.3677 -0.8018  0.6629
  363TMC3    C2 5431   0.773   0.018   9.714 -0.5337 -0.1780  0.4567
  363TMC3    C3 5432   0.860   0.117   9.753  0.1984 -0.1845  0.0236
  363TMC3    C4 5433   0.671   0.178   9.568 -0.2629  0.5640  0.6773
  363TMC3    C5 5434   0.759   0.272   9.616  0.3663  0.2501  0.1580
  363TMC3    C6 5435   0.850   0.246   9.712 -0.0846 -0.1134  0.3915
  363TMC3     C 5436   0.573   4.684   9.579 -0.0956  0.7872 -0.1932
  363TMC3     O 5437   0.461   4.723   9.538 -0.2039  0.1168 -0.0910
  363TMC3     H 5438   0.759   4.651   9.770  0.3296 -0.4561  0.2176
  363TMC3    H1 5439   0.594   0.194   9.494  1.3794  1.0938 -0.9215
  363TMC3    H2 5440   0.888   0.333   9.764  1.7762 -1.1811  0.7986
  363TMC3    C7 5441   0.750   0.412   9.578  0.7175 -0.2684 -0.7129
  363TMC3    C8 5442   0.937   0.099   9.874 -0.4411  0.3365 -0.2433
  363TMC3    O1 5443   0.855   0.471   9.558  0.2864 -0.6986 -0.2477
  363TMC3    O2 5444   0.964   0.204   9.929  0.1337  0.4287  0.2704
  364MPD2     C 5445   4.699   0.604  10.840 -0.3612  0.5256 -0.5275
  364MPD2    C1 5446   4.685   0.537  10.717 -0.3308  0.2206  0.5041
  364MPD2    C2 5447   4.664   0.407  10.716 -0.4588  0.4223  0.4936
  364MPD2    C3 5448   4.652   0.343  10.840  0.3254  0.0504  0.1226
  364MPD2    C4 5449   4.671   0.414  10.958  0.0452  0.4274 -0.4069
  364MPD2    C5 5450   4.690   0.546  10.960  0.4866  0.2225 -0.0292
  364MPD2     H 5451   4.650   0.349  10.626 -1.7823  1.1777  0.2085
  364MPD2    H1 5452   4.668   0.354  11.048  0.2738  2.0135  0.6459
  364MPD2    H2 5453   4.722   0.710  10.845  2.2704  0.0702 -2.5549
  364MPD2    H3 5454   4.705   0.598  11.054  1.3463 -1.1236  0.5820
  364MPD2     N 5455   4.645   0.203  10.860  0.3348  0.0346 -0.5884
  364MPD2    H5 5456   4.614   0.176  10.953 -1.0338 -0.4728 -1.2037
  364MPD2    N1 5457   4.703   0.617  10.607 -0.2948 -0.3341  0.3674
  364MPD2    H7 5458   0.018   0.708  10.625  0.1201 -0.3241 -0.5959
  365TMC3    C1 5459   4.721   0.689  10.389  1.1288 -0.2835 -1.2594
  365TMC3    C2 5460   0.026   0.664  10.261  0.1738  0.3522  0.5390
  365TMC3    C3 5461   0.044   0.776  10.184 -0.8099 -0.5645  0.5120
  365TMC3    C4 5462   4.702   0.820  10.435  0.0884 -0.2732  0.8120
  365TMC3    C5 5463   0.017   0.925  10.355 -0.6585  0.6769  0.1629
  365TMC3    C6 5464   0.055   0.908  10.229 -0.4649 -0.1928  0.0322
  365TMC3     C 5465   4.707   0.577  10.480  0.2289  0.1314  0.5201
  365TMC3     O 5466   4.723   0.462  10.438 -0.0420 -1.0102 -0.9369
  365TMC3     H 5467   0.028   0.562  10.224  1.4236  0.1328  1.2092
  365TMC3    H1 5468   4.674   0.841  10.538 -0.0788 -1.5981  1.0348
  365TMC3    H2 5469   0.061   0.991  10.159 -1.9112 -0.9193 -0.9593
  365TMC3    C7 5470   0.048   1.058  10.401  0.1585 -0.3876 -0.6024
  365TMC3    C8 5471   0.045   0.753  10.036 -0.2942  0.1515 -0.0507
  365TMC3    O1 5472   0.129   1.130  10.344 -0.3832  0.3152  0.3933
  365TMC3    O2 5473   0.099   0.840   9.965  0.4244 -0.2219 -0.6553
  366MPD2     C 5474   3.232   1.231  15.425  0.3736 -0.1938  0.6672
  366MPD2    C1 5475   3.280   1.338  15.361  0.4199 -0.0644  0.3743
  366MPD2    C2 5476   3.398   1.315  15.299  0.0201 -0.0260  0.2404
  366MPD2    C3 5477   3.448   1.187  15.271 -0.4422 -0.0314  0.7011
  366MPD2    C4 5478   3.387   1.080  15.341  0.1329 -0.3431 -0.2727
  366MPD2    C5 5479   3.282   1.110  15.417 -0.0884  0.6510  0.1116
  366MPD2     H 5480   3.449   1.404  15.264  0.6011  0.4061  2.2159
  366MPD2    H1 5481   3.414   0.975  15.339  1.8760  0.0885 -0.0591
  366MPD2    H2 5482   3.134   1.232  15.471  0.4102 -0.8940  0.7631
  366MPD2    H3 5483   3.225   1.032  15.467  1.6343 -0.2225  0.7039
  366MPD2     N 5484   3.559   1.166  15.185 -0.2126  0.1017  0.6648
  366MPD2    H5 5485   3.591   1.247  15.134  0.1876 -0.6784 -0.3235
  366MPD2    N1 5486   3.225   1.463  15.379 -0.0645  0.3681  0.2471
  366MPD2    H7 5487   3.289   1.537  15.351 -0.5713  0.2210 -1.2607
  367TMC3    C1 5488   3.073   1.626  15.449 -0.3140  0.6440  0.1721
  367TMC3    C2 5489   3.172   1.709  15.502  0.3455  1.0260 -0.3220
  367TMC3    C3 5490   3.192   1.831  15.442 -0.2082 -0.3427 -0.6077
  367TMC3    C4 5491   3.002   1.665  15.336  0.3608  0.1393  0.6024
  367TMC3    C5 5492   3.036   1.782  15.274  0.2230  0.2381 -0.1375
  367TMC3    C6 5493   3.128   1.869  15.327  0.9703 -0.2981 -0.3648
  367TMC3     C 5494   3.104   1.494  15.440  0.3207  0.0094 -0.0906
  367TMC3     O 5495   3.003   1.425  15.462  0.2713 -0.7142  0.5666
  367TMC3     H 5496   3.236   1.680  15.585  0.4343  0.1958 -0.6818
  367TMC3    H1 5497   2.915   1.607  15.310  0.5964  0.2492 -0.4372
  367TMC3    H2 5498   3.126   1.970  15.288  1.5573 -0.0001  0.3688
  367TMC3    C7 5499   2.965   1.819  15.156 -0.0998  0.0912 -0.0582
  367TMC3    C8 5500   3.324   1.889  15.469  0.0256 -0.2133  0.5117
  367TMC3    O1 5501   2.963   1.937  15.122 -0.4027 -0.2529 -0.3214
  367TMC3    O2 5502   3.370   1.859  15.580 -0.5294  0.0346 -0.2121
  368MPD2     C 5503   4.271   3.338  13.350 -0.5642  0.1778  0.3925
  368MPD2    C1 5504   4.284   3.468  13.325 -0.0662  0.1800 -0.5719
  368MPD2    C2 5505   4.399   3.516  13.262  0.6246 -0.6943  0.2169
  368MPD2    C3 5506   4.489   3.433  13.210 -0.1163  0.1248 -0.8619
  368MPD2    C4 5507   4.475   3.299  13.244  0.4061 -0.4703 -0.2182
  368MPD2    C5 5508   4.371   3.252  13.316  0.3387  0.3012 -0.2617
  368MPD2     H 5509   4.397   3.622  13.244 -0.9259 -0.4115  2.0429
  368MPD2    H1 5510   4.532   3.220  13.196 -0.8912 -1.6902  0.2409
  368MPD2    H2 5511   4.181   3.304  13.400 -1.0643  1.0758  0.0960
  368MPD2    H3 5512   4.355   3.147  13.338 -0.6116  0.8885  1.8125
  368MPD2     N 5513   4.595   3.476  13.118  0.5748 -0.4736 -0.5497
  368MPD2    H5 5514   4.661   3.412  13.075  0.7186  1.8980 -3.8572
  368MPD2    N1 5515   4.169   3.545  13.356  0.0608  0.4671 -0.2373
  368MPD2    H7 5516   4.088   3.496  13.391  0.5159  0.7706  1.2493
  369TMC3    C1 5517   4.002   3.709  13.326 -0.3588 -0.4352  0.3344
  369TMC3    C2 5518   3.984   3.817  13.244  0.0479  0.0460  0.0012
  369TMC3    C3 5519   3.892   3.812  13.146 -0.2896 -0.0881  0.2490
  369TMC3    C4 5520   3.909   3.613  13.327  1.0354  0.7149  0.4098
  369TMC3    C5 5521   3.804   3.619  13.239  0.1466  0.2522  0.6207
  369TMC3    C6 5522   3.790   3.721  13.148 -0.5127  0.1918  0.1992
  369TMC3     C 5523   4.144   3.674  13.315 -0.2744  0.2437  0.1601
  369TMC3     O 5524   4.219   3.750  13.262 -0.5226  0.5823  0.1037
  369TMC3     H 5525   4.054   3.900  13.241  1.3896 -1.0460  1.4262
  369TMC3    H1 5526   3.901   3.539  13.406  1.3645  0.3973  0.1448
  369TMC3    H2 5527   3.713   3.721  13.072  0.3826  1.3258 -0.6909
  369TMC3    C7 5528   3.676   3.560  13.288  0.5543 -0.1711 -0.0095
  369TMC3    C8 5529   3.954   3.828  13.015  0.7131 -0.5278  0.2090
  369TMC3    O1 5530   3.663   3.558  13.407 -0.2087 -0.6257  0.2049
  369TMC3    O2 5531   3.867   3.831  12.928 -0.0254 -0.2476  0.1252
  370TMC3    C1 5532   3.928   4.000  15.975 -0.1275 -0.4767 -0.0304
  370TMC3    C2 5533   3.848   3.903  16.026 -0.2669 -0.0040  0.2628
  370TMC3    C3 5534   3.852   3.780  15.972  0.1460 -0.8364  0.3276
  370TMC3    C4 5535   4.008   3.978  15.863 -0.4879 -0.3927 -0.0530
  370TMC3    C5 5536   3.992   3.859  15.802  0.2684  0.1456 -0.0762
  370TMC3    C6 5537   3.912   3.757  15.851  0.2895 -0.5130  0.1382
  370TMC3     C 5538   3.990   4.076  16.086  0.6180 -0.4230 -0.1514
  370TMC3     O 5539   3.982   4.027  16.198  0.0768 -0.0606 -0.9631
  370TMC3     H 5540   3.789   3.928  16.113 -0.2442  1.1482 -0.0543
  370TMC3    H1 5541   4.072   4.056  15.824 -1.6865  0.5110 -0.2067
  370TMC3    H2 5542   3.898   3.662  15.799  1.7577 -0.9156  0.4826
  370TMC3    C7 5543   4.078   3.827  15.687  0.0528  0.3846 -0.2178
  370TMC3    C8 5544   3.858   3.665  16.063 -1.4141  0.1354 -0.0275
  370TMC3    O1 5545   4.130   3.926  15.648 -0.6508 -0.0593  0.0799
  370TMC3    O2 5546   3.882   3.554  16.008 -0.4526  0.3470  0.4709
  371TMC3    C1 5547   0.578   2.166  15.631  0.5900  0.1513 -1.0789
  371TMC3    C2 5548   0.443   2.159  15.600 -0.0113 -0.4993  0.4613
  371TMC3    C3 5549   0.377   2.276  15.573 -0.0433 -0.0945 -0.4103
  371TMC3    C4 5550   0.647   2.279  15.607  0.0139 -0.3904  0.1859
  371TMC3    C5 5551   0.580   2.393  15.573  0.1597  0.1655  0.2761
  371TMC3    C6 5552   0.443   2.397  15.551 -0.1663  0.4548 -0.2313
  371TMC3     C 5553   0.657   2.043  15.608  0.3397 -0.6564 -0.1870
  371TMC3     O 5554   0.776   2.052  15.619  0.2752  0.3815  1.0103
  371TMC3     H 5555   0.389   2.068  15.625 -0.4847 -0.0129  1.2194
  371TMC3    H1 5556   0.755   2.275  15.615  0.0178  0.8590  0.7963
  371TMC3    H2 5557   0.390   2.490  15.531 -0.0650  0.5128 -0.2267
  371TMC3    C7 5558   0.656   2.511  15.534 -0.9065 -0.2789 -0.0288
  371TMC3    C8 5559   0.235   2.270  15.580  0.5609 -0.2540 -0.1006
  371TMC3    O1 5560   0.591   2.588  15.462  0.0387  0.7045 -0.4559
  371TMC3    O2 5561   0.173   2.176  15.532 -0.0240  0.4620 -0.0660
  372MPD2     C 5562   4.595   3.494  13.930 -0.4723 -0.1698  0.5921
  372MPD2    C1 5563   4.697   3.416  13.949 -0.0172  0.6105 -0.0666
  372MPD2    C2 5564   4.666   3.280  13.961  0.3355  0.1969 -0.8203
  372MPD2    C3 5565   4.535   3.237  13.971 -0.0339 -0.2243  1.1828
  372MPD2    C4 5566   4.428   3.321  13.974 -0.3643  0.2919  0.4940
  372MPD2    C5 5567   4.460   3.455  13.944  0.4348 -0.0951  0.2993
  372MPD2     H 5568   0.019   3.206  13.974  0.3312 -0.0387 -2.2009
  372MPD2    H1 5569   4.325   3.292  13.993 -0.5599  0.8447  0.2887
  372MPD2    H2 5570   4.618   3.600  13.927  1.7290 -0.7037 -1.7911
  372MPD2    H3 5571   4.384   3.531  13.955 -0.5488 -0.5969 -3.0212
  372MPD2     N 5572   4.521   3.098  13.992 -0.4762  0.1583 -0.5700
  372MPD2    H5 5573   4.611   3.051  13.999 -0.1684  0.6199 -1.4139
  372MPD2    N1 5574   0.106   3.461  13.939  0.1526  0.2492 -0.5932
  372MPD2    H7 5575   0.176   3.391  13.962  0.9438  1.1154 -0.3785
  373TMC3    C1 5576   4.418   2.889  14.035  0.2992 -0.7193  0.1554
  373TMC3    C2 5577   4.507   2.869  14.140 -0.2958  0.2019  0.1801
  373TMC3    C3 5578   4.507   2.738  14.193  0.4597  0.2265 -0.0141
  373TMC3    C4 5579   4.348   2.785  13.978  0.3096 -0.4184 -0.2293
  373TMC3    C5 5580   4.377   2.652  14.014  0.6504  0.1827  0.4727
  373TMC3    C6 5581   4.447   2.632  14.130 -0.1764 -0.6344 -0.3770
  373TMC3     C 5582   4.406   3.023  13.979  0.0373 -0.0032  0.7577
  373TMC3     O 5583   4.315   3.045  13.900 -0.5173 -0.4948 -0.2716
  373TMC3     H 5584   4.572   2.948  14.176  2.5072 -1.5535 -1.0319
  373TMC3    H1 5585   4.301   2.807  13.883 -1.6382  0.2820  0.9122
  373TMC3    H2 5586   4.470   2.528  14.149  0.4027  0.2732  3.8355
  373TMC3    C7 5587   4.420   2.558  13.912  0.1532  0.8586  0.1571
  373TMC3    C8 5588   4.633   2.706  14.262 -0.4490 -0.2773  0.0199
  373TMC3    O1 5589   4.532   2.510  13.929 -0.5181 -0.7652 -0.1320
  373TMC3    O2 5590   4.719   2.786  14.240 -0.0868  0.2743 -0.2257
  374TMC3    C1 5591   4.590   3.539  10.583 -0.2059  0.6933  0.2971
  374TMC3    C2 5592   4.689   3.634  10.601  0.6359 -0.7309 -0.5624
  374TMC3    C3 5593   4.672   3.755  10.538  0.2173  0.0981 -0.3027
  374TMC3    C4 5594   4.465   3.568  10.526  0.3579  0.2443 -0.0554
  374TMC3    C5 5595   4.461   3.693  10.467 -0.3230 -0.1537 -0.0411
  374TMC3    C6 5596   4.554   3.794  10.488 -0.0844  0.0574 -0.4383
  374TMC3     C 5597   4.631   3.401  10.613  0.1428 -0.5653 -0.6097
  374TMC3     O 5598   4.721   3.394  10.693 -0.0950 -0.4669  0.7649
  374TMC3     H 5599   0.060   3.595  10.633  1.1617  1.9983  1.1513
  374TMC3    H1 5600   4.384   3.496  10.523 -0.0992  0.7228  0.6119
  374TMC3    H2 5601   4.550   3.884  10.428 -0.8385 -0.4715 -1.1852
  374TMC3    C7 5602   4.336   3.742  10.417  0.9791 -0.6135  0.0230
  374TMC3    C8 5603   0.053   3.856  10.541  0.1099 -0.9693 -0.0869
  374TMC3    O1 5604   4.315   3.861  10.431 -0.3564 -0.2084  0.1456
  374TMC3    O2 5605   0.027   3.957  10.479 -0.6186  0.1451  1.1494
  375MPD2     C 5606   0.577   4.175  17.155  0.2952  0.8283 -0.4594
  375MPD2    C1 5607   0.543   4.218  17.033  0.1244 -0.3034  0.2865
  375MPD2    C2 5608   0.620   4.184  16.920 -0.1659  0.2851  0.2301
  375MPD2    C3 5609   0.723   4.094  16.927 -0.0247  0.6836 -0.1487
  375MPD2    C4 5610   0.759   4.053  17.055  0.4745 -0.2713  0.6437
  375MPD2    C5 5611   0.686   4.094  17.169 -0.3840  0.5201  0.2510
  375MPD2     H 5612   0.583   4.234  16.831 -0.4702 -0.9237 -0.3312
  375MPD2    H1 5613   0.842   3.987  17.078  1.9465  0.6777 -2.0237
  375MPD2    H2 5614   0.532   4.206  17.249  2.2639  1.8385  0.1533
  375MPD2    H3 5615   0.702   4.057  17.269  2.8482  0.7230 -0.1935
  375MPD2     N 5616   0.787   4.049  16.812 -1.3067 -0.0771 -0.2358
  375MPD2    H5 5617   0.857   3.975  16.816 -1.7117 -0.4131  0.5622
  375MPD2    N1 5618   0.433   4.310  17.013 -0.1845  0.1166  0.3273
  375MPD2    H7 5619   0.411   4.327  16.915  0.4734 -2.9752 -0.3723
  376TMC3    C1 5620   0.826   4.010  16.590  0.1372 -0.5773 -0.0171
  376TMC3    C2 5621   0.942   3.947  16.630  0.5735 -0.7355  0.1124
  376TMC3    C3 5622   0.993   3.840  16.558 -0.0558  0.0938 -0.0794
  376TMC3    C4 5623   0.760   3.969  16.482 -0.0384 -0.1670 -0.7696
  376TMC3    C5 5624   0.802   3.861  16.415  0.6542 -0.2816 -0.2075
  376TMC3    C6 5625   0.920   3.798  16.449 -0.4561  0.8938 -0.2782
  376TMC3     C 5626   0.748   4.084  16.686  0.3137  0.0212 -0.1965
  376TMC3     O 5627   0.655   4.151  16.640  0.2742 -0.2490  0.0405
  376TMC3     H 5628   1.009   3.991  16.703  1.4540  0.4200 -1.3849
  376TMC3    H1 5629   0.666   4.006  16.443  0.2658  1.5291  0.1119
  376TMC3    H2 5630   0.967   3.725  16.385  1.4187  0.5944  1.4545
  376TMC3    C7 5631   0.746   3.850  16.282 -0.2501 -0.5474 -0.6405
  376TMC3    C8 5632   1.136   3.815  16.536 -0.0176 -0.7573 -0.2303
  376TMC3    O1 5633   0.710   3.953  16.234 -0.0128  0.0579 -0.2259
  376TMC3    O2 5634   1.178   3.794  16.426  0.0027  0.2791 -0.0020
  377MPD2     C 5635   3.178   3.719  12.178  0.7806  0.1598 -0.8208
  377MPD2    C1 5636   3.252   3.718  12.294  0.4681 -0.1045  0.1631
  377MPD2    C2 5637   3.196   3.741  12.417 -0.1920 -0.3844 -0.2705
  377MPD2    C3 5638   3.059   3.760  12.431  0.4942  0.1660  1.1058
  377MPD2    C4 5639   2.988   3.788  12.313 -0.3990  0.4148 -0.3733
  377MPD2    C5 5640   3.052   3.759  12.190 -0.1763  0.0774  0.3335
  377MPD2     H 5641   3.249   3.730  12.511  2.2959  1.4756 -1.4544
  377MPD2    H1 5642   2.894   3.842  12.317 -1.0384 -0.8038  1.2835
  377MPD2    H2 5643   3.225   3.706  12.081 -0.7120 -2.5551 -1.1759
  377MPD2    H3 5644   2.997   3.772  12.098 -0.5491  1.4748  0.7555
  377MPD2     N 5645   2.990   3.778  12.552 -0.5732 -0.7846  0.2005
  377MPD2    H5 5646   2.907   3.834  12.536 -1.0471 -1.6376 -0.2969
  377MPD2    N1 5647   3.390   3.690  12.276 -0.0850  0.3087 -0.5230
  377MPD2    H7 5648   3.408   3.650  12.184  0.4723  1.8964 -1.1067
  378TMC3    C1 5649   3.618   3.483  12.142  0.1981 -0.4234  0.3738
  378TMC3    C2 5650   3.526   3.506  12.243  0.0112  0.4351 -0.0108
  378TMC3    C3 5651   3.565   3.561  12.364  0.5289  0.1177  0.5602
  378TMC3    C4 5652   3.757   3.514  12.155 -0.4442 -0.1778  0.6033
  378TMC3    C5 5653   3.790   3.557  12.283  0.0818 -0.3651 -0.6847
  378TMC3    C6 5654   3.698   3.584  12.390  0.0922  0.9985 -0.2124
  378TMC3     C 5655   3.568   3.471  12.010 -0.0952  0.0959 -0.3006
  378TMC3     O 5656   3.447   3.449  12.013  0.3107 -0.0981 -0.1339
  378TMC3     H 5657   3.427   3.463  12.231 -0.2256  1.2219 -0.8443
  378TMC3    H1 5658   3.828   3.461  12.092 -0.9455  1.7021 -1.5485
  378TMC3    H2 5659   3.738   3.626  12.482  0.9159 -1.3120  0.4695
  378TMC3    C7 5660   3.929   3.556  12.325  0.6359 -0.2606 -0.2169
  378TMC3    C8 5661   3.485   3.676  12.384 -0.2863 -0.1232 -0.1630
  378TMC3    O1 5662   3.963   3.544  12.441  0.2170  0.6844  0.1305
  378TMC3    O2 5663   3.492   3.737  12.488 -0.9237 -0.5597  0.7265
  379MPD2     C 5664   4.534   2.046  15.892  0.1043 -0.2095 -0.0004
  379MPD2    C1 5665   4.456   1.955  15.962 -0.4494 -0.3115  0.0305
  379MPD2    C2 5666   4.518   1.872  16.061 -0.3414  0.0586 -0.2675
  379MPD2    C3 5667   4.647   1.881  16.091 -0.2143 -0.1426  0.2417
  379MPD2    C4 5668   4.723   1.971  16.019 -0.5042 -0.8999 -0.1545
  379MPD2    C5 5669   4.665   2.052  15.925  0.4730  0.1089  0.4368
  379MPD2     H 5670   4.457   1.797  16.109  0.8631 -1.1709 -0.6611
  379MPD2    H1 5671   0.100   1.988  16.053 -0.7743 -1.2044  0.8137
  379MPD2    H2 5672   4.493   2.107  15.812 -0.1385  1.0972  1.1206
  379MPD2    H3 5673   4.718   2.127  15.868 -0.5617 -0.0059 -0.6804
  379MPD2     N 5674   4.714   1.804  16.195  0.4627 -0.4834  0.0700
  379MPD2    H5 5675   0.089   1.795  16.175  0.2457 -1.8515 -0.4100
  379MPD2    N1 5676   4.325   1.928  15.916 -0.6459  0.2992  0.1845
  379MPD2    H7 5677   4.295   1.979  15.834  1.5016  0.3327 -0.5803
  380TMC3    C1 5678   4.146   1.812  15.848 -0.7935  0.6371  0.1123
  380TMC3    C2 5679   4.152   1.690  15.769  0.5529 -0.1487  0.2265
  380TMC3    C3 5680   4.079   1.691  15.651 -0.2360 -0.0725  0.5479
  380TMC3    C4 5681   4.076   1.925  15.804  0.7520 -0.8302  0.1661
  380TMC3    C5 5682   4.004   1.909  15.692  0.1377  0.2216  0.1568
  380TMC3    C6 5683   4.003   1.796  15.624  0.1320 -0.4525 -0.6832
  380TMC3     C 5684   4.253   1.818  15.943  0.0767 -0.1716 -0.6720
  380TMC3     O 5685   4.273   1.720  16.010  0.6644 -0.3731  0.3716
  380TMC3     H 5686   4.209   1.606  15.806 -1.4195 -2.1519 -1.2824
  380TMC3    H1 5687   4.076   2.021  15.854 -0.1997  0.2646 -1.9868
  380TMC3    H2 5688   3.949   1.792  15.530  0.9982 -1.3576 -1.1419
  380TMC3    C7 5689   3.935   2.020  15.638 -0.7260 -0.5082 -0.4805
  380TMC3    C8 5690   4.113   1.605  15.540  0.2007  0.4439 -0.1773
  380TMC3    O1 5691   3.988   2.129  15.655  0.0264  0.1407  0.1536
  380TMC3    O2 5692   4.054   1.621  15.432  0.5370 -0.0253 -0.0952
  381TMC3    C1 5693   4.037   3.131  15.659  0.3368 -0.4987 -0.4554
  381TMC3    C2 5694   4.166   3.156  15.697  0.4167 -0.5410  0.8206
  381TMC3    C3 5695   4.193   3.148  15.833  0.7037  0.2903  0.3589
  381TMC3    C4 5696   3.942   3.109  15.760 -0.8613 -0.0253 -0.0955
  381TMC3    C5 5697   3.979   3.096  15.892  0.3736  0.9401 -0.0373
  381TMC3    C6 5698   4.104   3.120  15.930 -0.4901 -0.1049  0.3194
  381TMC3     C 5699   3.988   3.227  15.563  0.7448 -0.0354  0.1928
  381TMC3     O 5700   3.888   3.293  15.591  0.6445 -0.1496  0.5638
  381TMC3     H 5701   4.244   3.180  15.625 -0.4323  0.5602  0.2669
  381TMC3    H1 5702   3.838   3.091  15.733 -1.2523  2.1551 -0.0147
  381TMC3    H2 5703   4.133   3.103  16.032 -0.8005  0.6566  0.5378
  381TMC3    C7 5704   3.902   3.015  15.974 -0.2256  0.0166 -0.1814
  381TMC3    C8 5705   4.294   3.240  15.869 -0.2187 -0.9567  0.3926
  381TMC3    O1 5706   3.967   2.934  16.034  0.2006  0.0161 -0.5598
  381TMC3    O2 5707   4.376   3.246  15.779 -0.2581  0.0926 -0.6199
  382MPD2     C 5708   2.927   1.127  16.972  0.3238 -0.3765  0.5430
  382MPD2    C1 5709   3.017   1.103  17.071 -0.2671 -0.7327  0.2041
  382MPD2    C2 5710   3.026   0.976  17.127  0.0309  0.2208 -0.3707
  382MPD2    C3 5711   2.947   0.873  17.073 -0.8364  0.1202  0.0467
  382MPD2    C4 5712   2.857   0.906  16.968  0.1661 -0.5933 -0.1858
  382MPD2    C5 5713   2.836   1.030  16.930 -0.0685  0.1115 -0.2662
  382MPD2     H 5714   3.108   0.961  17.197 -1.9795 -0.4426  1.8488
  382MPD2    H1 5715   2.784   0.834  16.933 -2.0261  1.3097  0.4413
  382MPD2    H2 5716   2.911   1.223  16.925  0.9315  0.3176  1.7462
  382MPD2    H3 5717   2.750   1.060  16.870 -0.5509  1.5238  1.1323
  382MPD2     N 5718   2.950   0.738  17.115  0.5725  0.3601  0.2307
  382MPD2    H5 5719   2.905   0.666  17.060  0.5382  0.9769 -0.5546
  382MPD2    N1 5720   3.111   1.199  17.116 -0.0254 -0.0823 -0.1323
  382MPD2    H7 5721   3.179   1.170  17.186  1.3243  0.1484 -1.3315
  383TMC3    C1 5722   2.991   0.561  17.261 -0.3483  0.2856  0.4062
  383TMC3    C2 5723   2.885   0.487  17.198  0.4297  0.3671  0.6363
  383TMC3    C3 5724   2.856   0.366  17.262 -0.2974  0.3416  0.1871
  383TMC3    C4 5725   3.053   0.514  17.378 -0.1509 -0.9909  0.2784
  383TMC3    C5 5726   3.016   0.391  17.434 -0.2203 -0.5577 -0.3632
  383TMC3    C6 5727   2.914   0.323  17.375 -0.1891  0.3605  0.8473
  383TMC3     C 5728   3.013   0.698  17.230 -0.3553  0.3030  0.0689
  383TMC3     O 5729   3.082   0.763  17.303 -0.2592  0.5134  0.1018
  383TMC3     H 5730   2.833   0.530  17.113 -0.3553 -2.1610 -0.1588
  383TMC3    H1 5731   3.133   0.574  17.420 -1.1404 -0.5782  1.5935
  383TMC3    H2 5732   2.887   0.230  17.424  0.3147  0.3456  1.1018
  383TMC3    C7 5733   3.098   0.340  17.539 -0.0694 -0.7861 -0.3167
  383TMC3    C8 5734   2.758   0.282  17.197  0.2691  0.6485 -0.6357
  383TMC3    O1 5735   3.194   0.405  17.569  0.7628 -0.2238  0.0780
  383TMC3    O2 5736   2.689   0.331  17.111  0.1380  0.8023  0.1445
  384MPD2     C 5737   4.089   2.168  11.934 -0.6428  0.3340 -0.6787
  384MPD2    C1 5738   4.152   2.149  12.049  0.2761  0.1926  0.3974
  384MPD2    C2 5739   4.285   2.134  12.042  0.0339  0.5853  0.5293
  384MPD2    C3 5740   4.362   2.125  11.922  0.0559  0.2987 -0.2781
  384MPD2    C4 5741   4.295   2.144  11.804 -0.4133  0.4501  0.0253
  384MPD2    C5 5742   4.160   2.177  11.817  0.8717 -0.1831 -0.3197
  384MPD2     H 5743   4.327   2.120  12.141  0.6621  0.5233  0.2550
  384MPD2    H1 5744   4.339   2.135  11.705 -1.0372  0.0659 -0.2174
  384MPD2    H2 5745   3.983   2.187  11.922 -0.4411  1.3910 -0.8163
  384MPD2    H3 5746   4.093   2.181  11.731 -0.4318  2.0925  0.8036
  384MPD2     N 5747   4.500   2.097  11.937  0.2523  0.1424 -0.7008
  384MPD2    H5 5748   4.542   2.090  12.029  0.4523 -0.4197 -0.8401
  384MPD2    N1 5749   4.100   2.165  12.174 -0.9828 -0.1531 -0.3315
  384MPD2    H7 5750   4.156   2.162  12.259 -1.4357  0.2196 -0.0156
  385TMC3    C1 5751   4.687   1.992  11.878 -0.5806  0.0536 -0.1460
  385TMC3    C2 5752   4.666   1.856  11.858  0.3263 -0.4913 -0.3299
  385TMC3    C3 5753   4.723   1.765  11.942 -0.2248  0.8322  0.0944
  385TMC3    C4 5754   0.024   2.032  11.994 -0.3137 -0.2486  0.4778
  385TMC3    C5 5755   0.053   1.938  12.086  0.0932  0.4582  0.6344
  385TMC3    C6 5756   0.058   1.807  12.060 -0.7364 -0.9523 -0.3822
  385TMC3     C 5757   4.582   2.065  11.834 -1.0668 -0.1153 -0.4759
  385TMC3     O 5758   4.561   2.060  11.716  0.2149 -0.3855 -0.4597
  385TMC3     H 5759   4.607   1.827  11.772  0.3198  1.0872 -0.8583
  385TMC3    H1 5760   0.026   2.138  12.016  0.4124  0.2138 -1.9191
  385TMC3    H2 5761   0.116   1.741  12.124 -0.9397  0.3578  1.1317
  385TMC3    C7 5762   4.669   1.949  12.187 -0.1675  0.9560 -0.0166
  385TMC3    C8 5763   4.664   1.635  11.939 -0.0944 -0.4299  0.4779
  385TMC3    O1 5764   4.625   2.058  12.206  0.0363 -0.0874 -0.0884
  385TMC3    O2 5765   4.689   1.564  12.036  0.1579  0.2129 -0.1628
  386TMC3    C1 5766   0.302   3.482  11.971 -0.0812  1.1166  0.7701
  386TMC3    C2 5767   0.348   3.459  11.847 -0.2058  0.2243 -0.5481
  386TMC3    C3 5768   0.307   3.547  11.753  0.0841  0.1599  0.5335
  386TMC3    C4 5769   0.205   3.571  11.992 -0.2280 -0.4369  0.3647
  386TMC3    C5 5770   0.165   3.665  11.903 -0.3830  0.4608  0.3125
  386TMC3    C6 5771   0.213   3.651  11.776  0.0299 -0.9536 -0.6000
  386TMC3     C 5772   0.339   3.394  12.086  0.3223  0.6271 -1.0036
  386TMC3     O 5773   0.312   3.439  12.193  0.1065 -0.1489  0.4353
  386TMC3     H 5774   0.424   3.383  11.831  0.1268  0.5184 -0.3456
  386TMC3    H1 5775   0.172   3.571  12.096 -0.4870 -0.8900  0.2811
  386TMC3    H2 5776   0.189   3.722  11.698 -0.0733 -2.3177 -1.8278
  386TMC3    C7 5777   0.048   3.738  11.937  0.0401  0.2947  0.1997
  386TMC3    C8 5778   0.332   3.519  11.613  0.2767  0.1854  0.5624
  386TMC3    O1 5779   4.693   3.678  12.008 -0.4938 -0.4066  0.0247
  386TMC3    O2 5780   0.333   3.621  11.548 -0.4857  0.1164  0.5508
  387MPD2     C 5781   2.464   3.655   9.485 -0.4711  1.0481 -0.6118
  387MPD2    C1 5782   2.578   3.659   9.566 -0.3044  0.2103  0.3431
  387MPD2    C2 5783   2.638   3.543   9.622  0.0411  0.1603  0.2392
  387MPD2    C3 5784   2.569   3.424   9.605  0.1033  0.3081  0.0807
  387MPD2    C4 5785   2.454   3.418   9.527 -0.4061 -0.2630 -0.0597
  387MPD2    C5 5786   2.404   3.528   9.464  0.1497 -0.2958 -0.1379
  387MPD2     H 5787   2.728   3.556   9.681 -0.2249  0.6786  0.5331
  387MPD2    H1 5788   2.394   3.330   9.507 -1.3831  0.5082 -0.5207
  387MPD2    H2 5789   2.411   3.736   9.437 -1.1351  0.7600 -0.3721
  387MPD2    H3 5790   2.313   3.527   9.404  0.0316 -0.3120  0.0404
  387MPD2     N 5791   2.628   3.307   9.657  0.2259  0.3570  0.1134
  387MPD2    H5 5792   2.718   3.324   9.699 -0.1898  0.3413  1.0117
  387MPD2    N1 5793   2.622   3.789   9.617 -0.8757  0.5914 -0.4456
  387MPD2    H7 5794   2.708   3.773   9.670  0.4061  0.4253 -2.5785
  388TMC3    C1 5795   2.639   3.989   9.724 -0.3143  0.6464 -0.8070
  388TMC3    C2 5796   2.635   4.125   9.721 -0.5895  0.4002 -0.8227
  388TMC3    C3 5797   2.654   4.196   9.836  0.1877 -0.8479  0.1418
  388TMC3    C4 5798   2.664   3.926   9.838 -0.1655  0.1530 -0.7147
  388TMC3    C5 5799   2.674   3.999   9.955 -0.3796  0.3850  0.7821
  388TMC3    C6 5800   2.666   4.135   9.959  0.4035  0.3755  0.1060
  388TMC3     C 5801   2.570   3.914   9.620 -0.0386 -0.3063  0.7392
  388TMC3     O 5802   2.461   3.961   9.570  0.0371  0.1459  0.3039
  388TMC3     H 5803   2.611   4.169   9.624  0.7067  2.8467 -0.0308
  388TMC3    H1 5804   2.680   3.819   9.837  2.6882  0.6004 -0.6437
  388TMC3    H2 5805   2.669   4.186  10.054  1.0443 -0.7945  0.7093
  388TMC3    C7 5806   2.667   3.927  10.087  0.4032  0.1191 -0.9999
  388TMC3    C8 5807   2.673   4.339   9.824 -0.3420 -0.2350  0.1723
  388TMC3    O1 5808   2.725   3.978  10.180  0.1727 -0.9125  0.6131
  388TMC3    O2 5809   2.678   4.382   9.710  0.3271  0.2419  0.0452
  389MPD2     C 5810   1.687   2.049  11.542 -0.0449 -1.1108 -0.2621
  389MPD2    C1 5811   1.601   2.021  11.433 -0.8361  0.1282 -0.2067
  389MPD2    C2 5812   1.511   1.920  11.450  0.5903 -0.5001  0.3470
  389MPD2    C3 5813   1.511   1.844  11.567  0.9439 -0.2861  0.1025
  389MPD2    C4 5814   1.595   1.869  11.672 -0.0653 -0.4283  1.0425
  389MPD2    C5 5815   1.680   1.975  11.656  0.9212 -0.3659  0.8755
  389MPD2     H 5816   1.438   1.906  11.371  0.5236  0.5711  0.2259
  389MPD2    H1 5817   1.598   1.796  11.753 -1.2476 -0.0451  1.4237
  389MPD2    H2 5818   1.762   2.124  11.519 -2.1037  1.2185  0.6556
  389MPD2    H3 5819   1.762   1.990  11.726  0.5701 -1.2917  1.4796
  389MPD2     N 5820   1.427   1.737  11.574 -0.1146 -0.7266 -0.1911
  389MPD2    H5 5821   1.424   1.694  11.666  0.5865  1.5670  0.9026
  389MPD2    N1 5822   1.614   2.098  11.311  0.2053 -0.0049  0.3713
  389MPD2    H7 5823   1.677   2.178  11.310  0.1708  0.0187  0.0473
  390TMC3    C1 5824   1.266   1.577  11.512 -0.4147  0.1077  0.0550
  390TMC3    C2 5825   1.238   1.564  11.645  0.1796 -0.2806 -0.3373
  390TMC3    C3 5826   1.122   1.496  11.676 -0.1391 -0.3647  0.1085
  390TMC3    C4 5827   1.174   1.543  11.416  0.0364 -0.5276  0.1682
  390TMC3    C5 5828   1.051   1.491  11.448  0.1406  0.2722 -0.1972
  390TMC3    C6 5829   1.031   1.461  11.580  0.5280  0.4116 -0.6627
  390TMC3     C 5830   1.369   1.669  11.470 -0.2328 -0.0160 -0.1724
  390TMC3     O 5831   1.355   1.695  11.353 -0.0029  0.3749  0.0940
  390TMC3     H 5832   1.324   1.570  11.711  1.1062 -0.6210 -1.5080
  390TMC3    H1 5833   1.171   1.584  11.315  2.6026 -1.2852 -0.2246
  390TMC3    H2 5834   0.930   1.429  11.602  1.6347 -2.7884 -0.1623
  390TMC3    C7 5835   0.958   1.474  11.343 -0.3473 -0.2482  0.0693
  390TMC3    C8 5836   1.117   1.436  11.812  0.4543 -0.2721  0.8505
  390TMC3    O1 5837   0.991   1.429  11.234 -0.6078  0.1773  0.1894
  390TMC3    O2 5838   1.202   1.457  11.893 -0.3929  0.0826 -0.1840
  391MPD2     C 5839   1.122   3.834  11.741 -0.4690  0.9497  0.1529
  391MPD2    C1 5840   1.211   3.831  11.643 -0.2527 -0.5930  0.4997
  391MPD2    C2 5841   1.166   3.818  11.514 -0.4139  0.2303  0.3487
  391MPD2    C3 5842   1.030   3.803  11.484  0.8233  0.4851 -0.4073
  391MPD2    C4 5843   0.942   3.804  11.581  0.2713 -0.0410 -0.1450
  391MPD2    C5 5844   0.987   3.823  11.706 -0.2214  0.2433 -0.0495
  391MPD2     H 5845   1.231   3.812  11.427  0.4574 -0.2189  1.0214
  391MPD2    H1 5846   0.835   3.795  11.570  0.3114 -1.1957  0.4551
  391MPD2    H2 5847   1.152   3.835  11.845 -1.1509  1.0070  0.3532
  391MPD2    H3 5848   0.918   3.825  11.789  0.3302 -1.5716  0.4561
  391MPD2     N 5849   0.986   3.808  11.348 -0.0483 -0.7996  0.8299
  391MPD2    H5 5850   1.056   3.831  11.279  0.0646 -0.1224  1.1710
  391MPD2    N1 5851   1.347   3.848  11.687 -0.1896 -0.6449 -0.7124
  391MPD2    H7 5852   1.360   3.867  11.786 -1.3521  0.1573 -0.7129
  392TMC3    C1 5853   0.853   3.790  11.159 -0.0297 -0.7067  0.8168
  392TMC3    C2 5854   0.730   3.822  11.112  0.0984  0.7978 -0.3682
  392TMC3    C3 5855   0.732   3.844  10.976  0.7067  0.5514 -0.4461
  392TMC3    C4 5856   0.963   3.759  11.085 -0.1155  0.1080 -0.8698
  392TMC3    C5 5857   0.955   3.769  10.951  0.0142  0.6484 -0.6149
  392TMC3    C6 5858   0.843   3.821  10.898 -0.4704  0.7468 -0.0149
  392TMC3     C 5859   0.859   3.790  11.299 -0.1362  0.0973  0.1468
  392TMC3     O 5860   0.756   3.793  11.360  0.5288 -0.0555  0.0656
  392TMC3     H 5861   0.646   3.825  11.181 -0.3710 -0.5216 -0.8727
  392TMC3    H1 5862   1.061   3.730  11.124 -1.3349 -1.3725  1.1190
  392TMC3    H2 5863   0.852   3.837  10.791  1.0513 -1.1614 -0.1835
  392TMC3    C7 5864   1.075   3.781  10.877 -0.3108  0.5343  0.3142
  392TMC3    C8 5865   0.606   3.853  10.903 -0.7392  0.6107 -0.7456
  392TMC3    O1 5866   1.067   3.848  10.774 -0.6041 -0.9361 -0.6322
  392TMC3    O2 5867   0.513   3.840  10.980 -0.1831  0.0881 -0.3344
  393TMC3    C1 5868   4.349   1.740  10.181 -0.3107  0.6057  0.4948
  393TMC3    C2 5869   4.215   1.780  10.190 -0.1626  0.1273 -0.5172
  393TMC3    C3 5870   4.160   1.794  10.310 -0.0377  0.0308 -0.0536
  393TMC3    C4 5871   4.428   1.742  10.293  0.4339  1.0170 -0.0495
  393TMC3    C5 5872   4.371   1.780  10.410 -0.0995  0.1029 -0.1334
  393TMC3    C6 5873   4.239   1.802  10.422 -0.8452  0.2379 -0.3546
  393TMC3     C 5874   4.405   1.675  10.070  0.0078 -0.0440 -0.3958
  393TMC3     O 5875   4.525   1.676  10.048 -0.2717  0.2532  0.2242
  393TMC3     H 5876   4.147   1.793  10.107  0.0440  0.9245 -0.5588
  393TMC3    H1 5877   4.530   1.707  10.280 -0.2588 -0.7452 -0.6931
  393TMC3    H2 5878   4.194   1.839  10.514 -1.9655  0.0425 -0.8141
  393TMC3    C7 5879   4.450   1.785  10.531  0.1134 -0.4180  0.1711
  393TMC3    C8 5880   4.023   1.835  10.320  0.5791  0.0765  0.0716
  393TMC3    O1 5881   4.389   1.764  10.631  0.5273 -0.3406 -0.0260
  393TMC3    O2 5882   3.975   1.896  10.227  0.1900 -0.7078  0.2243
  394TMC3    C1 5883   1.586   2.164  11.094  0.3564 -0.2160 -0.0651
  394TMC3    C2 5884   1.503   2.172  10.986 -0.6958 -0.1285 -0.2087
  394TMC3    C3 5885   1.553   2.194  10.865  0.0058  0.0364  0.0124
  394TMC3    C4 5886   1.721   2.192  11.082 -0.4431 -1.3115  0.3330
  394TMC3    C5 5887   1.762   2.227  10.957 -0.0762  0.1086 -0.1879
  394TMC3    C6 5888   1.680   2.225  10.844  0.8604  0.0026  0.9582
  394TMC3     C 5889   1.533   2.087  11.202  0.3050  0.2757  0.0733
  394TMC3     O 5890   1.442   2.007  11.169 -0.1851 -0.2458 -0.8137
  394TMC3     H 5891   1.398   2.145  10.990 -0.6036 -0.8473 -2.8029
  394TMC3    H1 5892   1.788   2.172  11.165  0.3692  2.9662  0.7138
  394TMC3    H2 5893   1.715   2.246  10.743  2.4675  0.1968  1.5532
  394TMC3    C7 5894   1.897   2.268  10.938 -0.2783 -0.0935 -0.4640
  394TMC3    C8 5895   1.468   2.185  10.749  0.4137  0.3050 -0.1606
  394TMC3    O1 5896   1.929   2.319  10.834  0.2762  0.5225  0.0882
  394TMC3    O2 5897   1.353   2.228  10.765 -0.3646  0.5996  0.4704
  395TMC3    C1 5898   1.705   4.164  14.430 -0.5089  0.2687  0.5210
  395TMC3    C2 5899   1.573   4.160  14.455 -0.3491 -0.4986  0.2545
  395TMC3    C3 5900   1.530   4.224  14.575  0.3065 -0.1424  0.2716
  395TMC3    C4 5901   1.781   4.246  14.499  0.2356  0.3065  0.0900
  395TMC3    C5 5902   1.736   4.307  14.610 -0.9589  0.4875 -0.1179
  395TMC3    C6 5903   1.605   4.303  14.648 -0.0678 -0.1472  0.7997
  395TMC3     C 5904   1.757   4.107  14.304  0.0437  0.0739 -0.4607
  395TMC3     O 5905   1.855   4.158  14.254 -0.1433  0.0360 -0.2888
  395TMC3     H 5906   1.501   4.114  14.388  0.2497  0.0981 -0.7915
  395TMC3    H1 5907   1.882   4.261  14.465  0.6320  1.1429  1.6430
  395TMC3    H2 5908   1.559   4.353  14.733 -0.6841 -0.7776  0.8307
  395TMC3    C7 5909   1.819   4.385  14.705  0.2910  0.5316 -0.6114
  395TMC3    C8 5910   1.423   4.166  14.652  0.0340 -0.8625 -0.0253
  395TMC3    O1 5911   1.757   4.462  14.777  0.2384 -0.5007  0.1848
  395TMC3    O2 5912   1.380   4.227  14.748 -0.1282 -0.2647 -0.3341
  396MPD2     C 5913   1.556   0.516  17.215 -0.1443 -0.8821  0.0082
  396MPD2    C1 5914   1.666   0.495  17.131 -0.2901 -0.7190 -0.2265
  396MPD2    C2 5915   1.726   0.598  17.066 -0.0181  0.2316 -0.5361
  396MPD2    C3 5916   1.685   0.730  17.098 -0.7012 -0.4539  0.9147
  396MPD2    C4 5917   1.584   0.754  17.190 -0.6214  0.4165 -0.4288
  396MPD2    C5 5918   1.524   0.644  17.247  0.0710  0.4866  0.0700
  396MPD2     H 5919   1.808   0.583  16.996  1.9698  0.4335  1.7324
  396MPD2    H1 5920   1.531   0.849  17.194  0.0400  0.7452  0.4899
  396MPD2    H2 5921   1.507   0.434  17.267 -2.6988  0.5721 -0.1323
  396MPD2    H3 5922   1.441   0.665  17.314 -1.2102 -3.0359 -0.4237
  396MPD2     N 5923   1.755   0.838  17.040 -1.2635 -0.0914  0.1308
  396MPD2    H5 5924   1.824   0.806  16.974 -0.0773  0.7063  0.9825
  396MPD2    N1 5925   1.701   0.360  17.103  0.3182  0.2102 -0.4448
  396MPD2    H7 5926   1.664   0.292  17.169 -1.6037  3.1893  1.5521
  397TMC3    C1 5927   1.726   0.185  16.944  0.3329 -0.6101 -0.3956
  397TMC3    C2 5928   1.658   0.177  16.832 -0.3701  0.2520  0.1154
  397TMC3    C3 5929   1.570   0.069  16.811  0.5620 -0.9654  0.1935
  397TMC3    C4 5930   1.695   0.102  17.046  0.0848  0.1742 -0.1284
  397TMC3    C5 5931   1.611   4.718  17.021 -0.5049  0.5727  0.1515
  397TMC3    C6 5932   1.543   4.693  16.904 -0.0301 -0.2430 -0.4934
  397TMC3     C 5933   1.758   0.322  16.984  0.4293  0.9519 -0.9793
  397TMC3     O 5934   1.790   0.395  16.890 -0.6620 -0.2664  0.1484
  397TMC3     H 5935   1.690   0.240  16.749 -2.0546  0.1525 -0.5997
  397TMC3    H1 5936   1.748   0.092  17.140  0.5817 -2.8617 -0.7339
  397TMC3    H2 5937   1.483   4.604  16.890 -1.1264  0.3823  0.1783
  397TMC3    C7 5938   1.609   4.604  17.119  0.5408 -0.3149  0.5802
  397TMC3    C8 5939   1.501   0.069  16.684  0.3982 -0.0352  0.5155
  397TMC3    O1 5940   1.576   4.498  17.070  0.6721  0.5282  0.0137
  397TMC3    O2 5941   1.536   0.147  16.598 -0.2347  0.1151  0.3492
  398MPD2     C 5942   4.691   1.365   0.096 -0.6020 -0.0513 -0.1413
  398MPD2    C1 5943   0.086   1.329   0.159  0.3615  0.7169  0.4249
  398MPD2    C2 5944   0.182   1.427   0.174  0.2760  0.1991  0.3356
  398MPD2    C3 5945   0.161   1.554   0.123  0.0180  0.4099  0.6975
  398MPD2    C4 5946   0.046   1.588   0.061  0.2381  0.4791  0.3380
  398MPD2    C5 5947   4.671   1.494   0.043 -0.0951 -0.1857  0.5023
  398MPD2     H 5948   0.274   1.411   0.228 -0.9012 -1.0995  1.9708
  398MPD2    H1 5949   0.043   1.683   0.009 -1.0181  0.4411  0.3268
  398MPD2    H2 5950   4.616   1.288   0.083  0.9113 -1.7090  0.9055
  398MPD2    H3 5951   4.579   1.519  17.692 -0.2715 -0.2562  0.7840
  398MPD2     N 5952   0.263   1.645   0.147  0.8864 -0.1586  0.3618
  398MPD2    H5 5953   0.349   1.603   0.181 -0.3162 -2.6183  0.3182
  398MPD2    N1 5954   0.126   1.195   0.196 -0.4892 -0.0187 -0.1720
  398MPD2    H7 5955   0.222   1.171   0.220 -0.6288 -0.2967  0.1020
  399TMC3    C1 5956   0.119   0.963   0.154 -0.8775 -0.3707  0.1056
  399TMC3    C2 5957   0.241   0.972   0.096  0.1991  0.4194 -0.2877
  399TMC3    C3 5958   0.307   0.864   0.052 -1.4319  0.4724 -0.1397
  399TMC3    C4 5959   0.053   0.836   0.155 -0.8925 -0.4690  0.4809
  399TMC3    C5 5960   0.126   0.736   0.102 -0.1148  0.2319 -0.3101
  399TMC3    C6 5961   0.250   0.745   0.053 -1.2211  0.0664  0.2696
  399TMC3     C 5962   0.041   1.085   0.177  0.3413  0.0520  0.5981
  399TMC3     O 5963   4.643   1.070   0.164 -0.0584  0.8512 -0.4868
  399TMC3     H 5964   0.286   1.069   0.077 -0.2102  0.8219  0.8220
  399TMC3    H1 5965   4.672   0.827   0.182 -0.8502 -1.6233  0.2628
  399TMC3    H2 5966   0.312   0.659   0.031  1.7389  2.0095  1.1589
  399TMC3    C7 5967   0.060   0.605   0.104 -0.1283 -0.1228  0.9897
  399TMC3    C8 5968   0.403   0.887  17.640 -0.3327 -0.1576  0.3360
  399TMC3    O1 5969   4.697   0.593   0.187 -0.4520  0.1975  0.8593
  399TMC3    O2 5970   0.375   0.979  17.565  0.3728 -0.1395  0.2439
  400TMC3    C1 5971   2.987   0.103  16.919 -0.1655 -0.4809 -0.6899
  400TMC3    C2 5972   2.923   0.005  16.852  0.1092  0.0064 -0.6067
  400TMC3    C3 5973   2.806   0.038  16.781  0.1543  0.0831 -0.2791
  400TMC3    C4 5974   2.946   0.235  16.911  0.0844  0.0592  0.0940
  400TMC3    C5 5975   2.847   0.266  16.829 -0.0157 -0.2219  0.6716
  400TMC3    C6 5976   2.771   0.172  16.760 -0.3820  0.4918  0.1245
  400TMC3     C 5977   3.087   0.058  17.009 -0.1949 -0.6631 -0.7476
  400TMC3     O 5978   3.094   4.661  17.019 -0.0069 -0.1119  0.2553
  400TMC3     H 5979   2.955   4.627  16.852 -0.0599 -0.0425 -1.8856
  400TMC3    H1 5980   2.976   0.300  16.993 -1.0182 -0.4816  0.9422
  400TMC3    H2 5981   2.680   0.198  16.707 -0.2625  0.7500  0.0458
  400TMC3    C7 5982   2.817   0.409  16.824 -0.5871  0.3978  0.2162
  400TMC3    C8 5983   2.729   4.651  16.727  0.4906 -0.5895 -0.0371
  400TMC3    O1 5984   2.881   0.494  16.883  0.0630 -0.2667  0.2327
  400TMC3    O2 5985   2.645   4.687  16.650 -0.2145  0.1976 -0.1692
  401MPD2     C 5986   1.304   3.669   0.808 -0.1364  0.3762  0.2471
  401MPD2    C1 5987   1.425   3.620   0.851  0.3314  0.1052 -0.7360
  401MPD2    C2 5988   1.463   3.493   0.817 -0.2169 -0.3163 -0.2131
  401MPD2    C3 5989   1.372   3.408   0.756  0.1499  0.0620 -0.3839
  401MPD2    C4 5990   1.254   3.462   0.713  0.3978 -0.0833  0.0750
  401MPD2    C5 5991   1.224   3.590   0.734 -0.3479 -0.1600  0.1036
  401MPD2     H 5992   1.562   3.459   0.843  0.0935  0.3559 -0.5148
  401MPD2    H1 5993   1.178   3.399   0.669  0.6023  0.7153 -1.4155
  401MPD2    H2 5994   1.273   3.771   0.829  1.6792  1.0336 -0.2665
  401MPD2    H3 5995   1.128   3.624   0.696 -0.2371 -0.6529 -0.6097
  401MPD2     N 5996   1.414   3.274   0.739 -0.3117 -0.7994  0.0981
  401MPD2    H5 5997   1.505   3.253   0.777 -0.2810  0.5443  0.7559
  401MPD2    N1 5998   1.523   3.688   0.919  0.2420  0.2392 -0.9502
  401MPD2    H7 5999   1.614   3.645   0.933  0.0541  0.1464  0.0071
  402TMC3    C1 6000   1.395   3.051   0.683 -1.0715  0.3716  0.1511
  402TMC3    C2 6001   1.463   3.033   0.803 -0.3426  0.2152  0.5792
  402TMC3    C3 6002   1.546   2.932   0.818  0.4933 -0.0888  0.1342
  402TMC3    C4 6003   1.408   2.961   0.585  0.5729  0.0474  0.6941
  402TMC3    C5 6004   1.509   2.873   0.592 -0.0500  0.6214  0.4710
  402TMC3    C6 6005   1.586   2.859   0.712 -0.2139  0.8044  0.5348
  402TMC3     C 6006   1.356   3.189   0.651 -0.2329  0.5648  0.4843
  402TMC3     O 6007   1.291   3.209   0.553 -0.3744  0.0131  0.3344
  402TMC3     H 6008   1.437   3.099   0.885 -0.2352  0.1057  0.7021
  402TMC3    H1 6009   1.377   2.996   0.487 -3.5676 -3.5427  0.7076
  402TMC3    H2 6010   1.663   2.784   0.723  0.4976  1.4620 -0.0263
  402TMC3    C7 6011   1.525   2.766   0.491 -0.0874  0.4615  0.4907
  402TMC3    C8 6012   1.634   2.924   0.934 -0.2306 -0.1474  1.0733
  402TMC3    O1 6013   1.430   2.734   0.417 -0.3078 -0.9944 -0.8823
  402TMC3    O2 6014   1.740   2.857   0.917 -0.1254  0.0271 -0.6245
  403MPD2     C 6015   4.198   1.490  13.211 -0.4413 -0.1124  0.2423
  403MPD2    C1 6016   4.200   1.422  13.335 -0.0057  0.3449  0.2232
  403MPD2    C2 6017   4.258   1.488  13.440 -0.7004 -0.1992 -0.6806
  403MPD2    C3 6018   4.320   1.606  13.424 -0.1700  0.0409 -0.0437
  403MPD2    C4 6019   4.314   1.670  13.305  0.0706  0.1315 -0.3153
  403MPD2    C5 6020   4.255   1.617  13.195 -0.1558  0.0176  0.6159
  403MPD2     H 6021   4.265   1.434  13.533 -2.0404  0.1537 -0.3787
  403MPD2    H1 6022   4.346   1.774  13.301 -0.8286  0.4100 -0.3139
  403MPD2    H2 6023   4.140   1.445  13.131 -0.7445  0.7595 -0.0236
  403MPD2    H3 6024   4.248   1.671  13.101  1.4199 -1.6531 -0.4588
  403MPD2     N 6025   4.404   1.654  13.526  0.2095  0.3250  0.6820
  403MPD2    H5 6026   4.427   1.590  13.601  1.6078 -1.3097 -1.1433
  403MPD2    N1 6027   4.118   1.301  13.337 -0.6775 -0.1192  0.2082
  403MPD2    H7 6028   4.065   1.273  13.255  0.0540  3.7108 -1.5834
  404TMC3    C1 6029   4.056   1.093  13.424 -0.0029 -0.1673 -0.7165
  404TMC3    C2 6030   4.050   1.014  13.536  0.1112  0.0246  0.0291
  404TMC3    C3 6031   4.040   0.883  13.518 -0.6622  0.2762  0.1922
  404TMC3    C4 6032   4.052   1.039  13.301 -0.0563  0.9342  0.3380
  404TMC3    C5 6033   4.043   0.906  13.282 -0.0950 -0.1732 -0.6250
  404TMC3    C6 6034   4.039   0.827  13.392 -0.7188  0.1130 -0.1795
  404TMC3     C 6035   4.128   1.216  13.444 -0.0356 -0.7260  0.3721
  404TMC3     O 6036   4.190   1.227  13.545 -0.8473  0.4297 -0.2080
  404TMC3     H 6037   4.090   1.050  13.630  0.5881  2.6120 -1.1482
  404TMC3    H1 6038   4.071   1.099  13.213  1.0233  1.2407  0.7802
  404TMC3    H2 6039   4.027   0.720  13.388  0.3328 -0.1106  2.7381
  404TMC3    C7 6040   3.979   0.858  13.164  0.3070 -0.0908 -0.0505
  404TMC3    C8 6041   4.110   0.811  13.622 -0.3954 -0.0451 -0.6917
  404TMC3    O1 6042   3.952   0.738  13.169 -0.1695 -0.3310  0.0875
  404TMC3    O2 6043   4.190   0.730  13.586  0.1118 -0.3566  0.1022
  405MPD2     C 6044   4.542   1.988  14.566  0.0656  0.5007  0.7253
  405MPD2    C1 6045   4.547   1.926  14.444 -0.2632 -0.8142 -0.5943
  405MPD2    C2 6046   4.500   1.999  14.337 -0.3730 -0.0198 -0.5477
  405MPD2    C3 6047   4.429   2.113  14.351 -1.3808 -0.3813 -0.1230
  405MPD2    C4 6048   4.422   2.168  14.478 -0.2581  0.0196 -0.3758
  405MPD2    C5 6049   4.480   2.104  14.581  1.1343  0.3000 -0.1579
  405MPD2     H 6050   4.501   1.963  14.235  2.2890 -0.5418 -0.3498
  405MPD2    H1 6051   4.360   2.254  14.500 -1.5571 -0.9366 -0.3356
  405MPD2    H2 6052   4.575   1.936  14.655 -1.7389 -0.2699  0.9439
  405MPD2    H3 6053   4.487   2.149  14.680 -0.1906 -0.4501  0.2682
  405MPD2     N 6054   4.372   2.170  14.236  0.3683  0.1994  0.6052
  405MPD2    H5 6055   4.382   2.107  14.157 -1.4238  0.0169  0.5079
  405MPD2    N1 6056   4.617   1.800  14.432 -0.2234 -0.4762 -0.4120
  405MPD2    H7 6057   4.660   1.747  14.507 -2.8357 -2.1238 -0.0524
  406TMC3    C1 6058   3.999   2.315  14.059 -0.0778  0.5674 -0.2404
  406TMC3    C2 6059   4.005   2.223  13.964  0.1185 -0.4228 -0.0215
  406TMC3    C3 6060   4.124   2.158  13.949  0.3509 -0.8221  0.1038
  406TMC3    C4 6061   4.102   2.365  14.139  0.2151  0.6521  0.0237
  406TMC3    C5 6062   4.214   2.297  14.110  0.5447 -0.0966 -0.3618
  406TMC3    C6 6063   4.233   2.198  14.020 -0.0243 -0.4413 -0.4878
  406TMC3     C 6064   3.868   2.366  14.078  0.2964 -0.4823 -0.3521
  406TMC3     O 6065   3.798   2.381  13.982  0.0838 -0.1280  0.0685
  406TMC3     H 6066   3.919   2.182  13.913 -0.1996 -0.9617  0.9495
  406TMC3    H1 6067   4.096   2.435  14.222 -1.9278  0.0696  0.3641
  406TMC3    H2 6068   4.331   2.174  13.983 -0.3753 -1.1564 -0.9590
  406TMC3    C7 6069   4.305   2.292  14.226  0.9508 -0.7084  0.1871
  406TMC3    C8 6070   4.120   2.020  13.890  0.3753  0.1435  0.5428
  406TMC3    O1 6071   4.302   2.385  14.304 -0.3206 -0.5440  0.0409
  406TMC3    O2 6072   4.017   1.987  13.831  0.4024 -0.8555 -0.6021
  407MPD2     C 6073   2.022   3.026   9.625 -0.4903 -0.0980 -0.0803
  407MPD2    C1 6074   2.147   3.054   9.653 -0.4770  0.4254  0.2947
  407MPD2    C2 6075   2.170   3.157   9.746  0.5001 -0.6274  0.1006
  407MPD2    C3 6076   2.066   3.225   9.808 -0.8528 -0.3482  0.5803
  407MPD2    C4 6077   1.940   3.204   9.762  0.1622 -0.5369  0.2466
  407MPD2    C5 6078   1.925   3.099   9.673 -0.6577 -0.2481  0.2854
  407MPD2     H 6079   2.273   3.187   9.764  0.0148  0.7744  0.5550
  407MPD2    H1 6080   1.862   3.273   9.791  0.4291 -0.5660  1.0268
  407MPD2    H2 6081   1.985   2.939   9.571 -0.9212  0.5986 -0.9006
  407MPD2    H3 6082   1.824   3.094   9.635 -0.9260  0.3683  0.9209
  407MPD2     N 6083   2.084   3.334   9.900 -0.5409  0.3087  0.0626
  407MPD2    H5 6084   1.996   3.375   9.930  0.5714  3.1492 -0.5901
  407MPD2    N1 6085   2.254   2.978   9.591 -0.0079  0.8169 -0.5498
  407MPD2    H7 6086   2.351   3.007   9.606 -0.2024  0.1773  2.0899
  408TMC3    C1 6087   2.363   2.801   9.481 -0.8103 -0.5750  0.3759
  408TMC3    C2 6088   2.443   2.888   9.414  0.2335  0.2965  0.2392
  408TMC3    C3 6089   2.534   2.816   9.341  0.1007 -0.3872  0.0031
  408TMC3    C4 6090   2.362   2.661   9.479  0.3657  0.0218 -0.0637
  408TMC3    C5 6091   2.460   2.604   9.403  0.1695  0.2800  0.5546
  408TMC3    C6 6092   2.557   2.679   9.345  0.0961 -0.9941 -0.0887
  408TMC3     C 6093   2.242   2.854   9.537  0.5969 -0.4085 -0.9170
  408TMC3     O 6094   2.143   2.778   9.529 -0.2792  0.3694  0.7194
  408TMC3     H 6095   2.426   2.995   9.404 -0.7542  0.1333  0.1523
  408TMC3    H1 6096   2.286   2.604   9.532 -0.5108  0.9348 -0.3435
  408TMC3    H2 6097   2.636   2.632   9.287  2.3313  0.9475  1.3621
  408TMC3    C7 6098   2.463   2.463   9.373 -0.1886  0.3562 -0.1289
  408TMC3    C8 6099   2.638   2.888   9.273 -0.5632  0.8614 -0.0967
  408TMC3    O1 6100   2.406   2.400   9.460 -0.3129 -0.3337 -0.1450
  408TMC3    O2 6101   2.713   2.830   9.198  0.8496 -0.2573  0.2036
  409MPD2     C 6102   1.876   3.969  16.926 -0.4288  0.0828  0.0316
  409MPD2    C1 6103   1.949   4.012  17.038  0.6304  0.0199  0.3760
  409MPD2    C2 6104   1.955   4.148  17.068 -0.5853 -0.0904  0.4370
  409MPD2    C3 6105   1.883   4.237  16.989  0.2880 -0.7975 -0.1345
  409MPD2    C4 6106   1.813   4.195  16.882  0.5171  1.2032 -0.1780
  409MPD2    C5 6107   1.800   4.061  16.863  0.3053  0.2060  0.3008
  409MPD2     H 6108   2.002   4.178  17.160  1.9183 -1.8677 -0.2579
  409MPD2    H1 6109   1.759   4.260  16.814  0.8740 -0.1008 -1.7137
  409MPD2    H2 6110   1.863   3.864  16.899 -1.2201  0.6314 -1.7074
  409MPD2    H3 6111   1.751   4.024  16.774  0.6093  0.8492 -0.1365
  409MPD2     N 6112   1.882   4.371  17.012 -0.3199 -0.1000  0.1495
  409MPD2    H5 6113   1.825   4.428  16.951 -1.1754  0.3105  1.3243
  409MPD2    N1 6114   2.033   3.929  17.113  0.4927  0.2415  0.6165
  409MPD2    H7 6115   2.085   3.978  17.186  2.4753  1.7226 -1.8049
  410TMC3    C1 6116   1.996   4.577  17.041  0.1431  0.3221  0.1990
  410TMC3    C2 6117   2.124   4.623  17.068 -0.0814 -0.1988  0.3461
  410TMC3    C3 6118   2.179   4.713  16.984 -0.3005  0.6771  0.2460
  410TMC3    C4 6119   1.932   4.615  16.926 -0.3446  0.0597  0.7116
  410TMC3    C5 6120   1.992   4.709  16.847 -0.6325  0.4100  0.0048
  410TMC3    C6 6121   2.115   0.034  16.872 -0.5341  0.6360 -0.2992
  410TMC3     C 6122   1.964   4.441  17.096 -0.2736  0.0093 -0.1261
  410TMC3     O 6123   2.048   4.398  17.176 -0.2645 -0.1871  0.9137
  410TMC3     H 6124   2.183   4.588  17.152  1.6787 -0.3640 -0.9500
  410TMC3    H1 6125   1.834   4.585  16.891  1.0065 -1.2269 -2.0018
  410TMC3    H2 6126   2.163   0.107  16.808  1.3099  0.4628  0.8617
  410TMC3    C7 6127   1.921   0.023  16.727 -0.7698  0.2118 -0.5197
  410TMC3    C8 6128   2.310   0.039  17.008  0.2824  0.6814  0.0334
  410TMC3    O1 6129   1.843   4.668  16.686  0.8031 -0.0609 -0.2212
  410TMC3    O2 6130   2.341   0.153  16.988 -0.6886  0.3696 -0.7843
  411MPD2     C 6131   2.356   0.202  14.730 -0.2108  0.5618 -0.0797
  411MPD2    C1 6132   2.250   0.265  14.654  0.8452  0.1807  0.1784
  411MPD2    C2 6133   2.172   0.181  14.575  0.2293 -0.1112  0.2493
  411MPD2    C3 6134   2.199   0.047  14.564 -0.0316  0.1343 -0.1195
  411MPD2    C4 6135   2.317   0.002  14.615  0.1746  0.0992  0.3792
  411MPD2    C5 6136   2.382   0.073  14.711  0.4225  0.0895 -0.2009
  411MPD2     H 6137   2.081   0.217  14.529 -0.4035 -1.5623  0.3925
  411MPD2    H1 6138   2.331   4.619  14.608 -1.4909  0.1416 -3.9155
  411MPD2    H2 6139   2.414   0.251  14.808  0.0743 -0.3570  0.2912
  411MPD2    H3 6140   2.466   0.032  14.767  0.2080 -1.5138 -1.0383
  411MPD2     N 6141   2.115   4.686  14.492 -0.3749  0.3611  0.0200
  411MPD2    H5 6142   2.154   4.606  14.442  0.8382 -1.0347  3.1853
  411MPD2    N1 6143   2.215   0.402  14.677  0.2543  0.1161 -0.4087
  411MPD2    H7 6144   2.253   0.456  14.753 -1.0778 -0.2207  0.4952
  412TMC3    C1 6145   1.926   4.624  14.379 -0.3307 -0.4281  0.2663
  412TMC3    C2 6146   1.789   4.604  14.390  0.0804 -0.2298 -0.4626
  412TMC3    C3 6147   1.719   4.536  14.292  0.2008  0.0353 -0.4349
  412TMC3    C4 6148   1.990   4.608  14.260  0.1062  0.2446 -0.5630
  412TMC3    C5 6149   1.918   4.548  14.159  0.3405 -0.1744 -0.2817
  412TMC3    C6 6150   1.793   4.495  14.177  0.3004 -0.0064  0.7808
  412TMC3     C 6151   1.982   4.715  14.472  0.3823  0.0664 -1.3381
  412TMC3     O 6152   1.902   0.071  14.522 -0.6295  0.3916 -0.2066
  412TMC3     H 6153   1.734   4.632  14.478 -0.6284  1.9017 -1.5783
  412TMC3    H1 6154   2.094   4.633  14.247  0.4704  0.2042  2.2017
  412TMC3    H2 6155   1.737   4.446  14.098  1.0893  0.4975 -0.1017
  412TMC3    C7 6156   1.928   4.606  14.024 -0.5201  0.3791  0.3351
  412TMC3    C8 6157   1.601   4.610  14.268 -0.2881  0.7310 -0.2498
  412TMC3    O1 6158   1.832   4.587  13.952  0.3676  0.1625  0.2797
  412TMC3    O2 6159   1.525   4.624  14.363 -0.1284 -0.5447 -0.1837
  413MPD2     C 6160   3.899   2.811  15.653 -0.2864  0.2031 -0.1435
  413MPD2    C1 6161   3.865   2.857  15.531 -0.1164 -0.4184  0.1392
  413MPD2    C2 6162   3.931   2.808  15.419 -0.6980  0.4501  0.6450
  413MPD2    C3 6163   4.037   2.721  15.438 -0.6105 -0.9655 -0.3686
  413MPD2    C4 6164   4.077   2.691  15.564  0.4554  0.4787 -0.1764
  413MPD2    C5 6165   4.007   2.737  15.673 -0.2286 -0.0097  0.2990
  413MPD2     H 6166   3.895   2.841  15.323 -0.9123  1.4301  1.0668
  413MPD2    H1 6167   4.163   2.630  15.590 -0.1446 -0.0376  0.6209
  413MPD2    H2 6168   3.848   2.860  15.734 -2.5188 -1.2908 -0.6440
  413MPD2    H3 6169   4.030   2.717  15.777 -1.6211 -1.2962  0.3492
  413MPD2     N 6170   4.109   2.678  15.326  0.3301  0.5550  0.5752
  413MPD2    H5 6171   4.098   2.718  15.233 -0.2175 -2.4336 -0.6392
  413MPD2    N1 6172   3.745   2.941  15.523 -0.3663  0.0739 -0.4475
  413MPD2    H7 6173   3.693   2.952  15.610  1.8589 -3.1653  1.2830
  414TMC3    C1 6174   4.233   2.528  15.196 -0.0009 -0.4471  0.8480
  414TMC3    C2 6175   4.280   2.403  15.178  0.3093  0.2594 -0.0498
  414TMC3    C3 6176   4.332   2.369  15.055 -0.2345  0.5792 -0.1987
  414TMC3    C4 6177   4.226   2.610  15.087  0.2102 -0.2927 -0.0161
  414TMC3    C5 6178   4.286   2.572  14.973  0.5318  0.4721 -0.2667
  414TMC3    C6 6179   4.343   2.450  14.952  0.7722  1.2091 -0.0671
  414TMC3     C 6180   4.181   2.557  15.325  0.5521  0.1511 -0.3608
  414TMC3     O 6181   4.204   2.480  15.422 -0.1029 -0.2667  0.3311
  414TMC3     H 6182   4.280   2.335  15.263  1.9011 -0.9410 -1.0038
  414TMC3    H1 6183   4.194   2.713  15.095 -2.4511 -1.3038  2.4318
  414TMC3    H2 6184   4.390   2.425  14.857  1.1761 -1.0982  0.7350
  414TMC3    C7 6185   4.271   2.660  14.857  0.2330  0.1115  0.0169
  414TMC3    C8 6186   4.393   2.238  15.049 -0.6379 -0.0279 -0.1154
  414TMC3    O1 6187   4.155   2.692  14.833  0.0974 -0.2342 -0.4363
  414TMC3    O2 6188   4.344   2.146  15.113 -0.7107 -0.3501 -0.1277
  415TMC3    C1 6189   4.339   0.919  10.020 -0.4494 -0.3003 -0.4097
  415TMC3    C2 6190   4.413   0.893   9.910 -0.5945  0.0636 -1.2473
  415TMC3    C3 6191   4.360   0.953   9.799 -0.8178 -0.1251  0.6937
  415TMC3    C4 6192   4.216   0.986  10.021  0.7921  0.0279  0.3475
  415TMC3    C5 6193   4.166   1.030   9.899  0.3074  0.2944 -0.6992
  415TMC3    C6 6194   4.239   1.016   9.788 -0.0438 -0.7996  0.2468
  415TMC3     C 6195   4.388   0.869  10.147  0.1937  0.2831  0.2236
  415TMC3     O 6196   4.435   0.757  10.144  0.5980 -0.2155 -0.0519
  415TMC3     H 6197   4.513   0.852   9.910 -0.4958  0.3034 -0.6779
  415TMC3    H1 6198   4.163   1.001  10.114  0.7036  1.7847  0.0047
  415TMC3    H2 6199   4.196   1.031   9.690  2.1875 -2.2160 -0.9479
  415TMC3    C7 6200   4.026   1.018   9.872 -0.7605  0.1410  0.1502
  415TMC3    C8 6201   4.424   0.920   9.678 -0.3298 -0.6412 -1.1000
  415TMC3    O1 6202   3.988   1.059   9.762  0.4196  0.9895  0.3744
  415TMC3    O2 6203   4.352   0.879   9.588  0.4858 -0.0736 -0.1885
  416MPD2     C 6204   0.959   4.581  11.576  0.2261 -0.1895  0.2745
  416MPD2    C1 6205   0.882   4.659  11.482 -0.3707  0.1460 -0.3369
  416MPD2    C2 6206   0.902   4.646  11.349 -0.3274  0.6310 -0.4719
  416MPD2    C3 6207   1.006   4.567  11.303 -0.0337 -0.8189 -0.4638
  416MPD2    C4 6208   1.092   4.501  11.395  0.4194  0.4652 -0.4735
  416MPD2    C5 6209   1.065   4.506  11.529  0.4964  0.5872  0.1224
  416MPD2     H 6210   0.836   4.695  11.279 -3.3216 -2.7902 -0.0026
  416MPD2    H1 6211   1.166   4.426  11.366  1.1223  0.5211  1.1369
  416MPD2    H2 6212   0.942   4.595  11.682  0.5980 -2.7682  0.6819
  416MPD2    H3 6213   1.118   4.458  11.610  0.5611 -2.5575 -1.7803
  416MPD2     N 6214   1.022   4.525  11.166 -0.3107  0.0129  0.3941
  416MPD2    H5 6215   1.094   4.459  11.140 -0.7444  0.0019 -0.7765
  416MPD2    N1 6216   0.794   0.027  11.536 -0.4433  0.2671  0.4434
  416MPD2    H7 6217   0.753   0.005  11.626 -0.2500 -0.3138  0.3924
  417TMC3    C1 6218   0.645   0.219  11.555  0.1929  0.4693 -0.4388
  417TMC3    C2 6219   0.593   0.178  11.677  0.4265 -0.6971 -0.4081
  417TMC3    C3 6220   0.465   0.220  11.707 -0.5231 -0.3672 -0.3239
  417TMC3    C4 6221   0.583   0.312  11.474 -0.0845  1.0961  0.3097
  417TMC3    C5 6222   0.457   0.352  11.512  0.9789  0.0723  0.8019
  417TMC3    C6 6223   0.399   0.318  11.631 -0.2119 -0.2401 -0.2439
  417TMC3     C 6224   0.742   0.137  11.475  0.1089 -0.1180  0.1443
  417TMC3     O 6225   0.785   0.179  11.367 -0.4284 -0.2422 -0.1474
  417TMC3     H 6226   0.653   0.109  11.737 -1.8936 -1.1767  1.3838
  417TMC3    H1 6227   0.624   0.331  11.375 -3.5950 -0.2582 -1.3913
  417TMC3    H2 6228   0.317   0.379  11.665 -0.9501  0.3684 -3.1214
  417TMC3    C7 6229   0.393   0.450  11.434  0.2373 -0.1690  0.0082
  417TMC3    C8 6230   0.403   0.180  11.833 -0.8425  0.1576  0.2817
  417TMC3    O1 6231   0.452   0.488  11.334  0.0060  0.9928  0.0364
  417TMC3    O2 6232   0.321   0.257  11.886 -0.0856  0.5433 -0.0383
  418TMC3    C1 6233   0.583   1.832   0.077  0.4241 -0.0702 -0.1416
  418TMC3    C2 6234   0.450   1.870   0.067 -0.1323 -0.0758 -0.4512
  418TMC3    C3 6235   0.376   1.846   0.178  0.0896 -0.1324  0.1970
  418TMC3    C4 6236   0.645   1.805   0.192  0.0822 -0.2564  0.0759
  418TMC3    C5 6237   0.569   1.779   0.298  0.0156 -0.9446 -0.2187
  418TMC3    C6 6238   0.433   1.791   0.296 -0.2153 -0.4685  0.2885
  418TMC3     C 6239   0.653   1.781  17.659  0.0187  0.0103 -0.0641
  418TMC3     O 6240   0.753   1.722  17.672 -0.4622 -0.1577  0.1908
  418TMC3     H 6241   0.400   1.893  17.674  1.4988 -3.2991 -2.1159
  418TMC3    H1 6242   0.744   1.763   0.197 -0.7379 -1.8410  2.8480
  418TMC3    H2 6243   0.367   1.752   0.373 -0.5422  3.3921  2.0129
  418TMC3    C7 6244   0.611   1.670   0.387 -0.5194 -0.3160  0.2842
  418TMC3    C8 6245   0.250   1.788   0.135 -0.5044 -0.5171 -0.2114
  418TMC3    O1 6246   0.529   1.583   0.397 -0.4527  0.5419 -0.1517
  418TMC3    O2 6247   0.189   1.857   0.057  0.2311 -0.3364 -0.2418
  419MPD2     C 6248   3.711   4.518  12.292  0.6706 -0.2914 -0.1695
  419MPD2    C1 6249   3.576   4.490  12.323  0.1136  0.7376 -0.6405
  419MPD2    C2 6250   3.523   4.522  12.447  0.4642  0.1245 -0.6971
  419MPD2    C3 6251   3.603   4.595  12.539  0.5455 -0.4682 -0.0784
  419MPD2    C4 6252   3.733   4.625  12.502  0.1497  0.3739 -0.1515
  419MPD2    C5 6253   3.783   4.585  12.379  0.4547  0.4726  0.1281
  419MPD2     H 6254   3.420   4.498  12.473  0.6930  2.0389  1.9470
  419MPD2    H1 6255   3.803   4.662  12.577 -0.1055 -0.3599  0.4491
  419MPD2    H2 6256   3.757   4.499  12.195  2.3397 -1.0843  0.7800
  419MPD2    H3 6257   3.885   4.601  12.348  0.3423  0.5693 -0.1880
  419MPD2     N 6258   3.544   4.627  12.655  0.7606 -0.1233 -0.0735
  419MPD2    H5 6259   3.449   4.596  12.671  0.7140  0.1149  0.0998
  419MPD2    N1 6260   3.488   4.427  12.232  0.4652 -0.4375  0.8160
  419MPD2    H7 6261   3.391   4.426  12.263 -0.3653 -0.0952 -1.7443
  420TMC3    C1 6262   3.510   0.014  12.861  1.0395 -0.5009  0.4918
  420TMC3    C2 6263   3.383   4.694  12.856  0.1117 -0.1542  0.7061
  420TMC3    C3 6264   3.318   4.674  12.972  0.2742  0.0400 -0.0101
  420TMC3    C4 6265   3.574   0.050  12.981 -0.2176 -0.0508 -0.4107
  420TMC3    C5 6266   3.497   0.028  13.097  0.4780 -0.3842 -0.5768
  420TMC3    C6 6267   3.373   4.699  13.099  0.1866 -0.6256  0.1657
  420TMC3     C 6268   3.597   4.708  12.752 -0.7478 -0.1581 -0.2831
  420TMC3     O 6269   3.711   0.025  12.753 -0.2622  0.3094 -0.1374
  420TMC3     H 6270   3.332   4.679  12.762 -2.2142 -0.1102  1.9505
  420TMC3    H1 6271   3.677   0.082  12.971 -0.3939  0.8630  0.7503
  420TMC3    H2 6272   3.309   4.705  13.187  0.7864 -0.8756  0.6235
  420TMC3    C7 6273   3.561   0.032  13.226  0.2350 -0.2083  0.5214
  420TMC3    C8 6274   3.177   4.650  12.959  0.2258 -0.1737 -0.1513
  420TMC3    O1 6275   3.521   4.688  13.316 -0.7311  0.7161 -0.1797
  420TMC3    O2 6276   3.128   4.672  12.850 -0.0481  0.3788 -0.2835
  421TMC3    C1 6277   4.539   1.797  13.643  0.0272 -0.0286 -0.3812
  421TMC3    C2 6278   4.541   1.914  13.707  0.2115  0.4618  0.8360
  421TMC3    C3 6279   4.652   1.933  13.783  0.3731 -0.1613  0.2704
  421TMC3    C4 6280   4.638   1.707  13.641 -0.7820  0.0184 -0.1915
  421TMC3    C5 6281   0.020   1.731  13.720 -0.2880  0.0926 -0.1159
  421TMC3    C6 6282   0.033   1.847  13.791 -0.3071  0.1474 -1.2286
  421TMC3     C 6283   4.444   1.787  13.543  0.8566 -0.5733  0.2487
  421TMC3     O 6284   4.395   1.886  13.490  0.1259 -0.2071 -0.4331
  421TMC3     H 6285   4.458   1.984  13.697  1.8214  2.3603  0.8563
  421TMC3    H1 6286   4.643   1.628  13.567  1.3989  1.6691 -1.7963
  421TMC3    H2 6287   0.121   1.859  13.854 -0.7233 -0.4740 -0.5269
  421TMC3    C7 6288   0.153   1.681  13.684 -0.1616  0.7653  0.7735
  421TMC3    C8 6289   4.649   2.027  13.893 -0.3335 -0.3476  0.0384
  421TMC3    O1 6290   0.244   1.758  13.718 -0.2844  0.7906  0.5267
  421TMC3    O2 6291   4.548   2.049  13.963  0.0580 -0.0990  0.3393
  422TMC3    C1 6292   2.247   2.848  12.931  0.4813 -0.2476 -0.3461
  422TMC3    C2 6293   2.228   2.986  12.950  0.2116 -0.3031  0.0760
  422TMC3    C3 6294   2.127   3.032  13.032 -0.0403  0.7793  0.2135
  422TMC3    C4 6295   2.156   2.767  12.985 -0.2549  0.3766 -0.5239
  422TMC3    C5 6296   2.064   2.809  13.078  0.0164  0.4472  0.3662
  422TMC3    C6 6297   2.050   2.945  13.103  0.1509  0.0362 -0.7161
  422TMC3     C 6298   2.293   2.809  12.797  0.2519  0.0659  0.6529
  422TMC3     O 6299   2.270   2.890  12.710 -0.1415  0.0780  0.5482
  422TMC3     H 6300   2.298   3.060  12.912 -0.3365  0.0266 -0.2957
  422TMC3    H1 6301   2.167   2.660  12.969 -1.5224  0.2675 -0.6424
  422TMC3    H2 6302   1.977   2.983  13.173  0.3209  2.1699 -1.6835
  422TMC3    C7 6303   1.966   2.713  13.129 -0.3485 -0.1800  0.6224
  422TMC3    C8 6304   2.095   3.172  13.041 -0.4058 -0.5955 -0.9358
  422TMC3    O1 6305   2.011   2.613  13.179 -0.2596 -0.7933  0.2604
  422TMC3    O2 6306   2.067   3.220  13.149  0.5007  0.0269 -0.1702
  423MPD2     C 6307   4.291   3.775   0.331 -0.5865  0.3610  0.0422
  423MPD2    C1 6308   4.268   3.865   0.229 -0.0542 -0.4050 -0.0044
  423MPD2    C2 6309   4.186   3.824   0.122  0.0713 -0.1136 -0.0431
  423MPD2    C3 6310   4.125   3.698   0.118  0.1047 -0.2953 -0.0638
  423MPD2    C4 6311   4.151   3.611   0.222  0.1017  0.4594 -0.0906
  423MPD2    C5 6312   4.221   3.656   0.331 -0.4831  0.2263  0.6299
  423MPD2     H 6313   4.186   3.897   0.042  0.0811 -1.2841 -1.1192
  423MPD2    H1 6314   4.098   3.517   0.232  1.8814 -0.6574 -1.3873
  423MPD2    H2 6315   4.358   3.795   0.415  1.4352 -0.1480 -1.4322
  423MPD2    H3 6316   4.240   3.597   0.420  0.1288  1.5141  1.3402
  423MPD2     N 6317   4.049   3.640   0.014  0.0762  0.2684 -0.6501
  423MPD2    H5 6318   4.026   3.541   0.016 -0.7909  0.5055  1.1293
  423MPD2    N1 6319   4.331   3.993   0.219 -0.3126  0.2246  0.1932
  423MPD2    H7 6320   4.318   4.042   0.131 -0.3602  0.7571  0.4974
  424TMC3    C1 6321   4.498   4.141   0.249 -0.1522  0.3819 -0.0727
  424TMC3    C2 6322   4.564   4.089   0.142 -0.5080 -0.0967 -0.7349
  424TMC3    C3 6323   4.688   4.129   0.104  0.8228 -0.1087 -0.5706
  424TMC3    C4 6324   4.566   4.229   0.331  0.2734 -0.5161 -0.7137
  424TMC3    C5 6325   4.692   4.270   0.295  0.1297 -0.2084  0.4378
  424TMC3    C6 6326   0.027   4.224   0.177 -0.0690  0.4030 -0.2648
  424TMC3     C 6327   4.403   4.055   0.309  1.0194 -0.2214  0.3648
  424TMC3     O 6328   4.400   4.043   0.433 -0.0081  0.0642  0.4462
  424TMC3     H 6329   4.531   3.999   0.092 -1.1300  0.6547 -1.6900
  424TMC3    H1 6330   4.511   4.286   0.405  1.3009 -0.9172  0.3710
  424TMC3    H2 6331   0.124   4.263   0.148 -0.9693  2.0796 -1.0388
  424TMC3    C7 6332   0.048   4.361   0.374  0.4643 -0.2573 -0.1821
  424TMC3    C8 6333   0.049   4.014   0.078 -0.2269  0.1020 -0.3854
  424TMC3    O1 6334   0.161   4.393   0.330  0.0328  0.0755  0.3501
  424TMC3    O2 6335   0.005   3.901   0.111 -0.2587  0.4147  0.3837
  425MPD2     C 6336   3.042   3.368  17.268 -0.5489 -0.2644  0.5002
  425MPD2    C1 6337   3.027   3.264  17.356  0.5547  0.2132  0.4365
  425MPD2    C2 6338   2.944   3.283  17.463  0.4158  0.7109 -0.4294
  425MPD2    C3 6339   2.861   3.388  17.474 -0.5722  0.5124  0.7395
  425MPD2    C4 6340   2.877   3.495  17.387  0.2985 -0.1811  0.5567
  425MPD2    C5 6341   2.969   3.480  17.287 -0.0700  0.2256  0.1858
  425MPD2     H 6342   2.938   3.210  17.544  0.4846  1.1303 -0.0437
  425MPD2    H1 6343   2.826   3.590  17.398  0.6852  0.0723  0.1599
  425MPD2    H2 6344   3.116   3.355  17.190 -1.6798 -0.2613 -0.5637
  425MPD2    H3 6345   2.983   3.562  17.218 -0.7633 -1.2210 -1.6683
  425MPD2     N 6346   2.771   3.375  17.580  0.3968 -0.3951  0.0316
  425MPD2    H5 6347   2.789   3.303  17.649  2.1451 -0.2934 -0.3393
  425MPD2    N1 6348   3.098   3.142  17.337 -0.5745 -0.4485 -0.1984
  425MPD2    H7 6349   3.163   3.138  17.258 -1.3057  1.4568 -0.8836
  426TMC3    C1 6350   3.176   2.915  17.366  0.0604  0.2287  0.1227
  426TMC3    C2 6351   3.127   2.861  17.250  0.0188 -0.3115  0.2293
  426TMC3    C3 6352   3.165   2.733  17.224  0.3986  0.0470  0.7758
  426TMC3    C4 6353   3.248   2.848  17.467 -0.0643  0.1649 -0.1275
  426TMC3    C5 6354   3.278   2.715  17.439 -0.3894  0.5757  0.0256
  426TMC3    C6 6355   3.234   2.659  17.319 -0.5250 -0.3999  0.0635
  426TMC3     C 6356   3.101   3.029  17.420 -0.4250 -0.2123  0.6737
  426TMC3     O 6357   3.072   3.020  17.539 -0.4219  0.4026  0.0255
  426TMC3     H 6358   3.075   2.922  17.178  2.0103  0.8958 -0.1935
  426TMC3    H1 6359   3.263   2.893  17.565 -0.6240  2.3361 -1.0256
  426TMC3    H2 6360   3.254   2.558  17.286  2.1841 -0.7686  2.8230
  426TMC3    C7 6361   3.340   2.628  17.546  0.0269  0.7203  0.3812
  426TMC3    C8 6362   3.100   2.656  17.124  0.1911  0.1445  0.3961
  426TMC3    O1 6363   3.373   2.516  17.512  0.4452 -0.3256  0.6298
  426TMC3    O2 6364   3.164   2.574  17.056  0.1322  0.2922 -0.1924
  427MPD2     C 6365   1.315   0.209  14.610  0.2750 -0.5685  0.3422
  427MPD2    C1 6366   1.284   0.142  14.730  0.3242  0.3887 -0.0957
  427MPD2    C2 6367   1.160   0.159  14.792  0.2174  0.7957 -0.6429
  427MPD2    C3 6368   1.062   0.241  14.739  0.6396 -0.3768  0.5408
  427MPD2    C4 6369   1.086   0.297  14.617 -0.7231  0.0067 -0.1808
  427MPD2    C5 6370   1.211   0.286  14.560 -0.5262  0.4149 -0.0632
  427MPD2     H 6371   1.140   0.101  14.881  1.6741  3.5430  1.4631
  427MPD2    H1 6372   1.001   0.349  14.575 -0.4622 -1.0995 -2.0704
  427MPD2    H2 6373   1.401   0.205  14.545 -0.1442  1.3574 -0.3366
  427MPD2    H3 6374   1.237   0.329  14.464  1.8154 -0.4732  0.1710
  427MPD2     N 6375   0.943   0.271  14.801 -0.6175  0.4433  0.2358
  427MPD2    H5 6376   0.877   0.323  14.744  2.0204  1.3393 -1.9630
  427MPD2    N1 6377   1.381   0.070  14.791 -0.5565 -0.2584  0.4788
  427MPD2    H7 6378   1.348   0.012  14.868  2.3145  1.2207  2.8520
  428TMC3    C1 6379   1.584   0.026  14.887  0.0923 -0.0583 -0.2544
  428TMC3    C2 6380   1.546   4.628  14.916 -0.3105 -0.2113 -0.3553
  428TMC3    C3 6381   1.615   4.563  15.012  0.0818 -0.4351 -0.5986
  428TMC3    C4 6382   1.684   0.091  14.946 -0.6385  0.7986  0.0579
  428TMC3    C5 6383   1.760   0.015  15.033  0.2711 -0.3397  0.2813
  428TMC3    C6 6384   1.724   4.618  15.067  0.4188 -0.3823  0.1206
  428TMC3     C 6385   1.515   0.084  14.773  0.0476 -0.9246 -0.1305
  428TMC3     O 6386   1.586   0.161  14.708  0.1100  0.5931  0.1070
  428TMC3     H 6387   1.463   4.577  14.868 -1.1050 -0.1340  0.9435
  428TMC3    H1 6388   1.704   0.196  14.931  2.7202 -0.0752 -1.8215
  428TMC3    H2 6389   1.794   4.568  15.132 -0.3872 -1.8112 -0.1247
  428TMC3    C7 6390   1.839   0.088  15.130  0.5628 -0.1804  0.5263
  428TMC3    C8 6391   1.603   4.422  15.039  0.5456  0.1477 -0.2550
  428TMC3    O1 6392   1.855   0.031  15.234 -0.1715  0.5449 -0.0728
  428TMC3    O2 6393   1.693   4.367  15.093  0.1757  0.2509  0.2762
  429MPD2     C 6394   2.107   0.181  17.298 -0.5565 -0.0298 -0.2019
  429MPD2    C1 6395   2.236   0.213  17.325 -0.0074 -0.2159  0.0205
  429MPD2    C2 6396   2.288   0.341  17.311  0.1570  0.7392 -1.0368
  429MPD2    C3 6397   2.197   0.443  17.280 -0.1311  0.7572 -0.1926
  429MPD2    C4 6398   2.067   0.415  17.263 -0.8732 -0.0659 -0.7027
  429MPD2    C5 6399   2.023   0.282  17.272  0.7814 -0.2192  0.0607
  429MPD2     H 6400   2.389   0.361  17.346  0.5393  1.7404 -2.6962
  429MPD2    H1 6401   1.987   0.487  17.248 -0.8996  0.1589  0.5392
  429MPD2    H2 6402   2.077   0.077  17.296  1.8193 -0.6940 -0.6264
  429MPD2    H3 6403   1.919   0.254  17.261  0.7185 -0.9820  2.4452
  429MPD2     N 6404   2.249   0.579  17.271 -0.0256  0.6895 -0.1110
  429MPD2    H5 6405   2.349   0.584  17.286 -0.3863  0.7297  2.3215
  429MPD2    N1 6406   2.333   0.123  17.365 -0.5791 -0.4766  0.0942
  429MPD2    H7 6407   2.425   0.159  17.391 -0.2528  0.0432 -1.8141
  430TMC3    C1 6408   2.264   0.812  17.238 -0.8713 -1.3391 -0.0928
  430TMC3    C2 6409   2.206   0.918  17.173 -0.1033  0.4964 -0.1124
  430TMC3    C3 6410   2.288   1.007  17.116  0.5309  0.5567  0.2816
  430TMC3    C4 6411   2.399   0.786  17.220 -0.9062  0.1541  0.6242
  430TMC3    C5 6412   2.483   0.868  17.148 -0.5245 -0.2697  0.5040
  430TMC3    C6 6413   2.421   0.985  17.106 -0.5763  0.9248 -0.5650
  430TMC3     C 6414   2.177   0.698  17.257 -0.1994 -0.0434 -0.1514
  430TMC3     O 6415   2.059   0.718  17.264 -0.2318 -0.7041  0.6837
  430TMC3     H 6416   2.098   0.933  17.173 -0.6407 -3.1488 -0.0431
  430TMC3    H1 6417   2.443   0.690  17.245  0.4610  1.3752  2.9401
  430TMC3    H2 6418   2.472   1.053  17.039 -0.2431  1.1478 -0.0783
  430TMC3    C7 6419   2.563   0.794  17.056  0.5447 -0.3617 -0.0392
  430TMC3    C8 6420   2.230   1.059  16.992 -0.0434 -0.1889  0.9571
  430TMC3    O1 6421   2.627   0.705  17.105 -0.3577  0.0337  0.2630
  430TMC3    O2 6422   2.129   1.001  16.954 -0.1554  0.1266  0.1649
  431MPD2     C 6423   3.151   0.092  12.568 -0.5862  0.3911 -0.5810
  431MPD2    C1 6424   3.240   0.107  12.467  0.2514 -1.0080 -0.2125
  431MPD2    C2 6425   3.235   0.033  12.348 -0.1278 -0.4870  0.0219
  431MPD2    C3 6426   3.141   4.647  12.340  0.2191  0.5868  0.0864
  431MPD2    C4 6427   3.048   4.633  12.441  0.2847  0.0783 -0.9416
  431MPD2    C5 6428   3.051   4.720  12.551  0.1382 -0.7866  0.8064
  431MPD2     H 6429   3.306   0.057  12.269 -1.1091  0.1121 -0.6721
  431MPD2    H1 6430   2.975   4.553  12.442  0.8830 -0.4532  0.1886
  431MPD2    H2 6431   3.151   0.142  12.664 -0.5774 -0.4131 -0.1587
  431MPD2    H3 6432   2.988   4.681  12.630  0.7570  0.5517  1.9602
  431MPD2     N 6433   3.135   4.559  12.230 -0.4905  0.3309 -0.3759
  431MPD2    H5 6434   3.074   4.479  12.230  1.8878 -1.4714 -1.5168
  431MPD2    N1 6435   3.359   0.186  12.482 -0.3086 -0.1644  0.1538
  431MPD2    H7 6436   3.423   0.179  12.403  1.1235  1.9250  1.1677
  432TMC3    C1 6437   3.204   4.473  12.034 -0.5797  0.9619  0.1663
  432TMC3    C2 6438   3.243   4.513  11.911 -0.4335  0.2824 -0.1572
  432TMC3    C3 6439   3.329   4.430  11.841  0.4988 -0.4241 -0.9964
  432TMC3    C4 6440   3.287   4.374  12.094  0.4680 -0.6775 -0.6128
  432TMC3    C5 6441   3.401   4.331  12.038 -0.6461 -0.1788  0.6338
  432TMC3    C6 6442   3.408   4.337  11.902  0.8008  0.6520 -0.4223
  432TMC3     C 6443   3.187   4.593  12.110 -0.0266  0.3366 -0.0832
  432TMC3     O 6444   3.236   4.694  12.070  0.1959 -0.2083  0.3494
  432TMC3     H 6445   3.188   4.590  11.859  0.5559  1.4814  0.5692
  432TMC3    H1 6446   3.261   4.352  12.197 -1.7895  0.6345 -0.8852
  432TMC3    H2 6447   3.503   4.311  11.858  1.0209 -0.6623  0.8406
  432TMC3    C7 6448   3.520   4.374  12.109  0.2837 -0.2812 -0.0743
  432TMC3    C8 6449   3.372   4.474  11.715 -0.1473 -0.2980 -0.1546
  432TMC3    O1 6450   3.628   4.370  12.057 -0.5242  0.2217  0.1870
  432TMC3    O2 6451   3.392   4.385  11.632 -0.3399 -0.1469 -0.3213
  433MPD2     C 6452   2.110   4.053  10.883  0.3169 -0.0330  0.0297
  433MPD2    C1 6453   2.069   3.974  10.988 -0.3868  1.0668 -0.3163
  433MPD2    C2 6454   2.097   4.028  11.118 -0.8960 -0.3472  0.1773
  433MPD2    C3 6455   2.140   4.158  11.138 -0.0354 -0.5950  0.2525
  433MPD2    C4 6456   2.160   4.236  11.025 -0.0656  0.6530  0.4773
  433MPD2    C5 6457   2.139   4.184  10.900  0.5404  0.4916  0.7263
  433MPD2     H 6458   2.074   3.968  11.205  0.1969 -1.5943 -0.4013
  433MPD2    H1 6459   2.194   4.340  11.029  0.1138  0.5320  1.8365
  433MPD2    H2 6460   2.099   4.029  10.778  1.2673 -3.2859  0.6530
  433MPD2    H3 6461   2.161   4.249  10.817  0.4789 -0.5801 -0.1216
  433MPD2     N 6462   2.181   4.198  11.267  0.2701 -0.3606 -1.1892
  433MPD2    H5 6463   2.148   4.133  11.337  1.6578  0.1986 -0.0360
  433MPD2    N1 6464   2.009   3.847  10.962  0.0401 -0.2594  0.0077
  433MPD2    H7 6465   2.000   3.819  10.865 -0.3227  1.3735 -0.4276
  434TMC3    C1 6466   1.915   3.628  11.004 -0.2290 -0.0589  0.4678
  434TMC3    C2 6467   1.855   3.552  11.104  0.0867  0.3554 -0.4575
  434TMC3    C3 6468   1.819   3.423  11.076 -0.2975  0.9092  0.4444
  434TMC3    C4 6469   1.913   3.584  10.873  0.2256  0.7692 -0.0992
  434TMC3    C5 6470   1.885   3.451  10.851 -0.4068 -0.6387  0.3324
  434TMC3    C6 6471   1.834   3.367  10.953  0.3919 -0.5702 -0.3760
  434TMC3     C 6472   1.960   3.757  11.055 -0.3768  0.3567 -0.5160
  434TMC3     O 6473   1.938   3.769  11.172  0.8053 -0.5577 -0.4627
  434TMC3     H 6474   1.843   3.589  11.205  1.1775  0.8552 -0.5144
  434TMC3    H1 6475   1.959   3.641  10.793  1.1979 -0.7509 -0.6389
  434TMC3    H2 6476   1.790   3.269  10.938 -2.1698  0.5456 -0.1690
  434TMC3    C7 6477   1.927   3.389  10.726 -0.2840 -0.2778 -0.0439
  434TMC3    C8 6478   1.799   3.335  11.186 -0.1820  0.1090  0.2466
  434TMC3    O1 6479   1.939   3.449  10.620 -0.1290 -0.3782 -0.2929
  434TMC3    O2 6480   1.715   3.248  11.180  0.0630  0.5713 -0.2448
  435MPD2     C 6481   4.238   4.336  15.389  0.2179 -0.5255  0.3144
  435MPD2    C1 6482   4.203   4.215  15.448 -0.1611 -0.6875  0.0994
  435MPD2    C2 6483   4.302   4.133  15.482 -0.4726 -0.3179 -0.4360
  435MPD2    C3 6484   4.432   4.151  15.451  0.5384 -0.0452 -0.4154
  435MPD2    C4 6485   4.466   4.259  15.379  0.4717 -0.1245 -0.4780
  435MPD2    C5 6486   4.368   4.357  15.357  0.4044  0.3056 -0.3560
  435MPD2     H 6487   4.275   4.044  15.538  0.3933 -0.7848 -0.7533
  435MPD2    H1 6488   4.566   4.284  15.348  0.2601  0.2520 -0.8498
  435MPD2    H2 6489   4.175   4.418  15.354  2.3877  0.8361 -0.3996
  435MPD2    H3 6490   4.385   4.451  15.305  1.3428  0.1522 -0.3277
  435MPD2     N 6491   4.516   4.049  15.497 -0.1694  0.1912  0.5923
  435MPD2    H5 6492   4.474   3.993  15.570  0.4340  0.4660  1.1449
  435MPD2    N1 6493   4.074   4.186  15.488  0.0274  0.2844 -0.6164
  435MPD2    H7 6494   4.070   4.109  15.555  1.4039 -0.6035 -1.5354
  436TMC3    C1 6495   3.699   4.208  15.706  0.1320  0.2944 -0.3160
  436TMC3    C2 6496   3.773   4.279  15.612  0.1644 -0.6525  0.3793
  436TMC3    C3 6497   3.840   4.205  15.518 -0.2162 -0.7027  0.0118
  436TMC3    C4 6498   3.694   4.072  15.697  0.1211  0.4448  0.2586
  436TMC3    C5 6499   3.745   4.002  15.584  0.3619 -0.3262  0.5184
  436TMC3    C6 6500   3.827   4.068  15.503 -0.5132 -0.2961 -0.4705
  436TMC3     C 6501   3.735   4.259  15.838 -0.3387 -0.5016  1.3812
  436TMC3     O 6502   3.853   4.296  15.846  0.0855 -0.1261 -0.0005
  436TMC3     H 6503   3.813   4.378  15.633 -0.7633 -0.0770 -0.5785
  436TMC3    H1 6504   3.623   4.023  15.763  0.6844  0.5398  0.9417
  436TMC3    H2 6505   3.875   4.013  15.422  0.1398 -3.1417  1.8589
  436TMC3    C7 6506   3.729   3.859  15.572  0.0708  1.0180  0.5744
  436TMC3    C8 6507   3.960   4.266  15.467 -0.3568 -0.3843  0.8783
  436TMC3    O1 6508   3.802   3.806  15.489  0.4144  0.0405  1.0148
  436TMC3    O2 6509   3.957   4.379  15.423 -0.0094 -0.1513  0.3958
  437TMC3    C1 6510   2.484   0.660  12.744  0.1460 -0.1866 -0.0615
  437TMC3    C2 6511   2.369   0.697  12.794 -0.1053 -0.0831  0.2363
  437TMC3    C3 6512   2.337   0.829  12.772  0.3836  0.4754  0.1898
  437TMC3    C4 6513   2.573   0.734  12.672  0.2352 -0.5829 -0.2495
  437TMC3    C5 6514   2.530   0.858  12.648 -0.1407 -0.3295  0.1915
  437TMC3    C6 6515   2.417   0.912  12.704  0.0063  0.4730 -0.5004
  437TMC3     C 6516   2.520   0.524  12.776 -0.0621 -0.0140 -0.3468
  437TMC3     O 6517   2.425   0.446  12.775  0.8060  0.1552 -0.7778
  437TMC3     H 6518   2.307   0.633  12.855 -0.1960  1.0357  1.3099
  437TMC3    H1 6519   2.654   0.693  12.613 -1.0014 -1.4947 -1.2987
  437TMC3    H2 6520   2.394   1.014  12.679  1.3992  0.8620 -0.1883
  437TMC3    C7 6521   2.592   0.946  12.559 -0.0413  0.1145 -0.7724
  437TMC3    C8 6522   2.196   0.852  12.777  0.0076 -0.5169 -0.4611
  437TMC3    O1 6523   2.519   1.015  12.486 -0.0567  0.1121 -0.1986
  437TMC3    O2 6524   2.119   0.758  12.787 -0.0553  0.2838  0.1440
  438MPD2     C 6525   0.289   1.854  16.459  0.6451  0.5211 -0.0855
  438MPD2    C1 6526   0.353   1.789  16.560 -0.4530  0.6905  0.8352
  438MPD2    C2 6527   0.285   1.766  16.681  0.1615  0.1630  0.5207
  438MPD2    C3 6528   0.151   1.803  16.688 -0.7661  0.0666 -0.2956
  438MPD2    C4 6529   0.093   1.872  16.590  0.8982 -0.0245  0.1090
  438MPD2    C5 6530   0.159   1.897  16.477  0.4963 -0.0962  0.6865
  438MPD2     H 6531   0.342   1.724  16.763 -1.0695 -1.6441  0.4333
  438MPD2    H1 6532   4.709   1.882  16.593  0.7066 -2.7902  2.8076
  438MPD2    H2 6533   0.330   1.870  16.360 -0.6690 -0.7318 -0.8283
  438MPD2    H3 6534   0.104   1.942  16.395  0.3147  1.1851  1.4970
  438MPD2     N 6535   0.054   1.761  16.788  0.8420 -0.0926 -0.1616
  438MPD2    H5 6536   4.683   1.778  16.759  0.0406 -0.7339  2.1199
  438MPD2    N1 6537   0.482   1.730  16.548 -0.0412  0.6711  0.3257
  438MPD2    H7 6538   0.516   1.678  16.628 -0.4789 -0.7661 -0.4194
  439TMC3    C1 6539   0.687   1.677  16.469  0.3432 -0.0560 -0.0826
  439TMC3    C2 6540   0.737   1.586  16.381 -0.1346  0.2187  0.2138
  439TMC3    C3 6541   0.853   1.520  16.415  0.5728 -0.2646 -0.1428
  439TMC3    C4 6542   0.754   1.708  16.590 -0.2650  0.6361 -0.2397
  439TMC3    C5 6543   0.862   1.631  16.618 -0.1504  0.0847 -0.7087
  439TMC3    C6 6544   0.917   1.543  16.530  0.2980 -0.0961 -0.1286
  439TMC3     C 6545   0.558   1.737  16.438 -0.2267 -0.4209  0.0290
  439TMC3     O 6546   0.542   1.774  16.323  0.1533 -0.1479 -0.2728
  439TMC3     H 6547   0.688   1.556  16.289 -0.6547  0.6919  0.3362
  439TMC3    H1 6548   0.730   1.800  16.643  1.3035 -0.4842  2.4159
  439TMC3    H2 6549   1.011   1.492  16.549 -0.8905 -3.0251 -1.9650
  439TMC3    C7 6550   0.930   1.644  16.739 -0.2028  0.2956 -0.7925
  439TMC3    C8 6551   0.929   1.455  16.313  0.6938 -0.1049 -0.2639
  439TMC3    O1 6552   1.012   1.552  16.759 -0.3561  0.2532  0.5861
  439TMC3    O2 6553   1.009   1.374  16.355  0.1058 -0.4310 -0.0341
  440MPD2     C 6554   4.085   1.972  14.323 -0.1677  0.1053  0.0100
  440MPD2    C1 6555   4.072   1.963  14.460 -0.7016 -0.2764 -0.1661
  440MPD2    C2 6556   4.117   1.853  14.526 -0.0282 -0.0506 -0.3265
  440MPD2    C3 6557   4.181   1.753  14.460  0.0626  0.1636 -0.0466
  440MPD2    C4 6558   4.179   1.756  14.319 -0.0558 -0.0364 -0.1110
  440MPD2    C5 6559   4.128   1.860  14.252 -0.6273  0.1143 -0.1298
  440MPD2     H 6560   4.090   1.856  14.631 -0.8851 -1.0397 -0.5149
  440MPD2    H1 6561   4.217   1.673  14.260  2.2214  1.4304 -0.7472
  440MPD2    H2 6562   4.053   2.055  14.261  0.6109 -0.1952 -0.8011
  440MPD2    H3 6563   4.115   1.855  14.145  1.0128  3.8451 -0.5241
  440MPD2     N 6564   4.243   1.645  14.519  0.2154 -0.2257  0.0975
  440MPD2    H5 6565   4.303   1.592  14.456  1.0953 -0.8338  1.4489
  440MPD2    N1 6566   4.014   2.070  14.538  0.0675 -0.3978  0.2179
  440MPD2    H7 6567   3.994   2.038  14.632 -0.9873  0.3023  0.2298
  441TMC3    C1 6568   4.323   1.524  14.706 -0.1209  0.1361  0.2139
  441TMC3    C2 6569   4.444   1.577  14.687  0.0973  0.6046  0.6525
  441TMC3    C3 6570   4.528   1.579  14.794  0.0076  0.3290  0.7344
  441TMC3    C4 6571   4.286   1.457  14.816  0.5999 -0.1933 -0.0035
  441TMC3    C5 6572   4.366   1.471  14.921  0.3897 -0.2162  0.5426
  441TMC3    C6 6573   4.484   1.530  14.918 -0.4277  0.5111  0.3109
  441TMC3     C 6574   4.222   1.616  14.653  0.4643 -0.7571 -0.7238
  441TMC3     O 6575   4.154   1.663  14.741 -0.4792 -0.8349 -0.1188
  441TMC3     H 6576   4.467   1.646  14.607  0.4988  1.0107  1.1164
  441TMC3    H1 6577   4.182   1.433  14.835 -0.2683  1.2003 -2.9690
  441TMC3    H2 6578   4.541   1.539  15.010 -3.8906 -0.7278  2.6160
  441TMC3    C7 6579   4.313   1.457  15.050 -0.5484 -0.4420 -0.8439
  441TMC3    C8 6580   4.627   1.689  14.793 -0.0545  0.0428  0.2329
  441TMC3    O1 6581   4.201   1.498  15.079 -0.1825 -0.5328  0.4685
  441TMC3    O2 6582   4.690   1.702  14.690  0.2442 -0.3691 -0.3297
  442MPD2     C 6583   2.639   2.739  16.506  0.2840  0.5525  0.3754
  442MPD2    C1 6584   2.519   2.685  16.554 -0.1060 -0.1462  0.3801
  442MPD2    C2 6585   2.465   2.579  16.482  0.1356  0.0323  0.1723
  442MPD2    C3 6586   2.521   2.533  16.370  0.0377  0.1769  0.4463
  442MPD2    C4 6587   2.644   2.591  16.329 -0.7880 -0.5255  0.0535
  442MPD2    C5 6588   2.706   2.687  16.403 -0.6288 -0.9931 -0.5885
  442MPD2     H 6589   2.371   2.534  16.511  0.8083 -1.1619  0.5216
  442MPD2    H1 6590   2.690   2.559  16.236  1.0039  0.4704  0.6040
  442MPD2    H2 6591   2.687   2.818  16.561  0.0377 -0.3552  1.8910
  442MPD2    H3 6592   2.800   2.725  16.363 -0.0178 -2.0993 -0.2103
  442MPD2     N 6593   2.469   2.424  16.291  0.9091 -0.3124  0.6393
  442MPD2    H5 6594   2.510   2.405  16.200  2.5290  2.7372  0.7433
  442MPD2    N1 6595   2.457   2.724  16.675  0.5718 -0.1148 -0.3467
  442MPD2    H7 6596   2.379   2.671  16.714  0.3817 -0.4164 -1.1352
  443TMC3    C1 6597   2.390   2.868  16.852 -0.2090 -0.3430  0.3963
  443TMC3    C2 6598   2.348   3.000  16.861  1.0135 -0.9761  0.0115
  443TMC3    C3 6599   2.224   3.018  16.909 -0.0898 -0.7420  0.5997
  443TMC3    C4 6600   2.321   2.765  16.913  0.4128 -0.2809  0.5539
  443TMC3    C5 6601   2.205   2.806  16.977 -0.6426  0.5028  0.1492
  443TMC3    C6 6602   2.149   2.926  16.978 -0.2277 -0.2614 -0.0331
  443TMC3     C 6603   2.484   2.840  16.744  0.4274 -0.8285 -0.2992
  443TMC3     O 6604   2.553   2.930  16.705 -0.2157  0.4167 -0.1699
  443TMC3     H 6605   2.412   3.075  16.816 -1.0830  1.6873  1.4271
  443TMC3    H1 6606   2.356   2.662  16.921 -1.0172 -0.8036  0.1753
  443TMC3    H2 6607   2.054   2.954  17.021 -0.4670 -0.4764 -0.4225
  443TMC3    C7 6608   2.146   2.712  17.070 -0.5847 -0.2470 -0.1941
  443TMC3    C8 6609   2.139   3.020  16.785 -0.3202  0.3576  0.1070
  443TMC3    O1 6610   2.161   2.592  17.060  0.6586  0.6474 -0.5741
  443TMC3    O2 6611   2.041   2.950  16.782  0.0713 -0.4997 -0.1645
  444MPD2     C 6612   2.860   2.305  17.173  0.2922  0.0247 -0.3347
  444MPD2    C1 6613   2.744   2.231  17.127  0.8095 -0.2064 -0.2025
  444MPD2    C2 6614   2.763   2.136  17.032  0.4912  0.2342 -0.3987
  444MPD2    C3 6615   2.889   2.114  16.970 -0.4233 -0.0197 -0.2769
  444MPD2    C4 6616   2.994   2.190  17.011  0.0180 -0.5373  0.2512
  444MPD2    C5 6617   2.975   2.291  17.110  0.1040 -0.2099  0.2507
  444MPD2     H 6618   2.675   2.091  16.988  0.3277 -1.5217  1.7751
  444MPD2    H1 6619   3.098   2.177  16.986  0.0940  1.3521 -0.3508
  444MPD2    H2 6620   2.859   2.390  17.240 -1.2121 -0.9252  0.8607
  444MPD2    H3 6621   3.065   2.340  17.146 -0.1592  0.3502  0.1355
  444MPD2     N 6622   2.904   2.008  16.875 -0.3263 -0.7719  0.5877
  444MPD2    H5 6623   2.826   1.946  16.854 -0.9105 -0.4452  1.7747
  444MPD2    N1 6624   2.608   2.261  17.164  0.1750 -0.0713 -0.0774
  444MPD2    H7 6625   2.531   2.205  17.130 -0.1959  0.8174 -0.6895
  445TMC3    C1 6626   3.003   1.850  16.740 -0.5248 -0.2010 -0.5141
  445TMC3    C2 6627   2.887   1.813  16.686 -0.5001 -0.2593 -0.3432
  445TMC3    C3 6628   2.892   1.702  16.606 -0.4842 -0.4743  0.2282
  445TMC3    C4 6629   3.118   1.787  16.720  0.9663  0.1257 -0.0963
  445TMC3    C5 6630   3.116   1.668  16.641  0.3037  0.3853  0.9918
  445TMC3    C6 6631   3.003   1.628  16.579 -0.0014 -0.1357 -0.8193
  445TMC3     C 6632   3.018   1.973  16.814 -0.4456 -0.5441 -0.3302
  445TMC3     O 6633   3.133   2.017  16.822  0.2683  0.4144 -0.3486
  445TMC3     H 6634   2.798   1.872  16.700  0.0383  0.0720  1.6435
  445TMC3    H1 6635   3.209   1.820  16.770  1.0503 -2.7761  1.7025
  445TMC3    H2 6636   2.990   1.548  16.507  1.3985  1.8623 -3.2878
  445TMC3    C7 6637   3.241   1.609  16.602 -0.2957 -1.0039 -0.1038
  445TMC3    C8 6638   2.769   1.684  16.533  0.7538 -0.3764  0.4023
  445TMC3    O1 6639   3.333   1.687  16.573 -0.8113 -0.1616  0.5947
  445TMC3    O2 6640   2.692   1.779  16.535  0.0148 -0.4917 -0.0697
  446MPD2     C 6641   1.754   3.557  11.838  0.1915 -0.4650 -0.3492
  446MPD2    C1 6642   1.722   3.543  11.701  0.4909 -0.1966  0.5586
  446MPD2    C2 6643   1.824   3.562  11.602  0.1630  0.2286  0.0196
  446MPD2    C3 6644   1.944   3.613  11.643  0.5149  0.3420 -0.1809
  446MPD2    C4 6645   1.970   3.624  11.779 -0.5199 -0.1947  0.2487
  446MPD2    C5 6646   1.874   3.603  11.875 -0.1702 -0.0974  0.0592
  446MPD2     H 6647   1.809   3.529  11.500  1.3718  1.5049 -0.5662
  446MPD2    H1 6648   2.068   3.649  11.818 -1.1875 -0.0566  1.8145
  446MPD2    H2 6649   1.671   3.547  11.907 -0.8281  0.7898 -1.3842
  446MPD2    H3 6650   1.895   3.624  11.979 -0.7551  0.1080  0.1326
  446MPD2     N 6651   2.038   3.644  11.544 -0.2474 -0.3421  0.2204
  446MPD2    H5 6652   2.005   3.648  11.448  2.8575 -2.8066 -0.9409
  446MPD2    N1 6653   1.598   3.494  11.646 -0.7550 -0.7465  0.0470
  446MPD2    H7 6654   1.595   3.480  11.545 -0.5555 -3.3859  0.4006
  447TMC3    C1 6655   2.257   3.661  11.457  0.0195 -0.1062  0.4324
  447TMC3    C2 6656   2.203   3.620  11.338 -1.0077  0.0583  0.5056
  447TMC3    C3 6657   2.291   3.611  11.231  0.4627 -0.0797  0.5303
  447TMC3    C4 6658   2.394   3.657  11.478 -0.2434  0.3067  0.1822
  447TMC3    C5 6659   2.477   3.645  11.367  0.5906  0.0764 -0.5182
  447TMC3    C6 6660   2.422   3.624  11.239 -0.5131  0.4840  0.5337
  447TMC3     C 6661   2.175   3.649  11.578  1.0259  0.0634  0.3320
  447TMC3     O 6662   2.232   3.648  11.686 -0.4859  0.1161  0.0959
  447TMC3     H 6663   2.095   3.611  11.330 -1.0928 -0.3559  2.1581
  447TMC3    H1 6664   2.436   3.684  11.574 -0.7862 -0.7757  0.7233
  447TMC3    H2 6665   2.490   3.624  11.154 -2.3224  0.0322 -0.9144
  447TMC3    C7 6666   2.600   3.592  11.397 -0.0508  0.2329 -0.3727
  447TMC3    C8 6667   2.240   3.516  11.127  0.0065  0.0728  0.0810
  447TMC3    O1 6668   2.672   3.604  11.304  0.6254  0.0830  0.1215
  447TMC3    O2 6669   2.155   3.431  11.155  0.3278 -0.2137  0.0653
  448TMC3    C1 6670   0.322   3.196  16.908 -0.0640 -0.2039 -0.3751
  448TMC3    C2 6671   0.380   3.080  16.863  0.0595  0.3524  0.4527
  448TMC3    C3 6672   0.477   3.023  16.939 -0.5854  0.1615 -0.2661
  448TMC3    C4 6673   0.346   3.256  17.029  0.6662 -0.4387 -0.0153
  448TMC3    C5 6674   0.430   3.184  17.105 -0.2751  0.2182 -0.5281
  448TMC3    C6 6675   0.499   3.073  17.060 -1.2004 -0.9926 -0.7694
  448TMC3     C 6676   0.259   3.266  16.799  0.8699  0.1879  0.0128
  448TMC3     O 6677   0.317   3.282  16.693 -0.0333  0.0862  0.1108
  448TMC3     H 6678   0.351   3.034  16.769 -0.6322 -0.9844  1.3339
  448TMC3    H1 6679   0.292   3.346  17.056 -0.8001 -1.4404  0.3950
  448TMC3    H2 6680   0.558   3.008  17.123 -0.9059  0.6049  0.6007
  448TMC3    C7 6681   0.467   3.248  17.227 -0.3990  0.2984  0.2684
  448TMC3    C8 6682   0.537   2.892  16.907 -0.3389  0.3114 -0.2963
  448TMC3    O1 6683   0.409   3.351  17.253 -0.5676  0.3252 -0.2527
  448TMC3    O2 6684   0.645   2.870  16.964 -0.8167 -0.4459  0.1761
  449MPD2     C 6685   2.171   1.433  13.419  0.3411 -0.0807 -0.1008
  449MPD2    C1 6686   2.055   1.368  13.385  0.1917  0.1320  0.0253
  449MPD2    C2 6687   1.941   1.386  13.464  0.2253  0.1268 -0.4199
  449MPD2    C3 6688   1.933   1.479  13.564  0.4998 -0.4597  0.7614
  449MPD2    C4 6689   2.049   1.548  13.591  0.2831 -0.2882 -0.8024
  449MPD2    C5 6690   2.165   1.517  13.530  0.0713  0.0879 -0.2815
  449MPD2     H 6691   1.849   1.332  13.444 -2.3476  3.8541  1.4482
  449MPD2    H1 6692   2.058   1.621  13.671 -0.5495 -1.4216  0.3121
  449MPD2    H2 6693   2.260   1.422  13.358  0.9253 -2.7811  1.2135
  449MPD2    H3 6694   2.261   1.556  13.562  0.0107  0.1377 -0.1636
  449MPD2     N 6695   1.813   1.492  13.629  0.0145 -0.3231 -0.6631
  449MPD2    H5 6696   1.752   1.414  13.608 -1.3158  0.5204  0.0722
  449MPD2    N1 6697   2.048   1.267  13.288  0.3377 -0.8447  0.2714
  449MPD2    H7 6698   1.953   1.233  13.278 -0.0750  1.0647 -2.4332
  450TMC3    C1 6699   2.089   1.110  13.134 -0.1661 -0.5879  0.0597
  450TMC3    C2 6700   2.145   0.988  13.159 -0.1151  0.2074 -0.1075
  450TMC3    C3 6701   2.067   0.881  13.157 -0.2656  0.6030  0.1087
  450TMC3    C4 6702   1.958   1.117  13.100 -0.3873 -0.5413  0.3085
  450TMC3    C5 6703   1.881   1.009  13.123 -0.2346  0.5806 -0.4272
  450TMC3    C6 6704   1.931   0.882  13.139 -0.0163  0.3977  0.2378
  450TMC3     C 6705   2.147   1.214  13.213  0.2696  0.0236  0.8495
  450TMC3     O 6706   2.266   1.238  13.199  0.3600 -0.6401  0.1202
  450TMC3     H 6707   2.247   0.986  13.198 -1.0674 -0.5923  2.3109
  450TMC3    H1 6708   1.906   1.205  13.062  0.8090 -0.9419 -2.2499
  450TMC3    H2 6709   1.871   0.795  13.162  1.1780 -0.6982 -0.8667
  450TMC3    C7 6710   1.782   1.046  13.216  0.6316 -0.1542 -0.1758
  450TMC3    C8 6711   2.132   0.748  13.139 -0.7267 -0.3338  0.6480
  450TMC3    O1 6712   1.811   1.149  13.279 -0.1827 -0.2789 -0.2105
  450TMC3    O2 6713   2.055   0.651  13.136 -0.1996  0.0643 -0.0191
  451MPD2     C 6714   3.580   0.144   1.685  0.4478  0.7415  0.1956
  451MPD2    C1 6715   3.621   0.179   1.559  0.2651  0.2108  0.3927
  451MPD2    C2 6716   3.739   0.121   1.514 -0.0437  0.0269 -0.1218
  451MPD2    C3 6717   3.813   0.041   1.597  0.1804 -0.7641  0.0570
  451MPD2    C4 6718   3.773   0.016   1.726 -0.7570  0.1749  0.2550
  451MPD2    C5 6719   3.652   0.063   1.768  0.1398  0.2079 -0.6843
  451MPD2     H 6720   3.776   0.159   1.419 -0.7935 -1.0633 -0.8483
  451MPD2    H1 6721   3.832   4.678   1.792 -0.7751 -1.2420 -1.0657
  451MPD2    H2 6722   3.486   0.188   1.719 -0.5128 -0.5837 -0.7549
  451MPD2    H3 6723   3.610   0.027   1.861  1.1909 -1.5246 -0.8805
  451MPD2     N 6724   3.943   4.715   1.566  0.4322  0.0630 -0.1884
  451MPD2    H5 6725   3.985   4.661   1.641 -0.6485 -1.6972 -0.8584
  451MPD2    N1 6726   3.539   0.265   1.493  0.4385 -0.4615 -0.4704
  451MPD2    H7 6727   3.465   0.300   1.552  1.8411 -1.3258  1.7879
  452TMC3    C1 6728   4.144   4.672   1.453 -0.0840  0.2307 -0.5673
  452TMC3    C2 6729   4.205   4.664   1.578  0.1449  0.0724  0.4045
  452TMC3    C3 6730   4.345   4.647   1.574 -0.1386  0.2252 -0.2692
  452TMC3    C4 6731   4.220   4.670   1.335  0.1556 -0.2609 -0.0924
  452TMC3    C5 6732   4.356   4.668   1.345 -0.4883 -0.5922  0.2518
  452TMC3    C6 6733   4.426   4.649   1.456 -0.2983 -0.3137  0.3731
  452TMC3     C 6734   4.009   4.718   1.445  0.3408  0.5740  0.3441
  452TMC3     O 6735   3.975   0.034   1.337  0.5216  0.0541  0.8624
  452TMC3     H 6736   4.149   4.667   1.671  1.3097  1.7279  1.0518
  452TMC3    H1 6737   4.172   4.685   1.239  1.4918 -1.1877 -0.9042
  452TMC3    H2 6738   4.534   4.646   1.465 -0.1976  0.9738 -0.4298
  452TMC3    C7 6739   4.420   4.679   1.213  0.0756  0.5097 -0.6337
  452TMC3    C8 6740   4.417   4.625   1.696 -0.1330  0.1081  0.0488
  452TMC3    O1 6741   4.356   4.643   1.119  0.2306  0.0293  0.2313
  452TMC3    O2 6742   4.517   4.562   1.683 -0.4905  0.0460 -0.0696
  453TMC3    C1 6743   3.971   2.315  11.405  0.0868 -0.2931  0.2299
  453TMC3    C2 6744   3.874   2.219  11.421  0.5714 -0.6924  0.2323
  453TMC3    C3 6745   3.818   2.162  11.309 -1.0466 -0.3798  0.2346
  453TMC3    C4 6746   4.014   2.355  11.283  0.7740 -0.2027  0.0154
  453TMC3    C5 6747   3.946   2.302  11.169  0.3253  0.1825 -0.6086
  453TMC3    C6 6748   3.847   2.209  11.178 -0.1085  0.0891  0.1297
  453TMC3     C 6749   4.047   2.360  11.521 -0.3899 -0.4010 -0.0618
  453TMC3     O 6750   4.161   2.405  11.495  0.5189  0.0532  0.1517
  453TMC3     H 6751   3.844   2.185  11.519  1.1062 -0.6728  0.4027
  453TMC3    H1 6752   4.080   2.439  11.267 -0.2332  0.3277 -1.3505
  453TMC3    H2 6753   3.788   2.178  11.092 -1.0200  1.1635  0.3697
  453TMC3    C7 6754   3.968   2.359  11.038 -0.9299 -0.1597 -0.0035
  453TMC3    C8 6755   3.714   2.067  11.320 -0.4540  0.4257 -0.6088
  453TMC3    O1 6756   3.874   2.360  10.961  0.8204 -0.7194  0.2456
  453TMC3    O2 6757   3.648   2.054  11.221  0.8429  0.0852  0.4975
  454MPD2     C 6758   3.505   1.951  16.244 -0.7170 -0.4885  0.5105
  454MPD2    C1 6759   3.392   1.977  16.175  0.4129 -0.7436  0.0116
  454MPD2    C2 6760   3.314   2.091  16.198 -1.0174 -0.0237  0.8149
  454MPD2    C3 6761   3.352   2.192  16.283 -0.1009  0.0214  0.0930
  454MPD2    C4 6762   3.469   2.164  16.357  0.3488  0.0453  0.0778
  454MPD2    C5 6763   3.541   2.046  16.335 -0.0781  0.5390  0.2009
  454MPD2     H 6764   3.216   2.098  16.154 -0.7621  1.7994  0.5354
  454MPD2    H1 6765   3.528   2.227  16.423  0.0968 -0.2405  0.5750
  454MPD2    H2 6766   3.577   1.874  16.221  2.1399  2.1025  0.7473
  454MPD2    H3 6767   3.638   2.032  16.381  0.1581  0.2494 -0.3922
  454MPD2     N 6768   3.269   2.302  16.326 -0.1448  0.3154 -0.4841
  454MPD2    H5 6769   3.292   2.327  16.422 -0.1644  0.4628 -0.5176
  454MPD2    N1 6770   3.342   1.897  16.074  0.6714  0.2246 -0.2281
  454MPD2    H7 6771   3.261   1.939  16.030  0.2540 -1.5865 -1.2219
  455TMC3    C1 6772   3.057   2.401  16.310  0.2071  0.2302  0.0620
  455TMC3    C2 6773   3.061   2.459  16.437 -0.1072 -0.5868  0.4603
  455TMC3    C3 6774   2.952   2.440  16.516 -0.1685 -0.4918  0.1719
  455TMC3    C4 6775   2.952   2.334  16.263  0.1966 -0.6952 -0.4746
  455TMC3    C5 6776   2.842   2.310  16.348  0.3314  0.2300  0.0765
  455TMC3    C6 6777   2.846   2.361  16.476 -0.3170 -0.5519 -0.2266
  455TMC3     C 6778   3.174   2.351  16.240 -0.4840 -0.4371 -0.4876
  455TMC3     O 6779   3.166   2.342  16.114 -0.0946 -1.0433  0.7854
  455TMC3     H 6780   3.139   2.524  16.473 -1.9625  2.5359 -1.1509
  455TMC3    H1 6781   2.964   2.289  16.166  1.3662  1.0871 -1.1614
  455TMC3    H2 6782   2.761   2.332  16.536  0.4866 -0.7891  0.8022
  455TMC3    C7 6783   2.807   2.170  16.360  0.7142  0.5303 -0.6487
  455TMC3    C8 6784   2.950   2.508  16.645 -0.2246  0.5960 -0.0368
  455TMC3    O1 6785   2.717   2.131  16.289  0.2955  0.3542  0.5508
  455TMC3    O2 6786   3.032   2.589  16.677 -0.3040 -0.3497  0.2263
  456MPD2     C 6787   1.168   1.732  16.255  0.3499 -0.1126  0.2828
  456MPD2    C1 6788   1.222   1.700  16.377 -0.1720  0.3705 -0.0060
  456MPD2    C2 6789   1.189   1.772  16.493  0.1159 -0.1596 -0.5544
  456MPD2    C3 6790   1.098   1.874  16.482 -0.7950  0.8361 -0.3496
  456MPD2    C4 6791   1.031   1.897  16.363  0.3669  0.3310 -0.4157
  456MPD2    C5 6792   1.061   1.821  16.252 -0.3389  0.0775 -0.2395
  456MPD2     H 6793   1.235   1.749  16.588  1.6700  0.6866 -1.1055
  456MPD2    H1 6794   0.951   1.967  16.343  0.0977  0.0040 -0.4839
  456MPD2    H2 6795   1.183   1.677  16.163 -0.7915  0.9614 -0.5353
  456MPD2    H3 6796   1.007   1.837  16.160  1.0407 -1.1534 -1.2512
  456MPD2     N 6797   1.068   1.940  16.604  0.4913 -0.0195  0.1538
  456MPD2    H5 6798   1.118   1.902  16.684 -0.8976  2.1874  2.0916
  456MPD2    N1 6799   1.307   1.593  16.375  0.3307  0.1805  0.3572
  456MPD2    H7 6800   1.327   1.558  16.281  0.0574  1.8423 -0.3183
  457TMC3    C1 6801   1.024   2.152  16.706  0.2610 -0.4058  0.5207
  457TMC3    C2 6802   0.968   2.274  16.692 -0.1008 -0.1163 -0.4285
  457TMC3    C3 6803   0.945   2.348  16.806  0.2109 -0.6745  0.3070
  457TMC3    C4 6804   1.046   2.097  16.832 -0.2623 -0.2191 -0.2093
  457TMC3    C5 6805   1.020   2.171  16.936  0.6625  0.7521 -0.3677
  457TMC3    C6 6806   0.965   2.296  16.928  0.7948  1.4090 -0.2444
  457TMC3     C 6807   1.015   2.066  16.592  0.5668 -0.3018 -0.2865
  457TMC3     O 6808   0.957   2.122  16.497  0.0194 -0.5297 -0.1118
  457TMC3     H 6809   0.965   2.317  16.592 -1.0827 -1.1041 -0.8245
  457TMC3    H1 6810   1.100   2.005  16.853 -0.3641 -0.4342 -0.8831
  457TMC3    H2 6811   0.940   2.350  17.018 -1.8615  1.8334 -1.2349
  457TMC3    C7 6812   1.107   2.162  17.048 -0.6338  0.3641  0.1286
  457TMC3    C8 6813   0.857   2.454  16.807  0.0630  0.0764  0.0435
  457TMC3    O1 6814   1.107   2.066  17.124  0.4453  0.4690 -0.1197
  457TMC3    O2 6815   0.857   2.518  16.913 -0.1615  0.1812  0.0819
  458MPD2     C 6816   3.009   1.139  12.345 -0.5963 -0.2517  0.0133
  458MPD2    C1 6817   3.046   1.075  12.464  0.2731  0.4487  0.6648
  458MPD2    C2 6818   2.950   1.002  12.537 -0.5400 -0.3870 -0.0499
  458MPD2    C3 6819   2.819   1.003  12.494 -0.4039 -0.7867  0.8493
  458MPD2    C4 6820   2.791   1.081  12.382  0.2664 -0.7404  0.5485
  458MPD2    C5 6821   2.883   1.153  12.312  0.5062  0.0881  0.1877
  458MPD2     H 6822   2.976   0.953  12.630  0.5913 -1.1046 -0.7443
  458MPD2    H1 6823   2.688   1.087  12.349  0.7485 -1.6867 -1.1515
  458MPD2    H2 6824   3.084   1.182  12.280 -1.5147 -1.3319 -1.7719
  458MPD2    H3 6825   2.859   1.209  12.222  0.5111 -1.6597 -0.9052
  458MPD2     N 6826   2.728   0.936  12.566  0.3552  0.7473 -0.4499
  458MPD2    H5 6827   2.761   0.872  12.639 -0.7547  1.4450  0.6734
  458MPD2    N1 6828   3.186   1.093  12.501 -0.3064 -0.3972  0.1741
  458MPD2    H7 6829   3.243   1.146  12.436 -0.7266 -1.5293 -1.1177
  459TMC3    C1 6830   3.375   1.072  12.654  0.6170  0.1999 -0.2546
  459TMC3    C2 6831   3.411   1.196  12.617 -0.4115 -0.8901 -0.4731
  459TMC3    C3 6832   3.498   1.262  12.689 -0.2438  0.6834  0.6619
  459TMC3    C4 6833   3.407   1.021  12.780  0.6591  0.1521  0.4095
  459TMC3    C5 6834   3.496   1.098  12.852  0.9993  0.5698 -0.1723
  459TMC3    C6 6835   3.547   1.215  12.806  0.1041 -0.1457  0.3400
  459TMC3     C 6836   3.240   1.033  12.612  1.1689  0.7859  0.1609
  459TMC3     O 6837   3.182   0.965  12.698 -0.0751 -0.8650  0.2417
  459TMC3     H 6838   3.362   1.239  12.530  2.2675 -0.0867 -1.5992
  459TMC3    H1 6839   3.352   0.936  12.819 -0.7718  1.3464  1.0176
  459TMC3    H2 6840   3.631   1.264  12.853 -1.2089  1.7871  0.6548
  459TMC3    C7 6841   3.544   1.035  12.971  0.2108 -0.2432 -0.0191
  459TMC3    C8 6842   3.539   1.396  12.657  0.0833 -0.7123 -0.2928
  459TMC3    O1 6843   3.507   0.917  12.987  0.3182 -0.5570  0.3519
  459TMC3    O2 6844   3.655   1.422  12.694 -0.3996 -0.3407  0.3935
  460MPD2     C 6845   2.305   3.320  10.917 -0.6955 -0.3544 -0.1122
  460MPD2    C1 6846   2.293   3.454  10.896  0.6575  0.8574 -0.5299
  460MPD2    C2 6847   2.295   3.502  10.773 -0.5077  0.5655 -0.2608
  460MPD2    C3 6848   2.289   3.419  10.660  0.1042  0.0983  0.7396
  460MPD2    C4 6849   2.300   3.284  10.680 -0.4441 -0.2898  0.0406
  460MPD2    C5 6850   2.304   3.233  10.808  0.2753  0.0572 -0.1426
  460MPD2     H 6851   2.292   3.610  10.760 -2.4722  0.4923 -0.4859
  460MPD2    H1 6852   2.306   3.211  10.600  0.7709 -2.2959  1.9181
  460MPD2    H2 6853   2.331   3.275  11.012  0.3553 -0.7578 -0.5876
  460MPD2    H3 6854   2.330   3.128  10.819 -2.2203 -0.6814 -1.3110
  460MPD2     N 6855   2.282   3.483  10.536 -0.1463 -0.5052 -0.4155
  460MPD2    H5 6856   2.297   3.583  10.528 -0.1559 -0.4392  0.4133
  460MPD2    N1 6857   2.290   3.547  10.999  0.0539  0.2309  0.1437
  460MPD2    H7 6858   2.325   3.640  10.978 -0.2470  0.3343  0.1025
  461TMC3    C1 6859   2.242   3.507  10.308  0.2195 -0.2221 -0.2806
  461TMC3    C2 6860   2.265   3.452  10.180 -0.4083  0.0774  0.1057
  461TMC3    C3 6861   2.174   3.458  10.083 -0.4214 -0.7705 -0.1618
  461TMC3    C4 6862   2.129   3.581  10.329 -0.4298  0.2631 -0.1772
  461TMC3    C5 6863   2.034   3.585  10.228 -0.4099 -0.2405 -0.1535
  461TMC3    C6 6864   2.054   3.521  10.106  0.3923  0.1572 -0.0550
  461TMC3     C 6865   2.283   3.422  10.414  0.6605  0.5346  0.6538
  461TMC3     O 6866   2.324   3.309  10.389  0.1820 -0.3199 -0.6453
  461TMC3     H 6867   2.345   3.379  10.177 -0.9723 -0.6216  1.5946
  461TMC3    H1 6868   2.113   3.621  10.429 -1.5665 -1.6062  0.3809
  461TMC3    H2 6869   1.981   3.529  10.026  1.9501  0.8517 -1.4060
  461TMC3    C7 6870   1.914   3.643  10.249  0.2247  0.4062 -0.3219
  461TMC3    C8 6871   2.206   3.370   9.964  0.4344  0.4122  0.5765
  461TMC3    O1 6872   1.856   3.693  10.152 -0.4894 -0.1665  0.1409
  461TMC3    O2 6873   2.322   3.327   9.947 -0.0960 -0.1033 -0.0917
  462TMC3    C1 6874   3.198   0.164   0.998  0.3984 -0.5726  0.6641
  462TMC3    C2 6875   3.325   0.168   0.956 -0.1074  0.2118 -0.0771
  462TMC3    C3 6876   3.345   0.170   0.821 -0.1142  0.1308  0.0204
  462TMC3    C4 6877   3.088   0.158   0.916  0.3941 -0.0216  0.1295
  462TMC3    C5 6878   3.111   0.169   0.778 -0.9767 -0.2492 -0.2785
  462TMC3    C6 6879   3.238   0.172   0.736  0.4501  0.5063 -0.6843
  462TMC3     C 6880   3.165   0.179   1.135  0.0097  0.3093 -0.1155
  462TMC3     O 6881   3.049   0.223   1.151  0.2149  0.0287 -0.4247
  462TMC3     H 6882   3.415   0.162   1.017  0.2858 -0.8626 -0.7718
  462TMC3    H1 6883   2.987   0.168   0.952  0.2572  0.7559 -0.4617
  462TMC3    H2 6884   3.256   0.159   0.630 -0.8995 -2.2915 -0.5688
  462TMC3    C7 6885   3.001   0.116   0.699  0.2306  0.0058  0.1246
  462TMC3    C8 6886   3.471   0.131   0.770  0.0378 -0.2250  0.3670
  462TMC3    O1 6887   2.919   0.053   0.765  0.0902 -0.3600 -0.1922
  462TMC3    O2 6888   3.570   0.166   0.827 -0.3511 -0.1900  0.0738
  463MPD2     C 6889   4.532   4.026   1.109  0.1598 -0.9983  0.0215
  463MPD2    C1 6890   4.504   3.962   1.224 -0.4616 -0.3593  0.3811
  463MPD2    C2 6891   4.606   3.917   1.303 -0.2789  0.3067  0.7595
  463MPD2    C3 6892   0.015   3.938   1.275  1.2106  0.1293  0.0974
  463MPD2    C4 6893   0.040   4.019   1.162 -0.7001  1.3894  0.2028
  463MPD2    C5 6894   4.664   4.051   1.075  0.8316 -0.2240  0.8428
  463MPD2     H 6895   4.582   3.863   1.395  1.0602 -0.0580  0.8935
  463MPD2    H1 6896   0.142   4.045   1.136 -1.3115  1.2366 -2.3381
  463MPD2    H2 6897   4.458   4.059   1.037  2.2478 -0.0252 -1.6944
  463MPD2    H3 6898   4.700   4.117   0.996 -2.2630 -0.3873 -0.7001
  463MPD2     N 6899   0.129   3.882   1.346 -0.0964 -0.9048 -0.2959
  463MPD2    H5 6900   0.221   3.904   1.307 -0.9697 -0.1759 -1.9397
  463MPD2    N1 6901   4.370   3.949   1.277  0.3094  0.1378 -0.3797
  463MPD2    H7 6902   4.374   3.927   1.376  0.0555  1.6624 -0.0290
  464TMC3    C1 6903   4.145   3.924   1.285  0.8298 -0.2816 -0.1840
  464TMC3    C2 6904   4.026   3.965   1.234 -0.0693  0.0660 -0.1359
  464TMC3    C3 6905   3.912   3.905   1.285 -0.3333  0.5485 -0.4445
  464TMC3    C4 6906   4.147   3.826   1.381 -0.1208 -0.4645 -0.3154
  464TMC3    C5 6907   4.036   3.757   1.418 -0.5401  0.7598 -0.5946
  464TMC3    C6 6908   3.916   3.801   1.371  0.4865  0.5958  0.6138
  464TMC3     C 6909   4.261   3.966   1.199 -0.3720  0.6633  0.8654
  464TMC3     O 6910   4.250   3.989   1.081 -0.0154 -0.0900  0.6024
  464TMC3     H 6911   4.010   4.054   1.174  1.2100 -0.0561 -0.6523
  464TMC3    H1 6912   4.243   3.781   1.402 -0.1207  0.3674  1.5284
  464TMC3    H2 6913   3.828   3.759   1.417 -0.5633  3.1757  0.9294
  464TMC3    C7 6914   4.048   3.663   1.528  0.3292  0.1257 -0.2730
  464TMC3    C8 6915   3.783   3.967   1.246  0.2621  0.2545 -0.0178
  464TMC3    O1 6916   4.129   3.686   1.616  0.1717  0.0699 -0.2119
  464TMC3    O2 6917   3.775   4.009   1.132  0.3843  0.2860  0.3067
  465MPD2     C 6918   0.637   2.112  16.620  0.4610 -0.5504 -0.0905
  465MPD2    C1 6919   0.528   2.156  16.706 -0.8260  0.2885  0.3155
  465MPD2    C2 6920   0.406   2.178  16.642 -0.1520  1.5925 -0.2026
  465MPD2    C3 6921   0.388   2.163  16.509 -0.2114 -0.9438 -0.0753
  465MPD2    C4 6922   0.482   2.106  16.431 -0.2459 -0.0444  0.0947
  465MPD2    C5 6923   0.608   2.086  16.488 -0.4453 -0.3044  0.2396
  465MPD2     H 6924   0.321   2.220  16.697 -0.5576 -1.0194  1.1464
  465MPD2    H1 6925   0.464   2.084  16.326 -0.3606 -0.9132  0.2956
  465MPD2    H2 6926   0.731   2.087  16.667  0.3241 -0.1224  0.4045
  465MPD2    H3 6927   0.687   2.050  16.423 -0.3935 -0.3725  0.3402
  465MPD2     N 6928   0.259   2.200  16.461  0.2482  0.3342 -0.1263
  465MPD2    H5 6929   0.189   2.231  16.529 -0.4872 -0.6780 -0.4240
  465MPD2    N1 6930   0.539   2.198  16.841 -0.0330  0.7770 -0.0836
  465MPD2    H7 6931   0.460   2.244  16.886 -2.2596 -0.4755 -2.6876
  466TMC3    C1 6932   4.593   2.171  16.342 -0.7108 -0.6823 -0.1748
  466TMC3    C2 6933   4.560   2.229  16.224  0.5184 -0.0761  0.9298
  466TMC3    C3 6934   4.651   2.293  16.147  0.1554  0.7308  0.0331
  466TMC3    C4 6935   4.721   2.186  16.391  0.4315 -0.6891 -0.2982
  466TMC3    C5 6936   0.086   2.252  16.314  0.4388  0.7737 -0.1851
  466TMC3    C6 6937   0.051   2.306  16.190 -0.0969  0.7375  0.6943
  466TMC3     C 6938   4.504   2.086  16.419 -0.0023 -0.3251 -0.4073
  466TMC3     O 6939   4.520   2.089  16.539 -0.2067  0.0195  0.0710
  466TMC3     H 6940   4.458   2.216  16.189  0.2584 -1.8774  2.3368
  466TMC3    H1 6941   0.022   2.134  16.482  0.6997  2.1976  1.2709
  466TMC3    H2 6942   0.126   2.359  16.132  1.6924 -2.7350 -0.1401
  466TMC3    C7 6943   0.224   2.216  16.324  0.1258  0.1355  0.3747
  466TMC3    C8 6944   4.596   2.387  16.055 -0.2364  0.0909  0.0496
  466TMC3    O1 6945   0.297   2.222  16.230  0.2524  0.5814 -0.0577
  466TMC3    O2 6946   4.673   2.440  15.981 -0.4291 -0.2838  0.5750
  467TMC3    C1 6947   0.834   0.728  13.773 -0.2866  0.1498  0.0089
  467TMC3    C2 6948   0.786   0.711  13.648  0.1388 -0.2607  0.6934
  467TMC3    C3 6949   0.653   0.682  13.634 -1.0060  0.6134 -0.2729
  467TMC3    C4 6950   0.755   0.720  13.885 -0.5203  0.1038  0.3020
  467TMC3    C5 6951   0.622   0.700  13.864 -0.4290  1.0258 -0.7358
  467TMC3    C6 6952   0.572   0.684  13.740 -0.3330 -0.4948  1.0610
  467TMC3     C 6953   0.975   0.751  13.781  0.3784  0.0952 -0.4206
  467TMC3     O 6954   1.047   0.707  13.695 -0.0788  0.4695  0.0781
  467TMC3     H 6955   0.851   0.731  13.564 -1.5662  2.2611 -0.0047
  467TMC3    H1 6956   0.785   0.736  13.989  0.5626 -1.5434  0.2522
  467TMC3    H2 6957   0.470   0.654  13.717 -0.8430  1.5490  0.6333
  467TMC3    C7 6958   0.577   0.601  13.956 -0.3334 -0.0089 -0.2526
  467TMC3    C8 6959   0.597   0.693  13.503 -0.8063  0.3329 -0.8409
  467TMC3    O1 6960   0.671   0.548  14.019  0.3595  0.5875 -0.9226
  467TMC3    O2 6961   0.480   0.730  13.493  0.0748 -0.6370  0.5362
  468MPD2     C 6962   4.159   3.542  10.649 -0.2475 -0.4872  0.5982
  468MPD2    C1 6963   4.228   3.493  10.757 -0.3514  0.7143 -0.7282
  468MPD2    C2 6964   4.229   3.358  10.783 -0.8308  0.7333  0.3607
  468MPD2    C3 6965   4.149   3.266  10.723  0.7054 -0.3243 -0.5414
  468MPD2    C4 6966   4.076   3.311  10.614 -0.1388 -0.1617 -0.1121
  468MPD2    C5 6967   4.076   3.451  10.586  0.3299  0.1285  0.4621
  468MPD2     H 6968   4.296   3.319  10.859 -0.3761 -1.5010 -1.2011
  468MPD2    H1 6969   4.021   3.237  10.557  0.2172 -3.1983  3.4450
  468MPD2    H2 6970   4.165   3.647  10.621 -1.5706 -0.9180 -1.2991
  468MPD2    H3 6971   4.006   3.484  10.510 -0.4182 -0.8311  0.7220
  468MPD2     N 6972   4.138   3.139  10.776  0.8516 -0.2058 -0.6520
  468MPD2    H5 6973   4.195   3.126  10.859  0.3301 -2.4315 -0.6255
  468MPD2    N1 6974   4.324   3.564  10.836  0.0659  0.4147 -0.5727
  468MPD2    H7 6975   4.366   3.514  10.913 -0.8405  1.1707  0.4153
  469TMC3    C1 6976   4.463   3.723  10.917  1.0163  0.3512 -0.2516
  469TMC3    C2 6977   4.531   3.617  10.965 -0.0222 -0.0563 -0.1220
  469TMC3    C3 6978   4.562   3.605  11.096 -0.1209 -0.0013  0.4074
  469TMC3    C4 6979   4.409   3.819  11.003  0.3596  0.0530  0.3227
  469TMC3    C5 6980   4.437   3.798  11.136 -0.0172  0.5966 -0.1037
  469TMC3    C6 6981   4.511   3.695  11.184  0.0521 -0.0251 -0.5104
  469TMC3     C 6982   4.355   3.691  10.827  0.3422 -0.2547  0.0725
  469TMC3     O 6983   4.322   3.780  10.759  0.5608 -0.3306 -0.4510
  469TMC3     H 6984   4.581   3.549  10.896 -0.1092  0.4069 -0.6431
  469TMC3    H1 6985   4.359   3.905  10.960 -1.8705 -1.2144  0.3973
  469TMC3    H2 6986   4.533   3.687  11.290 -0.0798  0.2428 -0.4633
  469TMC3    C7 6987   4.372   3.884  11.236 -0.7021  0.4324  0.1261
  469TMC3    C8 6988   4.626   3.488  11.141 -0.0290  0.1357 -0.5421
  469TMC3    O1 6989   4.399   3.868  11.353 -0.2055 -0.1821 -0.1928
  469TMC3    O2 6990   4.631   3.393  11.065 -0.4150 -0.0002  0.1744
  470TMC3    C1 6991   1.942   4.673   0.730  0.2098 -0.0328 -0.7716
  470TMC3    C2 6992   2.048   0.025   0.760  0.1268 -0.3865  0.0083
  470TMC3    C3 6993   2.057   0.070   0.889 -0.4448  0.5722  0.5090
  470TMC3    C4 6994   1.861   4.619   0.829  0.1760  0.1207  0.6977
  470TMC3    C5 6995   1.868   4.669   0.955 -0.3593  0.3684 -0.3911
  470TMC3    C6 6996   1.965   0.035   0.984  0.4280 -0.3806  0.8670
  470TMC3     C 6997   1.946   4.595   0.603 -0.4669  0.2036 -0.3553
  470TMC3     O 6998   1.879   4.491   0.598  0.4861 -0.0306  0.0990
  470TMC3     H 6999   2.127   0.035   0.687  1.1934 -1.0428  1.0759
  470TMC3    H1 7000   1.793   4.537   0.810  0.2297 -0.2013  1.8981
  470TMC3    H2 7001   1.976   0.088   1.078 -1.3533  0.0667  0.8218
  470TMC3    C7 7002   1.779   4.594   1.053  0.5767  0.0576 -0.1937
  470TMC3    C8 7003   2.173   0.161   0.924  0.6309 -0.0869 -0.1618
  470TMC3    O1 7004   1.692   4.515   1.015 -0.1590 -0.0306  0.2090
  470TMC3    O2 7005   2.156   0.231   1.024  0.2371  0.1654  0.1162
  471MPD2     C 7006   2.309   1.244  16.529 -0.0432  0.0240  0.6580
  471MPD2    C1 7007   2.266   1.122  16.572 -0.0061 -0.1617  0.9830
  471MPD2    C2 7008   2.265   1.092  16.706 -0.6578 -0.1064 -0.0494
  471MPD2    C3 7009   2.303   1.181  16.798 -0.5192  0.3858 -0.4831
  471MPD2    C4 7010   2.355   1.301  16.758  0.2003  0.8529 -0.4716
  471MPD2    C5 7011   2.349   1.335  16.623  0.5389  0.1367 -0.2397
  471MPD2     H 7012   2.224   0.996  16.737  1.7029 -1.4620 -1.1288
  471MPD2    H1 7013   2.380   1.374  16.834 -1.0826  0.5651  0.2343
  471MPD2    H2 7014   2.321   1.277  16.427 -1.5308  0.0377  0.4839
  471MPD2    H3 7015   2.399   1.424  16.586 -1.7744  0.7662 -1.8298
  471MPD2     N 7016   2.295   1.166  16.941  0.0243  0.5593 -0.0084
  471MPD2    H5 7017   2.362   1.213  17.002 -2.1197  3.1395  0.3513
  471MPD2    N1 7018   2.242   1.016  16.491 -0.4433 -0.0118 -0.2618
  471MPD2    H7 7019   2.202   0.929  16.526 -1.8776  0.7842  0.0592
  472TMC3    C1 7020   2.214   0.892  16.297 -0.8120  0.1749 -0.3673
  472TMC3    C2 7021   2.175   0.914  16.170 -0.5939  0.2582 -0.0050
  472TMC3    C3 7022   2.126   0.804  16.104 -0.0119 -0.9586 -0.2208
  472TMC3    C4 7023   2.216   0.773  16.356 -0.1093 -0.1553 -0.5264
  472TMC3    C5 7024   2.157   0.668  16.288  0.0137  0.4960  0.1033
  472TMC3    C6 7025   2.107   0.678  16.160 -0.4324 -0.9123 -0.3109
  472TMC3     C 7026   2.260   1.015  16.361  0.1906 -1.4110  0.5552
  472TMC3     O 7027   2.309   1.095  16.279  0.1574  0.3480 -0.6751
  472TMC3     H 7028   2.174   1.012  16.123  0.7834  1.4333  2.4323
  472TMC3    H1 7029   2.262   0.754  16.452 -2.8899 -0.4685  0.7698
  472TMC3    H2 7030   2.054   0.600  16.108 -0.8909 -0.2052 -0.9104
  472TMC3    C7 7031   2.131   0.551  16.370  0.4175 -0.0376  0.2967
  472TMC3    C8 7032   2.068   0.823  15.970  0.2734 -0.0637  0.1248
  472TMC3    O1 7033   2.173   0.553  16.482 -0.2708 -0.0960  0.3983
  472TMC3    O2 7034   2.102   0.915  15.891  0.1201 -0.3022  0.0118
  473MPD2     C 7035   2.428   2.790  14.056 -0.3864  0.9670  0.8590
  473MPD2    C1 7036   2.365   2.904  14.011 -0.3288  0.2535  0.1422
  473MPD2    C2 7037   2.394   3.022  14.069  0.6028  0.3497  0.6092
  473MPD2    C3 7038   2.468   3.024  14.186 -0.0271  0.0953  0.3468
  473MPD2    C4 7039   2.513   2.910  14.238  0.1007  0.0959  1.1110
  473MPD2    C5 7040   2.501   2.795  14.168  0.1121  0.1202  0.9123
  473MPD2     H 7041   2.337   3.110  14.040  0.5002 -0.1044 -0.5332
  473MPD2    H1 7042   2.581   2.913  14.323 -0.1359 -0.2618  1.3152
  473MPD2    H2 7043   2.414   2.693  14.010  1.7554  0.2862  1.6489
  473MPD2    H3 7044   2.554   2.709  14.209 -2.3189 -0.1880  3.4302
  473MPD2     N 7045   2.497   3.147  14.247 -0.4381  0.3661 -0.2830
  473MPD2    H5 7046   2.567   3.148  14.321 -0.3605 -0.1525 -0.3529
  473MPD2    N1 7047   2.284   2.904  13.892  0.0163 -0.2605  0.0418
  473MPD2    H7 7048   2.233   2.988  13.866 -0.8064 -0.3068  1.4985
  474TMC3    C1 7049   2.497   3.376  14.309 -0.3573  0.1743 -0.2787
  474TMC3    C2 7050   2.420   3.481  14.322  0.1900  0.3504  0.9700
  474TMC3    C3 7051   2.456   3.586  14.400 -0.3191  0.4184 -0.3021
  474TMC3    C4 7052   2.619   3.367  14.371  0.2978  0.0984 -0.4660
  474TMC3    C5 7053   2.653   3.471  14.455  0.1428 -0.5357  0.3202
  474TMC3    C6 7054   2.581   3.586  14.461  0.6188 -0.7878  0.1783
  474TMC3     C 7055   2.440   3.270  14.222 -0.3832  0.6431 -0.0256
  474TMC3     O 7056   2.356   3.306  14.140 -0.6453  0.7578 -0.2148
  474TMC3     H 7057   2.327   3.485  14.267  0.6132  1.5717  0.3584
  474TMC3    H1 7058   2.684   3.287  14.339  3.6686  2.8000 -0.3745
  474TMC3    H2 7059   2.600   3.664  14.534  1.5723  0.5465 -1.5100
  474TMC3    C7 7060   2.795   3.476  14.482 -0.4898 -0.1454 -0.6811
  474TMC3    C8 7061   2.363   3.696  14.397 -0.7416  0.2309  0.9176
  474TMC3    O1 7062   2.864   3.435  14.389  0.0425 -0.6440  0.5836
  474TMC3    O2 7063   2.246   3.663  14.361 -0.5986 -0.1792 -0.2116
  475MPD2     C 7064   0.168   1.739  10.793  0.1844 -0.4489 -0.0932
  475MPD2    C1 7065   0.194   1.724  10.659 -0.1870  0.6607 -0.1476
  475MPD2    C2 7066   0.093   1.754  10.563  0.3689 -0.2901  0.1678
  475MPD2    C3 7067   4.687   1.784  10.607  0.5417  0.4533 -0.2897
  475MPD2    C4 7068   4.667   1.779  10.743 -0.2702  0.3343  0.3223
  475MPD2    C5 7069   0.042   1.761  10.828 -0.2987  0.4788  0.5756
  475MPD2     H 7070   0.106   1.732  10.458  1.6893 -0.8334  0.4384
  475MPD2    H1 7071   4.570   1.788  10.791 -1.6558 -0.9056 -2.2641
  475MPD2    H2 7072   0.247   1.726  10.866 -0.2468 -2.9109 -0.0618
  475MPD2    H3 7073   0.020   1.764  10.934 -0.3653 -3.2668  0.6814
  475MPD2     N 7074   4.587   1.797  10.510  0.0411  0.0310 -0.4845
  475MPD2    H5 7075   4.622   1.815  10.417 -2.0959  0.0427 -1.3021
  475MPD2    N1 7076   0.325   1.696  10.624  0.5842 -0.2268 -0.6797
  475MPD2    H7 7077   0.391   1.719  10.697 -1.3392  3.2615 -0.0654
  476TMC3    C1 7078   0.507   1.627  10.488 -0.9046  0.0442  0.3302
  476TMC3    C2 7079   0.543   1.512  10.415  0.1791  0.5082  0.2693
  476TMC3    C3 7080   0.672   1.508  10.368  0.3462 -0.5621 -0.0736
  476TMC3    C4 7081   0.590   1.739  10.500  0.1399 -0.3931  0.0216
  476TMC3    C5 7082   0.720   1.728  10.448 -0.2966 -0.1777  0.5233
  476TMC3    C6 7083   0.759   1.615  10.379  0.6205  0.4986 -0.0329
  476TMC3     C 7084   0.366   1.641  10.502 -0.3657 -0.7828 -0.3978
  476TMC3     O 7085   0.294   1.570  10.429  0.1273  0.2824 -0.1145
  476TMC3     H 7086   0.472   1.432  10.396 -0.3726  1.4981 -1.8483
  476TMC3    H1 7087   0.551   1.826  10.552 -1.6204 -0.0784 -1.8223
  476TMC3    H2 7088   0.858   1.604  10.337  0.1184  1.2139 -1.4291
  476TMC3    C7 7089   0.835   1.808  10.492 -0.3224  0.6037 -0.5945
  476TMC3    C8 7090   0.698   1.408  10.260 -0.2497  0.6279 -0.8872
  476TMC3    O1 7091   0.945   1.790  10.438  0.2642 -0.0765  0.4934
  476TMC3    O2 7092   0.756   1.441  10.157 -0.3017 -0.2540  0.2454
  477MPD2     C 7093   2.948   3.205  11.996  0.6752  0.5283 -0.1578
  477MPD2    C1 7094   2.832   3.136  12.039  0.6708  0.7191 -0.6276
  477MPD2    C2 7095   2.843   3.028  12.130 -0.3930 -0.8328  0.2983
  477MPD2    C3 7096   2.969   2.997  12.180 -0.1271  0.6233 -0.4801
  477MPD2    C4 7097   3.082   3.062  12.135  0.1840  0.3117  0.3783
  477MPD2    C5 7098   3.068   3.166  12.049  0.5788 -0.5053  0.3789
  477MPD2     H 7099   2.755   2.985  12.177 -0.2836 -2.0604 -0.6414
  477MPD2    H1 7100   3.180   3.024  12.162 -0.8976 -1.9658  1.1350
  477MPD2    H2 7101   2.938   3.289  11.929  1.1021  0.6104 -0.1177
  477MPD2    H3 7102   3.157   3.225  12.031  0.5092 -0.5171 -0.0057
  477MPD2     N 7103   2.975   2.886  12.267  0.1130 -0.1834 -0.1503
  477MPD2    H5 7104   2.886   2.842  12.289 -1.4301  2.8080 -0.4252
  477MPD2    N1 7105   2.709   3.197  12.005 -0.6400  0.4735 -0.1540
  477MPD2    H7 7106   2.723   3.288  11.962  2.9587 -0.2081 -0.4911
  478TMC3    C1 7107   2.478   3.222  11.994  0.9098 -0.0080 -0.1723
  478TMC3    C2 7108   2.494   3.353  12.030 -0.5246 -0.4917  0.9017
  478TMC3    C3 7109   2.401   3.432  11.974 -0.0550 -0.6138 -0.3099
  478TMC3    C4 7110   2.384   3.177  11.912 -0.9970  0.5738  0.0542
  478TMC3    C5 7111   2.307   3.260  11.849  0.3011 -0.0904  0.0329
  478TMC3    C6 7112   2.311   3.396  11.880  0.6564  0.3446 -0.0688
  478TMC3     C 7113   2.586   3.144  12.039  0.3380  0.7777 -0.2451
  478TMC3     O 7114   2.562   3.027  12.058  0.0783 -0.3644  0.2589
  478TMC3     H 7115   2.563   3.391  12.106  1.1871  0.3098 -1.0550
  478TMC3    H1 7116   2.387   3.074  11.879 -2.2885  0.5037  0.1682
  478TMC3    H2 7117   2.232   3.464  11.853  1.5017  1.0985 -0.6392
  478TMC3    C7 7118   2.188   3.205  11.797  0.0490 -0.2523  0.7543
  478TMC3    C8 7119   2.375   3.554  12.042  0.1910  0.4376 -0.1566
  478TMC3    O1 7120   2.152   3.104  11.851 -0.2444  0.4147 -0.2392
  478TMC3    O2 7121   2.430   3.572  12.150  0.1268 -0.3947  0.4060
  479MPD2     C 7122   2.041   0.383  15.082  0.8964 -0.4559 -0.4026
  479MPD2    C1 7123   1.980   0.285  15.153 -0.2013 -0.3416  0.7631
  479MPD2    C2 7124   1.985   0.280  15.292  0.0697  0.0536  0.0755
  479MPD2    C3 7125   2.043   0.388  15.356  0.0168  0.1580  0.0317
  479MPD2    C4 7126   2.100   0.491  15.285 -0.7397  0.3902 -0.0196
  479MPD2    C5 7127   2.109   0.485  15.148 -0.2774  0.4628  0.4599
  479MPD2     H 7128   1.937   0.202  15.351  1.7861  0.8112  2.4626
  479MPD2    H1 7129   2.156   0.576  15.322  0.1672 -0.4634  0.5798
  479MPD2    H2 7130   2.039   0.391  14.974  0.6435  2.5186 -0.1754
  479MPD2    H3 7131   2.159   0.565  15.096  2.3245 -0.4398  1.5733
  479MPD2     N 7132   2.062   0.396  15.496  0.7417 -0.5650 -0.1313
  479MPD2    H5 7133   2.115   0.477  15.525  0.2657 -0.6692  1.0456
  479MPD2    N1 7134   1.907   0.197  15.079  0.5001 -0.2234 -0.2634
  479MPD2    H7 7135   1.911   0.214  14.979 -2.4136  1.1267 -0.1528
  480TMC3    C1 7136   1.687   0.150  15.658 -0.1059 -0.4235 -0.1637
  480TMC3    C2 7137   1.599   0.206  15.578 -0.2919  0.1299  0.0233
  480TMC3    C3 7138   1.640   0.298  15.491 -0.0333 -0.1597 -0.4325
  480TMC3    C4 7139   1.822   0.177  15.642 -0.0073 -0.0160  1.0433
  480TMC3    C5 7140   1.858   0.279  15.554 -0.3714  1.2963  0.3615
  480TMC3    C6 7141   1.765   0.346  15.479  0.1200  0.3151 -0.6294
  480TMC3     C 7142   1.657   0.055  15.762  0.1586 -0.4127  0.4056
  480TMC3     O 7143   1.746   0.031  15.842 -0.3024 -1.0679 -0.0958
  480TMC3     H 7144   1.491   0.202  15.592 -0.3158 -0.8223 -0.4465
  480TMC3    H1 7145   1.895   0.120  15.698  0.2750  0.0630  0.7596
  480TMC3    H2 7146   1.790   0.431  15.415  1.2932 -0.4741 -1.2157
  480TMC3    C7 7147   1.986   0.336  15.591 -0.4634 -0.0586 -0.7427
  480TMC3    C8 7148   1.551   0.295  15.372 -0.3563 -0.4504  0.7568
  480TMC3    O1 7149   2.021   0.311  15.705  0.3700  0.1619  0.0276
  480TMC3    O2 7150   1.448   0.232  15.378 -0.0626 -0.0996  0.3335
  481MPD2     C 7151   4.195   4.317  14.249 -0.0724  0.6139  0.6168
  481MPD2    C1 7152   4.071   4.358  14.268 -0.3309  0.0654 -0.4465
  481MPD2    C2 7153   4.030   4.386  14.402 -0.1834  0.7504 -0.2378
  481MPD2    C3 7154   4.120   4.361  14.502 -0.2297 -0.0692  0.1009
  481MPD2    C4 7155   4.251   4.325  14.475  0.1243  0.1190 -0.2919
  481MPD2    C5 7156   4.290   4.296  14.350  0.1210  0.0523  0.2707
  481MPD2     H 7157   3.933   4.427  14.428 -0.6647 -0.1112 -0.6573
  481MPD2    H1 7158   4.321   4.310  14.557 -0.9484  1.9083  0.9415
  481MPD2    H2 7159   4.216   4.273  14.152  1.2315  1.0225  0.7224
  481MPD2    H3 7160   4.382   4.240  14.335 -0.6559 -1.2623  0.3294
  481MPD2     N 7161   4.084   4.369  14.633 -0.8227 -0.1145 -0.1786
  481MPD2    H5 7162   4.163   4.370  14.697  0.6192 -1.4880 -1.9484
  481MPD2    N1 7163   3.993   4.382  14.155  0.0726  0.6233 -0.8421
  481MPD2    H7 7164   4.049   4.394  14.071  0.9880  2.0355 -0.0296
  482TMC3    C1 7165   3.803   4.473  14.036  0.3674  0.6453  0.3521
  482TMC3    C2 7166   3.665   4.472  14.043  0.3011  0.6702 -0.7192
  482TMC3    C3 7167   3.596   4.558  13.964  0.0701  0.3863 -0.2480
  482TMC3    C4 7168   3.867   4.568  13.970 -1.1974  0.2942 -0.2658
  482TMC3    C5 7169   3.794   4.646  13.886  0.2707  0.6520  0.0841
  482TMC3    C6 7170   3.657   4.642  13.879 -0.1852 -0.2037  0.0069
  482TMC3     C 7171   3.859   4.426  14.162  0.0645  0.8347  0.2599
  482TMC3     O 7172   3.780   4.438  14.254 -0.1530  0.0388 -0.5378
  482TMC3     H 7173   3.613   4.394  14.099 -0.0058  0.8318 -0.7807
  482TMC3    H1 7174   3.975   4.579  13.974 -1.2006 -1.2657  4.4137
  482TMC3    H2 7175   3.606   4.712  13.814 -0.9913  0.2248  1.1072
  482TMC3    C7 7176   3.865   0.010  13.798 -0.3322  0.6996 -0.0974
  482TMC3    C8 7177   3.456   4.528  13.944  0.0510 -0.0617  0.6627
  482TMC3    O1 7178   3.971   0.061  13.836 -0.0349  0.1869 -0.1693
  482TMC3    O2 7179   3.412   4.416  13.975 -0.1445  0.0972 -0.4676
  483TMC3    C1 7180   1.626   3.845   1.056 -0.0634  0.4564 -0.7217
  483TMC3    C2 7181   1.652   3.973   1.056  0.1535 -0.2572  0.4168
  483TMC3    C3 7182   1.764   4.020   1.110  0.4106  0.7832  0.0253
  483TMC3    C4 7183   1.704   3.747   1.111  0.1141  0.4341  0.1248
  483TMC3    C5 7184   1.823   3.792   1.170  0.5060  0.4861  0.3613
  483TMC3    C6 7185   1.849   3.925   1.159  0.2313  0.2683 -0.1028
  483TMC3     C 7186   1.503   3.807   0.985 -0.2933 -1.2796 -0.1695
  483TMC3     O 7187   1.417   3.887   0.981 -0.1101 -0.2229 -0.1769
  483TMC3     H 7188   1.584   4.041   1.004  0.5533 -0.5900 -0.5371
  483TMC3    H1 7189   1.665   3.647   1.129  0.3313  0.6938  2.1151
  483TMC3    H2 7190   1.946   3.957   1.197  1.1879 -0.6427 -1.8025
  483TMC3    C7 7191   1.943   3.710   1.169 -0.6043  0.4712 -0.2704
  483TMC3    C8 7192   1.835   4.122   1.034 -0.3223  0.3603 -0.0547
  483TMC3    O1 7193   2.055   3.760   1.190  0.2822  0.5870 -0.3818
  483TMC3    O2 7194   1.777   4.144   0.929 -0.0580 -0.9496  0.0942
  484MPD2     C 7195   3.354   1.638  12.451  0.4765  0.0171  0.7165
  484MPD2    C1 7196   3.467   1.592  12.519  0.1165  0.6922  0.5153
  484MPD2    C2 7197   3.570   1.687  12.538 -0.3617 -0.1214 -0.1118
  484MPD2    C3 7198   3.563   1.813  12.474 -0.4125  0.4313  0.0504
  484MPD2    C4 7199   3.459   1.847  12.398  0.2606  0.1526  0.3307
  484MPD2    C5 7200   3.356   1.762  12.392  0.6293  0.1272  0.3747
  484MPD2     H 7201   3.654   1.655  12.599 -0.4489  1.1027  0.6292
  484MPD2    H1 7202   3.435   1.943  12.354 -0.5843  0.3151  1.1451
  484MPD2    H2 7203   3.270   1.571  12.438 -0.0991  1.3083 -2.2423
  484MPD2    H3 7204   3.264   1.787  12.341  1.1628 -1.3406 -1.2948
  484MPD2     N 7205   3.668   1.910  12.469  0.2979  0.1291  0.0032
  484MPD2    H5 7206   3.647   2.002  12.432 -0.2977 -0.5493 -1.3341
  484MPD2    N1 7207   3.451   1.462  12.577  0.2801  0.0607 -0.0906
  484MPD2    H7 7208   3.373   1.402  12.553  1.4110 -0.5091 -2.3110
  485TMC3    C1 7209   3.872   2.014  12.499 -0.3406  0.2194 -0.6799
  485TMC3    C2 7210   3.999   2.014  12.557 -0.5722  0.3969  0.0892
  485TMC3    C3 7211   4.084   2.115  12.507 -0.3994  1.0138 -1.1563
  485TMC3    C4 7212   3.849   2.096  12.390  0.3141 -0.5207 -0.8609
  485TMC3    C5 7213   3.939   2.192  12.346  0.2170 -0.6721 -0.5261
  485TMC3    C6 7214   4.049   2.218  12.418 -0.4952 -0.6330  0.4747
  485TMC3     C 7215   3.795   1.897  12.517  0.2205  0.9034  0.1265
  485TMC3     O 7216   3.862   1.801  12.555 -0.1382  0.0373 -0.6837
  485TMC3     H 7217   4.020   1.943  12.636  0.3432 -2.2719 -2.5720
  485TMC3    H1 7218   3.755   2.095  12.336  0.4146  2.0983 -1.0741
  485TMC3    H2 7219   4.113   2.291  12.370 -1.9097  1.7922  2.2368
  485TMC3    C7 7220   3.964   2.182  12.199  0.4283  0.1434 -0.1421
  485TMC3    C8 7221   4.210   2.061  12.457 -0.6611 -0.6446  0.6347
  485TMC3    O1 7222   3.864   2.173  12.127  0.3873 -0.1718  0.1404
  485TMC3    O2 7223   4.285   2.148  12.412 -0.0119 -0.5630 -0.0113
  486MPD2     C 7224   0.560   0.356  13.041 -0.2756 -0.5668  0.2826
  486MPD2    C1 7225   0.554   0.326  12.907  0.0657 -0.2143 -0.3753
  486MPD2    C2 7226   0.474   0.409  12.822  0.1104 -0.2559 -0.6438
  486MPD2    C3 7227   0.415   0.521  12.878 -0.2738 -0.1308 -0.1908
  486MPD2    C4 7228   0.417   0.540  13.016 -0.7721 -0.0928 -0.1465
  486MPD2    C5 7229   0.485   0.454  13.094 -0.5589  0.0638 -0.2401
  486MPD2     H 7230   0.479   0.393  12.714 -2.3725 -1.1316 -0.6093
  486MPD2    H1 7231   0.356   0.618  13.059  1.4132  1.3658  0.3355
  486MPD2    H2 7232   0.625   0.292  13.100  1.4485  1.3901  0.4870
  486MPD2    H3 7233   0.498   0.478  13.199 -1.2761 -2.2296  0.3689
  486MPD2     N 7234   0.348   0.609  12.787 -0.2394 -0.4602 -0.9205
  486MPD2    H5 7235   0.368   0.598  12.688 -3.0519  1.8211 -1.7557
  486MPD2    N1 7236   0.639   0.225  12.854  1.1743 -0.1940 -0.3203
  486MPD2    H7 7237   0.702   0.177  12.917 -1.1873  0.9037  2.8685
  487TMC3    C1 7238   0.752   0.104  12.685 -0.1008  0.1828 -0.4096
  487TMC3    C2 7239   0.716   4.714  12.628  0.4116 -0.4716  0.6090
  487TMC3    C3 7240   0.789   4.594  12.642  0.5372  0.1138  0.2428
  487TMC3    C4 7241   0.873   0.114  12.750 -0.3672 -0.4049 -0.1602
  487TMC3    C5 7242   0.947   0.002  12.759 -0.0140  0.5851  0.0685
  487TMC3    C6 7243   0.906   4.602  12.713 -0.0845  0.0756 -0.2969
  487TMC3     C 7244   0.638   0.173  12.725 -0.1287  0.5352  0.1643
  487TMC3     O 7245   0.557   0.195  12.634  0.4486  0.2795  0.1963
  487TMC3     H 7246   0.613   4.704  12.597  0.3401  1.3923  0.2935
  487TMC3    H1 7247   0.912   0.201  12.802 -1.6720  0.7340 -1.0633
  487TMC3    H2 7248   0.957   4.513  12.748 -0.7555 -0.9487 -1.9027
  487TMC3    C7 7249   1.062   0.011  12.851  0.0416  0.3000  0.0021
  487TMC3    C8 7250   0.703   4.471  12.662  0.5547 -0.6127 -0.4335
  487TMC3    O1 7251   1.067   0.085  12.944 -0.7730 -0.0621  1.0675
  487TMC3    O2 7252   0.586   4.496  12.681  0.4387  0.0560  0.0770
  488MPD2     C 7253   1.518   2.183  16.472 -0.1266 -0.8858 -0.1431
  488MPD2    C1 7254   1.639   2.220  16.530 -0.3091 -0.0871 -0.1127
  488MPD2    C2 7255   1.645   2.214  16.670  0.6710 -0.9922 -0.6027
  488MPD2    C3 7256   1.538   2.181  16.751 -0.4623  0.4266  0.4447
  488MPD2    C4 7257   1.419   2.141  16.691  0.2747  0.3312  0.2872
  488MPD2    C5 7258   1.412   2.139  16.551  0.4772 -0.7300  0.5855
  488MPD2     H 7259   1.737   2.245  16.718 -0.2131 -0.6222  0.8528
  488MPD2    H1 7260   1.329   2.109  16.741 -0.2852  1.9821  0.3383
  488MPD2    H2 7261   1.495   2.193  16.367  0.6302  2.9787  0.0419
  488MPD2    H3 7262   1.325   2.099  16.500  1.3601 -0.3228 -1.2271
  488MPD2     N 7263   1.554   2.202  16.890  0.0788  0.1901  1.2397
  488MPD2    H5 7264   1.634   2.257  16.919  1.6313 -2.3295  1.7391
  488MPD2    N1 7265   1.747   2.279  16.459 -0.5684  0.4748 -0.0705
  488MPD2    H7 7266   1.799   2.339  16.522  0.9740 -1.1382  0.1945
  489TMC3    C1 7267   1.536   2.183  17.118 -0.6236  0.4653  0.1973
  489TMC3    C2 7268   1.574   2.310  17.136 -0.3485  0.1997  0.0891
  489TMC3    C3 7269   1.628   2.353  17.252 -1.0136  0.1119  0.9205
  489TMC3    C4 7270   1.542   2.095  17.221  0.1248 -0.2528  0.4873
  489TMC3    C5 7271   1.585   2.142  17.340 -0.2300  0.5544 -0.0740
  489TMC3    C6 7272   1.637   2.267  17.358  0.4820  0.7216 -0.2036
  489TMC3     C 7273   1.484   2.141  16.988 -0.2703 -0.2694  0.9447
  489TMC3     O 7274   1.415   2.045  16.980  0.2179  0.2505  0.4150
  489TMC3     H 7275   1.549   2.379  17.057  2.8507  1.5029  0.2429
  489TMC3    H1 7276   1.517   1.991  17.208  0.7080 -0.1339 -1.7305
  489TMC3    H2 7277   1.704   2.285  17.442 -0.2120 -1.6486  0.8461
  489TMC3    C7 7278   1.605   2.060  17.463  0.0600 -0.1941 -0.2534
  489TMC3    C8 7279   1.719   2.463  17.237  0.1496  0.2941  0.7732
  489TMC3    O1 7280   1.679   2.101  17.552 -0.3821 -0.4836 -0.8654
  489TMC3    O2 7281   1.754   2.490  17.122  0.2506 -0.3015 -0.2382
  490MPD2     C 7282   2.585   2.190  17.648  0.4623 -0.2474  0.5908
  490MPD2    C1 7283   2.702   2.129  17.609 -0.0744 -0.1157  0.0290
  490MPD2    C2 7284   2.824   2.160  17.660  0.1031  0.0839  0.8525
  490MPD2    C3 7285   2.839   2.271   0.037  0.2366 -1.0277  0.0302
  490MPD2    C4 7286   2.723   2.337   0.081 -0.0444 -0.5694 -0.9571
  490MPD2    C5 7287   2.601   2.301   0.029  0.0858 -0.4151 -0.3130
  490MPD2     H 7288   2.913   2.104  17.633 -0.1006  1.1867 -2.1298
  490MPD2    H1 7289   2.736   2.423   0.146 -1.1390 -1.1169 -0.0335
  490MPD2    H2 7290   2.487   2.172  17.605  0.0474  0.2634  1.3192
  490MPD2    H3 7291   2.515   2.358   0.062 -0.5045 -2.3596  1.5414
  490MPD2     N 7292   2.969   2.287   0.082 -0.3829 -0.3723  0.4286
  490MPD2    H5 7293   3.034   2.223   0.038 -0.9758  1.2046 -2.7607
  490MPD2    N1 7294   2.702   2.019  17.527  0.0597 -0.1265  0.4731
  490MPD2    H7 7295   2.795   1.978  17.515  0.1297  0.3709 -0.6531
  491TMC3    C1 7296   2.597   1.850  17.393  0.7558  0.0600  0.3605
  491TMC3    C2 7297   2.657   1.748  17.465  0.2293  0.0826 -0.1584
  491TMC3    C3 7298   2.661   1.626  17.401  0.3079  0.4295 -0.1654
  491TMC3    C4 7299   2.532   1.829  17.268 -0.5093 -0.2247  0.0380
  491TMC3    C5 7300   2.519   1.700  17.225 -0.0991 -0.1536  0.2763
  491TMC3    C6 7301   2.577   1.597  17.295  0.5705 -0.4170 -0.0030
  491TMC3     C 7302   2.589   1.982  17.450  0.2127  0.0804 -0.1691
  491TMC3     O 7303   2.482   2.035  17.427  0.2008  0.3124  0.1672
  491TMC3     H 7304   2.714   1.764  17.556 -0.3916  1.2348  0.0365
  491TMC3    H1 7305   2.496   1.910  17.205 -3.4040 -0.5030  1.3087
  491TMC3    H2 7306   2.583   1.493  17.266 -0.2666 -0.8124  1.2717
  491TMC3    C7 7307   2.398   1.660  17.149 -0.7297  0.7366 -0.0376
  491TMC3    C8 7308   2.729   1.518  17.473  0.1848 -0.7588  0.2957
  491TMC3    O1 7309   2.378   1.542  17.157  0.2689 -0.2175  0.1309
  491TMC3    O2 7310   2.777   1.426  17.405  0.2338 -0.4506 -0.0492
  492MPD2     C 7311   2.467   1.145  11.496  0.0834 -0.0197  0.3816
  492MPD2    C1 7312   2.369   1.126  11.407  0.4204  0.3438 -0.3428
  492MPD2    C2 7313   2.241   1.108  11.441 -0.1942  0.8850  0.1149
  492MPD2    C3 7314   2.211   1.106  11.576 -0.9248  0.0836 -0.7509
  492MPD2    C4 7315   2.307   1.118  11.666 -0.0037  0.8283  0.2572
  492MPD2    C5 7316   2.434   1.144  11.629 -0.6653 -0.3078  0.1597
  492MPD2     H 7317   2.166   1.090  11.364  1.2812 -1.5203 -0.7724
  492MPD2    H1 7318   2.280   1.119  11.771 -0.8884 -1.4830  0.0282
  492MPD2    H2 7319   2.570   1.158  11.464 -0.0423  0.5795  0.2287
  492MPD2    H3 7320   2.508   1.168  11.705 -0.0388 -1.4874 -0.0953
  492MPD2     N 7321   2.083   1.088  11.634  0.4165  0.6371  0.0109
  492MPD2    H5 7322   2.080   1.109  11.733  0.6471 -0.5402  0.2621
  492MPD2    N1 7323   2.406   1.156  11.271  0.3288 -0.0507  0.1252
  492MPD2    H7 7324   2.496   1.201  11.255  1.2999 -2.0024  0.1870
  493TMC3    C1 7325   2.364   1.257  11.058 -0.1475 -0.1955 -0.4849
  493TMC3    C2 7326   2.419   1.372  11.091 -0.1830  0.2184 -0.0597
  493TMC3    C3 7327   2.430   1.475  11.000  0.3022  0.0308 -0.0129
  493TMC3    C4 7328   2.315   1.243  10.934  0.2460 -0.7076 -0.5561
  493TMC3    C5 7329   2.305   1.350  10.853  0.2258 -0.2665  0.2537
  493TMC3    C6 7330   2.378   1.466  10.874 -0.1060 -0.3492 -0.6921
  493TMC3     C 7331   2.319   1.161  11.160  0.3153 -0.1668 -0.4649
  493TMC3     O 7332   2.229   1.080  11.135  0.0901 -0.4018 -0.6679
  493TMC3     H 7333   2.463   1.389  11.188 -0.4222  1.2550 -0.1263
  493TMC3    H1 7334   2.264   1.149  10.914 -2.0946  0.4773 -0.0402
  493TMC3    H2 7335   2.358   1.550  10.809  0.3292 -0.6164 -1.1652
  493TMC3    C7 7336   2.247   1.335  10.723  0.2660  0.0971  0.0093
  493TMC3    C8 7337   2.423   1.608  11.066  0.2598 -0.0539  0.8351
  493TMC3    O1 7338   2.190   1.434  10.679 -0.1592 -0.5351 -0.1180
  493TMC3    O2 7339   2.390   1.616  11.186  0.3609 -0.3769  0.2728
  494TMC3    C1 7340   3.533   3.762   0.048  0.2003  0.0546  0.2048
  494TMC3    C2 7341   3.621   3.666   0.092 -0.1167  0.3239 -0.6634
  494TMC3    C3 7342   3.612   3.543   0.039 -0.3232  0.2194 -0.1430
  494TMC3    C4 7343   3.457   3.744  17.641  0.0873  0.1025  1.4087
  494TMC3    C5 7344   3.461   3.616  17.587  0.1607 -0.2614 -0.0459
  494TMC3    C6 7345   3.529   3.512  17.634 -0.5860  0.3553  0.3262
  494TMC3     C 7346   3.504   3.880   0.130  0.5693  0.2615 -0.3191
  494TMC3     O 7347   3.393   3.908   0.166 -0.3384 -0.5101  0.4999
  494TMC3     H 7348   3.684   3.696   0.175  1.0761 -0.8450 -1.1569
  494TMC3    H1 7349   3.412   3.834  17.601 -1.6454 -0.5442  1.9100
  494TMC3    H2 7350   3.534   3.413  17.591  0.0876 -0.0497  1.3276
  494TMC3    C7 7351   3.415   3.598  17.447 -0.4899 -0.1890 -0.1535
  494TMC3    C8 7352   3.677   3.433   0.114 -0.6638  0.9577  0.4908
  494TMC3    O1 7353   3.464   3.498  17.388 -0.6844 -0.2131  0.5099
  494TMC3    O2 7354   3.791   3.441   0.159  0.1667  0.2471 -0.7038
  495TMC3    C1 7355   2.110   0.605  14.631  0.2456 -0.0059 -0.2081
  495TMC3    C2 7356   2.056   0.668  14.522  0.2628  0.2619  0.3556
  495TMC3    C3 7357   1.923   0.709  14.522  0.5332  0.7947 -0.3571
  495TMC3    C4 7358   2.043   0.602  14.751  0.0628  0.1488  0.0208
  495TMC3    C5 7359   1.920   0.651  14.753  0.3244 -0.1731 -0.1875
  495TMC3    C6 7360   1.851   0.697  14.642 -0.0140  0.1296 -0.4489
  495TMC3     C 7361   2.139   0.472  14.583  0.5858  0.0505  0.2386
  495TMC3     O 7362   2.090   0.431  14.478 -0.3107 -0.7232  0.6656
  495TMC3     H 7363   2.117   0.681  14.433  0.3972  0.2038  0.4396
  495TMC3    H1 7364   2.074   0.547  14.839 -1.0987 -0.0984  0.2715
  495TMC3    H2 7365   1.746   0.726  14.645 -0.6920 -2.1004 -2.4274
  495TMC3    C7 7366   1.835   0.606  14.861 -0.4760  0.2711  0.1411
  495TMC3    C8 7367   1.846   0.707  14.406 -0.8054 -0.3329 -0.7809
  495TMC3    O1 7368   1.878   0.638  14.974 -0.4025 -0.1529 -0.6877
  495TMC3    O2 7369   1.737   0.769  14.407 -0.3947  0.6854  0.4921
  496MPD2     C 7370   3.784   0.972  15.532 -0.6753 -0.2439  0.0020
  496MPD2    C1 7371   3.829   0.880  15.624  1.0963  0.3401  0.3114
  496MPD2    C2 7372   3.790   0.879  15.755  0.0960 -0.0334 -0.4552
  496MPD2    C3 7373   3.692   0.972  15.793  0.3440 -0.5708 -0.0278
  496MPD2    C4 7374   3.637   1.057  15.696 -0.6031 -0.1955 -0.4830
  496MPD2    C5 7375   3.683   1.052  15.566  0.2925  0.2117 -0.3934
  496MPD2     H 7376   3.837   0.807  15.821 -2.1354  1.1985  2.4543
  496MPD2    H1 7377   3.558   1.126  15.723 -1.6224 -0.7209 -2.1401
  496MPD2    H2 7378   3.828   0.982  15.433 -3.3002 -0.1202 -1.1531
  496MPD2    H3 7379   3.645   1.128  15.498 -0.0462 -0.3554 -0.8352
  496MPD2     N 7380   3.634   0.962  15.917  0.2559 -0.4559 -0.4338
  496MPD2    H5 7381   3.543   1.007  15.932  0.1406  0.2272 -3.2127
  496MPD2    N1 7382   3.918   0.785  15.563 -0.0100 -0.0082  0.1140
  496MPD2    H7 7383   3.934   0.793  15.463  1.2470  0.5643  0.3712
  497TMC3    C1 7384   3.619   0.913  16.149 -0.5644  0.4452  0.5947
  497TMC3    C2 7385   3.499   0.847  16.140  0.1705  0.2513  0.8552
  497TMC3    C3 7386   3.435   0.806  16.258 -0.2901  0.0494 -0.3482
  497TMC3    C4 7387   3.680   0.928  16.277 -0.5588  1.0590  0.3187
  497TMC3    C5 7388   3.610   0.883  16.391  0.9828  0.0580  0.4430
  497TMC3    C6 7389   3.485   0.816  16.383 -0.0752 -0.5394  0.1542
  497TMC3     C 7390   3.705   0.913  16.029  0.0029  1.1187 -0.5842
  497TMC3     O 7391   3.826   0.914  16.052 -0.0572 -0.0635 -0.4124
  497TMC3     H 7392   3.454   0.842  16.041  1.2148  0.9689  0.3491
  497TMC3    H1 7393   3.779   0.972  16.282 -0.5884  1.4390 -2.9474
  497TMC3    H2 7394   3.441   0.774  16.473 -0.1119  0.7825  0.7682
  497TMC3    C7 7395   3.677   0.899  16.526  0.6032 -0.3662 -0.6416
  497TMC3    C8 7396   3.318   0.720  16.248  0.0365  0.0317  0.4910
  497TMC3    O1 7397   3.610   0.866  16.627  0.3790 -0.0249 -0.4213
  497TMC3    O2 7398   3.242   0.710  16.340 -0.1662 -0.6377 -0.8668
  498MPD2     C 7399   0.091   0.988   9.365  0.5285 -0.3346  0.2850
  498MPD2    C1 7400   0.141   1.010   9.490  0.4474 -0.0686  0.6344
  498MPD2    C2 7401   0.046   1.005   9.593  0.8596  0.6345 -0.3135
  498MPD2    C3 7402   4.642   0.961   9.565  0.2223 -0.4080 -0.0482
  498MPD2    C4 7403   4.604   0.930   9.436 -0.0278 -0.8696  0.1367
  498MPD2    C5 7404   4.691   0.940   9.338  0.3115 -0.2904 -0.2429
  498MPD2     H 7405   0.073   1.020   9.697  1.3495 -0.8504 -0.2166
  498MPD2    H1 7406   4.505   0.898   9.408  0.1620  0.3984 -1.9139
  498MPD2    H2 7407   0.162   0.981   9.282  0.0265 -1.2226 -0.0709
  498MPD2    H3 7408   4.651   0.915   9.240 -2.2652 -0.9316  0.9445
  498MPD2     N 7409   4.557   0.958   9.682  0.2222 -0.5450 -0.1281
  498MPD2    H5 7410   4.601   0.977   9.771  1.1321  0.0285 -0.6901
  498MPD2    N1 7411   0.269   1.057   9.511 -0.8249  0.0217  0.2098
  498MPD2    H7 7412   0.294   1.082   9.606  0.7141 -0.5836 -0.0346
  499TMC3    C1 7413   0.475   1.137   9.481  0.4213 -0.0126 -0.4009
  499TMC3    C2 7414   0.529   1.053   9.584  0.0787  0.1808 -0.7088
  499TMC3    C3 7415   0.656   1.089   9.634 -0.4515 -0.5368 -0.1742
  499TMC3    C4 7416   0.539   1.244   9.431  0.3902 -0.5198 -0.3814
  499TMC3    C5 7417   0.664   1.270   9.476  0.1230  0.4627  0.4775
  499TMC3    C6 7418   0.721   1.196   9.577 -0.7900  0.5796  0.2854
  499TMC3     C 7419   0.353   1.102   9.414 -0.1693  0.4514  0.0061
  499TMC3     O 7420   0.350   1.132   9.294 -0.2013 -0.1252 -0.0891
  499TMC3     H 7421   0.471   0.971   9.626  0.2224  1.3954  1.8872
  499TMC3    H1 7422   0.492   1.295   9.348 -0.6147  1.1697  1.2128
  499TMC3    H2 7423   0.814   1.234   9.619  0.0408 -0.2119 -0.8327
  499TMC3    C7 7424   0.743   1.392   9.435  0.1705  0.1938 -0.1125
  499TMC3    C8 7425   0.736   0.995   9.717 -0.0367  0.1447 -0.1127
  499TMC3    O1 7426   0.815   1.444   9.519 -0.1046  0.2167  0.2765
  499TMC3    O2 7427   0.859   1.010   9.713 -0.4667  0.1109  0.2837
  500MPD2     C 7428   1.545   2.593  11.123  0.1739 -0.2792  0.6307
  500MPD2    C1 7429   1.619   2.633  11.020  0.4205 -0.3778 -0.4525
  500MPD2    C2 7430   1.567   2.624  10.893 -0.6638  0.0461 -0.0169
  500MPD2    C3 7431   1.440   2.572  10.872  0.5876  0.0705  0.3320
  500MPD2    C4 7432   1.368   2.529  10.975  0.1213 -0.3458  0.2114
  500MPD2    C5 7433   1.414   2.557  11.103  0.3264  0.6757 -0.6429
  500MPD2     H 7434   1.637   2.652  10.814 -1.4980 -0.9211 -1.0887
  500MPD2    H1 7435   1.269   2.488  10.958 -0.0851  1.3984 -2.7756
  500MPD2    H2 7436   1.578   2.613  11.224 -1.4734  0.4749  1.0066
  500MPD2    H3 7437   1.349   2.534  11.186  2.4928 -1.0360  0.5677
  500MPD2     N 7438   1.399   2.529  10.744 -0.4044 -0.5432 -0.1309
  500MPD2    H5 7439   1.311   2.479  10.731 -0.6851 -0.7708  2.7241
  500MPD2    N1 7440   1.755   2.681  11.029  0.1531 -0.2353  0.4919
  500MPD2    H7 7441   1.806   2.689  10.942  0.4478  1.4280  0.8268
  501TMC3    C1 7442   1.975   2.689  11.116  0.1530 -0.6879 -0.2993
  501TMC3    C2 7443   2.024   2.716  10.994 -0.4487  0.1630  0.1403
  501TMC3    C3 7444   2.156   2.743  10.980 -0.6420 -0.5649 -0.0366
  501TMC3    C4 7445   2.060   2.669  11.224  0.1841  0.5330 -0.3804
  501TMC3    C5 7446   2.194   2.710  11.211 -0.1406  0.4406 -0.2362
  501TMC3    C6 7447   2.238   2.756  11.089 -0.2848  0.7824  0.1737
  501TMC3     C 7448   1.834   2.677  11.139  0.9629  0.1800  0.2251
  501TMC3     O 7449   1.800   2.654  11.255 -0.8846 -0.6333 -0.2540
  501TMC3     H 7450   1.961   2.713  10.906  0.6121  1.2706 -0.6589
  501TMC3    H1 7451   2.032   2.632  11.322  0.6033 -0.5758 -0.6866
  501TMC3    H2 7452   2.338   2.795  11.078  1.3518 -3.4126  0.2290
  501TMC3    C7 7453   2.288   2.675  11.318 -0.3765 -0.3158  0.4015
  501TMC3    C8 7454   2.201   2.831  10.858 -0.7301  0.1888 -0.0275
  501TMC3    O1 7455   2.248   2.597  11.403  0.0782  0.0759  0.3778
  501TMC3    O2 7456   2.278   2.923  10.894  0.3632 -0.4537  0.0739
  502TMC3    C1 7457   1.443   1.185  14.956 -0.4602  0.2328 -0.8583
  502TMC3    C2 7458   1.429   1.312  14.893 -0.0564  0.1977 -0.2965
  502TMC3    C3 7459   1.305   1.361  14.879 -0.6179 -0.3167  0.0966
  502TMC3    C4 7460   1.339   1.114  15.009 -0.3477 -0.8766 -0.0806
  502TMC3    C5 7461   1.215   1.171  14.990  0.5702 -0.0869  0.3491
  502TMC3    C6 7462   1.188   1.297  14.934 -0.6452  0.3506  0.6383
  502TMC3     C 7463   1.575   1.161  15.018 -0.0905 -0.0255 -0.1127
  502TMC3     O 7464   1.677   1.201  14.960  0.1730  0.4371 -0.9236
  502TMC3     H 7465   1.517   1.375  14.881  0.0149 -0.1074 -1.3406
  502TMC3    H1 7466   1.351   1.025  15.070 -1.5366 -1.0047 -0.0254
  502TMC3    H2 7467   1.096   1.337  14.894  0.9783  0.2992 -3.1581
  502TMC3    C7 7468   1.106   1.076  15.016  0.3927 -0.7500 -0.1760
  502TMC3    C8 7469   1.277   1.504  14.855  0.1992 -0.8599 -0.2968
  502TMC3    O1 7470   1.126   0.956  15.036  0.6523 -0.4318  0.1853
  502TMC3    O2 7471   1.360   1.563  14.788  0.1377  0.4353  0.0220
  503MPD2     C 7472   3.498   1.991  16.869 -0.0213 -0.1438 -0.0833
  503MPD2    C1 7473   3.589   2.054  16.954  0.0302  0.6567  0.5621
  503MPD2    C2 7474   3.679   1.981  17.029  0.0624  0.9060 -0.3794
  503MPD2    C3 7475   3.684   1.844  17.029  0.3706  0.3086 -0.4028
  503MPD2    C4 7476   3.591   1.783  16.946 -0.0055  0.3412 -0.5804
  503MPD2    C5 7477   3.497   1.853  16.874  0.1587  0.0882  0.3338
  503MPD2     H 7478   3.750   2.041  17.084  1.1038  0.4688 -1.2277
  503MPD2    H1 7479   3.581   1.676  16.963 -2.5954  1.1156  2.7538
  503MPD2    H2 7480   3.424   2.046  16.812  0.2526  0.2683 -0.0382
  503MPD2    H3 7481   3.432   1.796  16.809  0.9100  0.9718 -1.1842
  503MPD2     N 7482   3.777   1.781  17.115  0.1801  0.1244  0.1101
  503MPD2    H5 7483   3.843   1.835  17.170  0.8248 -0.0767 -0.4712
  503MPD2    N1 7484   3.607   2.194  16.958  0.4296  0.4516  0.1030
  503MPD2    H7 7485   3.665   2.237  17.030 -0.0329  3.7498 -1.4962
  504TMC3    C1 7486   3.925   1.616  17.198 -0.9331 -0.6197 -0.4020
  504TMC3    C2 7487   3.912   1.564  17.326  0.0983  0.0890  0.1739
  504TMC3    C3 7488   4.033   1.517  17.382 -0.6658  0.1898  0.0670
  504TMC3    C4 7489   4.038   1.617  17.125  0.2286 -0.3885 -0.0829
  504TMC3    C5 7490   4.153   1.562  17.179 -0.4451  0.0368  0.0138
  504TMC3    C6 7491   4.148   1.513  17.305  0.1507  0.5724  0.3878
  504TMC3     C 7492   3.808   1.644  17.117  0.1550  0.5867 -0.1961
  504TMC3     O 7493   3.749   1.556  17.060  0.9866  0.4871 -0.0346
  504TMC3     H 7494   3.817   1.554  17.376 -0.4980 -0.6302 -1.1147
  504TMC3    H1 7495   4.027   1.654  17.024 -0.4345  2.1750  0.9182
  504TMC3    H2 7496   4.236   1.472  17.353  1.2469 -0.2134 -2.2896
  504TMC3    C7 7497   4.275   1.553  17.099  0.4274  0.6789  0.1890
  504TMC3    C8 7498   4.018   1.403  17.473  0.0429  0.6791  0.4993
  504TMC3    O1 7499   4.268   1.634  17.010 -0.0586 -0.1788  0.2150
  504TMC3    O2 7500   3.921   1.330  17.452 -0.3830  0.4165  0.0632
  505MPD2     C 7501   3.697   0.745  10.771  0.2377  0.1898  0.0185
  505MPD2    C1 7502   3.695   0.628  10.693  0.4909 -0.1320  0.0689
  505MPD2    C2 7503   3.800   0.546  10.718 -0.2027 -0.4305 -0.8056
  505MPD2    C3 7504   3.908   0.578  10.804  0.5519 -0.5518  1.0554
  505MPD2    C4 7505   3.909   0.702  10.870 -1.0441 -0.3123  1.3187
  505MPD2    C5 7506   3.793   0.773  10.862  0.3730 -0.7091  0.9432
  505MPD2     H 7507   3.801   0.444  10.681  3.2063 -0.2833 -1.1036
  505MPD2    H1 7508   3.983   0.728  10.945  1.9897 -0.0434 -1.7499
  505MPD2    H2 7509   3.619   0.821  10.777  1.1727  1.0667  1.0799
  505MPD2    H3 7510   3.769   0.856  10.927  0.7741 -1.8571  2.5627
  505MPD2     N 7511   4.012   0.479  10.812  0.0638  0.7790  0.3725
  505MPD2    H5 7512   3.997   0.398  10.752 -0.0067  0.3172  1.0065
  505MPD2    N1 7513   3.588   0.605  10.605 -0.2243 -0.5255  0.8336
  505MPD2    H7 7514   3.526   0.684  10.591  1.4687  0.8411  1.1809
  506TMC3    C1 7515   3.458   0.483  10.448 -0.8031 -0.2795  0.1966
  506TMC3    C2 7516   3.453   0.589  10.361 -0.6064  0.1043  0.4997
  506TMC3    C3 7517   3.442   0.558  10.228  0.6638 -0.4224  0.2345
  506TMC3    C4 7518   3.441   0.357  10.398  1.0490  0.0729  0.1470
  506TMC3    C5 7519   3.420   0.332  10.263 -0.1679 -0.6001  0.5297
  506TMC3    C6 7520   3.408   0.438  10.170  0.3471 -0.1051  0.0242
  506TMC3     C 7521   3.565   0.489  10.535 -0.4015  0.9164  0.1586
  506TMC3     O 7522   3.631   0.389  10.527 -0.3429  0.2976  0.5412
  506TMC3     H 7523   3.479   0.692  10.383 -1.6966  0.3761  0.4872
  506TMC3    H1 7524   3.448   0.273  10.467  2.3147 -0.0709 -0.1587
  506TMC3    H2 7525   3.414   0.432  10.062 -1.4792  0.1219 -0.0880
  506TMC3    C7 7526   3.512   0.246  10.208 -0.1558  0.2646  0.7419
  506TMC3    C8 7527   3.446   0.668  10.136 -0.2817 -0.5536  0.0238
  506TMC3    O1 7528   3.508   0.204  10.092 -0.1121 -0.1154  0.1871
  506TMC3    O2 7529   3.346   0.687  10.069 -0.0812 -0.2424 -0.0457
  507TMC3    C1 7530   4.575   1.408  14.370  0.1701 -0.1599  0.7169
  507TMC3    C2 7531   4.553   1.374  14.239  0.4648  0.3114  0.4393
  507TMC3    C3 7532   4.627   1.449  14.143 -0.2196  0.4354  0.2575
  507TMC3    C4 7533   4.637   1.524  14.406 -0.3732  0.6130  0.2712
  507TMC3    C5 7534   4.694   1.616  14.316  0.2485  0.7136  0.1006
  507TMC3    C6 7535   4.697   1.564  14.186  0.2840 -0.3040 -0.1961
  507TMC3     C 7536   4.509   1.325  14.465  0.1562  0.4137  0.4232
  507TMC3     O 7537   4.574   1.323  14.564 -0.1875  0.3129 -0.5100
  507TMC3     H 7538   4.487   1.291  14.214  0.9936 -0.6166  2.1922
  507TMC3    H1 7539   4.661   1.534  14.511 -3.2658 -1.4606  1.1045
  507TMC3    H2 7540   0.033   1.616  14.113 -2.1277 -0.9089 -2.6405
  507TMC3    C7 7541   4.652   1.753  14.310  0.2245  0.0148 -0.2321
  507TMC3    C8 7542   4.558   1.463  14.015 -0.1895 -0.6306 -0.4080
  507TMC3    O1 7543   4.621   1.795  14.198 -0.3524  0.4069 -0.3250
  507TMC3    O2 7544   4.543   1.365  13.945 -0.1656 -0.2488 -0.4508
  508MPD2     C 7545   0.762   3.577  16.039 -0.3554  0.2163  0.6698
  508MPD2    C1 7546   0.744   3.703  16.081 -0.2412 -0.5581  0.6098
  508MPD2    C2 7547   0.721   3.798  15.984 -0.2163  0.7366 -0.0461
  508MPD2    C3 7548   0.724   3.777  15.848  0.6507 -0.5625 -0.1689
  508MPD2    C4 7549   0.733   3.645  15.809  1.0614 -0.9740  0.2909
  508MPD2    C5 7550   0.737   3.550  15.907 -0.2632 -0.4345  0.1136
  508MPD2     H 7551   0.718   3.900  16.022  0.5179  0.2993  1.2048
  508MPD2    H1 7552   0.746   3.619  15.705  1.0604  1.3162 -0.2826
  508MPD2    H2 7553   0.783   3.502  16.114 -1.4299 -2.3676 -1.6238
  508MPD2    H3 7554   0.737   3.444  15.884  1.8603 -0.1311 -1.2773
  508MPD2     N 7555   0.717   3.889  15.758 -0.0297 -0.1874  0.0169
  508MPD2    H5 7556   0.716   3.982  15.801  0.1988  1.8133 -4.3241
  508MPD2    N1 7557   0.766   3.725  16.222  0.2877  0.5020 -0.1095
  508MPD2    H7 7558   0.801   3.641  16.268 -3.0084 -0.1197  1.3015
  509TMC3    C1 7559   0.645   4.204  15.498  0.0921  0.2756 -0.7545
  509TMC3    C2 7560   0.730   4.214  15.389 -0.7070  0.2519 -0.8533
  509TMC3    C3 7561   0.829   4.110  15.375 -0.1067 -0.2721 -0.3475
  509TMC3    C4 7562   0.647   4.099  15.584  0.6402  0.5424  0.2230
  509TMC3    C5 7563   0.736   3.994  15.553 -0.2229  0.7277  0.6069
  509TMC3    C6 7564   0.818   3.998  15.451  0.1331 -0.4075  0.5100
  509TMC3     C 7565   0.589   4.321  15.554  0.8114 -0.5386 -0.3518
  509TMC3     O 7566   0.579   4.327  15.673  0.0233 -0.3291 -0.1930
  509TMC3     H 7567   0.736   4.300  15.324 -0.2318  0.8558 -0.0024
  509TMC3    H1 7568   0.579   4.089  15.668  0.0314  0.0224 -0.3301
  509TMC3    H2 7569   0.894   3.923  15.436  2.3324  1.9724 -0.1741
  509TMC3    C7 7570   0.743   3.874  15.624  0.1609 -0.3737 -0.0975
  509TMC3    C8 7571   0.961   4.161  15.400 -0.0458  0.6445  0.7177
  509TMC3    O1 7572   0.758   3.776  15.550  0.4515  0.0331  0.5290
  509TMC3    O2 7573   1.041   4.086  15.447 -0.0348 -0.0780 -0.1580
  510MPD2     C 7574   3.279   1.014  14.852 -1.2550  0.3751 -0.0931
  510MPD2    C1 7575   3.334   0.893  14.890 -0.3371 -0.9822  0.5613
  510MPD2    C2 7576   3.443   0.839  14.833 -0.0562  0.3531  0.1685
  510MPD2    C3 7577   3.506   0.902  14.728 -0.6852 -0.6966 -0.1466
  510MPD2    C4 7578   3.444   1.021  14.682 -0.5980  0.0202  0.8320
  510MPD2    C5 7579   3.330   1.068  14.738  0.5480 -0.3601  0.5307
  510MPD2     H 7580   3.487   0.750  14.875 -2.3507 -0.0011  1.8070
  510MPD2    H1 7581   3.489   1.073  14.598  2.2434  1.6917  3.3997
  510MPD2    H2 7582   3.190   1.056  14.898 -0.5646  1.1853  0.4988
  510MPD2    H3 7583   3.297   1.165  14.703  0.3717  0.0643  1.9126
  510MPD2     N 7584   3.631   0.852  14.689 -0.4361  0.2202 -0.5026
  510MPD2    H5 7585   3.663   0.773  14.743 -0.2511  0.1177 -0.7668
  510MPD2    N1 7586   3.284   0.842  15.012 -0.7739  0.0687  0.0674
  510MPD2    H7 7587   3.213   0.896  15.061 -1.2082  0.4198 -0.9610
  511TMC3    C1 7588   3.216   0.675  15.156 -0.4583  0.5280  0.3092
  511TMC3    C2 7589   3.160   0.758  15.249  0.1378  0.3138 -0.5384
  511TMC3    C3 7590   3.063   0.711  15.333 -0.1229  0.2657 -0.1306
  511TMC3    C4 7591   3.177   0.547  15.140  0.3446 -0.5007  0.2234
  511TMC3    C5 7592   3.079   0.504  15.223 -0.3651  0.3532 -0.0742
  511TMC3    C6 7593   3.016   0.585  15.317 -0.0200 -0.6631  0.0341
  511TMC3     C 7594   3.314   0.722  15.061  0.8262 -0.1977 -0.2908
  511TMC3     O 7595   3.374   0.628  15.006 -0.0004  0.1022 -0.3018
  511TMC3     H 7596   3.196   0.859  15.266 -1.3279  0.8580 -0.6380
  511TMC3    H1 7597   3.216   0.490  15.056 -1.8904 -0.0413 -1.1033
  511TMC3    H2 7598   2.943   0.538  15.381  0.3112  1.1915  1.7606
  511TMC3    C7 7599   2.993   0.402  15.168 -1.0363  0.4681 -0.4295
  511TMC3    C8 7600   3.001   0.800  15.430 -0.1158  0.0437 -0.3612
  511TMC3    O1 7601   2.988   0.395  15.044 -0.1148 -0.5969  0.4928
  511TMC3    O2 7602   3.014   0.922  15.429  0.6869 -0.4591  0.1396
  512TMC3    C1 7603   2.207   0.480  13.460 -0.1440  0.7017  0.1958
  512TMC3    C2 7604   2.296   0.401  13.520  0.3877 -0.2711 -0.4557
  512TMC3    C3 7605   2.272   0.266  13.523 -0.1644 -0.0149 -0.5932
  512TMC3    C4 7606   2.109   0.427  13.386 -0.0555 -0.3160 -0.2920
  512TMC3    C5 7607   2.108   0.292  13.368  0.4165 -0.2261 -0.1513
  512TMC3    C6 7608   2.189   0.203  13.439  0.0289 -0.1062  0.7379
  512TMC3     C 7609   2.240   0.622  13.459 -0.1582 -0.1366 -0.0160
  512TMC3     O 7610   2.357   0.657  13.481 -0.3029 -0.0755 -0.4975
  512TMC3     H 7611   2.363   0.458  13.584 -0.9091 -0.8007  1.3883
  512TMC3    H1 7612   2.040   0.492  13.333  0.3870  0.5883  0.2283
  512TMC3    H2 7613   2.177   0.096  13.430  0.5357 -0.1521  0.6579
  512TMC3    C7 7614   2.014   0.239  13.271 -0.4818  0.0003  0.1755
  512TMC3    C8 7615   2.352   0.178  13.607 -0.3115  0.9502 -0.3671
  512TMC3    O1 7616   1.977   0.323  13.191 -0.1944  0.3183 -0.9418
  512TMC3    O2 7617   2.337   0.056  13.604 -0.5754 -0.0902 -0.1039
  513MPD2     C 7618   4.242   0.627  13.075  0.4093  0.3717 -0.5035
  513MPD2    C1 7619   4.212   0.488  13.071  0.4769  0.1587  0.1547
  513MPD2    C2 7620   4.279   0.401  13.152  0.4572 -0.1744 -0.8359
  513MPD2    C3 7621   4.377   0.439  13.239  0.9025 -0.5034 -0.4856
  513MPD2    C4 7622   4.411   0.574  13.247  0.5300 -0.6812  0.5290
  513MPD2    C5 7623   4.340   0.665  13.166 -0.5565  0.1373  0.8765
  513MPD2     H 7624   4.261   0.294  13.148  4.1012 -0.9034  1.7786
  513MPD2    H1 7625   4.489   0.610  13.313  0.0889 -0.3067  0.8470
  513MPD2    H2 7626   4.172   0.700  13.035  0.9207  0.8179 -0.5903
  513MPD2    H3 7627   4.358   0.770  13.186  0.3067 -0.0137  0.9054
  513MPD2     N 7628   4.443   0.337  13.315  0.0024 -0.8388  0.1906
  513MPD2    H5 7629   4.400   0.246  13.303 -0.1109 -0.6749 -0.6314
  513MPD2    N1 7630   4.120   0.440  12.977 -0.3439  0.5832 -0.0070
  513MPD2    H7 7631   4.088   0.344  12.982 -3.1437  1.5022 -0.0487
  514TMC3    C1 7632   3.986   0.413  12.798 -0.3701 -0.1766  0.0309
  514TMC3    C2 7633   4.006   0.414  12.659 -0.2901  0.2942  0.2098
  514TMC3    C3 7634   4.029   0.294  12.592 -0.2297  1.0072 -0.3786
  514TMC3    C4 7635   3.974   0.286  12.852  0.2444 -0.2979  0.0590
  514TMC3    C5 7636   3.979   0.168  12.783 -0.0399  0.8770  0.2110
  514TMC3    C6 7637   4.009   0.177  12.649  0.2927  0.2097  0.1138
  514TMC3     C 7638   4.075   0.511  12.871  0.2683 -0.2685 -0.0830
  514TMC3     O 7639   4.127   0.606  12.814 -0.2753  0.5149 -0.4150
  514TMC3     H 7640   4.025   0.509  12.610  1.7667 -0.6464 -0.8489
  514TMC3    H1 7641   3.941   0.278  12.955 -1.8777  0.6537 -0.5454
  514TMC3    H2 7642   4.031   0.083  12.600  1.4848  0.0609  0.9405
  514TMC3    C7 7643   4.040   0.063  12.866 -0.3423  0.2027  0.6674
  514TMC3    C8 7644   4.036   0.293  12.451 -0.3205 -0.9276  0.6184
  514TMC3    O1 7645   4.043   0.086  12.986  0.5828 -0.2783  0.0667
  514TMC3    O2 7646   3.996   0.394  12.397 -0.4011  0.0593 -0.3876
  515MPD2     C 7647   1.660   2.023  14.884 -0.4327 -0.3231  0.0695
  515MPD2    C1 7648   1.740   2.009  14.776  0.0339  0.9753 -0.0046
  515MPD2    C2 7649   1.876   2.031  14.789  1.0038  0.1726 -0.1885
  515MPD2    C3 7650   1.934   2.053  14.911  0.1407  0.4752 -0.1298
  515MPD2    C4 7651   1.850   2.059  15.016  0.8088 -0.6922 -0.2210
  515MPD2    C5 7652   1.712   2.049  15.010 -0.0386 -0.1069  0.0944
  515MPD2     H 7653   1.939   2.030  14.701  0.9192 -0.9682 -0.2408
  515MPD2    H1 7654   1.891   2.081  15.114 -1.0863  0.6602  0.2755
  515MPD2    H2 7655   1.553   2.029  14.868 -0.3116  0.1514 -0.5336
  515MPD2    H3 7656   1.649   2.057  15.098 -0.7513  1.2949 -0.5606
  515MPD2     N 7657   2.071   2.087  14.932  0.5777  0.5439  0.5690
  515MPD2    H5 7658   2.093   2.133  15.019 -0.4768  2.3704 -0.1509
  515MPD2    N1 7659   1.692   1.980  14.648 -0.3270 -0.1017 -1.0262
  515MPD2    H7 7660   1.771   1.964  14.587  1.5516 -1.2865  1.7032
  516TMC3    C1 7661   1.557   1.859  14.482  0.6386  1.3145 -0.4666
  516TMC3    C2 7662   1.658   1.858  14.387  0.3339  0.3600 -0.1423
  516TMC3    C3 7663   1.637   1.791  14.270  0.5871 -0.2925  0.0728
  516TMC3    C4 7664   1.428   1.810  14.460  0.2241  0.3613 -0.5673
  516TMC3    C5 7665   1.417   1.736  14.343  0.7171  0.1128  0.5147
  516TMC3    C6 7666   1.516   1.726  14.257  0.1523 -0.1132  0.4331
  516TMC3     C 7667   1.569   1.925  14.617 -0.0688  0.2822 -0.5638
  516TMC3     O 7668   1.467   1.935  14.680  0.1027  0.4901  0.1904
  516TMC3     H 7669   1.751   1.911  14.403  1.4615 -1.3161 -1.1639
  516TMC3    H1 7670   1.340   1.812  14.525  1.1686  2.0193  0.6605
  516TMC3    H2 7671   1.497   1.671  14.165 -0.2054 -0.2112  0.5641
  516TMC3    C7 7672   1.335   1.614  14.353 -0.2129  0.3304  0.2155
  516TMC3    C8 7673   1.728   1.800  14.159 -0.3204  0.4156 -0.8898
  516TMC3    O1 7674   1.355   1.522  14.275 -0.6037 -0.5783 -0.2098
  516TMC3    O2 7675   1.712   1.726  14.065 -0.4127  0.2297 -0.2315
  517MPD2     C 7676   2.061   3.706   0.287  0.0139 -0.1071  0.3190
  517MPD2    C1 7677   2.186   3.746   0.243  0.2619  0.1888  0.3496
  517MPD2    C2 7678   2.229   3.876   0.261  0.5935 -0.6917 -0.6287
  517MPD2    C3 7679   2.153   3.967   0.332 -0.4641  0.2709 -0.2873
  517MPD2    C4 7680   2.029   3.932   0.370  0.0872  0.3899  0.2933
  517MPD2    C5 7681   1.976   3.804   0.343 -0.0445 -0.1821 -0.3333
  517MPD2     H 7682   2.322   3.912   0.221 -1.6736  2.7250 -2.7692
  517MPD2    H1 7683   1.960   4.005   0.412 -1.8495 -0.9327 -0.5801
  517MPD2    H2 7684   2.026   3.604   0.282 -0.2984 -0.0360  0.9851
  517MPD2    H3 7685   1.878   3.773   0.377 -0.9406  2.0953 -0.8406
  517MPD2     N 7686   2.199   4.095   0.376 -0.0259  0.6836 -0.4589
  517MPD2    H5 7687   2.156   4.143   0.455  0.2117  0.5113 -0.2246
  517MPD2    N1 7688   2.283   3.654   0.192  0.4017  0.0921 -0.2233
  517MPD2    H7 7689   2.380   3.680   0.175  0.1084  0.0119 -2.0469
  518TMC3    C1 7690   2.360   3.453   0.110  1.5777  0.3289 -0.1495
  518TMC3    C2 7691   2.345   3.321   0.137 -0.3749 -0.5006  0.0125
  518TMC3    C3 7692   2.452   3.239   0.102  0.9708  0.0430 -0.1554
  518TMC3    C4 7693   2.459   3.504   0.033 -0.0532 -0.1353 -0.3022
  518TMC3    C5 7694   2.563   3.420   0.004  0.2869 -0.3870  0.3043
  518TMC3    C6 7695   2.564   3.285   0.040  0.3717  0.6861 -0.0132
  518TMC3     C 7696   2.247   3.534   0.146  0.6833 -0.0427  0.1355
  518TMC3     O 7697   2.142   3.473   0.143  0.2363  0.0822  0.2485
  518TMC3     H 7698   2.263   3.286   0.199 -1.8239 -0.6781 -2.0109
  518TMC3    H1 7699   2.461   3.603  17.691 -2.9457  0.7479  1.6729
  518TMC3    H2 7700   2.623   3.214  17.683 -0.7023 -0.7636  0.6696
  518TMC3    C7 7701   2.656   3.455  17.591  0.0492  0.3035 -0.5364
  518TMC3    C8 7702   2.422   3.104   0.060  0.2129 -0.5713 -0.3033
  518TMC3    O1 7703   2.608   3.537  17.513  0.5182 -0.0401 -0.5710
  518TMC3    O2 7704   2.458   3.065  17.650  0.1220  0.3080  0.3514
  519MPD2     C 7705   3.579   2.096  14.088  0.1578 -0.0928  0.5767
  519MPD2    C1 7706   3.480   2.008  14.056 -0.0710  0.0340  0.1513
  519MPD2    C2 7707   3.495   1.871  14.072  0.6042  0.2651  0.6017
  519MPD2    C3 7708   3.614   1.825  14.119 -0.1730 -0.0097 -0.5756
  519MPD2    C4 7709   3.721   1.911  14.130  0.2587 -0.1620 -0.7652
  519MPD2    C5 7710   3.704   2.047  14.116 -0.2864 -0.2048 -0.3526
  519MPD2     H 7711   3.410   1.806  14.057  0.7957  0.3122 -0.6364
  519MPD2    H1 7712   3.818   1.875  14.160 -0.3493 -0.0034  1.4402
  519MPD2    H2 7713   3.558   2.202  14.078 -0.0983 -0.0519  1.5975
  519MPD2    H3 7714   3.789   2.114  14.126 -0.6771  0.5131 -1.9561
  519MPD2     N 7715   3.639   1.687  14.138  0.3958  0.4524  0.2717
  519MPD2    H5 7716   3.736   1.656  14.135  0.3576  0.2736  0.8247
  519MPD2    N1 7717   3.348   2.042  14.008 -1.1003  0.3662 -0.3223
  519MPD2    H7 7718   3.275   1.972  13.998  1.2705 -1.5497 -3.9862
  520TMC3    C1 7719   3.601   1.463  14.100  0.1531 -0.1484  0.8282
  520TMC3    C2 7720   3.544   1.408  13.989 -0.5348  0.1617  0.1124
  520TMC3    C3 7721   3.607   1.303  13.941  0.3704 -0.7923 -0.2661
  520TMC3    C4 7722   3.714   1.407  14.167 -0.0150  1.0361  0.0799
  520TMC3    C5 7723   3.759   1.288  14.121 -0.1942 -0.0470  0.2151
  520TMC3    C6 7724   3.715   1.239  14.000  0.3370  0.4690 -0.3158
  520TMC3     C 7725   3.543   1.589  14.130 -0.1916 -0.0457 -0.2263
  520TMC3     O 7726   3.420   1.593  14.142  0.9393  0.6671  0.2958
  520TMC3     H 7727   3.469   1.465  13.935 -1.2356  1.2770  2.2581
  520TMC3    H1 7728   3.770   1.453  14.248 -1.5436  1.4371  0.9267
  520TMC3    H2 7729   3.747   1.143  13.962  0.9406  0.1208  1.0763
  520TMC3    C7 7730   3.895   1.238  14.140  0.0951  0.0796  0.1726
  520TMC3    C8 7731   3.546   1.234  13.830  0.1051 -0.4522  0.1415
  520TMC3    O1 7732   3.936   1.235  14.254  0.4371  0.2194 -0.2640
  520TMC3    O2 7733   3.626   1.177  13.757 -0.5609  0.1853 -0.4735
  521MPD2     C 7734   4.202   0.040  17.284 -0.3550 -0.0157 -0.0440
  521MPD2    C1 7735   4.210   4.705  17.162  0.2093  0.7972  0.3432
  521MPD2    C2 7736   4.334   4.674  17.113  0.7786 -0.7461 -0.1201
  521MPD2    C3 7737   4.455   4.698  17.175 -0.3614 -0.1758  0.3794
  521MPD2    C4 7738   4.454   0.048  17.293  0.0684  0.0738  0.0876
  521MPD2    C5 7739   4.328   0.074  17.338 -0.2448 -0.2018  0.1176
  521MPD2     H 7740   4.330   4.606  17.029 -1.3160 -2.9629  1.7552
  521MPD2    H1 7741   4.544   0.070  17.349  0.2550  0.7134 -0.4611
  521MPD2    H2 7742   4.113   0.070  17.339  0.6971 -0.1278  1.7195
  521MPD2    H3 7743   4.335   0.136  17.427 -1.7744 -0.0857  0.1612
  521MPD2     N 7744   4.580   4.667  17.114 -0.2825  0.4670 -0.2661
  521MPD2    H5 7745   4.582   4.615  17.027 -3.6985 -0.7975  0.4119
  521MPD2    N1 7746   4.085   4.668  17.103 -0.4997 -0.2330  0.2736
  521MPD2    H7 7747   4.001   4.682  17.157  0.0168  0.1847  0.9676
  522TMC3    C1 7748   0.080   4.605  17.088 -0.5476 -0.8569  0.3929
  522TMC3    C2 7749   0.171   4.523  17.139  0.5594  0.0544 -0.3176
  522TMC3    C3 7750   0.263   4.466  17.053 -0.0004  0.6651 -0.2836
  522TMC3    C4 7751   0.065   4.635  16.957 -0.0833  0.2199 -0.6697
  522TMC3    C5 7752   0.158   4.573  16.877 -0.1758  0.5513 -0.5398
  522TMC3    C6 7753   0.264   4.495  16.920 -0.1193 -0.6603 -0.0740
  522TMC3     C 7754   4.704   4.658  17.181  0.1367 -0.4520  0.0902
  522TMC3     O 7755   0.011   4.665  17.300  0.1189 -0.1347  0.0662
  522TMC3     H 7756   0.151   4.479  17.237  2.3979 -0.8204 -0.3439
  522TMC3    H1 7757   4.708   4.699  16.926 -1.2851 -1.0120 -0.0120
  522TMC3    H2 7758   0.339   4.453  16.854  1.3728 -0.2967  1.3847
  522TMC3    C7 7759   0.152   4.596  16.734  0.1790  0.5200  0.6301
  522TMC3    C8 7760   0.363   4.373  17.113 -0.7959  0.5695 -0.3279
  522TMC3    O1 7761   0.239   4.555  16.661  1.1251  0.0150  0.0476
  522TMC3    O2 7762   0.352   4.351  17.233  0.1604  0.1784  0.0945
  523MPD2     C 7763   1.685   3.480  10.465  0.0664  0.1578 -0.6086
  523MPD2    C1 7764   1.728   3.577  10.383  0.0540  0.1388 -0.2470
  523MPD2    C2 7765   1.648   3.679  10.346  0.0483 -0.2869 -0.4312
  523MPD2    C3 7766   1.511   3.682  10.393  0.2716  0.0727  0.0293
  523MPD2    C4 7767   1.465   3.576  10.466 -0.1643 -1.6258 -0.1399
  523MPD2    C5 7768   1.554   3.476  10.506 -0.2030 -0.0088 -0.5877
  523MPD2     H 7769   1.685   3.767  10.292 -3.1757  1.7672  0.7288
  523MPD2    H1 7770   1.369   3.568  10.514  0.2329 -0.7912  0.8048
  523MPD2    H2 7771   1.753   3.401  10.496 -0.3341  0.3646  0.7814
  523MPD2    H3 7772   1.519   3.401  10.577 -0.8675  1.0798  0.2225
  523MPD2     N 7773   1.421   3.782  10.362  0.2472 -0.0793 -0.4553
  523MPD2    H5 7774   1.334   3.767  10.412  1.5596 -2.4454  1.0499
  523MPD2    N1 7775   1.864   3.583  10.358 -0.0201 -0.3459 -0.9934
  523MPD2    H7 7776   1.926   3.521  10.409  0.4766 -0.5979 -1.8914
  524TMC3    C1 7777   1.339   3.974  10.271 -0.0391  0.5989 -0.5109
  524TMC3    C2 7778   1.241   3.904  10.212 -1.2394  0.5545 -0.0769
  524TMC3    C3 7779   1.139   3.982  10.163 -0.2850  0.2680  0.0766
  524TMC3    C4 7780   1.330   4.104  10.304 -0.1057 -0.5645 -0.2145
  524TMC3    C5 7781   1.212   4.170  10.287 -0.0270 -0.0593  1.1757
  524TMC3    C6 7782   1.116   4.107  10.216 -0.7369 -0.4361  0.1176
  524TMC3     C 7783   1.459   3.905  10.316 -0.7987  0.0161 -0.3157
  524TMC3     O 7784   1.564   3.971  10.310  0.0587  0.2335  0.3765
  524TMC3     H 7785   1.265   3.810  10.163  0.1593  1.3322 -0.8889
  524TMC3    H1 7786   1.422   4.151  10.338  0.8862 -3.0032  0.4967
  524TMC3    H2 7787   1.028   4.164  10.188 -0.4782 -0.5673 -0.9891
  524TMC3    C7 7788   1.203   4.316  10.317 -0.3604 -0.3040 -0.7604
  524TMC3    C8 7789   1.028   3.929  10.086 -0.2191  0.1835  0.8367
  524TMC3    O1 7790   1.287   4.356  10.397  0.2076 -0.2188  0.3669
  524TMC3    O2 7791   0.943   4.007  10.050  0.2552 -0.3796 -0.1489
  525MPD2     C 7792   0.219   1.151  14.300 -0.6145 -0.8530 -0.4766
  525MPD2    C1 7793   0.345   1.159  14.358  0.5446  0.0784 -0.3006
  525MPD2    C2 7794   0.432   1.251  14.298 -0.3159  0.1929 -0.2739
  525MPD2    C3 7795   0.401   1.321  14.177  0.3221 -0.3887 -0.2059
  525MPD2    C4 7796   0.276   1.300  14.120 -0.5322  0.2040 -0.0278
  525MPD2    C5 7797   0.189   1.214  14.182 -0.0850  0.1044 -0.0449
  525MPD2     H 7798   0.534   1.257  14.335  0.0849  0.2453 -1.3956
  525MPD2    H1 7799   0.243   1.366  14.040  1.3846  1.3415  0.1225
  525MPD2    H2 7800   0.141   1.084  14.333 -1.8252  1.0194  0.4456
  525MPD2    H3 7801   0.090   1.200  14.139  1.5861 -0.7344 -3.6711
  525MPD2     N 7802   0.477   1.433  14.125  0.6348 -0.0377 -0.6124
  525MPD2    H5 7803   0.426   1.487  14.056 -1.5969  1.5010  2.2281
  525MPD2    N1 7804   0.380   1.088  14.476 -0.1948 -0.2196 -0.3261
  525MPD2    H7 7805   0.477   1.092  14.505 -0.2384  0.2345 -0.2492
  526TMC3    C1 7806   0.360   0.984  14.676  0.0546  0.8105 -1.0511
  526TMC3    C2 7807   0.302   1.014  14.794 -0.1500  0.2594 -0.5374
  526TMC3    C3 7808   0.329   0.934  14.907 -0.1695  0.2890  0.4490
  526TMC3    C4 7809   0.448   0.880  14.665  0.0035  0.2429 -0.3465
  526TMC3    C5 7810   0.470   0.803  14.780 -1.0772 -0.1804 -0.1004
  526TMC3    C6 7811   0.404   0.826  14.900 -0.5474  0.0523  0.1187
  526TMC3     C 7812   0.286   1.034  14.563  0.5859  0.5880 -0.1451
  526TMC3     O 7813   0.172   1.058  14.593  0.8194 -0.2821 -0.2184
  526TMC3     H 7814   0.236   1.100  14.793  1.1305  1.2961  2.5401
  526TMC3    H1 7815   0.495   0.862  14.569 -0.8142 -1.5388 -0.4214
  526TMC3    H2 7816   0.431   0.774  14.991  1.0109  1.6735  0.5838
  526TMC3    C7 7817   0.598   0.755  14.802 -0.6647 -0.5726  0.3888
  526TMC3    C8 7818   0.261   0.959  15.026 -0.5369  0.4369 -0.0807
  526TMC3    O1 7819   0.606   0.682  14.897  0.0596 -0.2739 -0.8603
  526TMC3    O2 7820   0.292   1.054  15.092  0.3306  0.2030 -0.4595
  527MPD2     C 7821   0.178   4.491   0.849  0.1192  0.0069  0.7030
  527MPD2    C1 7822   0.062   4.416   0.858  0.0731  0.2526 -0.9419
  527MPD2    C2 7823   0.005   4.374   0.738 -0.5821 -0.2446 -0.0418
  527MPD2    C3 7824   0.067   4.402   0.616  0.0492 -0.3676 -0.1947
  527MPD2    C4 7825   0.189   4.460   0.613  0.0056  0.1242  0.6144
  527MPD2    C5 7826   0.240   4.513   0.730 -0.4521  0.8160 -0.4065
  527MPD2     H 7827   4.643   4.309   0.737  0.2339 -1.3545  0.5086
  527MPD2    H1 7828   0.257   4.458   0.528 -0.7030  1.4868  0.0095
  527MPD2    H2 7829   0.234   4.532   0.932  0.6709 -0.0867  0.3725
  527MPD2    H3 7830   0.330   4.572   0.739  0.0694  0.1443 -1.1988
  527MPD2     N 7831   4.725   4.356   0.503  0.1840  0.1219  0.2254
  527MPD2    H5 7832   4.642   4.300   0.521 -1.1013  1.7714 -0.5380
  527MPD2    N1 7833   4.724   4.392   0.982  0.4147  0.0009 -0.2535
  527MPD2    H7 7834   4.624   4.372   0.990  0.3481 -0.1958 -1.6151
  528TMC3    C1 7835   4.693   4.391   1.216 -0.0747 -0.1491 -0.2183
  528TMC3    C2 7836   0.029   4.331   1.323  0.1243 -0.0630  0.7120
  528TMC3    C3 7837   4.668   4.273   1.416  0.0641 -0.1467  0.1121
  528TMC3    C4 7838   4.557   4.377   1.193 -0.6639  0.0011  0.4290
  528TMC3    C5 7839   4.483   4.309   1.280 -0.5861 -0.1330 -0.1782
  528TMC3    C6 7840   4.536   4.263   1.399 -0.5265  0.1083  0.2319
  528TMC3     C 7841   0.063   4.411   1.108  0.3797 -0.8735 -0.3165
  528TMC3     O 7842   0.184   4.426   1.129  0.2464 -1.1134 -0.4099
  528TMC3     H 7843   0.130   4.358   1.352  1.0248 -1.4797 -1.1206
  528TMC3    H1 7844   4.517   4.422   1.103 -0.0524 -0.4115 -0.0421
  528TMC3    H2 7845   4.462   4.217   1.464  0.2799 -1.1655  0.2369
  528TMC3    C7 7846   4.340   4.323   1.272 -0.3820 -0.2286 -0.1175
  528TMC3    C8 7847   4.711   4.218   1.545  0.6054  0.0550 -0.4411
  528TMC3    O1 7848   4.274   4.316   1.372  0.0093 -0.3310  0.2586
  528TMC3    O2 7849   4.635   4.205   1.638  0.5656  0.1598 -0.1887
  529MPD2     C 7850   1.169   2.981   0.952 -0.2877  0.4328  0.0544
  529MPD2    C1 7851   1.173   2.852   0.904  0.7157 -0.3372 -0.4868
  529MPD2    C2 7852   1.115   2.830   0.779  0.2938  0.5298 -0.2072
  529MPD2    C3 7853   1.037   2.928   0.714  0.1095 -0.3332  0.1707
  529MPD2    C4 7854   1.035   3.055   0.766  0.0093  0.5081 -0.1085
  529MPD2    C5 7855   1.100   3.074   0.881 -0.0370 -0.4399 -0.2616
  529MPD2     H 7856   1.135   2.732   0.737 -2.5054 -0.2939  0.3741
  529MPD2    H1 7857   0.962   3.124   0.724  0.5986  0.7890 -0.6793
  529MPD2    H2 7858   1.225   3.006   1.041  2.5912 -1.0036 -1.3246
  529MPD2    H3 7859   1.096   3.175   0.919  0.7708 -0.4505 -0.1522
  529MPD2     N 7860   0.968   2.916   0.594 -0.0720  1.0592  0.6581
  529MPD2    H5 7861   0.908   2.991   0.562 -0.6184  0.8920  1.3092
  529MPD2    N1 7862   1.259   2.756   0.969 -0.8274 -0.2945  0.0286
  529MPD2    H7 7863   1.273   2.670   0.916 -2.5920 -0.4651 -0.1322
  530TMC3    C1 7864   1.455   2.704   1.106  0.6029  0.8008  0.1618
  530TMC3    C2 7865   1.528   2.739   1.216  0.3101 -0.1502 -0.4089
  530TMC3    C3 7866   1.650   2.687   1.226  0.5759 -0.0064  0.2404
  530TMC3    C4 7867   1.495   2.629   1.003 -0.5408  0.6582 -0.1357
  530TMC3    C5 7868   1.624   2.584   1.010  0.0142  0.3018 -0.5230
  530TMC3    C6 7869   1.701   2.612   1.120  0.3224 -0.6567  0.2882
  530TMC3     C 7870   1.327   2.776   1.089 -1.2636 -0.5199 -0.0864
  530TMC3     O 7871   1.300   2.852   1.183  0.2767 -0.1224  0.1904
  530TMC3     H 7872   1.501   2.817   1.287 -0.8623 -1.0948  0.1898
  530TMC3    H1 7873   1.435   2.602   0.916 -0.0622  3.3386 -1.3125
  530TMC3    H2 7874   1.798   2.563   1.124 -0.3151 -2.0201 -0.8671
  530TMC3    C7 7875   1.669   2.465   0.935 -0.1944  0.0078 -0.6363
  530TMC3    C8 7876   1.714   2.703   1.354  0.2807  0.2723  0.5970
  530TMC3    O1 7877   1.776   2.477   0.881  0.0747 -0.4240 -0.2089
  530TMC3    O2 7878   1.671   2.785   1.434  0.6236 -0.3523 -1.2857
  531MPD2     C 7879   4.473   4.516  12.932  0.4870  0.3886 -0.1176
  531MPD2    C1 7880   4.410   4.605  13.010  0.4619 -0.6370 -0.3317
  531MPD2    C2 7881   4.287   4.657  12.975 -0.2389  0.6450 -0.1278
  531MPD2    C3 7882   4.226   4.625  12.858  0.6296  0.7088  0.0764
  531MPD2    C4 7883   4.276   4.519  12.786 -0.6242  0.6139 -0.3830
  531MPD2    C5 7884   4.395   4.461  12.826  0.4484 -0.0261 -0.0619
  531MPD2     H 7885   4.256   0.012  13.042  1.9508  1.3256  0.0832
  531MPD2    H1 7886   4.228   4.479  12.698 -0.0022 -0.0149 -0.4439
  531MPD2    H2 7887   4.561   4.456  12.952  0.6553  0.8174  0.4164
  531MPD2    H3 7888   4.438   4.377  12.773  0.5713  1.5655 -2.4783
  531MPD2     N 7889   4.119   4.696  12.796  0.6616  0.0324  0.8794
  531MPD2    H5 7890   4.095   4.682  12.699 -2.7534 -0.1560  1.7579
  531MPD2    N1 7891   4.473   4.667  13.123  0.0296 -0.6059 -0.0691
  531MPD2    H7 7892   4.417   4.724  13.185  0.4251 -2.0722  1.6427
  532TMC3    C1 7893   4.637   0.006  13.271 -0.7052  0.7871 -0.7863
  532TMC3    C2 7894   4.590   0.133  13.273  0.5499 -0.3125  0.4391
  532TMC3    C3 7895   4.616   0.208  13.384  0.0635  0.3611 -0.1718
  532TMC3    C4 7896   4.693   4.673  13.384  0.8555  0.4684  0.4224
  532TMC3    C5 7897   4.716   0.019  13.497 -0.2371  1.0914 -0.1541
  532TMC3    C6 7898   4.676   0.154  13.497  0.0800 -0.6589  0.2824
  532TMC3     C 7899   4.598   4.642  13.169 -0.4781 -0.2724  0.0630
  532TMC3     O 7900   4.688   4.571  13.120 -0.4009 -0.0911  0.0232
  532TMC3     H 7901   4.543   0.174  13.184  0.4169 -0.9833  0.1984
  532TMC3    H1 7902   4.717   4.568  13.370 -2.3118  0.1212 -2.4242
  532TMC3    H2 7903   4.687   0.218  13.584  0.8934 -0.6670  0.1887
  532TMC3    C7 7904   4.723   4.678  13.623 -0.1457 -0.1677  0.8074
  532TMC3    C8 7905   4.558   0.341  13.385 -0.9461 -0.0616  0.9177
  532TMC3    O1 7906   0.039   0.019  13.718  0.8923  0.0188 -0.6079
  532TMC3    O2 7907   4.639   0.429  13.418  0.0055  0.3867  0.1728
  533TMC3    C1 7908   0.603   1.622  14.169 -0.6735  0.2808 -0.3072
  533TMC3    C2 7909   0.724   1.689  14.162  0.1324  0.6671 -0.0113
  533TMC3    C3 7910   0.741   1.811  14.226 -0.6084  0.3599 -0.3673
  533TMC3    C4 7911   0.499   1.681  14.236 -0.0493  0.4041  0.4329
  533TMC3    C5 7912   0.522   1.800  14.306  0.1559  0.7952 -0.0226
  533TMC3    C6 7913   0.640   1.867  14.302  0.8600 -0.0823 -0.0759
  533TMC3     C 7914   0.596   1.483  14.177 -0.3136  1.1820  0.2437
  533TMC3     O 7915   0.677   1.428  14.249  0.1197  0.0811 -0.0058
  533TMC3     H 7916   0.814   1.642  14.123  0.6517  2.6497 -1.1973
  533TMC3    H1 7917   0.402   1.634  14.243  0.3881 -0.3601  1.3134
  533TMC3    H2 7918   0.662   1.952  14.365 -0.8673  1.0544 -1.0010
  533TMC3    C7 7919   0.453   1.808  14.429  0.4606  0.0657 -0.1422
  533TMC3    C8 7920   0.871   1.886  14.222 -0.1084 -0.5003 -0.1339
  533TMC3    O1 7921   0.431   1.700  14.475 -0.0492 -0.0236 -0.2499
  533TMC3    O2 7922   0.867   2.003  14.263  0.3299 -0.0966 -0.3810
  534MPD2     C 7923   4.037   3.407   1.681 -0.6371 -0.0941  0.2027
  534MPD2    C1 7924   3.944   3.433   1.588  0.6031  0.1313 -0.1747
  534MPD2    C2 7925   3.837   3.344   1.558  0.6304  0.4060  0.4208
  534MPD2    C3 7926   3.829   3.221   1.615  0.3630  0.0104  0.5949
  534MPD2    C4 7927   3.931   3.181   1.702  0.8994  0.0557 -0.5253
  534MPD2    C5 7928   4.027   3.277   1.729  1.2666 -0.1482 -0.2574
  534MPD2     H 7929   3.767   3.377   1.483  0.4527 -1.3159 -0.1706
  534MPD2    H1 7930   3.933   3.083   1.747  1.7928 -0.2018 -1.1382
  534MPD2    H2 7931   4.119   3.469   1.715  0.6503 -0.8194 -1.5619
  534MPD2    H3 7932   4.102   3.246   1.801  0.6783  1.4750  1.0357
  534MPD2     N 7933   3.729   3.130   1.582 -0.5323 -0.2800  0.3655
  534MPD2    H5 7934   3.735   3.038   1.624 -1.3923 -0.4038  0.2216
  534MPD2    N1 7935   3.955   3.553   1.510  0.4164  0.4717  0.4031
  534MPD2    H7 7936   3.890   3.552   1.432 -0.0582  2.8938  0.7831
  535TMC3    C1 7937   3.518   3.045   1.525  0.1238 -0.0657 -0.2333
  535TMC3    C2 7938   3.385   3.066   1.505  0.3389  0.2676 -0.2419
  535TMC3    C3 7939   3.311   2.956   1.477  0.7250 -0.1559  0.6082
  535TMC3    C4 7940   3.579   2.925   1.500  0.2486  0.2666  0.1356
  535TMC3    C5 7941   3.496   2.818   1.484  0.0801 -0.2839 -0.6523
  535TMC3    C6 7942   3.361   2.827   1.463  0.1708 -0.1100 -0.6084
  535TMC3     C 7943   3.601   3.160   1.524 -0.0152  0.0835  0.0573
  535TMC3     O 7944   3.557   3.266   1.481 -0.2433 -0.0345  0.8598
  535TMC3     H 7945   3.342   3.165   1.502  0.0818  0.1352 -1.1660
  535TMC3    H1 7946   3.685   2.916   1.481  0.6005 -0.3294  2.4488
  535TMC3    H2 7947   3.291   2.746   1.445 -0.0260 -0.1531  0.3663
  535TMC3    C7 7948   3.555   2.677   1.485  0.6180  0.1418 -0.0525
  535TMC3    C8 7949   3.170   2.966   1.480  0.9389 -0.0165 -0.3340
  535TMC3    O1 7950   3.496   2.578   1.441  0.5657  0.0130 -0.0179
  535TMC3    O2 7951   3.100   2.889   1.418 -0.0754  0.4014  0.1329
  536MPD2     C 7952   2.023   1.273  16.330  0.8778 -0.3069 -0.2113
  536MPD2    C1 7953   1.941   1.178  16.387  0.3724  0.1431 -0.1348
  536MPD2    C2 7954   1.869   1.097  16.306 -0.2305 -0.0599  0.0851
  536MPD2    C3 7955   1.884   1.105  16.170 -0.4079  0.3559 -0.6354
  536MPD2    C4 7956   1.980   1.184  16.113  0.7282  0.1934  0.2549
  536MPD2    C5 7957   2.046   1.271  16.196 -0.3845  0.2295  0.2549
  536MPD2     H 7958   1.793   1.036  16.354 -0.4826  2.0046  2.2818
  536MPD2    H1 7959   2.004   1.198  16.009  1.2529  1.7803  0.5920
  536MPD2    H2 7960   2.076   1.338  16.399 -1.4597  1.6314 -0.2426
  536MPD2    H3 7961   2.104   1.347  16.145 -0.8655 -0.0010 -0.6436
  536MPD2     N 7962   1.801   1.046  16.076 -0.5112  0.1581  0.8148
  536MPD2    H5 7963   1.815   1.069  15.978 -1.3422  1.0050  0.8981
  536MPD2    N1 7964   1.922   1.184  16.527  0.4945  0.5601  0.4720
  536MPD2    H7 7965   1.961   1.264  16.574  1.4506 -0.7237  1.8719
  537TMC3    C1 7966   1.882   1.116  16.764 -0.1578 -0.2523  0.2937
  537TMC3    C2 7967   1.906   1.245  16.798 -0.3944 -0.4656 -0.0553
  537TMC3    C3 7968   1.885   1.277  16.934 -0.4397 -0.1026 -0.2565
  537TMC3    C4 7969   1.835   1.018  16.848  0.1375  0.2039 -0.3325
  537TMC3    C5 7970   1.814   1.058  16.975 -0.5176  0.3148 -0.1520
  537TMC3    C6 7971   1.843   1.187  17.022 -0.8881 -0.0159 -0.3311
  537TMC3     C 7972   1.865   1.088  16.615  0.3579  0.0921 -0.1658
  537TMC3     O 7973   1.824   0.979  16.579  0.4058 -0.0010  0.1304
  537TMC3     H 7974   1.958   1.309  16.728  0.4956 -1.3121 -0.1686
  537TMC3    H1 7975   1.830   0.916  16.811  1.2267  0.4072 -1.0448
  537TMC3    H2 7976   1.842   1.219  17.126 -2.7060  0.9323 -0.6301
  537TMC3    C7 7977   1.748   0.976  17.071  0.2862 -0.0868 -0.1662
  537TMC3    C8 7978   1.955   1.390  16.990 -0.6414  1.2783  0.9076
  537TMC3    O1 7979   1.691   1.032  17.165 -0.4687  0.4754  0.3445
  537TMC3    O2 7980   2.011   1.380  17.100  0.0402  0.2079  0.5310
  538TMC3    C1 7981   2.603   3.820  10.773  0.3403  0.7498  0.2002
  538TMC3    C2 7982   2.723   3.882  10.738  0.9901  0.3670  0.5578
  538TMC3    C3 7983   2.724   3.925  10.604 -0.4634 -0.9612 -0.3041
  538TMC3    C4 7984   2.519   3.779  10.677  0.0995  0.1033  0.7150
  538TMC3    C5 7985   2.538   3.804  10.546  0.0815  0.0100  0.1997
  538TMC3    C6 7986   2.640   3.883  10.504 -0.0935  0.3406 -0.0107
  538TMC3     C 7987   2.553   3.816  10.905 -0.8485  0.4981  0.2162
  538TMC3     O 7988   2.437   3.782  10.912 -0.0641 -0.9809 -0.2275
  538TMC3     H 7989   2.789   3.925  10.813  1.3822 -2.4933  1.8521
  538TMC3    H1 7990   2.457   3.698  10.714 -0.3701  0.4487  0.6750
  538TMC3    H2 7991   2.653   3.907  10.399  1.1076  1.3622  0.3707
  538TMC3    C7 7992   2.413   3.806  10.472  1.0271 -0.3758 -0.2430
  538TMC3    C8 7993   2.864   3.945  10.574 -0.1361 -1.0385  0.2595
  538TMC3    O1 7994   2.327   3.747  10.532  0.2911  0.0378 -0.4298
  538TMC3    O2 7995   2.947   3.907  10.659 -0.2318  0.6451  0.2877
  539MPD2     C 7996   2.246   3.805  12.134 -0.4591 -0.0894  0.5978
  539MPD2    C1 7997   2.276   3.776  12.006  0.4124  0.0313  0.6926
  539MPD2    C2 7998   2.262   3.874  11.909  0.1996  0.5571 -0.1955
  539MPD2    C3 7999   2.220   4.003  11.946 -0.0836 -0.5853  0.4709
  539MPD2    C4 8000   2.179   4.030  12.074 -0.6001 -0.1312  0.3898
  539MPD2    C5 8001   2.198   3.930  12.172  0.4183  0.2749 -0.1695
  539MPD2     H 8002   2.290   3.852  11.806 -2.2730 -0.1072 -0.7241
  539MPD2    H1 8003   2.145   4.127  12.109 -0.4592 -0.5032  1.5462
  539MPD2    H2 8004   2.255   3.732  12.214  0.0880  0.6602  1.2145
  539MPD2    H3 8005   2.165   3.944  12.274 -0.4380 -1.8822 -0.1416
  539MPD2     N 8006   2.201   4.104  11.852  0.1683  0.1685  0.1895
  539MPD2    H5 8007   2.147   4.184  11.881 -1.0134 -0.4853 -0.1959
  539MPD2    N1 8008   2.327   3.651  11.964  0.0295  0.0113 -0.2877
  539MPD2    H7 8009   2.330   3.637  11.863 -1.8047  2.3052 -0.6592
  540TMC3    C1 8010   2.230   4.222  11.641 -0.1100  0.0613 -0.2255
  540TMC3    C2 8011   2.238   4.213  11.508 -0.7733 -0.2526 -0.6866
  540TMC3    C3 8012   2.243   4.332  11.444 -0.6714 -0.0651  0.4068
  540TMC3    C4 8013   2.238   4.340  11.704  0.8397  0.3080  0.2977
  540TMC3    C5 8014   2.230   4.457  11.632 -0.4669 -0.1851  0.1757
  540TMC3    C6 8015   2.238   4.458  11.496  1.1702 -0.0920 -0.7254
  540TMC3     C 8016   2.262   4.108  11.727  0.3016 -0.2276  0.2674
  540TMC3     O 8017   2.336   4.028  11.667  0.1536 -0.0695  0.0762
  540TMC3     H 8018   2.245   4.113  11.467  0.5426 -0.9664  1.2503
  540TMC3    H1 8019   2.257   4.340  11.810 -0.0724 -0.6341  0.4517
  540TMC3    H2 8020   2.242   4.546  11.432  0.9827  1.2721  1.1415
  540TMC3    C7 8021   2.158   4.554  11.703  0.2474  0.1761  0.0887
  540TMC3    C8 8022   2.238   4.321  11.303 -0.5595  0.1687  0.1612
  540TMC3    O1 8023   2.102   4.517  11.805  0.1677 -0.0657 -0.0132
  540TMC3    O2 8024   2.268   4.421  11.239 -0.2990 -0.4587  0.2472
  541MPD2     C 8025   0.311   0.132  13.354  0.5934  0.3149  0.2834
  541MPD2    C1 8026   0.307   0.035  13.254  0.0973  0.1573  0.7022
  541MPD2    C2 8027   0.271   0.076  13.129 -0.0893 -0.3214 -0.8372
  541MPD2    C3 8028   0.222   0.202  13.094  0.1882 -0.2125  0.3365
  541MPD2    C4 8029   0.207   0.285  13.200 -0.4292 -0.2240 -0.0330
  541MPD2    C5 8030   0.248   0.254  13.324 -0.3496 -0.9185  0.6479
  541MPD2     H 8031   0.290   0.012  13.044 -1.3436 -0.2870 -1.1505
  541MPD2    H1 8032   0.163   0.381  13.177 -0.1201 -0.1301 -0.2320
  541MPD2    H2 8033   0.352   0.117  13.453  2.5087  1.6713 -0.3042
  541MPD2    H3 8034   0.224   0.326  13.401  1.4392  0.0865  0.2668
  541MPD2     N 8035   0.176   0.232  12.961  0.3183  0.7159 -0.0718
  541MPD2    H5 8036   0.132   0.323  12.956 -1.1497  0.0476  0.7116
  541MPD2    N1 8037   0.341   4.623  13.276  0.2427  0.5800 -0.4046
  541MPD2    H7 8038   0.324   4.563  13.196  0.9711  0.9851 -0.8578
  542TMC3    C1 8039   0.160   0.236  12.717  0.1501  0.0662 -0.1851
  542TMC3    C2 8040   0.213   0.186  12.600 -0.3975 -0.0150  0.2452
  542TMC3    C3 8041   0.179   0.259  12.483  0.3034 -0.5309  0.6313
  542TMC3    C4 8042   0.077   0.345  12.721  0.0477 -0.1016  0.2913
  542TMC3    C5 8043   0.040   0.410  12.607 -0.0014 -0.1758  0.2072
  542TMC3    C6 8044   0.100   0.368  12.485 -0.2125 -0.1762 -0.1783
  542TMC3     C 8045   0.204   0.171  12.841  0.5105  0.0934 -0.3287
  542TMC3     O 8046   0.251   0.060  12.822 -0.2171 -0.1435 -0.1238
  542TMC3     H 8047   0.275   0.097  12.602 -2.2751 -1.3677 -1.4750
  542TMC3    H1 8048   0.041   0.384  12.816 -0.8036 -2.0311  0.7569
  542TMC3    H2 8049   0.098   0.431  12.397 -1.1098 -0.0591 -0.0736
  542TMC3    C7 8050   4.696   0.533  12.620  0.2137 -0.6966 -0.0131
  542TMC3    C8 8051   0.245   0.227  12.350 -0.6796 -0.0277 -0.1705
  542TMC3    O1 8052   4.705   0.588  12.730 -0.0076  0.7120 -0.3792
  542TMC3    O2 8053   0.262   0.320  12.267  0.1952  0.1068  0.3164
  543TMC3    C1 8054   4.704   1.722  17.013  0.2020 -0.7027 -0.9496
  543TMC3    C2 8055   4.716   1.641  17.119 -0.2443 -0.3431 -0.1417
  543TMC3    C3 8056   4.631   1.657  17.230 -0.0631 -0.2768  0.3319
  543TMC3    C4 8057   4.614   1.826  17.013 -1.0139  0.3319  0.1422
  543TMC3    C5 8058   4.532   1.843  17.127  0.3130 -0.1249  0.2253
  543TMC3    C6 8059   4.536   1.762  17.235 -0.0414  0.3763 -0.8883
  543TMC3     C 8060   0.083   1.714  16.907  0.4717  0.4707 -0.4524
  543TMC3     O 8061   0.193   1.665  16.935  0.0245  0.2100 -0.0774
  543TMC3     H 8062   0.049   1.552  17.098 -1.3198 -0.8604 -0.9026
  543TMC3    H1 8063   4.624   1.901  16.935  0.1524  1.1552  1.0937
  543TMC3    H2 8064   4.460   1.777  17.310  1.0072 -2.2171  0.6847
  543TMC3    C7 8065   4.433   1.954  17.136 -0.6702 -0.1221 -0.2682
  543TMC3    C8 8066   4.607   1.544  17.323 -0.0014 -0.0277 -0.2826
  543TMC3    O1 8067   4.417   1.989  17.253 -0.2687 -0.5054  0.6470
  543TMC3    O2 8068   4.501   1.552  17.382 -0.7841 -0.5485  0.4087
  544MPD2     C 8069   4.682   1.064  17.463  0.2911  1.2794  0.8599
  544MPD2    C1 8070   0.064   1.092  17.376 -0.6305  0.2894  0.0101
  544MPD2    C2 8071   0.060   1.227  17.337  0.0928  0.5823 -0.5257
  544MPD2    C3 8072   4.694   1.318  17.384 -0.5679 -0.8447  0.6827
  544MPD2    C4 8073   4.598   1.283  17.472  0.4624  0.4958  0.1195
  544MPD2    C5 8074   4.594   1.154  17.517 -0.8825 -0.1267 -0.1768
  544MPD2     H 8075   0.144   1.257  17.276  0.8609 -1.4974 -0.5203
  544MPD2    H1 8076   4.531   1.358  17.512 -0.7920 -1.5118  1.7729
  544MPD2    H2 8077   4.670   0.963  17.500  0.8267 -0.2142 -3.0831
  544MPD2    H3 8078   4.521   1.121  17.589  1.0345 -0.4026  1.6285
  544MPD2     N 8079   4.701   1.442  17.320  0.3464 -0.0089  0.0597
  544MPD2    H5 8080   0.059   1.455  17.263  1.1446  0.5921  1.3625
  544MPD2    N1 8081   0.152   0.985  17.349  0.4013  0.0661  0.3752
  544MPD2    H7 8082   0.143   0.896  17.399  0.0851 -0.0858  0.0527
  545TMC3    C1 8083   0.340   0.884  17.245  0.0869 -0.1148  0.1620
  545TMC3    C2 8084   0.435   0.889  17.149 -0.1842 -0.4760 -0.8978
  545TMC3    C3 8085   0.528   0.795  17.146  0.1313  0.0955 -0.4593
  545TMC3    C4 8086   0.328   0.781  17.332  0.7582 -0.2412  0.4184
  545TMC3    C5 8087   0.419   0.679  17.313  0.2232 -0.3702  0.4029
  545TMC3    C6 8088   0.524   0.686  17.228  0.1463 -1.1170  0.7353
  545TMC3     C 8089   0.255   1.002  17.255 -0.4915 -0.0852  0.6466
  545TMC3     O 8090   0.290   1.104  17.189 -0.4689 -0.0754 -0.5344
  545TMC3     H 8091   0.453   0.980  17.093  0.7618  1.5474  2.6477
  545TMC3    H1 8092   0.236   0.761  17.386  0.3727  1.1580  0.2658
  545TMC3    H2 8093   0.593   0.602  17.215  1.6838  0.2728 -0.0892
  545TMC3    C7 8094   0.412   0.568  17.404 -0.6508 -0.1753 -0.1934
  545TMC3    C8 8095   0.631   0.791  17.046  0.0900  0.0498 -0.3851
  545TMC3    O1 8096   0.305   0.554  17.462  0.1959 -0.5419 -0.1205
  545TMC3    O2 8097   0.727   0.719  17.069  0.2777 -0.3247  0.4005
  546MPD2     C 8098   2.089   1.661  17.397 -0.0894  0.2330  0.1480
  546MPD2    C1 8099   2.000   1.748  17.350  0.4476  0.2808 -0.0344
  546MPD2    C2 8100   2.037   1.885  17.346  0.1420 -0.6552  0.1557
  546MPD2    C3 8101   2.158   1.921  17.394  0.2050  0.0317 -0.5193
  546MPD2    C4 8102   2.240   1.829  17.449  0.9701 -0.1983  0.1067
  546MPD2    C5 8103   2.209   1.694  17.446  0.9755  0.7711 -0.0816
  546MPD2     H 8104   1.976   1.954  17.289  0.6838 -1.8469 -1.8497
  546MPD2    H1 8105   2.333   1.861  17.496  0.9643 -0.9830  0.6519
  546MPD2    H2 8106   2.068   1.557  17.374  1.5191 -0.1754  0.5482
  546MPD2    H3 8107   2.262   1.619  17.503  0.0512 -1.2291 -1.8688
  546MPD2     N 8108   2.206   2.053  17.380 -0.1441 -0.1383 -0.3317
  546MPD2    H5 8109   2.302   2.060  17.412 -0.0656 -1.6801 -0.2480
  546MPD2    N1 8110   1.874   1.698  17.298 -0.0945 -0.1087  0.1965
  546MPD2    H7 8111   1.855   1.600  17.320 -1.0387  0.0938  0.2875
  547TMC3    C1 8112   1.651   1.691  17.260 -0.0689  0.4941  0.4093
  547TMC3    C2 8113   1.564   1.683  17.151  0.2289  0.1942  0.2604
  547TMC3    C3 8114   1.452   1.606  17.169  0.0576 -0.4107  0.0770
  547TMC3    C4 8115   1.629   1.630  17.381 -0.1691 -0.2094  0.3110
  547TMC3    C5 8116   1.519   1.545  17.388 -0.1748 -0.0930  0.8072
  547TMC3    C6 8117   1.430   1.526  17.283 -0.1436 -0.1843 -0.1792
  547TMC3     C 8118   1.770   1.767  17.244 -0.9733 -0.2811 -0.1716
  547TMC3     O 8119   1.763   1.871  17.177  0.0800 -0.1713 -0.7768
  547TMC3     H 8120   1.596   1.729  17.058  0.6017  1.0587  0.8169
  547TMC3    H1 8121   1.699   1.646  17.463  1.1201 -0.5290 -0.7268
  547TMC3    H2 8122   1.345   1.459  17.292  1.2883 -1.6878  1.9479
  547TMC3    C7 8123   1.536   1.434  17.486 -0.5448 -0.3180 -0.7625
  547TMC3    C8 8124   1.335   1.639  17.091 -0.3350  0.1992  0.2947
  547TMC3    O1 8125   1.605   1.459  17.583 -0.2983  0.3378  0.0857
  547TMC3    O2 8126   1.351   1.664  16.972 -0.3734  0.3701 -0.1505
  548MPD2     C 8127   0.853   1.968  12.301  0.0523  0.1999  0.5070
  548MPD2    C1 8128   0.782   1.871  12.365 -0.4801  0.3368 -0.3306
  548MPD2    C2 8129   0.852   1.762  12.414  0.6417  0.1160  0.1641
  548MPD2    C3 8130   0.989   1.753  12.410 -0.1620 -0.5717  0.6631
  548MPD2    C4 8131   1.062   1.847  12.333  0.2580  0.3188  0.0968
  548MPD2    C5 8132   0.993   1.948  12.278  1.0745 -0.7702  0.1046
  548MPD2     H 8133   0.797   1.678  12.453  1.3371 -1.2452 -1.7366
  548MPD2    H1 8134   1.168   1.840  12.312  0.1899  1.8026 -0.7137
  548MPD2    H2 8135   0.805   2.045  12.242  2.0352  0.9176 -0.1570
  548MPD2    H3 8136   1.049   2.024  12.224 -0.5501  0.3064 -0.0578
  548MPD2     N 8137   1.047   1.647  12.473  0.1235 -0.8704  0.4944
  548MPD2    H5 8138   0.992   1.568  12.504 -1.8795  0.1747 -0.3815
  548MPD2    N1 8139   0.644   1.904  12.390 -0.0093  0.0735 -0.5046
  548MPD2    H7 8140   0.605   1.979  12.334 -2.0889 -0.4112  0.2935
  549TMC3    C1 8141   0.431   1.908  12.500  0.2102 -0.4949  0.0205
  549TMC3    C2 8142   0.410   2.037  12.467 -0.2748  0.3464 -0.4507
  549TMC3    C3 8143   0.275   2.077  12.464 -0.1538  0.3121  0.1416
  549TMC3    C4 8144   0.339   1.813  12.528 -0.3535  0.0888  0.7364
  549TMC3    C5 8145   0.209   1.862  12.510 -0.2011  0.4389 -0.2204
  549TMC3    C6 8146   0.174   1.991  12.477 -0.1276 -0.1959  0.4150
  549TMC3     C 8147   0.572   1.858  12.496 -1.1975 -0.2117 -0.0464
  549TMC3     O 8148   0.598   1.772  12.577  0.4187  0.3750 -0.4128
  549TMC3     H 8149   0.498   2.096  12.445  0.4401 -0.4871  0.2153
  549TMC3    H1 8150   0.373   1.712  12.549 -0.5324 -0.2916 -0.7731
  549TMC3    H2 8151   0.073   2.030  12.476 -1.0629 -2.5907  0.5956
  549TMC3    C7 8152   0.094   1.788  12.563 -0.9356  0.1766  0.4691
  549TMC3    C8 8153   0.232   2.191  12.389 -0.3764 -0.4604  0.5774
  549TMC3    O1 8154   0.008   1.855  12.623 -0.0238  0.3955  0.0062
  549TMC3    O2 8155   0.124   2.199  12.334 -0.4907 -0.0874 -0.6720
  550TMC3    C1 8156   4.705   4.678  12.036 -0.1241  0.1917  0.0459
  550TMC3    C2 8157   4.677   0.008  12.161 -0.1796  0.2132  0.0239
  550TMC3    C3 8158   4.682   0.145  12.175  0.1617  0.9794 -0.0397
  550TMC3    C4 8159   0.046   0.019  11.939 -0.1682 -0.8024 -0.3461
  550TMC3    C5 8160   0.054   0.159  11.945 -0.0242 -0.5785  0.0490
  550TMC3    C6 8161   0.008   0.216  12.064  0.4450  0.3542 -0.7865
  550TMC3     C 8162   4.612   4.575  11.989 -0.1943  0.5128  0.3295
  550TMC3     O 8163   4.583   4.478  12.058  0.3200  0.0088  0.5022
  550TMC3     H 8164   4.625   4.672  12.234 -0.0529  0.8748  0.6614
  550TMC3    H1 8165   0.072   4.700  11.843  1.3455  0.3593 -0.4680
  550TMC3    H2 8166   0.021   0.323  12.074  0.6530  0.3647 -1.1555
  550TMC3    C7 8167   4.722   0.216  11.818  0.3740  0.0560 -0.2008
  550TMC3    C8 8168   4.620   0.217  12.282  0.3289 -0.5083  0.1769
  550TMC3    O1 8169   4.667   0.139  11.737 -0.4464  0.6078  0.2000
  550TMC3    O2 8170   4.607   0.334  12.254  0.2244  0.2008  0.2275
  551TMC3    C1 8171   2.558   2.815  13.481  0.0463 -0.4579 -0.5717
  551TMC3    C2 8172   2.620   2.880  13.371 -0.7205  0.1077  0.1472
  551TMC3    C3 8173   2.696   2.986  13.411  0.2481 -0.0143 -0.1924
  551TMC3    C4 8174   2.572   2.848  13.614 -0.1721 -0.0290  0.3512
  551TMC3    C5 8175   2.656   2.956  13.637  0.2054  0.2197  0.9595
  551TMC3    C6 8176   2.711   3.032  13.538  0.7091 -0.2230  0.6861
  551TMC3     C 8177   2.476   2.707  13.430 -0.1358  0.0677  0.3478
  551TMC3     O 8178   2.464   2.697  13.308  0.4453 -0.2474 -0.3512
  551TMC3     H 8179   2.627   2.837  13.271 -0.1451  0.7174 -0.0715
  551TMC3    H1 8180   2.550   2.777  13.694  0.6173  0.7030  1.2235
  551TMC3    H2 8181   2.779   3.111  13.566  1.0429 -0.1017 -0.4833
  551TMC3    C7 8182   2.683   3.002  13.771  0.3450 -0.1779  0.0740
  551TMC3    C8 8183   2.741   3.087  13.315  0.1096 -0.7024 -0.1959
  551TMC3    O1 8184   2.691   2.912  13.857 -0.3156  0.9667 -0.2662
  551TMC3    O2 8185   2.763   3.200  13.357 -0.0331 -0.1536 -0.2392
  552MPD2     C 8186   4.451   0.313  13.719 -0.5968 -0.2777  0.4442
  552MPD2    C1 8187   4.454   0.190  13.775  0.4316 -0.2119  0.4734
  552MPD2    C2 8188   4.543   0.156  13.875 -0.0532  0.1042  0.2857
  552MPD2    C3 8189   4.645   0.242  13.916  0.3482 -0.3306 -0.2983
  552MPD2    C4 8190   4.646   0.362  13.849  0.1433 -0.1419 -0.2144
  552MPD2    C5 8191   4.556   0.395  13.750  0.4748 -1.0132 -0.3107
  552MPD2     H 8192   4.549   0.052  13.903  1.3488  0.0733 -0.1133
  552MPD2    H1 8193   0.008   0.426  13.859 -1.0550  1.2201  1.3909
  552MPD2    H2 8194   4.385   0.327  13.635 -2.7922 -3.3428  1.6671
  552MPD2    H3 8195   4.567   0.488  13.696  0.5410  0.8781  2.9675
  552MPD2     N 8196   0.029   0.198  14.000  0.1114 -0.7725 -0.8025
  552MPD2    H5 8197   0.111   0.256  14.010  1.7721 -3.3150  0.2123
  552MPD2    N1 8198   4.365   0.084  13.734  0.3942  0.0539 -0.6292
  552MPD2    H7 8199   4.375   4.720  13.783 -2.6906 -1.7142 -3.1994
  553TMC3    C1 8200   4.246   4.665  13.607 -0.1752  0.6803 -0.0158
  553TMC3    C2 8201   4.296   4.611  13.488 -0.1371  0.4127 -0.5057
  553TMC3    C3 8202   4.287   4.478  13.470  0.9520  0.1781  0.3380
  553TMC3    C4 8203   4.195   4.585  13.711 -0.5595 -0.1953 -0.2129
  553TMC3    C5 8204   4.206   4.452  13.678  0.7043  0.3789 -0.0397
  553TMC3    C6 8205   4.246   4.391  13.564 -0.5583 -0.8409 -0.0644
  553TMC3     C 8206   4.286   0.079  13.621  0.3520  0.0405 -0.3523
  553TMC3     O 8207   4.290   0.144  13.515 -0.4379 -0.2167  0.4137
  553TMC3     H 8208   4.362   4.665  13.421  0.9260 -1.3130 -0.8747
  553TMC3    H1 8209   4.176   4.623  13.811 -0.9812 -2.2172  0.4741
  553TMC3    H2 8210   4.257   4.284  13.557 -0.5372 -0.7896 -0.8111
  553TMC3    C7 8211   4.187   4.365  13.792  0.0370 -0.2596  0.5789
  553TMC3    C8 8212   4.389   4.418  13.390 -0.1149  0.1208 -0.5230
  553TMC3    O1 8213   4.102   4.396  13.875 -0.2167  0.8001 -0.2269
  553TMC3    O2 8214   4.507   4.418  13.431 -0.4833 -0.4721  0.0582
  554TMC3    C1 8215   1.678   3.986  11.839 -0.2385  0.1126  0.1973
  554TMC3    C2 8216   1.589   3.897  11.775 -0.2065 -0.0889  0.3723
  554TMC3    C3 8217   1.559   3.908  11.648 -0.2760  0.3519  0.1766
  554TMC3    C4 8218   1.733   4.081  11.772  0.5081  0.3541 -0.2862
  554TMC3    C5 8219   1.711   4.087  11.637  0.1109  0.3433 -0.7909
  554TMC3    C6 8220   1.626   4.001  11.574  0.6305  0.0515 -0.5867
  554TMC3     C 8221   1.709   3.969  11.979 -0.0562 -0.1309 -0.3281
  554TMC3     O 8222   1.782   4.051  12.028 -0.1547  0.0558  0.2367
  554TMC3     H 8223   1.540   3.821  11.833  0.2779 -0.5547  0.1706
  554TMC3    H1 8224   1.804   4.146  11.820 -0.1553 -0.3397  1.6519
  554TMC3    H2 8225   1.590   3.997  11.472 -0.6196 -1.0926 -0.0964
  554TMC3    C7 8226   1.775   4.194  11.564 -0.2762  0.3611 -0.5695
  554TMC3    C8 8227   1.449   3.839  11.593  0.0963  0.3522  0.3529
  554TMC3    O1 8228   1.809   4.290  11.633 -0.4368 -0.5810  0.7295
  554TMC3    O2 8229   1.446   3.839  11.470  0.8924  0.1543  0.5322
  555TMC3    C1 8230   0.846   3.237  15.116 -0.7311 -0.8819  0.6556
  555TMC3    C2 8231   0.893   3.338  15.194  0.2788  0.8527 -1.0400
  555TMC3    C3 8232   0.906   3.328  15.327  0.0690 -0.2494  0.8181
  555TMC3    C4 8233   0.802   3.122  15.168 -0.2100  0.3934 -0.2553
  555TMC3    C5 8234   0.818   3.107  15.305  0.2218 -0.2660 -0.0391
  555TMC3    C6 8235   0.868   3.205  15.385 -0.0002  0.0028 -0.0336
  555TMC3     C 8236   0.892   3.239  14.973  0.1250  0.5069 -0.3090
  555TMC3     O 8237   1.003   3.296  14.950  0.0896 -0.1694  0.0100
  555TMC3     H 8238   0.921   3.432  15.148 -0.4872  0.7008 -1.8164
  555TMC3    H1 8239   0.764   3.036  15.113  1.1479  0.0892 -0.7242
  555TMC3    H2 8240   0.877   3.199  15.492 -1.5437 -1.4122  0.0239
  555TMC3    C7 8241   0.796   2.983  15.365 -0.2613  0.1874 -0.9812
  555TMC3    C8 8242   0.964   3.436  15.405  0.2559  0.3040 -0.9545
  555TMC3    O1 8243   0.692   2.923  15.348 -0.3168 -0.0208  0.9990
  555TMC3    O2 8244   0.929   3.549  15.378 -0.1332 -0.4204  0.6272
  556MPD2     C 8245   3.136   0.298  10.507  0.5819 -0.4251  0.2886
  556MPD2    C1 8246   3.201   0.178  10.530 -0.2839 -0.5096  0.6643
  556MPD2    C2 8247   3.216   0.085  10.425  0.4396  0.2650 -0.1542
  556MPD2    C3 8248   3.162   0.120  10.295  0.6994  0.4817 -0.4112
  556MPD2    C4 8249   3.097   0.240  10.281 -0.0739  0.2045  0.3285
  556MPD2    C5 8250   3.087   0.331  10.383 -0.2294  0.3091  0.5189
  556MPD2     H 8251   3.268   4.717  10.445 -0.1708 -0.3687 -1.4780
  556MPD2    H1 8252   3.062   0.274  10.183 -1.1627  0.1760  0.7049
  556MPD2    H2 8253   3.124   0.368  10.588  2.3054 -0.0280  0.1988
  556MPD2    H3 8254   3.032   0.424  10.365  1.0798  1.1815  1.0374
  556MPD2     N 8255   3.176   0.021  10.197 -0.4290 -0.0591  0.5708
  556MPD2    H5 8256   3.217   4.658  10.226  0.4752 -0.4536 -1.9328
  556MPD2    N1 8257   3.259   0.148  10.652 -0.5172 -0.1948  0.1161
  556MPD2    H7 8258   3.285   0.052  10.672  0.3800 -0.8075 -4.0353
  557TMC3    C1 8259   3.184   4.640   9.985 -0.3177  0.1120 -1.2182
  557TMC3    C2 8260   3.141   4.647   9.850 -0.2729  0.0608 -0.2820
  557TMC3    C3 8261   3.069   4.548   9.789 -0.5488  0.5417  0.1534
  557TMC3    C4 8262   3.162   4.521  10.050  0.5250  0.5112 -0.0103
  557TMC3    C5 8263   3.099   4.422   9.979  0.0805  0.3795  0.1559
  557TMC3    C6 8264   3.040   4.438   9.857 -0.6116 -0.0331  0.2415
  557TMC3     C 8265   3.169   0.043  10.059 -1.1655 -0.2337 -0.1603
  557TMC3     O 8266   3.146   0.147   9.997  0.0740  0.8745  0.0860
  557TMC3     H 8267   3.151   0.020   9.803  1.1842  0.3333  0.5752
  557TMC3    H1 8268   3.181   4.510  10.156 -0.5985 -1.3416  0.0028
  557TMC3    H2 8269   2.991   4.355   9.808 -0.8895 -0.4158  1.1626
  557TMC3    C7 8270   3.064   4.306  10.053 -0.3705  0.1760  0.5279
  557TMC3    C8 8271   3.027   4.567   9.646  0.1631  0.3074 -0.2293
  557TMC3    O1 8272   2.951   4.258  10.040 -0.3631  0.4803 -0.3457
  557TMC3    O2 8273   3.087   4.656   9.588  0.4188  0.3063  0.0191
  558TMC3    C1 8274   1.418   2.512  10.517 -0.4460 -0.0295  0.3606
  558TMC3    C2 8275   1.282   2.532  10.512  0.6359 -0.1625  0.9562
  558TMC3    C3 8276   1.221   2.481  10.402  0.6628  0.1730 -0.0326
  558TMC3    C4 8277   1.494   2.447  10.423 -0.7784 -0.2685 -0.1364
  558TMC3    C5 8278   1.420   2.397  10.316  0.0580  0.4582 -0.6958
  558TMC3    C6 8279   1.286   2.415  10.306  0.1383 -0.2028  0.7788
  558TMC3     C 8280   1.492   2.531  10.638  0.2077  0.4435  0.8287
  558TMC3     O 8281   1.611   2.553  10.634  0.6763  0.4481  0.0234
  558TMC3     H 8282   1.240   2.607  10.577 -0.5126  0.1488 -0.1395
  558TMC3    H1 8283   1.598   2.427  10.442 -0.6107  0.8526  0.1170
  558TMC3    H2 8284   1.235   2.391  10.213  2.6869  0.3717 -0.7806
  558TMC3    C7 8285   1.486   2.289  10.239  0.6470 -0.1486 -0.7735
  558TMC3    C8 8286   1.079   2.504  10.385 -0.1480 -0.4115 -0.3666
  558TMC3    O1 8287   1.606   2.264  10.270  0.1343  0.0849 -0.2939
  558TMC3    O2 8288   1.039   2.480  10.273 -0.2759  0.7714 -0.0179
  559MPD2     C 8289   0.913   3.400  10.943 -0.2595 -0.4783  0.2234
  559MPD2    C1 8290   0.831   3.422  11.050  0.2517 -0.6276  0.0483
  559MPD2    C2 8291   0.887   3.436  11.177 -0.0344  0.6357 -0.7367
  559MPD2    C3 8292   1.022   3.452  11.190  0.4085  0.6531  0.6401
  559MPD2    C4 8293   1.103   3.436  11.082 -0.7052 -0.3183  0.0695
  559MPD2    C5 8294   1.048   3.412  10.960 -1.1075  0.0754 -0.0748
  559MPD2     H 8295   0.832   3.447  11.270  1.8938  0.7084  0.3853
  559MPD2    H1 8296   1.212   3.437  11.089 -0.7756 -0.4929  1.1794
  559MPD2    H2 8297   0.877   3.388  10.842  2.2172 -1.3101 -0.5710
  559MPD2    H3 8298   1.117   3.395  10.878 -1.4889  1.3131 -0.6443
  559MPD2     N 8299   1.082   3.455  11.318  0.6409 -0.1922  0.5314
  559MPD2    H5 8300   1.015   3.448  11.394 -0.3403 -0.6043 -0.3656
  559MPD2    N1 8301   0.696   3.446  11.024  0.1671  1.2082 -0.5154
  559MPD2    H7 8302   0.661   3.449  10.929  2.1050 -0.9216 -1.3095
  560TMC3    C1 8303   1.240   3.406  11.486 -0.2463 -0.7744  0.2520
  560TMC3    C2 8304   1.167   3.292  11.519 -0.1489  0.1700  0.3569
  560TMC3    C3 8305   1.221   3.216  11.621 -0.3699  0.3125  0.1814
  560TMC3    C4 8306   1.350   3.448  11.550  0.3040  0.7818 -0.9915
  560TMC3    C5 8307   1.392   3.369  11.653 -0.1344  0.0310  0.5046
  560TMC3    C6 8308   1.338   3.251  11.689 -0.2213  0.1210 -0.2628
  560TMC3     C 8309   1.213   3.463  11.350 -0.6778  0.0530  0.5636
  560TMC3     O 8310   1.311   3.509  11.287 -0.3004  0.5088 -0.1079
  560TMC3     H 8311   1.077   3.267  11.464 -0.0821  1.4249 -0.3304
  560TMC3    H1 8312   1.390   3.546  11.523 -2.0524  1.0833 -3.3276
  560TMC3    H2 8313   1.391   3.182  11.754 -2.2869 -0.0114  1.2988
  560TMC3    C7 8314   1.512   3.413  11.722 -0.7169 -0.5801  0.8306
  560TMC3    C8 8315   1.189   3.083  11.585  0.7640  0.2439  0.1197
  560TMC3    O1 8316   1.534   3.358  11.830  0.2131  0.2299 -0.6782
  560TMC3    O2 8317   1.167   3.054  11.469 -0.2100 -0.6188  0.8184
  561TMC3    C1 8318   3.368   2.218  11.309 -0.3528  0.3232 -0.4201
  561TMC3    C2 8319   3.281   2.163  11.396  0.2942 -0.4561  0.3735
  561TMC3    C3 8320   3.305   2.189  11.529 -0.5871 -0.5719  0.4162
  561TMC3    C4 8321   3.469   2.301  11.341 -0.1251 -0.2624  0.1864
  561TMC3    C5 8322   3.493   2.320  11.477 -0.3943 -0.3011 -0.0036
  561TMC3    C6 8323   3.414   2.262  11.570  0.5330  0.0214 -0.8269
  561TMC3     C 8324   3.332   2.206  11.168 -0.3725  0.6707  0.5243
  561TMC3     O 8325   3.215   2.180  11.136 -0.0524 -0.2985  0.3657
  561TMC3     H 8326   3.201   2.096  11.364 -0.6238  0.5674  0.5147
  561TMC3    H1 8327   3.532   2.334  11.259 -2.0001 -2.0164 -1.9923
  561TMC3    H2 8328   3.428   2.281  11.676 -1.4830  1.0192 -0.7464
  561TMC3    C7 8329   3.580   2.419  11.525  0.4523  0.6296  0.6552
  561TMC3    C8 8330   3.212   2.151  11.627  0.0060  0.2198  0.2668
  561TMC3    O1 8331   3.616   2.413  11.640 -0.3483 -0.5031  0.0065
  561TMC3    O2 8332   3.158   2.040  11.613 -0.2675  0.3371 -0.3794
  562TMC3    C1 8333   0.383   3.642  16.061  0.7901 -0.7077  0.1774
  562TMC3    C2 8334   0.366   3.762  15.998 -0.3587  0.4625  0.3288
  562TMC3    C3 8335   0.365   3.764  15.863 -0.6285  0.3866  0.0920
  562TMC3    C4 8336   0.388   3.523  15.991 -0.8861  1.0291 -0.3736
  562TMC3    C5 8337   0.372   3.523  15.854 -0.4493 -0.1564 -0.4151
  562TMC3    C6 8338   0.357   3.646  15.795 -0.2175 -0.5077 -0.4671
  562TMC3     C 8339   0.405   3.628  16.203 -0.1756 -0.4927 -0.0208
  562TMC3     O 8340   0.398   3.511  16.245 -0.3014  0.4682  0.0796
  562TMC3     H 8341   0.346   3.853  16.054 -1.7408  1.0751 -1.1284
  562TMC3    H1 8342   0.413   3.427  16.037  0.1703  1.3548 -0.2689
  562TMC3    H2 8343   0.328   3.646  15.690 -0.5308 -1.6721 -0.3823
  562TMC3    C7 8344   0.414   3.403  15.780 -0.0058  0.2067 -0.1441
  562TMC3    C8 8345   0.354   3.890  15.797  0.4365  0.2444  0.8658
  562TMC3    O1 8346   0.399   3.414  15.657  0.4497  0.7838 -0.2358
  562TMC3    O2 8347   0.295   3.981  15.855  0.0213 -0.1971 -0.4749
  563MPD2     C 8348   2.569   0.376  15.757 -0.1686  0.7386  0.1523
  563MPD2    C1 8349   2.585   0.360  15.892 -0.2157 -0.0717 -0.5986
  563MPD2    C2 8350   2.676   0.270  15.944 -0.8609 -0.5052 -0.2708
  563MPD2    C3 8351   2.744   0.188  15.851  0.3907 -0.8318  0.2398
  563MPD2    C4 8352   2.734   0.215  15.716  0.1387  0.9709  0.0215
  563MPD2    C5 8353   2.639   0.302  15.668  0.1715 -0.2988  0.1871
  563MPD2     H 8354   2.674   0.229  16.045 -0.1860  0.3315  0.0806
  563MPD2    H1 8355   2.783   0.151  15.643 -0.0198  2.5940 -1.5101
  563MPD2    H2 8356   2.480   0.431  15.728 -0.7588 -0.3663 -0.1434
  563MPD2    H3 8357   2.627   0.300  15.561 -1.1917 -0.3549  0.3405
  563MPD2     N 8358   2.820   0.080  15.909  0.3026 -0.4416 -0.6544
  563MPD2    H5 8359   2.816   0.081  16.011 -2.5779  0.2740 -0.7574
  563MPD2    N1 8360   2.495   0.412  15.986 -0.1526 -0.5197  0.0080
  563MPD2    H7 8361   2.402   0.439  15.955  0.1955 -0.2492 -0.8114
  564TMC3    C1 8362   2.411   0.403  16.214  0.2033 -0.2122  0.1478
  564TMC3    C2 8363   2.300   0.341  16.161  0.9534 -0.1914 -0.1537
  564TMC3    C3 8364   2.255   0.228  16.227 -0.3479  0.3320 -0.0205
  564TMC3    C4 8365   2.447   0.372  16.341 -0.1309  0.4842 -0.4495
  564TMC3    C5 8366   2.430   0.247  16.387  0.1333  0.2974  0.2133
  564TMC3    C6 8367   2.323   0.175  16.336 -0.2920 -0.6810  0.1147
  564TMC3     C 8368   2.526   0.422  16.120 -0.2435 -0.5232 -0.1749
  564TMC3     O 8369   2.639   0.429  16.166 -0.2410  0.0363 -0.6370
  564TMC3     H 8370   2.265   0.368  16.062 -0.8444  0.2063  0.5920
  564TMC3    H1 8371   2.535   0.420  16.381  0.9206 -1.3717 -0.5294
  564TMC3    H2 8372   2.305   0.074  16.373  1.1793  0.0505  2.8856
  564TMC3    C7 8373   2.555   0.172  16.390  0.2187  0.3622  0.1130
  564TMC3    C8 8374   2.195   0.127  16.140 -0.1774  0.2496  0.0926
  564TMC3    O1 8375   2.664   0.211  16.437  0.1299 -0.4377  0.5970
  564TMC3    O2 8376   2.150   0.037  16.212  0.3492  0.1066  0.0563
  565TMC3    C1 8377   3.040   1.250  10.373  0.3484  0.6028 -0.6065
  565TMC3    C2 8378   3.055   1.189  10.497 -0.4574 -0.3296 -0.8724
  565TMC3    C3 8379   2.956   1.106  10.527  0.0227  0.2357 -0.0757
  565TMC3    C4 8380   2.942   1.223  10.285 -0.8225 -0.4638 -0.2871
  565TMC3    C5 8381   2.850   1.134  10.330  0.2599  0.6019  0.5546
  565TMC3    C6 8382   2.869   1.058  10.439 -0.3842  0.1844 -0.2223
  565TMC3     C 8383   3.150   1.324  10.327  0.1980 -0.4355 -0.2808
  565TMC3     O 8384   3.140   1.362  10.212 -0.2415 -0.2830 -0.7676
  565TMC3     H 8385   3.129   1.209  10.574 -0.9516  1.6713 -0.9132
  565TMC3    H1 8386   2.924   1.291  10.203  0.5354 -1.2948 -1.2665
  565TMC3    H2 8387   2.789   0.990  10.468  1.5990 -2.1829 -0.2635
  565TMC3    C7 8388   2.773   1.082  10.221 -0.8261 -0.5918  0.0469
  565TMC3    C8 8389   2.974   1.029  10.648 -0.0445  0.0348  0.2307
  565TMC3    O1 8390   2.759   0.959  10.207 -0.3476 -0.8459 -0.2653
  565TMC3    O2 8391   3.022   1.085  10.745 -0.0714  0.0679 -0.0690
  566MPD2     C 8392   0.205   2.394  14.544 -0.0155  0.0986  0.5386
  566MPD2    C1 8393   0.243   2.491  14.456 -0.0042  0.2036  0.1310
  566MPD2    C2 8394   0.146   2.558  14.384  0.2596 -0.5281 -0.6450
  566MPD2    C3 8395   0.012   2.534  14.410 -0.0882  0.1931  0.5350
  566MPD2    C4 8396   4.699   2.438  14.493 -0.1411  0.0092 -0.1755
  566MPD2    C5 8397   0.072   2.362  14.556 -0.5644  0.3575  0.2063
  566MPD2     H 8398   0.166   2.627  14.303 -1.5640  0.6009 -0.1411
  566MPD2    H1 8399   4.599   2.396  14.500 -0.3931  0.7833  0.8669
  566MPD2    H2 8400   0.264   2.329  14.606  0.7893  0.6116  0.3035
  566MPD2    H3 8401   0.045   2.275  14.615  1.0697 -0.1039  0.2603
  566MPD2     N 8402   4.625   2.598  14.343  0.3837 -0.8080 -1.2287
  566MPD2    H5 8403   4.530   2.564  14.353  0.8696 -1.4658  1.1408
  566MPD2    N1 8404   0.385   2.517  14.445 -0.6273  0.0562  0.4236
  566MPD2    H7 8405   0.442   2.471  14.515 -0.2515  1.6667  1.1819
  567TMC3    C1 8406   0.585   2.621  14.354 -0.1174  0.7026 -0.5745
  567TMC3    C2 8407   0.638   2.685  14.246 -0.4908  0.9905  0.3870
  567TMC3    C3 8408   0.731   2.788  14.263  0.4703 -0.7170  0.2864
  567TMC3    C4 8409   0.636   2.651  14.475 -0.1724 -0.2320  0.2633
  567TMC3    C5 8410   0.737   2.749  14.497 -0.3863  0.2499 -0.2012
  567TMC3    C6 8411   0.785   2.818  14.387 -0.8506 -0.4827 -0.2270
  567TMC3     C 8412   0.445   2.593  14.343 -0.3100 -0.3680 -0.1030
  567TMC3     O 8413   0.382   2.650  14.256  0.0339  0.6184 -0.4031
  567TMC3     H 8414   0.607   2.665  14.144  1.6882  0.1149 -0.1001
  567TMC3    H1 8415   0.590   2.611  14.565  0.9934 -1.1356  0.4544
  567TMC3    H2 8416   0.851   2.902  14.406 -1.3092  0.1954 -1.5684
  567TMC3    C7 8417   0.798   2.781  14.625 -0.5895  0.5654  0.2128
  567TMC3    C8 8418   0.710   2.895  14.169  0.1931  0.1363 -0.5805
  567TMC3    O1 8419   0.907   2.842  14.627 -0.1266  0.5618 -0.3355
  567TMC3    O2 8420   0.677   2.999  14.223  0.1765  0.2591 -0.2631
  568MPD2     C 8421   2.458   3.299  16.086 -0.2463  0.0114  1.0514
  568MPD2    C1 8422   2.513   3.350  16.200  0.5807 -0.2657 -0.1582
  568MPD2    C2 8423   2.495   3.486  16.233 -0.0363 -0.4271  0.0860
  568MPD2    C3 8424   2.414   3.570  16.150 -0.5605  0.2958 -0.2357
  568MPD2    C4 8425   2.364   3.504  16.034  0.2673  0.2402 -0.2889
  568MPD2    C5 8426   2.384   3.377  16.000  0.3243  0.4613 -0.1450
  568MPD2     H 8427   2.531   3.533  16.324  1.1808  0.0245 -0.6300
  568MPD2    H1 8428   2.304   3.558  15.961  0.0914  0.0650 -0.2735
  568MPD2    H2 8429   2.471   3.194  16.066 -1.8894  0.2352 -1.2237
  568MPD2    H3 8430   2.335   3.335  15.913 -0.0375 -0.7596  0.6407
  568MPD2     N 8431   2.401   3.710  16.181  0.4763 -0.3467  0.2662
  568MPD2    H5 8432   2.446   3.741  16.266 -0.8261 -2.7208  1.8421
  568MPD2    N1 8433   2.592   3.263  16.272 -0.4047  0.0738 -0.0631
  568MPD2    H7 8434   2.608   3.168  16.241 -1.9052 -0.5707  1.1136
  569TMC3    C1 8435   2.366   3.940  16.140 -0.4608  0.0768  0.1890
  569TMC3    C2 8436   2.387   3.973  16.268  0.1775 -0.3337  0.3802
  569TMC3    C3 8437   2.416   4.101  16.306  0.1808  0.2065  0.4506
  569TMC3    C4 8438   2.370   4.036  16.040  0.0256  0.2978 -0.1495
  569TMC3    C5 8439   2.389   4.166  16.084  0.6380 -0.2325 -0.7911
  569TMC3    C6 8440   2.409   4.203  16.215 -0.1773 -0.2529  0.5275
  569TMC3     C 8441   2.356   3.804  16.093  0.3466 -0.9761  0.1730
  569TMC3     O 8442   2.323   3.788  15.972 -0.5452  0.2321  0.0112
  569TMC3     H 8443   2.362   3.899  16.344 -0.3249  0.3597  0.8882
  569TMC3    H1 8444   2.353   4.008  15.936  2.0405 -3.7448  0.6065
  569TMC3    H2 8445   2.433   4.307  16.232  0.9573 -0.2280 -1.1190
  569TMC3    C7 8446   2.388   4.267  15.977 -0.0500 -0.2186  0.5921
  569TMC3    C8 8447   2.467   4.117  16.444  0.2918  1.2942  0.2946
  569TMC3    O1 8448   2.463   4.242  15.887 -0.4030  0.2726  0.3238
  569TMC3    O2 8449   2.466   4.008  16.502  0.1536 -0.2149 -0.2419
  570TMC3    C1 8450   1.887   2.359  16.287 -0.0727  0.1807 -0.0870
  570TMC3    C2 8451   1.960   2.334  16.177 -0.5372  0.3547  0.1481
  570TMC3    C3 8452   2.058   2.426  16.134  0.0925 -0.6436  0.3419
  570TMC3    C4 8453   1.904   2.481  16.355 -0.2379 -0.3121  0.1915
  570TMC3    C5 8454   2.006   2.566  16.316  0.1625  0.3594  0.0376
  570TMC3    C6 8455   2.087   2.537  16.208 -0.4454  0.0294  0.6676
  570TMC3     C 8456   1.771   2.279  16.324  0.6167  0.0277 -0.6856
  570TMC3     O 8457   1.733   2.193  16.248 -0.0886 -0.5971 -0.0070
  570TMC3     H 8458   1.932   2.245  16.122  0.8581  0.1028 -0.1492
  570TMC3    H1 8459   1.843   2.505  16.441  0.0396  1.2154 -0.0409
  570TMC3    H2 8460   2.163   2.606  16.174  1.0813 -1.3068  1.3628
  570TMC3    C7 8461   2.008   2.690  16.390 -0.2769  0.1311  0.5162
  570TMC3    C8 8462   2.141   2.397  16.010  0.3193  0.0275  0.3988
  570TMC3    O1 8463   1.983   2.689  16.510 -0.5094  0.0351  0.6063
  570TMC3    O2 8464   2.248   2.452  16.007 -0.4697 -0.4791 -0.4293
  571MPD2     C 8465   4.424   4.235  17.404  0.1521 -0.8317  0.1075
  571MPD2    C1 8466   4.530   4.162  17.448  0.3577 -0.1587 -0.1705
  571MPD2    C2 8467   4.652   4.223  17.476 -0.0531 -0.3465 -0.2539
  571MPD2    C3 8468   4.670   4.362  17.450  0.0776 -0.1907 -0.4634
  571MPD2    C4 8469   4.563   4.426  17.400 -0.7565 -0.6392 -0.5336
  571MPD2    C5 8470   4.446   4.366  17.380 -0.6527  0.0462 -0.2973
  571MPD2     H 8471   0.008   4.169  17.525 -1.3071  0.8014  3.0975
  571MPD2    H1 8472   4.568   4.529  17.367  5.5338  0.0131  2.5217
  571MPD2    H2 8473   4.325   4.199  17.377 -0.1776 -0.2870  0.5856
  571MPD2    H3 8474   4.359   4.418  17.342 -0.2067  0.1650 -1.1474
  571MPD2     N 8475   0.071   4.432  17.459  0.2251  0.0320  0.0007
  571MPD2    H5 8476   0.068   4.529  17.428  0.2016 -0.3050 -1.0363
  571MPD2    N1 8477   4.506   4.023  17.464  0.5720  0.0431 -0.0400
  571MPD2    H7 8478   4.410   3.992  17.461 -0.0090  1.8685 -0.7520
  572TMC3    C1 8479   0.305   4.464  17.518 -0.3461  0.4844  0.1075
  572TMC3    C2 8480   0.424   4.392  17.521  0.5762 -0.2791 -0.7619
  572TMC3    C3 8481   0.533   4.455  17.471 -0.4536  0.0022  0.5321
  572TMC3    C4 8482   0.298   4.591  17.478  0.6643  0.3024 -0.4605
  572TMC3    C5 8483   0.413   4.649  17.427 -0.6856  0.9856 -0.4849
  572TMC3    C6 8484   0.530   4.582  17.419 -0.7918  0.3046 -0.6959
  572TMC3     C 8485   0.184   4.380  17.521 -0.5074 -0.4479  0.1866
  572TMC3     O 8486   0.195   4.276  17.576  0.2589 -0.1730  0.0821
  572TMC3     H 8487   0.424   4.284  17.513  0.3131 -0.4534  1.6083
  572TMC3    H1 8488   0.206   4.649  17.478  1.2270  1.1833  0.7857
  572TMC3    H2 8489   0.629   4.621  17.396 -0.8593  0.2645 -1.0606
  572TMC3    C7 8490   0.394   0.040  17.346  0.0392  0.1548 -0.2273
  572TMC3    C8 8491   0.665   4.401  17.494  0.2697  1.0339 -0.5093
  572TMC3    O1 8492   0.279   0.084  17.336 -0.1945  0.1250  0.2987
  572TMC3    O2 8493   0.754   4.424  17.417  0.5560 -0.0416 -0.0091
  573MPD2     C 8494   0.619   0.719   0.896  0.9807  0.2127 -0.4832
  573MPD2    C1 8495   0.758   0.703   0.879  0.3129 -0.2624 -0.3378
  573MPD2    C2 8496   0.807   0.608   0.786 -0.0324 -0.8237 -0.4450
  573MPD2    C3 8497   0.727   0.525   0.710  0.1159  0.3931 -0.8216
  573MPD2    C4 8498   0.592   0.561   0.707  0.6007  0.5476  0.0158
  573MPD2    C5 8499   0.547   0.651   0.808 -0.0201 -0.1063  0.1499
  573MPD2     H 8500   0.914   0.592   0.781  0.0622 -0.3900  0.2228
  573MPD2    H1 8501   0.527   0.503   0.643  0.5372  0.2601  0.3380
  573MPD2    H2 8502   0.586   0.797   0.964  0.3529 -0.6809  0.2323
  573MPD2    H3 8503   0.440   0.666   0.806 -0.6513 -4.7259 -0.9103
  573MPD2     N 8504   0.777   0.423   0.618  0.5275 -0.4759  0.0660
  573MPD2    H5 8505   0.711   0.393   0.547  0.9635  1.2613 -1.0727
  573MPD2    N1 8506   0.852   0.789   0.941 -0.2154  0.5724  1.2243
  573MPD2    H7 8507   0.810   0.856   1.005 -1.6711  1.4830 -0.7101
  574TMC3    C1 8508   0.934   0.325   0.481 -0.2060 -0.0355 -0.4801
  574TMC3    C2 8509   0.841   0.252   0.410  0.2118 -0.2606  0.8661
  574TMC3    C3 8510   0.877   0.218   0.281 -0.1692  0.1948  1.2677
  574TMC3    C4 8511   1.057   0.353   0.424 -0.2310  0.2353  0.3634
  574TMC3    C5 8512   1.094   0.292   0.305  0.3990  0.3545 -0.4739
  574TMC3    C6 8513   0.996   0.237   0.230 -0.6516  0.6052 -0.7618
  574TMC3     C 8514   0.909   0.394   0.602  0.4461 -0.1792  0.0322
  574TMC3     O 8515   1.003   0.434   0.671  0.4170  0.8671 -0.0217
  574TMC3     H 8516   0.737   0.232   0.434  0.8540 -4.0801  0.3768
  574TMC3    H1 8517   1.133   0.408   0.478  2.0631  0.5996 -3.2737
  574TMC3    H2 8518   1.026   0.185   0.140 -2.7148  1.9312 -2.2185
  574TMC3    C7 8519   1.221   0.334   0.242 -0.5967 -0.0907  0.6347
  574TMC3    C8 8520   0.764   0.189   0.199  0.8812  0.4513 -0.2436
  574TMC3    O1 8521   1.223   0.332   0.121 -0.4344  0.1919  0.0572
  574TMC3    O2 8522   0.705   0.084   0.227 -0.1777  0.3686 -0.4972
  575TMC3    C1 8523   2.984   0.958  11.523  0.2431  0.2015  0.3955
  575TMC3    C2 8524   3.061   0.859  11.578 -0.2724  0.2989 -0.5731
  575TMC3    C3 8525   3.089   0.749  11.499  0.0916  0.3147 -0.1698
  575TMC3    C4 8526   2.953   0.958  11.391  0.3748  0.3196 -0.0251
  575TMC3    C5 8527   2.995   0.856  11.313  0.3508  0.1333  0.1298
  575TMC3    C6 8528   3.061   0.749  11.363  0.7463 -0.5364  0.0472
  575TMC3     C 8529   2.933   1.062  11.606  0.0392 -0.4743 -0.3165
  575TMC3     O 8530   2.920   1.031  11.722  0.2691  0.2050  0.0777
  575TMC3     H 8531   3.090   0.867  11.682  0.2694  0.7771 -0.7612
  575TMC3    H1 8532   2.898   1.040  11.345 -2.0524 -1.5497 -0.5161
  575TMC3    H2 8533   3.098   0.667  11.303 -2.2207  0.4730 -3.1655
  575TMC3    C7 8534   2.981   0.865  11.164  0.2789  0.2784  0.0088
  575TMC3    C8 8535   3.143   0.633  11.555 -0.2040  0.7431  0.6597
  575TMC3    O1 8536   2.925   0.961  11.112  0.1169 -0.1668  0.3000
  575TMC3    O2 8537   3.202   0.562  11.476  0.1117  0.0867  0.1386
  576MPD2     C 8538   2.667   2.748  12.894  0.8601 -0.2002 -0.4933
  576MPD2    C1 8539   2.684   2.815  12.777 -0.2742  0.1163  0.4972
  576MPD2    C2 8540   2.643   2.943  12.765  0.2634  0.3604  0.8847
  576MPD2    C3 8541   2.591   3.005  12.872  0.3093 -1.5271  0.6935
  576MPD2    C4 8542   2.571   2.939  12.990  0.3081 -0.3547  0.1470
  576MPD2    C5 8543   2.612   2.806  13.003 -0.1464 -0.0130  0.1199
  576MPD2     H 8544   2.652   2.997  12.671  3.3299 -0.1178  0.9086
  576MPD2    H1 8545   2.526   2.989  13.074  1.9378 -2.2103  2.1162
  576MPD2    H2 8546   2.708   2.648  12.907  0.2463 -0.5709 -1.3911
  576MPD2    H3 8547   2.600   2.745  13.092 -0.6821  0.0940  0.1212
  576MPD2     N 8548   2.550   3.138  12.858 -0.5550  0.1866 -0.1716
  576MPD2    H5 8549   2.583   3.190  12.778  0.4462 -0.6516 -0.3042
  576MPD2    N1 8550   2.744   2.754  12.658  0.1431  0.5654  0.0485
  576MPD2    H7 8551   2.750   2.823  12.584 -0.1890  0.6104  0.0641
  577TMC3    C1 8552   2.893   2.621  12.542 -0.0484  0.3137 -0.2490
  577TMC3    C2 8553   2.900   2.500  12.474  0.4012  0.7536 -0.4686
  577TMC3    C3 8554   2.982   2.493  12.359  0.9449 -0.9375  0.4765
  577TMC3    C4 8555   2.969   2.732  12.505 -0.5772 -0.4908  0.5975
  577TMC3    C5 8556   3.051   2.714  12.398 -0.7746 -0.1740 -0.2508
  577TMC3    C6 8557   3.055   2.605  12.318 -0.1506  0.3534 -1.1288
  577TMC3     C 8558   2.795   2.628  12.651  0.1013  0.9149  0.6346
  577TMC3     O 8559   2.790   2.532  12.730  0.5460 -0.0551  0.5016
  577TMC3     H 8560   2.826   2.423  12.497  1.3955  0.0578  0.4147
  577TMC3    H1 8561   2.971   2.827  12.559  0.7368  0.2622 -0.7711
  577TMC3    H2 8562   3.119   2.620  12.231  2.2302 -1.2627  0.3223
  577TMC3    C7 8563   3.089   2.833  12.330 -0.3329  0.8085 -0.5056
  577TMC3    C8 8564   2.971   2.372  12.276 -0.4018  0.2869  0.1033
  577TMC3    O1 8565   3.205   2.855  12.305  0.2108  0.1429  0.7949
  577TMC3    O2 8566   2.902   2.277  12.320  0.2739 -0.1113 -0.0180
  578MPD2     C 8567   1.608   3.091   1.262 -0.6043 -0.6985  0.5642
  578MPD2    C1 8568   1.670   3.018   1.161 -0.6399  0.0698  0.1884
  578MPD2    C2 8569   1.802   2.982   1.177 -0.1356 -0.2394 -0.4076
  578MPD2    C3 8570   1.881   3.025   1.287  0.0538  0.0088  0.8899
  578MPD2    C4 8571   1.805   3.080   1.389 -0.8888  0.1584 -0.9827
  578MPD2    C5 8572   1.680   3.121   1.374 -0.0187 -0.0098 -0.0590
  578MPD2     H 8573   1.860   2.939   1.096 -1.6647 -0.0764 -1.5829
  578MPD2    H1 8574   1.845   3.104   1.487 -2.6026 -2.9410  0.4722
  578MPD2    H2 8575   1.503   3.118   1.264 -0.6136 -0.6490 -1.4574
  578MPD2    H3 8576   1.629   3.154   1.463 -0.2156 -1.7801  0.4982
  578MPD2     N 8577   2.011   2.984   1.302 -0.0855  0.1603 -0.2611
  578MPD2    H5 8578   2.049   2.931   1.224  2.0273 -0.2762  1.0866
  578MPD2    N1 8579   1.594   2.996   1.047 -0.2333  0.0385 -0.4907
  578MPD2    H7 8580   1.500   3.035   1.050 -0.4539 -0.2850 -3.8783
  579TMC3    C1 8581   2.224   2.967   1.407 -0.2217 -0.0791 -0.2295
  579TMC3    C2 8582   2.316   3.050   1.466 -0.0088  0.5227  0.3018
  579TMC3    C3 8583   2.444   2.994   1.465 -0.8874  0.3308 -0.2310
  579TMC3    C4 8584   2.259   2.849   1.348 -0.1381 -0.1577 -0.4328
  579TMC3    C5 8585   2.388   2.800   1.357  0.2057  0.2945  0.1879
  579TMC3    C6 8586   2.482   2.871   1.415  0.3127 -0.2316 -0.1433
  579TMC3     C 8587   2.087   3.017   1.413  0.2051  0.0765  1.0542
  579TMC3     O 8588   2.074   3.115   1.487 -0.4950  0.0699 -0.2193
  579TMC3     H 8589   2.298   3.150   1.502  1.7088  0.2795  1.8392
  579TMC3    H1 8590   2.180   2.777   1.330  0.7234 -1.2308 -0.0012
  579TMC3    H2 8591   2.581   2.832   1.434  0.3214  0.3445  0.9719
  579TMC3    C7 8592   2.427   2.662   1.318 -0.5952 -0.0306 -0.1291
  579TMC3    C8 8593   2.533   3.070   1.554 -0.3752 -0.2806  0.5304
  579TMC3    O1 8594   2.534   2.617   1.360  0.0321  0.1094  0.7930
  579TMC3    O2 8595   2.481   3.143   1.639  0.8380  0.2642  0.7048
  580TMC3    C1 8596   0.191   1.521  11.702  0.4959 -1.0740  0.6214
  580TMC3    C2 8597   0.190   1.498  11.567  0.2809  1.0703 -0.6984
  580TMC3    C3 8598   0.160   1.374  11.519  0.7546  0.3975  0.1486
  580TMC3    C4 8599   0.146   1.417  11.786  1.0549  0.1005 -0.2805
  580TMC3    C5 8600   0.114   1.302  11.731  0.5539  0.7087 -0.1922
  580TMC3    C6 8601   0.127   1.272  11.600 -0.5731  0.8531  0.1762
  580TMC3     C 8602   0.321   1.579  11.745  0.3728 -0.4341 -0.5354
  580TMC3     O 8603   0.378   1.663  11.676  0.2061  0.2565 -0.6155
  580TMC3     H 8604   0.237   1.568  11.498  3.4726 -2.4627 -2.1266
  580TMC3    H1 8605   0.125   1.425  11.892  0.9596 -1.1335 -0.2083
  580TMC3    H2 8606   0.122   1.169  11.564  0.5832  0.5990  0.7441
  580TMC3    C7 8607   0.146   1.202  11.831 -0.1104 -1.0122 -0.2802
  580TMC3    C8 8608   0.251   1.336  11.411  0.0101 -0.5096  0.5088
  580TMC3    O1 8609   0.230   1.228  11.916 -0.0329  0.2077  0.7445
  580TMC3    O2 8610   0.206   1.267  11.321  0.4456  0.3384  0.2537
  581MPD2     C 8611   3.767   1.591  14.572 -0.4255  0.3530 -0.8330
  581MPD2    C1 8612   3.674   1.528  14.652  0.3644 -0.2214  0.2978
  581MPD2    C2 8613   3.550   1.584  14.674 -0.2271 -0.5411  0.2964
  581MPD2    C3 8614   3.507   1.701  14.607  0.5556 -0.1698 -0.5909
  581MPD2    C4 8615   3.607   1.766  14.537 -0.9652  0.0198 -0.2595
  581MPD2    C5 8616   3.734   1.712  14.521 -0.0433  0.4261  0.4879
  581MPD2     H 8617   3.476   1.544  14.742 -2.0916  0.7522 -0.9728
  581MPD2    H1 8618   3.590   1.868  14.503 -0.0922  1.4438  3.5017
  581MPD2    H2 8619   3.868   1.566  14.543  0.1639  2.5271 -0.6319
  581MPD2    H3 8620   3.808   1.772  14.469  0.8930  0.5329  1.9375
  581MPD2     N 8621   3.385   1.758  14.643 -0.4005  0.0946 -0.5349
  581MPD2    H5 8622   3.326   1.719  14.715  0.7347  0.2006  0.4411
  581MPD2    N1 8623   3.724   1.411  14.713  0.2825  0.4719 -0.3637
  581MPD2    H7 8624   3.823   1.392  14.706  0.7926  2.7200  0.7486
  582TMC3    C1 8625   3.717   1.242  14.876  0.0646  0.2501  0.6504
  582TMC3    C2 8626   3.853   1.241  14.897  0.5032  0.4329 -0.9132
  582TMC3    C3 8627   3.902   1.148  14.991 -0.0827  0.2134 -0.1401
  582TMC3    C4 8628   3.640   1.151  14.938 -0.1827  0.0078  0.0025
  582TMC3    C5 8629   3.687   1.056  15.019  0.0501 -0.0270  0.6432
  582TMC3    C6 8630   3.820   1.040  15.036  0.1200  0.2068 -0.5128
  582TMC3     C 8631   3.645   1.341  14.802 -0.6371  0.6752  0.1373
  582TMC3     O 8632   3.523   1.349  14.814  0.3967  0.1125  0.0939
  582TMC3     H 8633   3.913   1.325  14.862 -0.2139  0.4338 -2.1476
  582TMC3    H1 8634   3.534   1.172  14.933  0.3334  3.1915  1.9834
  582TMC3    H2 8635   3.845   0.996  15.131  2.0872 -0.7712 -1.4767
  582TMC3    C7 8636   3.616   1.047  15.152  0.1705  0.5304 -0.4723
  582TMC3    C8 8637   3.954   1.217  15.103  0.4161 -0.3488  0.2967
  582TMC3    O1 8638   3.601   0.935  15.197 -0.3182 -0.0362  0.3755
  582TMC3    O2 8639   3.897   1.324  15.132 -0.1510 -0.6210 -0.1352
  583MPD2     C 8640   3.735   2.930  16.183 -0.5509 -0.5351 -0.4296
  583MPD2    C1 8641   3.725   3.061  16.128  0.0282  0.4380 -0.6564
  583MPD2    C2 8642   3.656   3.159  16.197  0.6164 -0.0630  0.6463
  583MPD2    C3 8643   3.585   3.136  16.312 -0.5014 -0.2885  0.8346
  583MPD2    C4 8644   3.588   3.008  16.368  0.0606 -0.6717  0.5824
  583MPD2    C5 8645   3.668   2.910  16.307  0.5347  0.6666  0.1877
  583MPD2     H 8646   3.654   3.258  16.153 -2.0918  0.6082  2.2828
  583MPD2    H1 8647   3.536   2.980  16.459  0.4917 -0.9164  0.7583
  583MPD2    H2 8648   3.800   2.849  16.152 -0.8787  0.1771 -2.9893
  583MPD2    H3 8649   3.670   2.814  16.356  3.6360  1.6626  2.0246
  583MPD2     N 8650   3.517   3.247  16.374 -0.4986 -0.2261 -0.1481
  583MPD2    H5 8651   3.525   3.336  16.325  1.6075  0.1284  0.8689
  583MPD2    N1 8652   3.796   3.090  16.015 -0.3263 -0.1273  0.4798
  583MPD2    H7 8653   3.797   3.187  15.985 -1.9329 -0.4750 -0.7183
  584TMC3    C1 8654   3.449   3.368  16.570  0.4112  0.7787  0.7156
  584TMC3    C2 8655   3.487   3.481  16.507 -0.2979 -0.1668  0.1313
  584TMC3    C3 8656   3.469   3.599  16.579 -0.3874 -0.7961  0.7424
  584TMC3    C4 8657   3.397   3.370  16.696  0.0850 -0.0024 -0.0347
  584TMC3    C5 8658   3.375   3.487  16.759  0.6213 -0.7226 -0.7252
  584TMC3    C6 8659   3.412   3.601  16.699  0.1816 -0.3478 -0.2008
  584TMC3     C 8660   3.471   3.243  16.506 -0.0901  0.1001 -0.4479
  584TMC3     O 8661   3.439   3.148  16.581 -1.0402  0.4647 -0.4240
  584TMC3     H 8662   3.539   3.486  16.412  0.7641 -1.2786  0.6479
  584TMC3    H1 8663   3.376   3.274  16.743 -0.6816  1.0015  1.6677
  584TMC3    H2 8664   3.395   3.698  16.745 -0.7241 -1.5577  2.0034
  584TMC3    C7 8665   3.347   3.497  16.898 -0.2952  0.4749 -0.4508
  584TMC3    C8 8666   3.532   3.715  16.518 -0.1907  0.5296  0.2697
  584TMC3    O1 8667   3.386   3.408  16.973  0.1939  0.0665  0.1569
  584TMC3    O2 8668   3.558   3.695  16.402  0.1549 -0.4618 -0.3165
  585MPD2     C 8669   3.442   2.331   0.929 -0.6716  0.1787 -0.7320
  585MPD2    C1 8670   3.530   2.278   0.844  1.1480 -0.3937  0.2128
  585MPD2    C2 8671   3.492   2.251   0.712 -0.7919  0.2421  0.4119
  585MPD2    C3 8672   3.353   2.268   0.676  0.3598 -0.2753 -0.6140
  585MPD2    C4 8673   3.264   2.310   0.775  0.3726  0.7519 -0.2336
  585MPD2    C5 8674   3.311   2.342   0.899  0.4601  0.0035  0.1607
  585MPD2     H 8675   3.564   2.198   0.651 -1.4074  1.2827 -1.2340
  585MPD2    H1 8676   3.161   2.340   0.759  0.0858 -0.2581 -0.2751
  585MPD2    H2 8677   3.461   2.366   1.030 -0.0645  1.0453 -1.1415
  585MPD2    H3 8678   3.241   2.376   0.974  1.4725  1.2116  0.5459
  585MPD2     N 8679   3.301   2.238   0.549 -0.9434 -0.1325  0.7487
  585MPD2    H5 8680   3.201   2.241   0.532 -0.8617  1.1340  0.4696
  585MPD2    N1 8681   3.649   2.238   0.903 -0.1442 -0.1384  0.3176
  585MPD2    H7 8682   3.677   2.278   0.993  1.1985 -0.1112 -0.1181
  586TMC3    C1 8683   3.318   2.251   0.309 -0.1320 -0.0895 -0.5972
  586TMC3    C2 8684   3.385   2.219   0.193  0.2587  0.7464  0.7577
  586TMC3    C3 8685   3.337   2.258   0.073 -0.2195 -0.0968  0.3945
  586TMC3    C4 8686   3.208   2.334   0.304  0.3078 -0.4936  0.2207
  586TMC3    C5 8687   3.156   2.363   0.181 -0.4531 -0.5692  0.4820
  586TMC3    C6 8688   3.220   2.329   0.061 -0.4150  0.3731 -0.1410
  586TMC3     C 8689   3.384   2.221   0.438  0.0777 -0.0993  0.4360
  586TMC3     O 8690   3.503   2.188   0.429 -0.1317 -0.0113  0.0532
  586TMC3     H 8691   3.474   2.156   0.192  1.8223  3.0801 -3.0117
  586TMC3    H1 8692   3.166   2.366   0.398 -0.8701  0.7050 -0.7095
  586TMC3    H2 8693   3.180   2.363  17.666  0.7347  0.9804 -0.4065
  586TMC3    C7 8694   3.013   2.377   0.174 -0.2718  0.6322 -0.5691
  586TMC3    C8 8695   3.394   2.194  17.655  0.2834  0.2978  0.2348
  586TMC3    O1 8696   2.950   2.430   0.266  0.4748 -0.1970 -0.6788
  586TMC3    O2 8697   3.467   2.098  17.668  0.0758 -0.1877 -0.6098
  587TMC3    C1 8698   0.767   0.876  16.189  0.8404  0.2214  0.2102
  587TMC3    C2 8699   0.714   0.949  16.088 -0.3924  0.1477 -0.5831
  587TMC3    C3 8700   0.800   1.012  15.996  0.2075 -0.6841  0.2175
  587TMC3    C4 8701   0.903   0.834  16.178  0.1749 -1.9574  0.6885
  587TMC3    C5 8702   0.982   0.889  16.081 -0.2595 -0.2556 -0.1457
  587TMC3    C6 8703   0.932   0.969  15.981 -0.4170  0.3903  0.1212
  587TMC3     C 8704   0.687   0.816  16.291 -0.2687  0.4101 -0.6638
  587TMC3     O 8705   0.747   0.728  16.346 -0.5831  0.1723  0.0823
  587TMC3     H 8706   0.614   0.987  16.107 -0.8706 -0.7340 -1.2908
  587TMC3    H1 8707   0.946   0.770  16.253  0.3182  0.4969  2.6923
  587TMC3    H2 8708   0.986   1.022  15.904  0.4077 -1.3278 -0.4917
  587TMC3    C7 8709   1.111   0.821  16.038  0.0803  0.3383 -0.2084
  587TMC3    C8 8710   0.762   1.131  15.918 -0.0010  0.1803 -0.4057
  587TMC3    O1 8711   1.176   0.867  15.946 -0.0713  0.6366 -0.1464
  587TMC3    O2 8712   0.824   1.164  15.815  0.1783 -1.0311 -1.0044
  588TMC3    C1 8713   2.622   3.098   9.773  0.0621  0.1336 -0.0810
  588TMC3    C2 8714   2.571   2.967   9.772  0.1061 -0.5246  0.0447
  588TMC3    C3 8715   2.556   2.915   9.900  0.4703  0.3748  0.1953
  588TMC3    C4 8716   2.646   3.168   9.883 -0.1712  0.2053  0.3168
  588TMC3    C5 8717   2.615   3.110   9.998 -0.5072 -0.3973 -0.5993
  588TMC3    C6 8718   2.569   2.982  10.022 -0.2993  0.7632 -0.4868
  588TMC3     C 8719   2.584   3.178   9.658  0.4724  0.2716  0.2589
  588TMC3     O 8720   2.504   3.131   9.581 -0.6250 -0.2782  0.2760
  588TMC3     H 8721   2.555   2.904   9.685  0.2593  0.7472 -0.9146
  588TMC3    H1 8722   2.690   3.267   9.880 -2.3867  1.1944  0.4968
  588TMC3    H2 8723   2.573   2.938  10.121 -1.2941 -1.4280 -1.4066
  588TMC3    C7 8724   2.623   3.201  10.112 -0.2362  0.2629  0.3392
  588TMC3    C8 8725   2.561   2.768   9.907  0.0376  0.1341 -0.5823
  588TMC3    O1 8726   2.662   3.150  10.215  0.5997 -0.4091  0.5316
  588TMC3    O2 8727   2.565   2.704   9.806  0.1599  0.2960  0.2555
  589TMC3    C1 8728   2.194   0.949   1.133  0.4417 -0.4171  0.0823
  589TMC3    C2 8729   2.301   0.971   1.214  0.4702  0.4483  0.2763
  589TMC3    C3 8730   2.413   0.895   1.201  0.8292  0.2190 -0.9505
  589TMC3    C4 8731   2.208   0.860   1.032  0.6194  0.2099  0.5582
  589TMC3    C5 8732   2.324   0.799   1.007  0.3841  0.0627 -0.3192
  589TMC3    C6 8733   2.429   0.815   1.092  0.1104  0.0170 -0.1231
  589TMC3     C 8734   2.063   0.963   1.200  0.3000 -0.6475 -0.4455
  589TMC3     O 8735   1.967   0.900   1.152 -0.2563 -0.2493  0.0230
  589TMC3     H 8736   2.292   1.026   1.307 -1.2342 -0.0205  0.3986
  589TMC3    H1 8737   2.117   0.848   0.974  0.2792 -1.5000  1.4535
  589TMC3    H2 8738   2.517   0.754   1.082 -1.0997 -1.8596  0.6708
  589TMC3    C7 8739   2.308   0.667   0.951 -0.0459 -0.2600 -0.2996
  589TMC3    C8 8740   2.514   0.913   1.302  0.6244  0.9943 -0.4271
  589TMC3    O1 8741   2.189   0.631   0.953  0.1820 -0.1775 -0.1029
  589TMC3    O2 8742   2.492   0.993   1.391 -0.5901  0.2023  0.1944
  590MPD2     C 8743   1.421   3.770  16.782  0.4468 -0.1805 -0.1078
  590MPD2    C1 8744   1.357   3.807  16.665  0.3257  0.1649 -0.5743
  590MPD2    C2 8745   1.436   3.859  16.560 -0.0126 -0.4569  0.1695
  590MPD2    C3 8746   1.573   3.873  16.568  0.1921  0.3503  0.0547
  590MPD2    C4 8747   1.629   3.819  16.683  0.2613 -0.0728  0.1662
  590MPD2    C5 8748   1.558   3.762  16.780  0.1378  0.7152 -0.1753
  590MPD2     H 8749   1.384   3.897  16.473  1.8777 -1.4056 -1.3786
  590MPD2    H1 8750   1.737   3.816  16.686  0.2097 -1.7133  0.4534
  590MPD2    H2 8751   1.363   3.736  16.868 -0.7450  1.0933 -0.4064
  590MPD2    H3 8752   1.612   3.714  16.861 -1.4966 -1.6246 -0.4756
  590MPD2     N 8753   1.638   3.932  16.458  1.0498 -0.1884 -0.1260
  590MPD2    H5 8754   1.574   3.954  16.383  0.9678  0.5920  0.1759
  590MPD2    N1 8755   1.210   3.822  16.655  0.5643  0.4274 -0.3363
  590MPD2    H7 8756   1.154   3.805  16.738  2.5282 -0.2152  0.8823
  591TMC3    C1 8757   1.795   4.021  16.318  0.6479  0.0473  0.3844
  591TMC3    C2 8758   1.901   4.002  16.240 -0.2148 -0.0252 -0.8254
  591TMC3    C3 8759   1.906   4.064  16.119 -0.0943 -0.7058  0.1973
  591TMC3    C4 8760   1.708   4.119  16.301 -0.1593  0.5697 -0.5888
  591TMC3    C5 8761   1.704   4.177  16.177  0.1964  0.7534  0.4123
  591TMC3    C6 8762   1.796   4.142  16.080 -0.2996 -0.3844  0.1086
  591TMC3     C 8763   1.770   3.937  16.434 -0.2648  0.0270 -0.3414
  591TMC3     O 8764   1.865   3.889  16.499 -0.1601 -0.1901 -0.3766
  591TMC3     H 8765   1.980   3.929  16.247 -0.4838 -0.4786 -2.4557
  591TMC3    H1 8766   1.631   4.144  16.373  0.0851  2.5169 -0.9979
  591TMC3    H2 8767   1.797   4.172  15.976 -0.3850  3.3545  1.1958
  591TMC3    C7 8768   1.579   4.236  16.131  0.0475 -0.0298  0.0190
  591TMC3    C8 8769   2.003   4.027  16.014  0.0295  0.5418  0.2262
  591TMC3    O1 8770   1.473   4.212  16.185  0.2271 -0.6297 -0.0174
  591TMC3    O2 8771   2.052   3.916  16.007  0.1836  0.6784 -0.1440
  592MPD2     C 8772   1.527   1.382  11.565  0.8078 -0.2229  0.3451
  592MPD2    C1 8773   1.515   1.373  11.700  0.5023  0.3424 -0.2035
  592MPD2    C2 8774   1.443   1.268  11.756  0.0146 -0.0128  0.8197
  592MPD2    C3 8775   1.373   1.178  11.683 -0.2796  1.1486 -0.2425
  592MPD2    C4 8776   1.382   1.191  11.544 -0.0730  0.0147 -0.0960
  592MPD2    C5 8777   1.459   1.292  11.485  0.4566  0.6403 -0.4192
  592MPD2     H 8778   1.433   1.264  11.864  1.3105 -2.0721  0.8515
  592MPD2    H1 8779   1.341   1.122  11.471  0.9692 -0.4529 -0.2326
  592MPD2    H2 8780   1.590   1.460  11.524  1.2489  0.1890  1.7862
  592MPD2    H3 8781   1.467   1.306  11.378 -0.4862 -0.8905 -0.6871
  592MPD2     N 8782   1.310   1.066  11.748 -0.3630  0.4773 -0.2696
  592MPD2    H5 8783   1.308   1.066  11.849 -0.6003  1.0382 -0.2735
  592MPD2    N1 8784   1.601   1.458  11.770  0.3008  0.0444  0.3091
  592MPD2    H7 8785   1.661   1.522  11.718  2.0686 -0.3378  1.8662
  593TMC3    C1 8786   1.724   1.538  11.958  0.1648  0.2833  0.0917
  593TMC3    C2 8787   1.746   1.555  12.092 -0.4041  0.4905  0.7468
  593TMC3    C3 8788   1.847   1.640  12.124 -0.5697  0.3896 -0.1480
  593TMC3    C4 8789   1.792   1.610  11.862 -0.1264 -0.2365 -0.4804
  593TMC3    C5 8790   1.902   1.684  11.906  0.2318 -0.4570 -0.1346
  593TMC3    C6 8791   1.921   1.708  12.033  0.3842 -0.6708  0.3203
  593TMC3     C 8792   1.614   1.458  11.909 -0.1011 -0.7517 -0.0311
  593TMC3     O 8793   1.532   1.424  11.995 -0.2201 -0.3563  0.1459
  593TMC3     H 8794   1.693   1.502  12.170  0.1585  1.1164  1.5525
  593TMC3    H1 8795   1.781   1.602  11.755 -2.5059  1.0538 -0.3295
  593TMC3    H2 8796   2.012   1.757  12.065 -0.7768  1.8874 -0.3520
  593TMC3    C7 8797   2.016   1.716  11.815 -0.3090  0.0882 -0.1605
  593TMC3    C8 8798   1.881   1.640  12.266 -0.2851 -0.4799 -0.2294
  593TMC3    O1 8799   2.104   1.783  11.870  0.2199  0.4017  0.6283
  593TMC3    O2 8800   1.793   1.643  12.348 -0.1554  0.4268  0.7661
  594MPD2     C 8801   0.597   0.220  13.736 -0.8370 -0.2705 -0.2551
  594MPD2    C1 8802   0.600   0.177  13.871 -0.3917  0.2358 -0.2092
  594MPD2    C2 8803   0.713   0.207  13.945  0.3309 -0.0841 -0.2258
  594MPD2    C3 8804   0.811   0.287  13.896 -0.5582  0.1643  0.0995
  594MPD2    C4 8805   0.806   0.332  13.761 -0.0774 -0.0424 -0.6271
  594MPD2    C5 8806   0.705   0.286  13.682 -0.1551  0.2495 -0.0935
  594MPD2     H 8807   0.712   0.180  14.050 -0.9389  1.3610  0.1427
  594MPD2    H1 8808   0.875   0.400  13.711 -1.5593  0.5902 -1.8137
  594MPD2    H2 8809   0.515   0.185  13.675  2.2417 -1.4937 -3.7244
  594MPD2    H3 8810   0.708   0.308  13.576  0.4033 -1.2158 -0.3922
  594MPD2     N 8811   0.915   0.328  13.985 -0.1686 -0.1478  0.3421
  594MPD2    H5 8812   0.911   0.301  14.083 -2.4556  0.8268  0.5152
  594MPD2    N1 8813   0.500   0.098  13.923 -0.9194  0.1282  0.1386
  594MPD2    H7 8814   0.425   0.073  13.859  0.8078  0.3552 -1.9714
  595TMC3    C1 8815   1.267   0.624  14.096 -0.4434  0.5116 -0.3225
  595TMC3    C2 8816   1.213   0.521  14.025 -0.9613  0.5922  0.1846
  595TMC3    C3 8817   1.088   0.470  14.054 -0.2247  0.1379 -0.2040
  595TMC3    C4 8818   1.196   0.702  14.178 -0.6569 -0.2844  0.5934
  595TMC3    C5 8819   1.064   0.673  14.176 -0.4648  0.2743  0.0938
  595TMC3    C6 8820   1.009   0.557  14.129  0.0232 -0.1670  0.2904
  595TMC3     C 8821   1.416   0.636  14.121  0.1437 -0.3833  0.1483
  595TMC3     O 8822   1.446   0.706  14.214 -0.4648 -0.3094 -0.2353
  595TMC3     H 8823   1.286   0.465  13.968 -1.5721  0.5372 -0.5411
  595TMC3    H1 8824   1.239   0.787  14.230 -0.5043 -0.1943  0.3172
  595TMC3    H2 8825   0.904   0.534  14.144  0.2689 -2.3582 -1.4472
  595TMC3    C7 8826   0.994   0.730  14.288 -0.3848 -0.0914 -0.3764
  595TMC3    C8 8827   1.022   0.402  13.948  0.2361  0.0189 -0.2482
  595TMC3    O1 8828   0.879   0.759  14.270 -0.1746  0.2264 -0.2466
  595TMC3    O2 8829   1.081   0.412  13.843 -0.6677 -0.1198  0.5876
  596MPD2     C 8830   4.379   3.108  16.357 -0.1929  0.3158 -0.6519
  596MPD2    C1 8831   4.420   3.231  16.304  0.2871 -0.4288  0.4525
  596MPD2    C2 8832   4.507   3.225  16.191  0.6660  0.7165  0.0399
  596MPD2    C3 8833   4.528   3.097  16.134 -0.0795  0.5018 -0.3879
  596MPD2    C4 8834   4.489   2.978  16.197  0.3162  0.1063 -0.1039
  596MPD2    C5 8835   4.421   2.984  16.316  0.3075 -0.7341 -0.2176
  596MPD2     H 8836   4.527   3.321  16.146 -1.4288  0.4061 -1.5914
  596MPD2    H1 8837   4.529   2.887  16.155 -0.2578 -0.8411  1.4059
  596MPD2    H2 8838   4.289   3.100  16.418 -0.1574 -0.7657 -0.7376
  596MPD2    H3 8839   4.389   2.894  16.367 -3.1031 -0.4806 -1.8646
  596MPD2     N 8840   4.583   3.077  16.006  0.2798 -0.0181 -0.1884
  596MPD2    H5 8841   4.588   2.984  15.964  0.3280  0.7485 -1.8984
  596MPD2    N1 8842   4.386   3.359  16.345  0.0393  0.0228  0.0960
  596MPD2    H7 8843   4.446   3.435  16.314  1.8280 -2.1128 -1.6217
  597TMC3    C1 8844   4.297   3.527  16.490 -0.6091  0.7695  0.0183
  597TMC3    C2 8845   4.318   3.627  16.396 -0.5314 -0.5497  1.8633
  597TMC3    C3 8846   4.291   3.756  16.431 -0.6567  0.5592  0.2412
  597TMC3    C4 8847   4.264   3.560  16.615 -0.3036 -0.5209  0.5086
  597TMC3    C5 8848   4.239   3.690  16.648  0.1440 -0.4088  0.0934
  597TMC3    C6 8849   4.258   3.788  16.555 -0.2301 -0.1367  0.0534
  597TMC3     C 8850   4.313   3.385  16.457 -0.3113  0.3443  0.3891
  597TMC3     O 8851   4.278   3.304  16.542 -0.5464 -0.8270  0.0320
  597TMC3     H 8852   4.336   3.602  16.292 -0.7844 -0.4253  1.7904
  597TMC3    H1 8853   4.246   3.477  16.684 -1.0084 -0.2478  0.6518
  597TMC3    H2 8854   4.246   3.891  16.586  0.9651  0.1056 -0.2762
  597TMC3    C7 8855   4.172   3.729  16.771 -0.0092 -0.7622  0.2429
  597TMC3    C8 8856   4.352   3.863  16.358 -0.5765  0.3515  0.4219
  597TMC3    O1 8857   4.186   3.662  16.869 -0.2730  0.1606 -0.1836
  597TMC3    O2 8858   4.306   3.973  16.386 -0.2058  0.1683  0.1480
  598TMC3    C1 8859   2.714   4.327  15.635 -0.1903  0.6163  0.2728
  598TMC3    C2 8860   2.670   4.205  15.584  0.1191  0.3373 -0.7390
  598TMC3    C3 8861   2.586   4.217  15.474  0.2997 -0.3222  0.2363
  598TMC3    C4 8862   2.685   4.453  15.592  0.0378 -0.0754  0.3552
  598TMC3    C5 8863   2.598   4.458  15.492  0.0042  0.0390  0.2082
  598TMC3    C6 8864   2.551   4.341  15.436 -0.1262  0.7798 -0.2869
  598TMC3     C 8865   2.788   4.318  15.759  0.0472 -0.1576 -0.1152
  598TMC3     O 8866   2.885   4.392  15.765  0.1076 -0.2455 -0.1171
  598TMC3     H 8867   2.707   4.110  15.620  0.2395 -0.1188 -2.0788
  598TMC3    H1 8868   2.733   4.538  15.639 -1.8679  0.4560  1.3293
  598TMC3    H2 8869   2.486   4.355  15.351 -1.8030  0.3924  0.9409
  598TMC3    C7 8870   2.568   4.586  15.432  0.0382  0.7434 -0.1150
  598TMC3    C8 8871   2.571   4.103  15.391 -0.7199 -0.5302 -0.0651
  598TMC3    O1 8872   2.471   4.585  15.353  0.1800 -0.0570 -0.1814
  598TMC3    O2 8873   2.535   4.129  15.277 -0.0738 -0.4653 -1.0445
  599MPD2     C 8874   2.981   2.235  15.822  0.2833  0.0949 -0.4860
  599MPD2    C1 8875   2.928   2.105  15.839 -0.2315  0.1621  0.8530
  599MPD2    C2 8876   2.789   2.101  15.861 -0.3964 -0.0240 -0.2708
  599MPD2    C3 8877   2.703   2.214  15.870 -0.5809 -0.9850  0.6385
  599MPD2    C4 8878   2.765   2.334  15.853  0.3622  0.2171 -0.5668
  599MPD2    C5 8879   2.894   2.343  15.835 -0.0559 -0.0949 -0.1589
  599MPD2     H 8880   2.736   2.007  15.875 -0.7105 -0.0817 -1.8631
  599MPD2    H1 8881   2.703   2.423  15.859 -0.2511 -0.2292 -0.2507
  599MPD2    H2 8882   3.088   2.242  15.810  0.6922 -1.3111  2.5031
  599MPD2    H3 8883   2.935   2.442  15.813  2.0838 -1.1396 -0.8836
  599MPD2     N 8884   2.562   2.213  15.885 -0.3776  0.0117  0.2878
  599MPD2    H5 8885   2.522   2.303  15.910 -1.5767 -0.2054 -0.8231
  599MPD2    N1 8886   3.012   1.993  15.822 -0.0854  0.2518 -0.8172
  599MPD2    H7 8887   3.107   2.011  15.795  0.0843 -0.7117 -0.8747
  600TMC3    C1 8888   2.381   2.130  16.012  0.5913  0.9658  0.1546
  600TMC3    C2 8889   2.295   2.029  16.044  0.4130  0.0498 -0.2204
  600TMC3    C3 8890   2.244   2.029  16.172  0.3512  0.1584  1.0359
  600TMC3    C4 8891   2.409   2.230  16.102 -0.4936  0.2263  0.4758
  600TMC3    C5 8892   2.351   2.229  16.225 -0.1109  0.5626 -0.4030
  600TMC3    C6 8893   2.270   2.127  16.261  0.1113 -0.0189  0.0805
  600TMC3     C 8894   2.490   2.099  15.913 -0.0153  0.5422 -0.2039
  600TMC3     O 8895   2.503   1.981  15.882  0.5445 -0.2425 -0.4206
  600TMC3     H 8896   2.254   1.962  15.969  0.1353  0.1018 -0.1141
  600TMC3    H1 8897   2.472   2.314  16.076  1.8198 -1.7931 -0.4649
  600TMC3    H2 8898   2.224   2.128  16.359  2.8881  0.1383  1.3742
  600TMC3    C7 8899   2.361   2.336  16.322 -0.6863 -0.0153 -0.1666
  600TMC3    C8 8900   2.201   1.904  16.225  0.5662  0.2113  0.0844
  600TMC3    O1 8901   2.301   2.323  16.431  0.4404 -0.1303 -0.2380
  600TMC3    O2 8902   2.137   1.831  16.149 -0.2905 -0.0353 -0.2708
  601MPD2     C 8903   0.516   0.428  17.033  0.6391  0.6702  0.6067
  601MPD2    C1 8904   0.404   0.393  17.096 -0.7355 -0.0744 -0.2775
  601MPD2    C2 8905   0.399   0.293  17.187  0.0639  0.1412 -0.3877
  601MPD2    C3 8906   0.509   0.212  17.215 -0.1373 -0.3929  0.4981
  601MPD2    C4 8907   0.631   0.251  17.157  0.5201  0.1463  0.1010
  601MPD2    C5 8908   0.632   0.352  17.060 -0.2821  0.1217  0.0171
  601MPD2     H 8909   0.305   0.275  17.239  0.9999 -2.0450  0.5231
  601MPD2    H1 8910   0.722   0.194  17.172 -0.5420 -1.1513  1.6036
  601MPD2    H2 8911   0.531   0.508  16.961 -1.0883  0.0710 -0.4269
  601MPD2    H3 8912   0.726   0.381  17.015 -1.6327 -0.9956 -3.5164
  601MPD2     N 8913   0.503   0.096  17.293 -0.9593  0.2617 -0.1319
  601MPD2    H5 8914   0.596   0.064  17.316 -0.0397  2.3475 -0.9074
  601MPD2    N1 8915   0.282   0.469  17.082  0.0758  0.1047 -0.6445
  601MPD2    H7 8916   0.208   0.433  17.142  0.4688  0.6165  0.1421
  602TMC3    C1 8917   0.128   0.630  17.032 -0.8420 -0.4048  0.4337
  602TMC3    C2 8918   0.092   0.650  17.162  0.0797 -0.2784 -0.1617
  602TMC3    C3 8919   4.697   0.714  17.189  0.1315  0.8573  0.6039
  602TMC3    C4 8920   0.042   0.652  16.928  0.2734  0.2785  0.0241
  602TMC3    C5 8921   4.642   0.706  16.959 -0.0071  0.5537  0.0852
  602TMC3    C6 8922   4.616   0.751  17.091  0.4475 -1.0370  0.5652
  602TMC3     C 8923   0.260   0.581  16.998 -0.4218  0.7337  0.2816
  602TMC3     O 8924   0.322   0.622  16.904  0.0339  0.0977  0.3812
  602TMC3     H 8925   0.156   0.615  17.242 -0.9763 -0.5872  0.5507
  602TMC3    H1 8926   0.070   0.605  16.834  1.8289 -0.1516  0.7079
  602TMC3    H2 8927   4.530   0.816  17.102  2.2359  1.5225 -0.5123
  602TMC3    C7 8928   4.528   0.678  16.874 -0.0110 -1.2116 -0.8817
  602TMC3    C8 8929   4.657   0.724  17.331 -0.7122  0.1112 -0.3641
  602TMC3    O1 8930   4.545   0.653  16.754  0.0458  0.2891  0.3267
  602TMC3    O2 8931   0.012   0.711  17.422  0.0010  0.5212  0.1537
  603TMC3    C1 8932   2.695   0.517  10.790  0.9383 -0.0452  0.2165
  603TMC3    C2 8933   2.685   0.488  10.922  0.2978 -0.6565  0.5640
  603TMC3    C3 8934   2.689   0.601  11.001  0.1844 -0.5676 -0.0891
  603TMC3    C4 8935   2.691   0.643  10.732  0.0242 -0.3509  0.4010
  603TMC3    C5 8936   2.684   0.748  10.820 -0.0174  0.5345  0.8431
  603TMC3    C6 8937   2.696   0.729  10.954 -0.0828 -0.0565  0.5586
  603TMC3     C 8938   2.736   0.415  10.695 -0.3332  0.1717  0.6263
  603TMC3     O 8939   2.743   0.442  10.577  0.4587 -0.1003 -0.2507
  603TMC3     H 8940   2.658   0.390  10.960  0.0124 -0.1930  1.5309
  603TMC3    H1 8941   2.704   0.660  10.626  0.1404 -2.0620  0.1508
  603TMC3    H2 8942   2.687   0.821  11.010  1.2077 -0.1379  0.8853
  603TMC3    C7 8943   2.671   0.888  10.772 -0.0286  0.1758 -0.1076
  603TMC3    C8 8944   2.670   0.585  11.146  0.3732  0.5936 -0.0342
  603TMC3    O1 8945   2.710   0.982  10.844 -0.1912  0.2741  0.0660
  603TMC3    O2 8946   2.681   0.471  11.189  0.2494  0.0190 -0.0755
  604MPD2     C 8947   3.640   4.453  16.304  0.0802  0.5029  0.7137
  604MPD2    C1 8948   3.534   4.383  16.265  0.4933 -0.0536 -0.0642
  604MPD2    C2 8949   3.527   4.318  16.143  0.6037  0.1989 -0.4499
  604MPD2    C3 8950   3.636   4.327  16.055  0.2236  0.3431  0.1406
  604MPD2    C4 8951   3.740   4.415  16.090  0.0379 -0.2616  0.4694
  604MPD2    C5 8952   3.743   4.471  16.213  0.4421 -0.2648 -0.5141
  604MPD2     H 8953   3.438   4.267  16.107 -1.0411  3.8140 -1.5928
  604MPD2    H1 8954   3.832   4.430  16.035  0.1730  1.3108  1.1279
  604MPD2    H2 8955   3.641   4.503  16.400  1.3737  0.8946  0.5008
  604MPD2    H3 8956   3.821   4.536  16.252  0.1016 -0.7540  0.9870
  604MPD2     N 8957   3.634   4.256  15.932  0.5911  0.4517  0.1947
  604MPD2    H5 8958   3.546   4.213  15.906  2.0640 -1.1836 -2.1030
  604MPD2    N1 8959   3.429   4.370  16.356  0.5873 -0.2929 -0.0153
  604MPD2    H7 8960   3.423   4.421  16.444 -5.5950 -0.8318 -0.1015
  605TMC3    C1 8961   3.248   4.273  16.465  0.4969 -0.2693 -0.4481
  605TMC3    C2 8962   3.327   4.321  16.567 -0.4635 -0.3090  0.8164
  605TMC3    C3 8963   3.285   4.415  16.659  0.2511 -0.0381  0.2478
  605TMC3    C4 8964   3.124   4.331  16.443 -0.5667  0.3667  0.1887
  605TMC3    C5 8965   3.090   4.431  16.525  0.3164 -0.1316 -0.2728
  605TMC3    C6 8966   3.160   4.469  16.637 -0.0348  0.5279  0.5378
  605TMC3     C 8967   3.330   4.276  16.344  0.9079 -0.3569  0.3028
  605TMC3     O 8968   3.300   4.199  16.253 -0.0522 -0.0217 -0.6974
  605TMC3     H 8969   3.421   4.267  16.569  0.3618  1.0139 -2.0518
  605TMC3    H1 8970   3.066   4.312  16.353  1.2477  0.7247 -1.0588
  605TMC3    H2 8971   3.128   4.560  16.688 -1.2332  0.4097 -0.0094
  605TMC3    C7 8972   2.978   4.516  16.492 -0.2859 -0.5366 -0.0347
  605TMC3    C8 8973   3.396   4.504  16.689 -0.2025  0.2412  0.2556
  605TMC3    O1 8974   2.971   4.619  16.559 -0.8987 -0.1053 -0.4848
  605TMC3    O2 8975   3.493   4.487  16.612 -0.8321 -0.2116  0.3594
  606TMC3    C1 8976   4.611   2.441   0.126 -0.5662  0.2782  0.8258
  606TMC3    C2 8977   4.720   2.411   0.202  0.5296  0.5352  0.4353
  606TMC3    C3 8978   4.702   2.295   0.279  0.3759  0.3278 -0.5131
  606TMC3    C4 8979   4.489   2.385   0.121 -0.1196 -0.3687  0.0185
  606TMC3    C5 8980   4.487   2.265   0.197  0.1968 -0.0990 -0.2400
  606TMC3    C6 8981   4.590   2.223   0.269 -0.2007  1.0741 -0.9001
  606TMC3     C 8982   4.626   2.557   0.038 -0.2447  0.2133  0.1523
  606TMC3     O 8983   4.521   2.618   0.000  0.0085  0.2221 -0.5034
  606TMC3     H 8984   0.079   2.478   0.211 -0.0351  1.2808  0.1171
  606TMC3    H1 8985   4.413   2.417   0.052 -1.3191 -0.8295  1.1362
  606TMC3    H2 8986   4.576   2.138   0.335  2.0397  2.2135  1.0483
  606TMC3    C7 8987   4.362   2.183   0.174  0.5002 -0.2823  0.4558
  606TMC3    C8 8988   0.092   2.223   0.319  0.1833 -0.4651  0.2216
  606TMC3    O1 8989   4.322   2.104   0.255 -0.7032 -0.6413 -0.5031
  606TMC3    O2 8990   0.086   2.106   0.353  0.5688 -0.0789 -0.4587
  607MPD2     C 8991   1.544   0.593  11.878  0.6483 -0.8445  0.1795
  607MPD2    C1 8992   1.617   0.686  11.950  0.5223 -0.2349 -0.3963
  607MPD2    C2 8993   1.665   0.647  12.070 -0.1630 -0.1696  0.2385
  607MPD2    C3 8994   1.647   0.525  12.118  0.0702  0.6199  0.9118
  607MPD2    C4 8995   1.575   0.435  12.049 -0.4323  0.3794 -0.4127
  607MPD2    C5 8996   1.530   0.471  11.930  0.3081  0.0655 -0.2522
  607MPD2     H 8997   1.720   0.714  12.135 -0.8524  1.1145 -0.5161
  607MPD2    H1 8998   1.563   0.334  12.086  0.0570  0.3474 -0.3365
  607MPD2    H2 8999   1.495   0.625  11.787  3.6017  1.0433 -0.7342
  607MPD2    H3 9000   1.464   0.398  11.883  0.3794  0.1178 -0.4350
  607MPD2     N 9001   1.707   0.495  12.242 -0.0275  0.3577  0.8041
  607MPD2    H5 9002   1.746   0.577  12.287 -0.1256  0.9300 -0.1576
  607MPD2    N1 9003   1.641   0.816  11.914  0.5290  0.1412  0.5659
  607MPD2    H7 9004   1.721   0.861  11.956 -1.5735  2.0966  2.4863
  608TMC3    C1 9005   1.679   0.996  11.772  0.3384 -0.0533  0.2175
  608TMC3    C2 9006   1.701   1.074  11.883  0.7557 -0.7546 -0.1953
  608TMC3    C3 9007   1.798   1.178  11.867 -0.1398 -0.3288 -0.3384
  608TMC3    C4 9008   1.746   1.000  11.657  0.4442 -0.4069  0.4439
  608TMC3    C5 9009   1.849   1.095  11.651  0.1330 -0.0168  0.2093
  608TMC3    C6 9010   1.871   1.187  11.753  0.5068 -0.4960  0.6305
  608TMC3     C 9011   1.613   0.872  11.791  0.2012  0.2039 -0.3331
  608TMC3     O 9012   1.543   0.840  11.697  0.3646  0.2856 -0.1780
  608TMC3     H 9013   1.640   1.066  11.972  2.4262 -2.6569  0.7698
  608TMC3    H1 9014   1.740   0.927  11.577  0.0746  1.5369 -1.2980
  608TMC3    H2 9015   1.956   1.254  11.751 -1.1653  1.5302 -1.7635
  608TMC3    C7 9016   1.965   1.060  11.567 -0.3836  0.6385  0.0708
  608TMC3    C8 9017   1.893   1.182  11.983 -0.6256  0.5189  0.0329
  608TMC3    O1 9018   1.949   1.012  11.454 -0.5256  0.6513  0.3779
  608TMC3    O2 9019   2.000   1.240  11.959  0.3526 -0.7467  0.5800
  609TMC3    C1 9020   4.608   4.072   9.601  0.0405  0.5662 -0.7166
  609TMC3    C2 9021   4.493   4.004   9.557 -0.0794 -0.5032 -0.6175
  609TMC3    C3 9022   4.458   3.889   9.629  0.2012  0.6327  0.2356
  609TMC3    C4 9023   4.693   4.032   9.707 -0.2916  0.4718 -0.0925
  609TMC3    C5 9024   4.658   3.915   9.766  0.3672  0.5077 -0.1529
  609TMC3    C6 9025   4.545   3.846   9.732 -0.0302  0.5628 -0.4496
  609TMC3     C 9026   4.634   4.202   9.539  0.6655 -0.1635  0.1485
  609TMC3     O 9027   4.598   4.222   9.421  0.5412 -0.9084  0.0361
  609TMC3     H 9028   4.420   4.050   9.492 -1.4161  0.3882  1.5305
  609TMC3    H1 9029   0.068   4.073   9.709  0.7910 -2.2500  1.1646
  609TMC3    H2 9030   4.516   3.764   9.797  0.3171 -0.6795 -1.8808
  609TMC3    C7 9031   0.034   3.853   9.851  0.3695  0.5076  0.0938
  609TMC3    C8 9032   4.361   3.790   9.583  0.0921  0.9666  0.1145
  609TMC3    O1 9033   0.096   3.911   9.936  0.2449  0.6823  0.0659
  609TMC3    O2 9034   4.371   3.672   9.623  0.3521  0.1960 -0.4940
  610TMC3    C1 9035   2.410   0.093  12.682  0.0676  0.7936  0.2174
  610TMC3    C2 9036   2.464   0.195  12.608 -0.0605 -0.2900  0.7899
  610TMC3    C3 9037   2.592   0.183  12.576  0.7758  0.7032 -0.0625
  610TMC3    C4 9038   2.476   4.704  12.718 -1.1574  0.2248 -0.3385
  610TMC3    C5 9039   2.611   4.707  12.697 -0.3993 -0.4820 -0.7479
  610TMC3    C6 9040   2.673   0.085  12.629 -0.1800 -0.2276 -0.6789
  610TMC3     C 9041   2.271   0.097  12.715  0.6638  0.4631 -0.6737
  610TMC3     O 9042   2.208   4.721  12.689 -0.7500  0.0688 -0.0930
  610TMC3     H 9043   2.398   0.273  12.570 -0.7370 -0.5100  1.5267
  610TMC3    H1 9044   2.424   4.622  12.767  0.6072 -0.0579  1.0698
  610TMC3    H2 9045   2.777   0.082  12.598 -0.7716 -2.6038 -2.4149
  610TMC3    C7 9046   2.697   4.606  12.757 -0.1340 -0.0461  0.6397
  610TMC3    C8 9047   2.662   0.283  12.495 -0.5249 -0.2625  0.0715
  610TMC3    O1 9048   2.794   4.567  12.695  0.1474  0.4263 -0.2786
  610TMC3    O2 9049   2.773   0.257  12.453 -0.0231  0.5044 -0.1573
  611MPD2     C 9050   1.522   1.471   9.958 -1.0528 -0.3340  0.2861
  611MPD2    C1 9051   1.521   1.346  10.005 -0.2264  0.3443 -0.2001
  611MPD2    C2 9052   1.639   1.275   9.996  0.2074  0.1242 -0.4046
  611MPD2    C3 9053   1.756   1.332   9.966  0.4340 -0.8666  0.5744
  611MPD2    C4 9054   1.754   1.468   9.936  0.0981  0.3807 -0.1317
  611MPD2    C5 9055   1.636   1.535   9.928  0.0716  0.2456  0.3733
  611MPD2     H 9056   1.634   1.169  10.018  0.8418  0.4592  1.3004
  611MPD2    H1 9057   1.846   1.526   9.931  0.9997 -0.9776  0.8928
  611MPD2    H2 9058   1.433   1.531   9.952 -0.4487  0.8485  3.0765
  611MPD2    H3 9059   1.623   1.635   9.889 -2.1328 -0.1778  0.0484
  611MPD2     N 9060   1.884   1.274   9.961 -0.1273 -0.1480 -0.0819
  611MPD2    H5 9061   1.973   1.322   9.946 -0.5469  1.4573  2.6367
  611MPD2    N1 9062   1.397   1.286  10.048 -0.2144  0.9510 -0.3143
  611MPD2    H7 9063   1.313   1.342  10.039 -0.8847  0.0406  0.3133
  612TMC3    C1 9064   2.033   1.085   9.985 -1.0532 -0.8279  1.0659
  612TMC3    C2 9065   2.109   1.160  10.068  0.0515 -0.1554 -0.2926
  612TMC3    C3 9066   2.230   1.104  10.098  0.3178  0.1393  0.1098
  612TMC3    C4 9067   2.069   0.966   9.940  0.3052  0.3881 -0.3010
  612TMC3    C5 9068   2.192   0.922   9.957  0.3327  0.0121 -1.0437
  612TMC3    C6 9069   2.271   0.984  10.050 -0.0655 -0.0713  0.7079
  612TMC3     C 9070   1.898   1.135   9.969  0.3525 -0.5497  0.6822
  612TMC3     O 9071   1.813   1.047   9.955  0.4967 -0.1446  0.0718
  612TMC3     H 9072   2.068   1.249  10.115  2.3954  1.0927 -0.5931
  612TMC3    H1 9073   1.994   0.909   9.887 -0.2569  1.2261 -0.4137
  612TMC3    H2 9074   2.376   0.957  10.047 -0.4171 -1.1758 -1.7064
  612TMC3    C7 9075   2.209   0.780   9.931  0.0005  0.3500  0.8211
  612TMC3    C8 9076   2.314   1.178  10.190 -0.3561  1.0050 -0.3991
  612TMC3    O1 9077   2.245   0.705  10.027  0.2758 -0.3747  0.1540
  612TMC3    O2 9078   2.290   1.294  10.211  0.2514  0.6706  0.3257
  613MPD2     C 9079   0.820   3.186  16.618 -0.4677  0.1762  0.0386
  613MPD2    C1 9080   0.911   3.113  16.536  0.6762  0.4250 -0.4350
  613MPD2    C2 9081   0.872   2.992  16.477  0.1517 -0.8856 -0.0129
  613MPD2    C3 9082   0.747   2.943  16.493  0.4738  0.3088  0.0303
  613MPD2    C4 9083   0.653   3.018  16.569  0.7093 -0.4686  0.4016
  613MPD2    C5 9084   0.690   3.137  16.629 -0.1566 -0.0437  0.2097
  613MPD2     H 9085   0.948   2.935  16.424  1.9702 -0.7996  2.5337
  613MPD2    H1 9086   0.555   2.978  16.592  0.7328 -0.3947  0.6337
  613MPD2    H2 9087   0.831   3.286  16.657 -0.7577 -0.9921  3.1216
  613MPD2    H3 9088   0.616   3.196  16.683  0.2317 -0.4886  1.2275
  613MPD2     N 9089   0.725   2.811  16.447 -0.0960 -0.2942 -0.0495
  613MPD2    H5 9090   0.807   2.766  16.408 -0.5557 -0.4261 -0.8589
  613MPD2    N1 9091   1.040   3.151  16.507 -0.0109 -0.3139  0.2281
  613MPD2    H7 9092   1.099   3.093  16.448 -0.3808 -1.4032  0.9183
  614TMC3    C1 9093   1.180   3.293  16.422 -0.2898 -0.5193  0.4120
  614TMC3    C2 9094   1.267   3.193  16.403  0.4037  0.6196 -0.7048
  614TMC3    C3 9095   1.323   3.169  16.281 -0.3230 -0.3611 -0.1210
  614TMC3    C4 9096   1.144   3.381  16.321  0.2718 -0.0287 -0.4818
  614TMC3    C5 9097   1.200   3.355  16.203  0.1967 -0.1120  0.4862
  614TMC3    C6 9098   1.286   3.254  16.182 -0.4083 -0.3432  0.4656
  614TMC3     C 9099   1.089   3.272  16.534 -0.8656  0.3043 -1.0174
  614TMC3     O 9100   1.037   3.374  16.572  0.2027  1.4352  0.4700
  614TMC3     H 9101   1.315   3.141  16.485 -1.2527 -2.0339 -1.4300
  614TMC3    H1 9102   1.088   3.472  16.340  1.1016  0.6565 -1.3255
  614TMC3    H2 9103   1.320   3.235  16.081  0.2414 -0.9690  0.8070
  614TMC3    C7 9104   1.173   3.454  16.103  0.0065  0.2148 -0.4529
  614TMC3    C8 9105   1.277   3.040  16.244  0.2077  0.0864 -0.1266
  614TMC3    O1 9106   1.155   3.574  16.145  0.2220 -0.6291 -0.4871
  614TMC3    O2 9107   1.197   3.002  16.327  0.6071  0.0548  0.3472
  615MPD2     C 9108   0.385   0.063  16.282 -0.0908  0.6292 -0.0178
  615MPD2    C1 9109   0.364   0.128  16.165 -0.0638 -0.4716 -0.0195
  615MPD2    C2 9110   0.341   0.060  16.048  0.3332  0.5152  0.2655
  615MPD2    C3 9111   0.304   4.654  16.045 -0.1732 -0.1878 -0.0340
  615MPD2    C4 9112   0.317   4.584  16.162  0.4632  0.1144  0.3961
  615MPD2    C5 9113   0.367   4.646  16.275  0.2156  0.3030 -0.6570
  615MPD2     H 9114   0.331   0.125  15.962  1.0239 -0.3754 -0.4863
  615MPD2    H1 9115   0.290   4.480  16.172  1.5574 -0.2240 -0.1300
  615MPD2    H2 9116   0.396   0.110  16.379  0.0454  3.0910 -1.2230
  615MPD2    H3 9117   0.390   4.589  16.364  1.8772 -0.5577 -1.6379
  615MPD2     N 9118   0.252   4.593  15.930 -0.6330 -0.0905 -0.0762
  615MPD2    H5 9119   0.215   4.498  15.929  1.9013 -1.0604  0.6347
  615MPD2    N1 9120   0.383   0.268  16.158 -0.0955  0.9986 -0.2985
  615MPD2    H7 9121   0.377   0.304  16.063 -1.9273 -0.5736 -0.7871
  616TMC3    C1 9122   0.354   0.503  16.216 -0.9614 -0.3413 -0.3714
  616TMC3    C2 9123   0.439   0.530  16.113  0.3272  0.3398  0.1716
  616TMC3    C3 9124   0.413   0.636  16.031 -0.2171  0.2906  0.7706
  616TMC3    C4 9125   0.236   0.572  16.242 -0.8092 -0.4860 -0.6278
  616TMC3    C5 9126   0.208   0.678  16.154 -0.3060 -0.2133 -0.0905
  616TMC3    C6 9127   0.303   0.713  16.054 -0.6520  0.1037  0.0664
  616TMC3     C 9128   0.355   0.362  16.259  0.8594  0.6387  0.0968
  616TMC3     O 9129   0.309   0.340  16.372 -0.1851 -0.5285 -0.0163
  616TMC3     H 9130   0.525   0.465  16.108 -1.1698 -1.6040 -0.4594
  616TMC3    H1 9131   0.161   0.547  16.317 -0.2540 -1.6520 -0.4644
  616TMC3    H2 9132   0.288   0.810  16.009  0.4433  1.0568  1.7815
  616TMC3    C7 9133   0.081   0.745  16.147 -1.1356 -0.5064 -0.8913
  616TMC3    C8 9134   0.513   0.685  15.930 -0.4180 -0.1560  0.5037
  616TMC3    O1 9135   0.071   0.828  16.056  0.4910  0.2991 -0.8645
  616TMC3    O2 9136   0.486   0.799  15.897  0.5296  0.1290  0.3181
  617MPD2     C 9137   2.946   2.726  13.213 -0.3955 -0.2847 -0.6265
  617MPD2    C1 9138   2.954   2.772  13.344  0.0275 -0.7133 -0.0241
  617MPD2    C2 9139   2.898   2.697  13.445 -0.5783 -0.9689 -0.2262
  617MPD2    C3 9140   2.827   2.587  13.417  0.1638  0.0344 -0.2690
  617MPD2    C4 9141   2.829   2.535  13.288  0.1407  0.3169 -1.0980
  617MPD2    C5 9142   2.883   2.610  13.187 -0.3444 -0.3592 -0.0683
  617MPD2     H 9143   2.910   2.741  13.543  3.8282 -2.0087 -0.2925
  617MPD2    H1 9144   2.796   2.434  13.268  1.9953 -0.5237  0.1243
  617MPD2    H2 9145   2.999   2.790  13.143 -1.4206  1.6928  0.4007
  617MPD2    H3 9146   2.878   2.569  13.087 -2.0344  0.6750 -0.4133
  617MPD2     N 9147   2.769   2.507  13.522  0.1492  0.2720  0.0605
  617MPD2    H5 9148   2.718   2.428  13.485 -2.9134  1.7124  1.1893
  617MPD2    N1 9149   3.026   2.895  13.364  0.3784 -0.3303 -0.2380
  617MPD2    H7 9150   3.060   2.952  13.288 -1.0901 -1.2255 -1.5734
  618TMC3    C1 9151   3.162   3.042  13.480 -0.0429 -0.4574  0.0225
  618TMC3    C2 9152   3.283   3.040  13.529 -0.5213 -0.1171  0.4015
  618TMC3    C3 9153   3.378   3.114  13.466  0.1220 -0.4989 -0.0208
  618TMC3    C4 9154   3.135   3.129  13.378 -0.2647 -0.1267  0.2575
  618TMC3    C5 9155   3.235   3.192  13.302  0.3363  0.5634 -0.6816
  618TMC3    C6 9156   3.354   3.190  13.358 -0.8296  0.8405 -0.1402
  618TMC3     C 9157   3.089   2.920  13.487 -0.0162  0.4893  0.0448
  618TMC3     O 9158   3.119   2.849  13.580  0.0777 -0.4581  0.0113
  618TMC3     H 9159   3.315   2.975  13.609 -1.8598  0.7399  1.6222
  618TMC3    H1 9160   3.034   3.138  13.341 -0.8516  0.5574  2.0052
  618TMC3    H2 9161   3.439   3.228  13.303  0.0209  0.3335  0.8449
  618TMC3    C7 9162   3.236   3.121  13.171 -0.9567  0.1946 -0.2653
  618TMC3    C8 9163   3.515   3.114  13.514  0.0644 -0.2178  0.0584
  618TMC3    O1 9164   3.168   3.022  13.171 -0.0473 -0.4852 -0.0804
  618TMC3    O2 9165   3.578   3.212  13.484 -0.4781  0.4710  0.2440
  619MPD2     C 9166   4.042   3.707  13.722 -0.5768  0.4276 -0.5898
  619MPD2    C1 9167   4.096   3.828  13.679  0.0196 -0.4991  0.5574
  619MPD2    C2 9168   4.025   3.946  13.690  0.1108 -0.7766  0.0428
  619MPD2    C3 9169   3.897   3.954  13.748 -0.2239  0.2144  0.2519
  619MPD2    C4 9170   3.845   3.833  13.795 -0.3825  0.0298  0.0540
  619MPD2    C5 9171   3.917   3.714  13.778 -0.1892 -0.5626 -0.4515
  619MPD2     H 9172   4.079   4.033  13.655 -0.0786 -0.1651  1.2897
  619MPD2    H1 9173   3.745   3.822  13.837  0.0265  0.1849  1.0486
  619MPD2    H2 9174   4.100   3.616  13.727 -1.7014 -0.1990  1.0558
  619MPD2    H3 9175   3.869   3.624  13.815 -1.7210  0.6517  0.4638
  619MPD2     N 9176   3.811   4.067  13.739  0.2512 -0.0569 -0.4504
  619MPD2    H5 9177   3.722   4.057  13.787  1.2389 -1.3854  1.1099
  619MPD2    N1 9178   4.229   3.834  13.626 -0.5537 -0.4121  1.3165
  619MPD2    H7 9179   4.259   3.925  13.593  0.6659 -0.7090  1.6051
  620TMC3    C1 9180   4.459   3.792  13.613  0.0498  0.1885 -0.1437
  620TMC3    C2 9181   4.506   3.806  13.485 -0.1223  0.3695  0.3090
  620TMC3    C3 9182   4.636   3.847  13.467 -0.7403  0.3986 -0.2105
  620TMC3    C4 9183   4.541   3.816  13.715 -0.0790  0.2750  0.2800
  620TMC3    C5 9184   4.670   3.852  13.697  0.7152 -0.3375 -0.3969
  620TMC3    C6 9185   4.724   3.866  13.572  0.2532 -0.2877  0.2884
  620TMC3     C 9186   4.333   3.740  13.646  0.2182 -0.0885  0.5312
  620TMC3     O 9187   4.334   3.636  13.712 -0.0572  0.9176 -0.0308
  620TMC3     H 9188   4.433   3.789  13.406  0.6171 -0.7792 -0.1316
  620TMC3    H1 9189   4.497   3.809  13.814  0.7220 -1.6723  0.4944
  620TMC3    H2 9190   0.095   3.915  13.558  0.0635  0.1610  0.5645
  620TMC3    C7 9191   4.697   3.956  13.785  0.2105 -0.9435  0.2404
  620TMC3    C8 9192   4.629   3.970  13.384  0.1692 -0.9362 -0.0172
  620TMC3    O1 9193   4.682   3.945  13.905  0.4561 -1.0116  0.7902
  620TMC3    O2 9194   4.666   4.074  13.432  0.2737 -0.1443 -0.3252
  621MPD2     C 9195   4.120   0.050   9.042  0.2688  0.1528  0.5336
  621MPD2    C1 9196   4.161   0.160   9.111 -0.0320 -0.3818 -0.0426
  621MPD2    C2 9197   4.190   0.149   9.245 -0.6832 -0.1709  1.1214
  621MPD2    C3 9198   4.188   0.020   9.306 -0.6682  0.0542  0.3721
  621MPD2    C4 9199   4.148   4.637   9.238  0.3435 -0.0447  0.1911
  621MPD2    C5 9200   4.110   4.656   9.112 -0.1408 -0.4531  0.1703
  621MPD2     H 9201   4.240   0.233   9.291 -1.9281  0.7404  0.8151
  621MPD2    H1 9202   4.148   4.535   9.274  0.0295 -1.0725 -2.7311
  621MPD2    H2 9203   4.085   0.054   8.939  3.1258 -0.8164 -0.4904
  621MPD2    H3 9204   4.058   4.583   9.050  0.0471  0.0133 -0.5398
  621MPD2     N 9205   4.245   0.014   9.435  0.7200 -0.0100  0.3399
  621MPD2    H5 9206   4.269   0.103   9.478  0.1392  0.1927  0.2516
  621MPD2    N1 9207   4.175   0.287   9.060 -0.3357  0.2921 -0.1815
  621MPD2    H7 9208   4.200   0.354   9.132 -0.1470 -0.7868  0.7658
  622TMC3    C1 9209   4.145   0.483   8.942  0.3213 -0.4081  0.8178
  622TMC3    C2 9210   4.147   0.532   8.814  0.3372 -0.6462 -0.5424
  622TMC3    C3 9211   4.085   0.651   8.795  0.5443 -0.0786  0.8657
  622TMC3    C4 9212   4.086   0.554   9.047  0.2504  0.2552 -0.6606
  622TMC3    C5 9213   4.031   0.677   9.023 -0.5438 -0.2673 -0.2439
  622TMC3    C6 9214   4.034   0.726   8.899 -0.4972 -0.0218 -0.5252
  622TMC3     C 9215   4.138   0.334   8.936  0.0241  0.5702 -0.9776
  622TMC3     O 9216   4.080   0.286   8.837 -0.0286 -1.3515  0.2815
  622TMC3     H 9217   4.183   0.469   8.734  2.1181  1.1950 -1.1929
  622TMC3    H1 9218   4.076   0.509   9.145  0.6357 -0.1642 -0.8121
  622TMC3    H2 9219   3.987   0.822   8.882 -1.8102 -0.6846 -0.6062
  622TMC3    C7 9220   3.999   0.774   9.127  0.3811  0.3800 -0.1938
  622TMC3    C8 9221   3.994   0.655   8.674  0.0684 -0.1640 -0.3061
  622TMC3    O1 9222   3.962   0.885   9.090 -0.4744  0.2593 -0.0271
  622TMC3    O2 9223   3.938   0.758   8.652  0.4809 -0.5772  0.0781
  623MPD2     C 9224   3.611   4.641  15.807 -0.8254 -0.1993 -0.2602
  623MPD2    C1 9225   3.557   4.645  15.930 -0.0515 -0.2649 -0.2319
  623MPD2    C2 9226   3.630   4.706  16.033 -0.5374  0.0582 -0.3100
  623MPD2    C3 9227   3.758   0.030  16.016  0.2460 -0.2154 -0.3548
  623MPD2    C4 9228   3.822   0.012  15.899 -0.5118  0.6970  0.4202
  623MPD2    C5 9229   3.741   4.687  15.801  0.3166  0.3865 -0.2930
  623MPD2     H 9230   3.583   4.711  16.130 -0.1983  2.0371 -0.2390
  623MPD2    H1 9231   3.922   0.036  15.866 -0.3416  1.2936  1.3892
  623MPD2    H2 9232   3.560   4.600  15.720  0.1129  1.5205 -1.6136
  623MPD2    H3 9233   3.785   4.682  15.702  0.4549  1.8949 -0.2952
  623MPD2     N 9234   3.826   0.077  16.135 -0.1931  0.0733  0.4795
  623MPD2    H5 9235   3.777   0.061  16.222 -2.1519 -1.3923 -0.8866
  623MPD2    N1 9236   3.420   4.609  15.949  0.2753  0.3998 -0.2364
  623MPD2    H7 9237   3.387   4.632  16.042  0.1690  0.4330 -0.2820
  624TMC3    C1 9238   4.155   0.090  16.456 -0.1781  0.2153 -0.3771
  624TMC3    C2 9239   4.054   0.095  16.548  0.3404  0.3626 -0.6818
  624TMC3    C3 9240   3.930   0.126  16.508  0.3265 -0.0358 -0.3752
  624TMC3    C4 9241   4.129   0.099  16.319 -1.0217 -0.3082  0.5399
  624TMC3    C5 9242   3.997   0.117  16.286 -0.7733  0.0727 -0.0337
  624TMC3    C6 9243   3.901   0.132  16.379  0.0498 -0.4495 -0.0579
  624TMC3     C 9244   4.287   0.062  16.512 -0.3910 -0.1722  0.0133
  624TMC3     O 9245   4.294   0.052  16.633  0.7698 -0.2646 -0.1080
  624TMC3     H 9246   4.075   0.071  16.651 -0.3221 -0.0129 -0.6347
  624TMC3    H1 9247   4.208   0.108  16.245  0.1314  0.1556  1.8446
  624TMC3    H2 9248   3.807   0.178  16.351 -0.1030 -0.3586  0.6009
  624TMC3    C7 9249   3.961   0.100  16.144 -0.3809  0.7069  0.4865
  624TMC3    C8 9250   3.819   0.059  16.574 -0.4340 -0.5473  0.3328
  624TMC3    O1 9251   4.048   0.086  16.064  0.2003  0.0456  0.7224
  624TMC3    O2 9252   3.743   0.010  16.494 -0.3207  0.0660 -0.0581
  625MPD2     C 9253   0.048   0.808   0.508  0.2116 -0.1767 -0.1471
  625MPD2    C1 9254   0.090   0.939   0.518  0.6736  0.2460 -0.3234
  625MPD2    C2 9255   0.233   0.958   0.517  0.2086  0.1208  0.1719
  625MPD2    C3 9256   0.317   0.850   0.503  0.3292 -0.6365 -0.6370
  625MPD2    C4 9257   0.267   0.723   0.491  0.2999 -0.4662  0.5633
  625MPD2    C5 9258   0.129   0.704   0.494  0.2873  0.3736 -0.2639
  625MPD2     H 9259   0.276   1.055   0.540  3.0793 -1.2337  0.5026
  625MPD2    H1 9260   0.333   0.638   0.481  0.7986  0.0344 -0.3661
  625MPD2    H2 9261   4.678   0.769   0.543  1.0338 -0.3352  1.9375
  625MPD2    H3 9262   0.090   0.604   0.481  0.0686  0.3988  0.1969
  625MPD2     N 9263   0.456   0.889   0.497 -0.3015  0.3040 -0.4535
  625MPD2    H5 9264   0.475   0.988   0.498  0.1100  0.2127  1.3578
  625MPD2    N1 9265   4.716   1.042   0.527  0.7420  0.8200  0.5852
  625MPD2    H7 9266   4.623   1.020   0.494  1.1009 -0.1187  0.1796
  626TMC3    C1 9267   4.641   1.263   0.576 -0.2106  0.1818  0.5574
  626TMC3    C2 9268   4.562   1.262   0.464  0.3219 -0.4270  1.0369
  626TMC3    C3 9269   4.470   1.362   0.454  0.2231 -0.2538 -0.4774
  626TMC3    C4 9270   4.625   1.354   0.681 -0.1643  0.7046  0.1311
  626TMC3    C5 9271   4.540   1.460   0.658 -0.3415 -0.1797  0.3786
  626TMC3    C6 9272   4.464   1.469   0.543 -1.1265 -0.1025 -0.3865
  626TMC3     C 9273   0.017   1.161   0.591 -0.2094  0.6993  0.1907
  626TMC3     O 9274   0.115   1.197   0.656  0.2942 -0.1331 -0.2003
  626TMC3     H 9275   4.582   1.190   0.385 -0.5165 -0.6981  1.0719
  626TMC3    H1 9276   4.664   1.332   0.780  1.8348  0.1406 -0.7738
  626TMC3    H2 9277   4.394   1.549   0.524 -0.7747  0.0114 -1.2218
  626TMC3    C7 9278   4.479   1.507   0.780 -0.0672  0.2278  0.2488
  626TMC3    C8 9279   4.407   1.376   0.320  0.0391  0.3775 -0.3548
  626TMC3    O1 9280   4.544   1.492   0.883 -0.5524  0.4964  0.2787
  626TMC3    O2 9281   4.374   1.484   0.273  0.4091 -0.1941 -0.7044
  627MPD2     C 9282   2.724   1.642  14.365  0.0395  0.6190 -0.1128
  627MPD2    C1 9283   2.790   1.607  14.485  0.0329  0.4538 -0.2929
  627MPD2    C2 9284   2.764   1.491  14.544 -0.6348 -0.3424 -0.3116
  627MPD2    C3 9285   2.671   1.404  14.490  0.0834 -0.3403  0.4434
  627MPD2    C4 9286   2.609   1.438  14.370 -0.3273  0.1913 -0.3742
  627MPD2    C5 9287   2.635   1.557  14.313 -0.0635 -0.0890  0.1204
  627MPD2     H 9288   2.804   1.460  14.640  1.2249  3.8472  0.2495
  627MPD2    H1 9289   2.544   1.374  14.311 -0.0399  0.5617 -1.1003
  627MPD2    H2 9290   2.729   1.731  14.304  0.1241  0.5431 -0.2180
  627MPD2    H3 9291   2.587   1.587  14.221 -0.8408 -0.5757  0.3641
  627MPD2     N 9292   2.646   1.285  14.556 -0.0415  0.6617  0.4327
  627MPD2    H5 9293   2.715   1.256  14.625 -1.9912 -3.8104  0.5496
  627MPD2    N1 9294   2.879   1.692  14.543 -0.4092  0.0685 -0.2020
  627MPD2    H7 9295   2.936   1.664  14.622 -3.1946  2.2420  2.5786
  628TMC3    C1 9296   2.993   1.889  14.589 -0.0573  0.6422 -0.2328
  628TMC3    C2 9297   3.114   1.832  14.615  0.5278  1.0372  0.2088
  628TMC3    C3 9298   3.212   1.917  14.649 -0.1627  1.4364  0.1653
  628TMC3    C4 9299   2.968   2.019  14.596  0.6126 -0.6974 -0.8069
  628TMC3    C5 9300   3.071   2.105  14.616 -1.0339 -0.0399  0.2906
  628TMC3    C6 9301   3.195   2.054  14.653 -0.2183  0.2801 -0.4203
  628TMC3     C 9302   2.900   1.820  14.501 -0.4080  0.0813  0.3073
  628TMC3     O 9303   2.844   1.889  14.416 -0.2802  0.1277  0.0403
  628TMC3     H 9304   3.136   1.726  14.608 -0.3674  0.7605  1.6504
  628TMC3    H1 9305   2.869   2.059  14.578  0.2936 -2.0524 -2.0006
  628TMC3    H2 9306   3.276   2.126  14.647 -0.4462  0.4486 -1.3471
  628TMC3    C7 9307   3.065   2.242  14.573  0.1656 -0.0630  0.6627
  628TMC3    C8 9308   3.341   1.885  14.595 -0.6613  0.2915 -0.6535
  628TMC3    O1 9309   3.153   2.320  14.597 -0.4880  0.0309  0.0930
  628TMC3    O2 9310   3.392   1.949  14.504 -0.3352 -0.3906 -0.0049
  629MPD2     C 9311   0.990   0.728  15.731 -0.4241 -0.8397 -0.1021
  629MPD2    C1 9312   0.974   0.606  15.802  0.2872  0.2285 -0.4940
  629MPD2    C2 9313   0.850   0.559  15.854 -0.1359  0.0746 -0.8786
  629MPD2    C3 9314   0.741   0.637  15.844  0.2397  0.8361 -0.0155
  629MPD2    C4 9315   0.759   0.766  15.788 -0.4954  0.0336  0.2693
  629MPD2    C5 9316   0.873   0.806  15.723 -0.1741  0.4787  0.8290
  629MPD2     H 9317   0.831   0.467  15.908 -2.6178 -0.7365 -3.1016
  629MPD2    H1 9318   0.684   0.843  15.777 -0.4321 -0.0705 -0.8897
  629MPD2    H2 9319   1.083   0.775  15.698 -1.0308  1.6172  1.6869
  629MPD2    H3 9320   0.871   0.906  15.681 -0.9562  0.1476  0.0839
  629MPD2     N 9321   0.625   0.603  15.918 -0.1144 -0.5190  0.5612
  629MPD2    H5 9322   0.634   0.516  15.971 -0.2792 -0.9105 -0.0576
  629MPD2    N1 9323   1.095   0.530  15.814  0.1881  0.5695 -0.2220
  629MPD2    H7 9324   1.184   0.578  15.805  0.3768  0.3634  0.5744
  630TMC3    C1 9325   1.233   0.354  15.913 -0.4829  0.8033 -0.1759
  630TMC3    C2 9326   1.344   0.410  15.865 -0.9411 -0.5552 -0.7116
  630TMC3    C3 9327   1.465   0.356  15.885  0.4501  0.3820 -0.1698
  630TMC3    C4 9328   1.239   0.236  15.984  0.4757 -0.1811 -0.0315
  630TMC3    C5 9329   1.355   0.191  16.027 -0.8072 -0.2666 -0.1273
  630TMC3    C6 9330   1.472   0.247  15.970 -0.1394  0.2291 -0.2845
  630TMC3     C 9331   1.105   0.401  15.872 -0.4063 -0.6779  0.2717
  630TMC3     O 9332   1.017   0.324  15.898  0.1136 -0.2547  0.1353
  630TMC3     H 9333   1.336   0.497  15.802 -0.1689 -0.3087 -0.4691
  630TMC3    H1 9334   1.150   0.211  16.041  0.8621  0.5617  0.8775
  630TMC3    H2 9335   1.567   0.226  16.019 -0.4186  1.0179  0.5844
  630TMC3    C7 9336   1.372   0.131  16.161  0.4285 -0.4823 -0.3305
  630TMC3    C8 9337   1.590   0.414  15.854 -0.9984  0.2869 -0.2055
  630TMC3    O1 9338   1.464   0.186  16.223  0.1007  0.2367  0.3173
  630TMC3    O2 9339   1.689   0.380  15.918  0.4257 -0.5464  0.0715
  631MPD2     C 9340   4.092   4.682  15.682  0.0911  0.5061 -0.3009
  631MPD2    C1 9341   4.178   0.052  15.631  0.1148  0.4131 -0.1149
  631MPD2    C2 9342   4.313   0.017  15.630  0.5858 -0.1049  0.7825
  631MPD2    C3 9343   4.357   4.610  15.647  0.7298  0.3181  0.1759
  631MPD2    C4 9344   4.264   4.517  15.684  0.2493  0.0492 -0.1926
  631MPD2    C5 9345   4.134   4.557  15.715 -0.1650  0.1822  0.3568
  631MPD2     H 9346   4.388   0.093  15.610 -0.4774  1.1928  1.6967
  631MPD2    H1 9347   4.287   4.412  15.702  1.6234  0.5198  0.7693
  631MPD2    H2 9348   3.990   4.717  15.698 -0.0554 -0.2930  0.4918
  631MPD2    H3 9349   4.062   4.483  15.748 -0.8770  0.3758 -0.7821
  631MPD2     N 9350   4.495   4.580  15.639 -0.3700 -0.0078 -0.0118
  631MPD2    H5 9351   4.556   4.660  15.636 -0.4660  0.0803  0.3812
  631MPD2    N1 9352   4.140   0.180  15.603 -0.2022  0.7473  0.4455
  631MPD2    H7 9353   4.040   0.192  15.614 -0.6596 -1.5708 -1.0847
  632TMC3    C1 9354   4.139   0.390  15.479 -0.2020  0.2592 -0.1469
  632TMC3    C2 9355   4.087   0.474  15.573  0.6420 -0.1466  0.4483
  632TMC3    C3 9356   4.069   0.604  15.540  0.0863 -0.3473  0.3668
  632TMC3    C4 9357   4.160   0.432  15.350 -0.4580  0.0030  0.1710
  632TMC3    C5 9358   4.153   0.566  15.324  0.3208 -0.7702  0.7831
  632TMC3    C6 9359   4.104   0.653  15.418 -0.5111  0.2732  0.2766
  632TMC3     C 9360   4.210   0.267  15.519  0.1216  0.0306  0.0205
  632TMC3     O 9361   4.318   0.259  15.464  0.4322 -0.0496 -0.0942
  632TMC3     H 9362   4.078   0.452  15.678 -0.0558  0.1827  0.4565
  632TMC3    H1 9363   4.199   0.360  15.278  1.9145  0.5279  0.9280
  632TMC3    H2 9364   4.107   0.760  15.407 -2.0803  0.2279 -0.7404
  632TMC3    C7 9365   4.234   0.624  15.219 -0.0082 -0.1339  0.9152
  632TMC3    C8 9366   3.984   0.686  15.629 -0.1494  0.3558 -0.2992
  632TMC3    O1 9367   4.179   0.694  15.131  0.3969  0.3630  0.4636
  632TMC3    O2 9368   3.971   0.646  15.741 -0.3167 -0.2214 -1.0004
  633MPD2     C 9369   3.883   2.810  16.943  0.2077 -0.3718  0.1053
  633MPD2    C1 9370   3.888   2.736  16.830  0.1043 -0.8814  0.0617
  633MPD2    C2 9371   3.916   2.599  16.841 -0.3946 -0.4265  0.2980
  633MPD2    C3 9372   3.926   2.549  16.968  0.0873 -0.6320  0.0524
  633MPD2    C4 9373   3.920   2.624  17.087  0.0294 -0.2120  0.3266
  633MPD2    C5 9374   3.911   2.758  17.065 -0.2108 -0.3246  0.1360
  633MPD2     H 9375   3.927   2.536  16.753 -0.2269 -1.6081  1.1737
  633MPD2    H1 9376   3.933   2.590  17.189 -0.2149  0.0486  0.4453
  633MPD2    H2 9377   3.857   2.915  16.951  0.4450 -0.3082  0.0129
  633MPD2    H3 9378   3.914   2.818  17.156  0.6021 -1.6852  1.0042
  633MPD2     N 9379   3.953   2.412  16.988  0.1961 -0.2442 -0.3061
  633MPD2    H5 9380   3.978   2.385  17.083 -1.4377  1.6171  0.6577
  633MPD2    N1 9381   3.864   2.783  16.705  0.0282 -0.1561 -0.5573
  633MPD2    H7 9382   3.884   2.721  16.627  1.4748 -1.3135  0.7138
  634TMC3    C1 9383   3.878   2.921  16.532 -0.2408 -0.4405 -0.0919
  634TMC3    C2 9384   3.948   2.824  16.463  0.1052  0.6180  0.0503
  634TMC3    C3 9385   4.042   2.862  16.371  0.1966  0.4929  0.0840
  634TMC3    C4 9386   3.892   3.049  16.494  0.1146  0.1363 -1.1430
  634TMC3    C5 9387   3.972   3.081  16.385  0.1528  0.4143 -0.1455
  634TMC3    C6 9388   4.051   2.991  16.327 -0.0832 -0.6327  0.2184
  634TMC3     C 9389   3.842   2.914  16.675  0.0422  0.2124  0.7751
  634TMC3     O 9390   3.792   3.007  16.739 -0.1099  0.6428  0.2008
  634TMC3     H 9391   3.955   2.718  16.484  0.3011  0.2305 -2.0078
  634TMC3    H1 9392   3.832   3.123  16.546  0.8468  1.1264 -1.7103
  634TMC3    H2 9393   4.129   3.027  16.261 -0.8983  2.3883  0.8759
  634TMC3    C7 9394   3.980   3.216  16.334 -0.0692  0.3468  0.4174
  634TMC3    C8 9395   4.119   2.760  16.304 -0.1995 -0.1037  0.1411
  634TMC3    O1 9396   4.022   3.230  16.220 -0.0423  0.9429 -0.1053
  634TMC3    O2 9397   4.155   2.659  16.369  0.1270  0.3110 -0.5775
  635TMC3    C1 9398   4.540   3.801  17.507 -0.5402  0.1990  0.6275
  635TMC3    C2 9399   4.441   3.749  17.431 -0.0966  0.7215 -0.1665
  635TMC3    C3 9400   4.407   3.619  17.455 -0.0070  0.0059 -0.0360
  635TMC3    C4 9401   4.607   3.723  17.595 -0.0752  0.2538  0.3077
  635TMC3    C5 9402   4.553   3.599  17.626 -0.4661  0.0843  0.0806
  635TMC3    C6 9403   4.453   3.539  17.552  0.2719 -0.2200 -0.8096
  635TMC3     C 9404   4.602   3.928  17.479 -0.1312  0.1035 -0.3696
  635TMC3     O 9405   4.721   3.943  17.477  0.7131  0.2754  0.4495
  635TMC3     H 9406   4.393   3.807  17.353 -1.1244 -1.3515 -1.0636
  635TMC3    H1 9407   4.699   3.760  17.640  0.1124  3.1757 -2.4826
  635TMC3    H2 9408   4.420   3.436  17.564  0.9083 -0.4637 -1.1321
  635TMC3    C7 9409   4.599   3.524   0.039  0.2350  0.2496  0.4899
  635TMC3    C8 9410   4.348   3.551  17.346  0.1416  0.3338  0.1421
  635TMC3    O1 9411   4.548   3.412   0.053 -0.7892 -0.6551  0.0640
  635TMC3    O2 9412   4.354   3.609  17.236  0.3741 -0.2723 -0.9264
  636MPD2     C 9413   0.487   3.124  15.667 -0.6243 -0.4193  0.1149
  636MPD2    C1 9414   0.479   3.168  15.801 -0.4330 -0.1448 -0.0532
  636MPD2    C2 9415   0.507   3.071  15.900 -0.5914  1.3888 -0.3617
  636MPD2    C3 9416   0.552   2.939  15.863  0.4011  0.5062  0.7046
  636MPD2    C4 9417   0.570   2.905  15.728 -0.1854 -0.1958 -0.4930
  636MPD2    C5 9418   0.530   2.996  15.629 -0.7316 -0.9378 -0.5661
  636MPD2     H 9419   0.493   3.099  16.004 -0.0576  1.1657 -0.2345
  636MPD2    H1 9420   0.602   2.808  15.693 -1.1873 -0.5800 -0.3364
  636MPD2    H2 9421   0.470   3.191  15.583  1.1017  0.7031  0.6576
  636MPD2    H3 9422   0.553   2.981  15.524 -1.2075 -2.4778 -0.4643
  636MPD2     N 9423   0.583   2.837  15.959 -0.6975  0.7983  0.7565
  636MPD2    H5 9424   0.590   2.865  16.057  1.5235  1.1414  0.4905
  636MPD2    N1 9425   0.448   3.297  15.852 -0.3103  0.3679  0.2966
  636MPD2    H7 9426   0.454   3.296  15.953 -1.6674  1.2772  0.3898
  637TMC3    C1 9427   0.643   2.649  16.078 -0.3455 -0.2304  0.1481
  637TMC3    C2 9428   0.577   2.706  16.186  0.2803 -0.8026  0.1573
  637TMC3    C3 9429   0.629   2.671  16.305  0.4885  0.3034  0.6774
  637TMC3    C4 9430   0.763   2.578  16.087 -0.0825  0.8060  0.1026
  637TMC3    C5 9431   0.825   2.574  16.203  0.4781 -0.2724  0.2145
  637TMC3    C6 9432   0.749   2.601  16.321 -0.4755 -0.6036  0.5324
  637TMC3     C 9433   0.604   2.702  15.945  0.6736 -0.4095 -0.1778
  637TMC3     O 9434   0.623   2.635  15.842 -0.0216 -0.5520 -0.0160
  637TMC3     H 9435   0.497   2.778  16.172  0.5920 -0.5295 -0.2282
  637TMC3    H1 9436   0.814   2.535  16.001 -1.1934 -0.2149 -0.0426
  637TMC3    H2 9437   0.798   2.563  16.410 -0.5877 -1.2945  0.2956
  637TMC3    C7 9438   0.958   2.631  16.214 -0.0296  0.2852  0.4927
  637TMC3    C8 9439   0.601   2.772  16.403  0.4493 -0.2005 -0.2418
  637TMC3    O1 9440   0.994   2.686  16.318 -0.2687 -0.2416  0.0615
  637TMC3    O2 9441   0.492   2.829  16.415 -0.2719  0.6509 -0.1023
  638MPD2     C 9442   0.454   2.067  14.685  0.3324 -0.4177  0.3523
  638MPD2    C1 9443   0.419   1.951  14.626  0.9078 -0.0959  0.6643
  638MPD2    C2 9444   0.379   1.849  14.711  0.1660  0.0913  0.4822
  638MPD2    C3 9445   0.368   1.866  14.849 -1.0661 -0.4772  0.4046
  638MPD2    C4 9446   0.396   1.988  14.907  0.2013  0.0591  0.3862
  638MPD2    C5 9447   0.438   2.088  14.822  0.3752 -0.0286 -0.1872
  638MPD2     H 9448   0.353   1.751  14.675  0.8701  0.4972 -1.1501
  638MPD2    H1 9449   0.392   2.008  15.014  1.1142  2.7345 -0.0756
  638MPD2    H2 9450   0.496   2.145  14.623  0.9446 -1.0176  0.0018
  638MPD2    H3 9451   0.476   2.183  14.858  0.3906  1.0047 -2.9887
  638MPD2     N 9452   0.338   1.754  14.929  0.4525  0.2423  0.1609
  638MPD2    H5 9453   0.302   1.669  14.885 -0.4139  0.0315  1.2841
  638MPD2    N1 9454   0.455   1.926  14.490  0.6915 -0.3893  0.0253
  638MPD2    H7 9455   0.491   2.008  14.441 -0.0782  0.8128  1.4664
  639TMC3    C1 9456   0.317   1.618  15.120 -0.1664  0.3645 -0.2195
  639TMC3    C2 9457   0.212   1.548  15.060  0.1276  0.9808 -0.1963
  639TMC3    C3 9458   0.198   1.419  15.101  0.6473 -0.7274  0.1810
  639TMC3    C4 9459   0.406   1.562  15.206 -0.2374  0.6319 -0.0043
  639TMC3    C5 9460   0.405   1.428  15.216  0.1548 -0.4284 -0.0947
  639TMC3    C6 9461   0.297   1.351  15.171 -0.0599 -0.3502 -0.0101
  639TMC3     C 9462   0.364   1.748  15.061  0.3909  0.1975  0.2818
  639TMC3     O 9463   0.442   1.815  15.128 -0.2519  0.3019  0.0806
  639TMC3     H 9464   0.141   1.605  15.001  0.2098 -0.1448 -1.3880
  639TMC3    H1 9465   0.493   1.617  15.242 -0.1449  0.5804 -0.1513
  639TMC3    H2 9466   0.288   1.244  15.186 -1.4673 -0.4395 -1.5771
  639TMC3    C7 9467   0.538   1.367  15.194  0.1417  0.4333  0.3223
  639TMC3    C8 9468   0.109   1.332  15.026 -0.0167 -0.7771  0.3127
  639TMC3    O1 9469   0.634   1.440  15.227  0.2586 -0.0405 -0.4606
  639TMC3    O2 9470   0.070   1.369  14.915 -0.2559 -0.1521  0.0485
  640MPD2     C 9471   0.406   0.075  10.718  0.4725 -0.8293 -0.1159
  640MPD2    C1 9472   0.481   0.176  10.665  0.0430 -0.7392 -0.6371
  640MPD2    C2 9473   0.447   0.302  10.691  0.0493  0.1509 -0.2916
  640MPD2    C3 9474   0.343   0.323  10.782  0.2184 -0.4702 -0.2483
  640MPD2    C4 9475   0.276   0.222  10.848  0.5765 -0.5310 -0.1275
  640MPD2    C5 9476   0.309   0.097  10.808  0.4051 -0.3366  0.1857
  640MPD2     H 9477   0.506   0.385  10.653  1.2432 -0.3914  0.3702
  640MPD2    H1 9478   0.218   0.234  10.939 -0.6721  1.4430 -1.1864
  640MPD2    H2 9479   0.430   4.695  10.715  0.0216 -0.8492 -2.6328
  640MPD2    H3 9480   0.260   0.012  10.853  1.4582 -1.4407 -0.7523
  640MPD2     N 9481   0.302   0.450  10.830  0.0093  0.1273 -0.3799
  640MPD2    H5 9482   0.249   0.450  10.917 -1.2550 -0.1675 -1.1408
  640MPD2    N1 9483   0.582   0.134  10.578 -0.2591  0.2307 -0.0692
  640MPD2    H7 9484   0.586   0.033  10.574 -1.2481  0.2683 -1.9358
  641TMC3    C1 9485   0.694   0.126  10.369 -0.3374 -0.7142 -0.5608
  641TMC3    C2 9486   0.728   4.717  10.389  0.1739  0.4101  0.4243
  641TMC3    C3 9487   0.737   4.635  10.274 -0.3636 -0.2005  0.2931
  641TMC3    C4 9488   0.654   0.173  10.250 -0.1577 -0.5176  0.3867
  641TMC3    C5 9489   0.654   0.090  10.140  0.2441  0.1485 -0.2890
  641TMC3    C6 9490   0.698   4.685  10.152  0.3166  0.4749  0.3620
  641TMC3     C 9491   0.649   0.213  10.479  0.1246  0.2624  0.2712
  641TMC3     O 9492   0.641   0.334  10.477 -0.3382  0.4062  0.6415
  641TMC3     H 9493   0.729   4.678  10.491  2.5832  0.4333  0.4085
  641TMC3    H1 9494   0.612   0.273  10.244  1.7011  0.0747 -2.3348
  641TMC3    H2 9495   0.716   4.625  10.063 -3.8471  0.3995 -0.4523
  641TMC3    C7 9496   0.578   0.117  10.020 -0.5647  0.0996 -0.6928
  641TMC3    C8 9497   0.751   4.494  10.291  0.0645 -0.4773  0.5609
  641TMC3    O1 9498   0.573   0.033   9.932 -0.4011  0.3405 -0.7708
  641TMC3    O2 9499   0.707   4.419  10.203 -0.3338  0.1207 -0.0398
  642TMC3    C1 9500   1.236   1.535  12.569 -0.1030  0.0831 -0.5213
  642TMC3    C2 9501   1.323   1.541  12.671 -0.0916  0.5906  0.1069
  642TMC3    C3 9502   1.381   1.429  12.713  0.1900 -0.3965  0.0061
  642TMC3    C4 9503   1.211   1.411  12.516  0.0002  0.5411 -0.1877
  642TMC3    C5 9504   1.282   1.303  12.553 -0.0581  0.3881  0.1558
  642TMC3    C6 9505   1.373   1.312  12.656 -0.4366  0.0175  0.3860
  642TMC3     C 9506   1.179   1.658  12.520  0.0777  0.8290  0.0863
  642TMC3     O 9507   1.252   1.755  12.531  0.5394 -0.6432  0.0995
  642TMC3     H 9508   1.331   1.627  12.736 -3.4883  1.4095 -0.5555
  642TMC3    H1 9509   1.141   1.405  12.433  0.0797  0.0780 -0.2226
  642TMC3    H2 9510   1.435   1.232  12.694 -2.0185 -1.2158  0.3625
  642TMC3    C7 9511   1.248   1.175  12.484  0.3528 -0.0955  0.5080
  642TMC3    C8 9512   1.491   1.445  12.800  0.6762  0.1274  0.8790
  642TMC3    O1 9513   1.188   1.192  12.378 -0.0947 -0.4886  0.4361
  642TMC3    O2 9514   1.516   1.351  12.880 -0.0023  0.0426  0.2911
  643TMC3    C1 9515   1.528   1.226   0.581 -0.9204  0.7434 -0.2724
  643TMC3    C2 9516   1.397   1.227   0.578 -0.1491  0.3543  0.1610
  643TMC3    C3 9517   1.334   1.153   0.481 -0.2940 -0.6440 -0.0645
  643TMC3    C4 9518   1.596   1.176   0.475 -0.1201 -0.1391 -1.1160
  643TMC3    C5 9519   1.532   1.104   0.375  0.3449 -0.8008  0.2173
  643TMC3    C6 9520   1.401   1.087   0.387  0.8221  0.4151 -0.2026
  643TMC3     C 9521   1.585   1.346   0.639 -0.2271 -0.1259  0.2579
  643TMC3     O 9522   1.526   1.455   0.613 -0.1370  0.9487 -0.1759
  643TMC3     H 9523   1.331   1.273   0.651  0.0806  1.9370 -0.6402
  643TMC3    H1 9524   1.702   1.197   0.465  0.0129 -0.1204  0.4137
  643TMC3    H2 9525   1.350   1.031   0.309  0.6430 -2.2923  1.8485
  643TMC3    C7 9526   1.569   1.139   0.242  0.8229 -0.1261 -0.6226
  643TMC3    C8 9527   1.217   1.212   0.426 -0.7110  0.7734  0.2979
  643TMC3    O1 9528   1.612   1.251   0.220 -0.1987  0.2488 -0.1577
  643TMC3    O2 9529   1.155   1.146   0.343 -0.1107  0.1755  0.0560
  644MPD2     C 9530   0.448   0.589   9.459 -0.5504  0.7078 -0.0644
  644MPD2    C1 9531   0.583   0.582   9.495  0.0916 -0.0652 -0.4994
  644MPD2    C2 9532   0.673   0.679   9.458 -0.5354  0.1458  0.1791
  644MPD2    C3 9533   0.631   0.777   9.370  0.4163  0.0175 -0.1597
  644MPD2    C4 9534   0.499   0.784   9.347  0.2756 -0.3527 -0.8581
  644MPD2    C5 9535   0.409   0.694   9.395 -0.5929 -0.2122 -0.0301
  644MPD2     H 9536   0.778   0.682   9.487 -0.4414  0.0515 -0.1534
  644MPD2    H1 9537   0.459   0.866   9.288  0.9732  0.2502 -0.4911
  644MPD2    H2 9538   0.381   0.509   9.489 -1.2063  1.8636  1.5426
  644MPD2    H3 9539   0.301   0.708   9.389 -0.6048  0.1122  0.9736
  644MPD2     N 9540   0.731   0.865   9.320  0.5790 -0.4299 -0.3563
  644MPD2    H5 9541   0.823   0.845   9.357 -0.0586  0.5893  1.8363
  644MPD2    N1 9542   0.622   0.454   9.551 -0.0117 -0.1886 -0.6489
  644MPD2    H7 9543   0.543   0.391   9.565 -1.7311  1.6796 -1.8851
  645TMC3    C1 9544   0.830   1.054   9.224  0.1822  0.8154  0.4332
  645TMC3    C2 9545   0.924   1.066   9.324 -0.2217  0.2237 -0.5592
  645TMC3    C3 9546   1.024   1.163   9.309  0.2765 -0.2047 -0.3057
  645TMC3    C4 9547   0.854   1.122   9.111 -0.6278 -0.7173  0.0855
  645TMC3    C5 9548   0.948   1.217   9.097 -0.7425 -0.3275  0.0404
  645TMC3    C6 9549   1.030   1.243   9.203  0.2249  0.4687 -0.1886
  645TMC3     C 9550   0.717   0.967   9.231  0.2616  0.1429 -0.5010
  645TMC3     O 9551   0.618   1.002   9.166  0.2673 -0.1501 -0.1067
  645TMC3     H 9552   0.904   1.025   9.422  0.9524 -0.3066 -0.5409
  645TMC3    H1 9553   0.793   1.094   9.025 -0.1407  3.2866 -1.5753
  645TMC3    H2 9554   1.111   1.314   9.187  0.7492 -0.2735 -0.8503
  645TMC3    C7 9555   0.946   1.305   8.976  0.1413 -0.0965 -0.0643
  645TMC3    C8 9556   1.132   1.183   9.405 -0.1001  0.0664 -0.3745
  645TMC3    O1 9557   0.847   1.285   8.906  0.1077  0.0328  0.4492
  645TMC3    O2 9558   1.206   1.279   9.398  0.4569 -0.0928 -0.4207
  646MPD2     C 9559   0.608   0.518  14.459  0.4694  0.7523 -0.4937
  646MPD2    C1 9560   0.512   0.488  14.555 -0.1786  0.5083 -0.4857
  646MPD2    C2 9561   0.392   0.554  14.546  0.6993  0.3230  0.5049
  646MPD2    C3 9562   0.370   0.652  14.452  0.1121  0.2671 -0.2748
  646MPD2    C4 9563   0.470   0.681  14.359 -0.1099  0.2448 -0.1909
  646MPD2    C5 9564   0.593   0.620  14.369  0.5467  0.6154 -0.2203
  646MPD2     H 9565   0.310   0.536  14.616  0.2464  0.3901 -0.0073
  646MPD2    H1 9566   0.455   0.757  14.283 -2.5556  0.0161  0.0417
  646MPD2    H2 9567   0.709   0.478  14.466  0.8525  1.4784 -1.8758
  646MPD2    H3 9568   0.665   0.652  14.295 -0.0233  0.1496 -0.9801
  646MPD2     N 9569   0.240   0.720  14.448 -0.4316 -0.4982 -0.4573
  646MPD2    H5 9570   0.173   0.703  14.522  0.5315  1.4036  0.8544
  646MPD2    N1 9571   0.555   0.407  14.661  0.8023 -0.4733  0.0602
  646MPD2    H7 9572   0.649   0.371  14.659  0.5198 -1.2219  0.3028
  647TMC3    C1 9573   0.568   0.323  14.871 -0.4174 -0.2918  0.0624
  647TMC3    C2 9574   0.509   0.248  14.970 -0.7439  0.3899  0.0627
  647TMC3    C3 9575   0.585   0.204  15.078  0.9029  0.2563  0.1169
  647TMC3    C4 9576   0.705   0.342  14.872 -0.2320 -0.2066 -0.3687
  647TMC3    C5 9577   0.782   0.293  14.972  0.6543 -0.2738  0.0981
  647TMC3    C6 9578   0.726   0.225  15.080 -0.5182 -0.0460 -0.3395
  647TMC3     C 9579   0.487   0.372  14.774 -0.0682 -0.1393  0.0679
  647TMC3     O 9580   0.370   0.386  14.803  0.0901  0.1604 -0.2724
  647TMC3     H 9581   0.404   0.223  14.968 -0.6275 -0.0163 -0.8412
  647TMC3    H1 9582   0.740   0.414  14.799  0.7239 -1.4620 -1.1458
  647TMC3    H2 9583   0.793   0.194  15.159  0.2219 -3.0432 -2.1429
  647TMC3    C7 9584   0.917   0.247  14.933  0.4605 -0.6107 -0.0264
  647TMC3    C8 9585   0.522   0.118  15.174  0.7555 -0.0840 -0.2230
  647TMC3    O1 9586   0.981   0.198  15.025 -0.4460 -0.7115  0.1411
  647TMC3    O2 9587   0.446   0.040  15.122 -0.2345 -0.0449 -0.0424
  648TMC3    C1 9588   4.687   3.135  15.799  0.4284 -0.5573 -0.1171
  648TMC3    C2 9589   4.636   3.014  15.762  0.0791 -0.5902  0.3808
  648TMC3    C3 9590   4.563   2.991  15.652 -0.6589  0.8783  0.5682
  648TMC3    C4 9591   4.676   3.234  15.706  0.1657  0.0882  0.2020
  648TMC3    C5 9592   4.607   3.217  15.587  0.0406  0.3307  0.1443
  648TMC3    C6 9593   4.545   3.095  15.557 -0.0557  0.2917  0.1242
  648TMC3     C 9594   4.646   3.178  15.932 -0.6195  0.4236  0.3895
  648TMC3     O 9595   4.681   3.288  15.970  0.1540  0.1377  0.1016
  648TMC3     H 9596   4.660   2.932  15.828 -0.3795 -0.6491  0.4763
  648TMC3    H1 9597   4.700   3.333  15.740 -0.5891  0.2936  0.1433
  648TMC3    H2 9598   4.495   3.072  15.464 -1.7459  0.5944  0.9574
  648TMC3    C7 9599   4.578   3.335  15.510  0.2807 -0.7982  0.0406
  648TMC3    C8 9600   4.529   2.858  15.613  0.2118 -0.1890 -0.3342
  648TMC3    O1 9601   4.649   3.374  15.418  0.5935  0.1651  0.3113
  648TMC3    O2 9602   4.417   2.847  15.569 -0.8488 -0.3040 -0.4879
  649TMC3    C1 9603   3.406   4.049  12.371 -0.3013  0.0270 -0.0781
  649TMC3    C2 9604   3.538   4.088  12.375  0.1668 -0.6947  0.4910
  649TMC3    C3 9605   3.596   4.120  12.496 -0.1047  0.1161 -0.2386
  649TMC3    C4 9606   3.332   4.051  12.486  0.1898  0.4921  0.4572
  649TMC3    C5 9607   3.392   4.072  12.610  0.1412  0.1602  0.0894
  649TMC3    C6 9608   3.525   4.113  12.613  0.4617 -0.0608 -0.0103
  649TMC3     C 9609   3.327   4.049  12.253  0.1730  0.7435 -0.7575
  649TMC3     O 9610   3.225   4.113  12.245 -0.0915 -0.6191 -0.0234
  649TMC3     H 9611   3.592   4.093  12.281 -2.0316 -1.5051 -0.8161
  649TMC3    H1 9612   3.225   4.034  12.475  0.1072  0.5946  1.0745
  649TMC3    H2 9613   3.571   4.135  12.709 -0.5019  1.1378  0.1898
  649TMC3    C7 9614   3.323   4.016  12.723  0.5954  0.5103 -0.1832
  649TMC3    C8 9615   3.738   4.140  12.498  0.6805 -0.5366  0.5603
  649TMC3    O1 9616   3.201   4.003  12.714  0.0258 -0.0697  0.5504
  649TMC3    O2 9617   3.791   4.132  12.610  0.4295  0.3919 -0.0138
  650TMC3    C1 9618   0.274   0.810  12.706 -0.3587  0.4027  0.3188
  650TMC3    C2 9619   0.227   0.934  12.738 -0.3261 -0.0272 -0.5578
  650TMC3    C3 9620   0.169   1.006  12.631  0.0824  0.3261 -0.6415
  650TMC3    C4 9621   0.258   0.764  12.579  0.4144 -0.3170  0.4597
  650TMC3    C5 9622   0.203   0.846  12.479  0.6921 -0.2150  0.4609
  650TMC3    C6 9623   0.157   0.969  12.500  0.3812 -0.5417  0.3459
  650TMC3     C 9624   0.295   0.726  12.822  0.3145 -0.3578  0.5416
  650TMC3     O 9625   0.264   0.772  12.932 -0.1469  0.0564  0.3804
  650TMC3     H 9626   0.237   0.974  12.838  1.0487  0.3478 -0.8413
  650TMC3    H1 9627   0.280   0.664  12.543  2.2660 -0.2858  1.5337
  650TMC3    H2 9628   0.106   1.030  12.426 -1.2629 -0.5237  1.4866
  650TMC3    C7 9629   0.177   0.795  12.348 -0.1324  0.4617  0.1956
  650TMC3    C8 9630   0.142   1.149  12.655 -0.3792  0.0147  0.1027
  650TMC3    O1 9631   0.176   0.674  12.339 -0.4000  0.0773 -0.1307
  650TMC3    O2 9632   0.228   1.207  12.719 -0.1967  0.7655 -0.0507
  651MPD2     C 9633   4.672   2.812  11.032 -0.0709 -0.6925  0.0349
  651MPD2    C1 9634   4.598   2.922  10.984 -0.2928 -0.4094  0.1637
  651MPD2    C2 9635   4.659   3.041  10.956  0.7190 -0.5626  0.0065
  651MPD2    C3 9636   0.067   3.058  10.993  0.6958 -0.1276 -0.6950
  651MPD2    C4 9637   0.138   2.951  11.047  0.1157  0.3802  0.1371
  651MPD2    C5 9638   0.081   2.827  11.068  0.4087  0.6867 -1.2105
  651MPD2     H 9639   4.601   3.124  10.916  2.7908  1.3218  0.8845
  651MPD2    H1 9640   0.239   2.965  11.085 -0.7486  2.1735  1.7676
  651MPD2    H2 9641   4.620   2.721  11.059  0.4964 -0.4665  1.8529
  651MPD2    H3 9642   0.141   2.742  11.101 -0.2207  0.4396 -0.7034
  651MPD2     N 9643   0.124   3.186  10.981  0.3703 -0.1232 -0.0185
  651MPD2    H5 9644   0.067   3.268  10.960  0.2481 -0.4129 -0.8076
  651MPD2    N1 9645   4.468   2.903  10.947  0.3342  0.0763 -0.3963
  651MPD2    H7 9646   4.431   2.988  10.906 -0.4530 -0.1035 -0.0458
  652TMC3    C1 9647   0.472   3.462  11.057  1.0439 -0.1143  0.3868
  652TMC3    C2 9648   0.449   3.355  10.984 -0.9116 -0.3683 -0.8277
  652TMC3    C3 9649   0.315   3.337  10.951  0.1462  0.4026  0.0548
  652TMC3    C4 9650   0.377   3.558  11.074 -0.2975 -0.1859  0.3060
  652TMC3    C5 9651   0.260   3.549  11.005 -0.5924 -0.2521 -0.9470
  652TMC3    C6 9652   0.230   3.437  10.933  0.1484 -0.2766 -0.0774
  652TMC3     C 9653   0.602   3.477  11.117 -0.1270  0.0379 -0.1861
  652TMC3     O 9654   0.608   3.539  11.220  0.6244 -0.0702  0.3972
  652TMC3     H 9655   0.514   3.269  10.990 -0.3483  0.2049  1.5096
  652TMC3    H1 9656   0.406   3.652  11.120 -1.7616  0.2650  0.3309
  652TMC3    H2 9657   0.134   3.414  10.889  0.8413 -1.0697 -1.1800
  652TMC3    C7 9658   0.185   3.666  10.963 -0.0438  0.5835  0.3202
  652TMC3    C8 9659   0.264   3.194  10.965 -0.1136 -0.0872 -0.4560
  652TMC3    O1 9660   0.135   3.672  10.850  0.2816  0.0880 -0.1578
  652TMC3    O2 9661   0.345   3.105  10.947 -0.2783  0.5382  0.0505
  653MPD2     C 9662   3.734   2.986  17.531 -0.9326 -0.2253  0.0414
  653MPD2    C1 9663   3.726   3.048  17.403 -0.3249  0.8178  0.1982
  653MPD2    C2 9664   3.681   2.981  17.289 -0.5085  0.4392 -0.4969
  653MPD2    C3 9665   3.633   2.852  17.304 -1.2376  0.1056  0.1544
  653MPD2    C4 9666   3.650   2.787  17.426 -0.1795  0.6464  0.1218
  653MPD2    C5 9667   3.697   2.854  17.527  0.2662  0.1256  0.3400
  653MPD2     H 9668   3.662   3.031  17.195  1.5329 -0.6402 -1.4602
  653MPD2    H1 9669   3.633   2.681  17.438  1.8565  0.1960 -0.9763
  653MPD2    H2 9670   3.766   3.035  17.622 -0.7813  0.6190 -0.4641
  653MPD2    H3 9671   3.713   2.798  17.618  2.9114 -0.2193 -0.3204
  653MPD2     N 9672   3.598   2.784  17.185  0.7723 -0.5060 -0.0202
  653MPD2    H5 9673   3.597   2.831  17.095  1.3204  0.1005  0.2912
  653MPD2    N1 9674   3.751   3.189  17.388  0.6999  0.3076  0.3186
  653MPD2    H7 9675   3.731   3.230  17.298 -1.3051 -0.9777  0.1764
  654TMC3    C1 9676   3.540   2.602  17.040 -0.3433  0.6096  0.8069
  654TMC3    C2 9677   3.547   2.696  16.935 -0.2870  0.1888  0.1557
  654TMC3    C3 9678   3.540   2.643  16.811  1.0502  0.3640  0.3326
  654TMC3    C4 9679   3.543   2.467  17.019 -0.0383  0.4066 -0.1442
  654TMC3    C5 9680   3.556   2.417  16.893  0.5592 -0.1381 -0.0116
  654TMC3    C6 9681   3.540   2.510  16.789  0.3091 -1.0978 -0.4180
  654TMC3     C 9682   3.549   2.657  17.177 -0.3100  0.0249  0.6034
  654TMC3     O 9683   3.528   2.581  17.271 -0.1291 -0.5238 -0.1557
  654TMC3     H 9684   3.563   2.802  16.946 -0.4527  0.2321 -0.0269
  654TMC3    H1 9685   3.524   2.407  17.107 -0.4678  1.4237  0.4560
  654TMC3    H2 9686   3.520   2.473  16.689 -0.2989 -2.3595  0.1669
  654TMC3    C7 9687   3.565   2.275  16.855 -0.2108  0.5420 -0.1529
  654TMC3    C8 9688   3.485   2.730  16.706 -0.6545 -0.1067  0.1854
  654TMC3    O1 9689   3.522   2.245  16.743 -0.0533  0.5569  0.0330
  654TMC3    O2 9690   3.453   2.836  16.748 -0.2044 -0.2899 -0.1192
  655MPD2     C 9691   0.355   3.430  15.262  0.3309  0.1971 -0.9512
  655MPD2    C1 9692   0.253   3.396  15.343 -0.5383  0.7392 -0.2720
  655MPD2    C2 9693   0.239   3.260  15.383 -0.6129 -0.0598 -0.4210
  655MPD2    C3 9694   0.328   3.167  15.326  0.5866  0.3234  0.7589
  655MPD2    C4 9695   0.442   3.203  15.262  0.0290 -0.9357  0.0924
  655MPD2    C5 9696   0.448   3.334  15.217 -0.5893 -0.1006  0.3386
  655MPD2     H 9697   0.156   3.230  15.446  1.1115 -0.6133  1.5773
  655MPD2    H1 9698   0.509   3.124  15.229  0.4808  0.0424 -1.3293
  655MPD2    H2 9699   0.370   3.536  15.241  1.3041  0.1528 -0.5087
  655MPD2    H3 9700   0.523   3.371  15.149 -0.8917  0.0252  0.0699
  655MPD2     N 9701   0.322   3.028  15.351  0.0186  0.6406  0.0076
  655MPD2    H5 9702   0.385   2.979  15.287 -0.3764 -0.7350  0.6690
  655MPD2    N1 9703   0.161   3.487  15.396  0.3343 -0.3606 -1.1908
  655MPD2    H7 9704   0.076   3.445  15.432  2.2146 -1.5530  1.8222
  656TMC3    C1 9705   0.076   3.701  15.465  0.3402  0.0160 -0.2554
  656TMC3    C2 9706   0.014   3.644  15.571  0.2096 -0.7109 -0.4456
  656TMC3    C3 9707   4.671   3.722  15.659 -0.6272 -0.1874 -0.3614
  656TMC3    C4 9708   0.058   3.831  15.436  0.3949 -0.9108 -0.2724
  656TMC3    C5 9709   4.706   3.908  15.516 -0.6202 -0.4672  0.2169
  656TMC3    C6 9710   4.646   3.849  15.625 -0.0187  0.1604  0.4830
  656TMC3     C 9711   0.179   3.627  15.390  0.2702  0.1338  0.3215
  656TMC3     O 9712   0.268   3.693  15.338  0.1812  1.0332 -0.1136
  656TMC3     H 9713   0.038   3.547  15.613 -0.6137  0.3938  2.5207
  656TMC3    H1 9714   0.104   3.855  15.341  0.2536  2.7248  0.5641
  656TMC3    H2 9715   4.585   3.915  15.685 -1.3195 -0.2461 -0.4016
  656TMC3    C7 9716   4.643   4.020  15.456 -1.2083  0.1049  0.3731
  656TMC3    C8 9717   4.609   3.656  15.766 -0.4688  0.3022 -0.3881
  656TMC3    O1 9718   4.687   4.056  15.350 -0.3111  0.0260  0.0498
  656TMC3    O2 9719   4.668   3.558  15.806 -0.5444  0.4368 -0.0341
  657TMC3    C1 9720   3.961   2.290  14.620 -0.2958  0.0578  0.0041
  657TMC3    C2 9721   3.985   2.248  14.749 -0.7337 -0.3644  0.2153
  657TMC3    C3 9722   3.961   2.340  14.846 -0.6187  0.1155 -0.4424
  657TMC3    C4 9723   3.928   2.420  14.585  0.8462  0.2370  0.5201
  657TMC3    C5 9724   3.928   2.512  14.685 -0.4099 -0.6232 -0.2995
  657TMC3    C6 9725   3.935   2.472  14.824 -0.1954 -0.2708  0.8649
  657TMC3     C 9726   3.998   2.202  14.508  0.5818  0.0621  0.5388
  657TMC3     O 9727   4.002   2.249  14.396  0.4597 -0.1281  0.5365
  657TMC3     H 9728   4.030   2.153  14.776 -1.6203 -1.1227 -0.9421
  657TMC3    H1 9729   3.925   2.446  14.480  2.2034  3.3242  1.2322
  657TMC3    H2 9730   3.900   2.537  14.903  1.8026  1.5792  0.2044
  657TMC3    C7 9731   3.863   2.635  14.657  0.3906 -0.4682  0.4826
  657TMC3    C8 9732   3.981   2.315  14.983 -0.8581 -0.7467 -1.5402
  657TMC3    O1 9733   3.770   2.642  14.580 -0.1010 -0.2351  0.1922
  657TMC3    O2 9734   3.972   2.408  15.059  0.3778 -0.2252 -0.1067
  658MPD2     C 9735   0.790   2.714  15.140  0.0472  0.1453  0.0120
  658MPD2    C1 9736   0.671   2.680  15.093 -0.0434 -0.2611  0.1036
  658MPD2    C2 9737   0.651   2.688  14.956 -0.1037 -0.2901 -0.4226
  658MPD2    C3 9738   0.749   2.720  14.862 -0.7140  0.4948 -0.3831
  658MPD2    C4 9739   0.869   2.759  14.913  0.1121  0.1668  0.3555
  658MPD2    C5 9740   0.883   2.758  15.049  0.0502 -0.6643  0.5548
  658MPD2     H 9741   0.551   2.672  14.917 -1.0034  0.0058  1.7619
  658MPD2    H1 9742   0.945   2.800  14.847  0.5295 -1.6007 -0.2690
  658MPD2    H2 9743   0.804   2.721  15.247 -1.3238  1.0474  0.1219
  658MPD2    H3 9744   0.976   2.792  15.094 -1.1172 -1.7431  3.7524
  658MPD2     N 9745   0.718   2.734  14.726  0.4705  0.2009  0.0154
  658MPD2    H5 9746   0.624   2.709  14.697 -0.6755  0.7745  3.1620
  658MPD2    N1 9747   0.567   2.659  15.190 -0.4436  0.2609  0.0868
  658MPD2    H7 9748   0.588   2.660  15.290 -0.6819  1.3715  0.1319
  659TMC3    C1 9749   0.347   2.643  15.287 -0.5680 -0.9672 -0.0306
  659TMC3    C2 9750   0.356   2.762  15.358  0.3374  0.3692  0.3463
  659TMC3    C3 9751   0.238   2.811  15.406  0.7671  0.0307  0.0156
  659TMC3    C4 9752   0.224   2.588  15.253 -0.1972 -1.1734  0.4940
  659TMC3    C5 9753   0.110   2.652  15.295  0.3596  0.1751  0.1026
  659TMC3    C6 9754   0.119   2.768  15.369  0.8560  0.7473 -0.5887
  659TMC3     C 9755   0.434   2.637  15.171 -0.4976 -0.2645  0.2394
  659TMC3     O 9756   0.367   2.616  15.070  0.6537  0.9959  0.0146
  659TMC3     H 9757   0.452   2.808  15.380  1.9598 -2.8862  0.1167
  659TMC3    H1 9758   0.216   2.496  15.197  1.1858  0.8870 -3.0823
  659TMC3    H2 9759   0.035   2.835  15.379 -2.1994 -2.9088 -1.5174
  659TMC3    C7 9760   0.002   2.650  15.197 -0.0809 -0.4988 -0.5550
  659TMC3    C8 9761   0.224   2.957  15.423 -0.5912 -0.4278 -0.8081
  659TMC3    O1 9762   4.617   2.701  15.221 -0.3802 -0.8331  0.2423
  659TMC3    O2 9763   0.133   2.992  15.498  0.3072 -0.0572 -0.0848
  660MPD2     C 9764   3.199   1.320  12.960 -0.2210  0.2974 -0.0005
  660MPD2    C1 9765   3.099   1.236  12.910  0.2070  0.0929 -0.1518
  660MPD2    C2 9766   3.080   1.119  12.975 -0.0551 -0.3487  0.2735
  660MPD2    C3 9767   3.149   1.085  13.088 -0.4335  0.3748 -0.5227
  660MPD2    C4 9768   3.243   1.176  13.135  0.2267  0.2173  0.1504
  660MPD2    C5 9769   3.270   1.291  13.073 -0.1906 -0.2375 -0.7828
  660MPD2     H 9770   3.005   1.053  12.935  0.2159 -0.7995  0.4988
  660MPD2    H1 9771   3.305   1.151  13.221 -0.5989 -1.2404  0.3146
  660MPD2    H2 9772   3.228   1.412  12.911 -2.3704  1.3319  0.6403
  660MPD2    H3 9773   3.358   1.350  13.093  0.1822 -0.8356 -0.6567
  660MPD2     N 9774   3.142   0.962  13.158 -0.3209 -0.0626  0.1116
  660MPD2    H5 9775   3.223   0.932  13.211 -0.9902  1.9086  2.2581
  660MPD2    N1 9776   3.017   1.287  12.805 -0.2650  0.4413  0.0440
  660MPD2    H7 9777   3.046   1.377  12.768  0.6906 -0.1291 -0.5798
  661TMC3    C1 9778   2.821   1.327  12.684 -0.3880 -0.4998 -0.3083
  661TMC3    C2 9779   2.881   1.384  12.574  0.1863 -1.0828  1.1049
  661TMC3    C3 9780   2.800   1.452  12.485  0.2477  0.0803  1.2407
  661TMC3    C4 9781   2.685   1.320  12.702  0.9095  0.1730  1.0252
  661TMC3    C5 9782   2.607   1.382  12.608 -0.0202 -0.3414 -0.1906
  661TMC3    C6 9783   2.663   1.461  12.510 -1.0700 -0.0923  0.3563
  661TMC3     C 9784   2.896   1.234  12.765  0.0805  0.2129 -0.1570
  661TMC3     O 9785   2.834   1.141  12.816  0.0458  0.5124 -0.2943
  661TMC3     H 9786   2.989   1.397  12.580  0.2066  0.4830 -2.9774
  661TMC3    H1 9787   2.644   1.265  12.786 -1.2179  0.9361  0.4769
  661TMC3    H2 9788   2.603   1.514  12.437  0.0107  1.5020  0.6328
  661TMC3    C7 9789   2.466   1.399  12.635 -0.3143  0.0962  0.3191
  661TMC3    C8 9790   2.853   1.481  12.348  0.5638 -0.5342 -0.1316
  661TMC3    O1 9791   2.433   1.386  12.749  0.0341 -0.2815  0.4545
  661TMC3    O2 9792   2.967   1.442  12.323  0.2490 -0.3610  0.0094
  662MPD2     C 9793   3.312   2.066  17.169  0.7166  0.1062 -0.4484
  662MPD2    C1 9794   3.332   1.983  17.279 -0.4906 -0.2745 -0.3721
  662MPD2    C2 9795   3.357   2.042  17.403 -0.1084  0.1909  0.3527
  662MPD2    C3 9796   3.336   2.181  17.418  1.3012 -0.6623 -0.6962
  662MPD2    C4 9797   3.314   2.261  17.306  0.2396 -0.0705  0.3772
  662MPD2    C5 9798   3.302   2.199  17.183 -0.1666 -0.1560  0.9742
  662MPD2     H 9799   3.374   1.979  17.490 -0.5485 -1.4899 -0.7765
  662MPD2    H1 9800   3.298   2.368  17.310  0.4011 -0.2082  4.1436
  662MPD2    H2 9801   3.305   2.014  17.074  0.7059 -1.9572  0.6746
  662MPD2    H3 9802   3.282   2.255  17.093 -0.3919  0.0458  1.1522
  662MPD2     N 9803   3.337   2.246  17.542  0.5732 -0.8742  0.4380
  662MPD2    H5 9804   3.312   2.344  17.551 -1.5418 -1.2627 -1.2345
  662MPD2    N1 9805   3.329   1.837  17.265 -0.1635  0.7679  0.0013
  662MPD2    H7 9806   3.369   1.791  17.345  1.0638  2.3492  0.2933
  663TMC3    C1 9807   3.296   1.625  17.161 -0.2648 -0.7809  0.3462
  663TMC3    C2 9808   3.399   1.583  17.239 -0.3726  0.0399 -1.1282
  663TMC3    C3 9809   3.407   1.454  17.248 -0.0434 -0.4935  0.8693
  663TMC3    C4 9810   3.211   1.536  17.105 -0.2313  0.1031  0.0200
  663TMC3    C5 9811   3.217   1.404  17.136 -0.0933 -0.2307  0.0463
  663TMC3    C6 9812   3.313   1.359  17.214  0.1560  0.7605  0.3238
  663TMC3     C 9813   3.274   1.767  17.161 -0.3626 -0.1643 -0.0637
  663TMC3     O 9814   3.199   1.816  17.076  0.4615  0.1247  0.9345
  663TMC3     H 9815   3.479   1.654  17.261 -1.9427  1.4289  0.1511
  663TMC3    H1 9816   3.137   1.582  17.041 -1.0594 -2.0289 -0.5860
  663TMC3    H2 9817   3.347   1.256  17.207 -1.7309  0.1825 -0.2144
  663TMC3    C7 9818   3.122   1.324  17.067  0.2232 -0.1244  0.0443
  663TMC3    C8 9819   3.504   1.416  17.350 -0.5386  0.7685 -0.4426
  663TMC3    O1 9820   3.051   1.383  16.988  0.2736  0.1274 -0.0406
  663TMC3    O2 9821   3.584   1.503  17.385  0.0669 -0.2136  0.0341
  664MPD2     C 9822   1.678   4.415  17.334 -0.0892 -0.0065 -0.3829
  664MPD2    C1 9823   1.664   4.551  17.350  0.2952 -0.2370 -0.6583
  664MPD2    C2 9824   1.682   4.606  17.470 -1.1141  0.6364  0.4545
  664MPD2    C3 9825   1.706   4.527  17.584 -0.0642 -0.8589  0.4264
  664MPD2    C4 9826   1.732   4.391  17.568 -0.0645  0.2570 -1.1214
  664MPD2    C5 9827   1.718   4.343  17.443 -0.0908 -0.0555  0.2473
  664MPD2     H 9828   1.654   4.708  17.492 -1.6658  0.9070 -1.5369
  664MPD2    H1 9829   1.772   4.336  17.653  0.8571 -1.8099 -2.9103
  664MPD2    H2 9830   1.675   4.368  17.236  0.6969 -0.9311  0.0511
  664MPD2    H3 9831   1.727   4.235  17.433  2.6158  0.2846 -0.8881
  664MPD2     N 9832   1.703   4.589   0.012  0.1137  0.0464 -0.0512
  664MPD2    H5 9833   1.709   4.689   0.025 -0.2064  0.0003  0.4361
  664MPD2    N1 9834   1.636   4.639  17.250  0.1544 -0.2251  0.0278
  664MPD2    H7 9835   1.625   0.014  17.267 -1.6300 -0.5739  0.9177
  665TMC3    C1 9836   1.672   4.605   0.244 -0.7276 -1.0437 -0.5650
  665TMC3    C2 9837   1.548   4.616   0.293 -0.2582 -0.7179 -0.0837
  665TMC3    C3 9838   1.518   0.014   0.352  0.0219  1.2074 -0.2373
  665TMC3    C4 9839   1.766   4.704   0.242  0.0052 -0.5238 -0.3367
  665TMC3    C5 9840   1.736   0.095   0.317 -0.2970  0.7105  0.4349
  665TMC3    C6 9841   1.613   0.106   0.379  0.5158  0.1722 -0.2744
  665TMC3     C 9842   1.692   4.515   0.131  0.3457 -0.1754  0.2771
  665TMC3     O 9843   1.641   4.405   0.143 -0.9781 -0.4595 -0.0993
  665TMC3     H 9844   1.479   4.536   0.268 -0.3730 -0.3729 -0.8549
  665TMC3    H1 9845   1.865   4.676   0.207 -0.1098 -0.0854 -1.0122
  665TMC3    H2 9846   1.587   0.197   0.432 -1.6729 -0.5915 -0.0492
  665TMC3    C7 9847   1.847   0.187   0.346  0.1809 -0.0745 -0.6823
  665TMC3    C8 9848   1.390   0.020   0.418 -0.1351  0.1093  0.3720
  665TMC3    O1 9849   1.920   0.215   0.253 -0.0545  0.1823  0.5030
  665TMC3    O2 9850   1.399   0.055   0.538 -0.5759 -0.1699  0.0227
  666TMC3    C1 9851   4.358   4.645   9.616  0.0748 -0.1907 -0.0814
  666TMC3    C2 9852   4.392   4.540   9.690  0.7495 -0.4034 -0.2649
  666TMC3    C3 9853   4.470   4.546   9.802 -0.3420 -0.2362  0.3750
  666TMC3    C4 9854   4.407   0.045   9.643 -0.3102 -0.0905  0.5027
  666TMC3    C5 9855   4.479   0.061   9.760  0.4884 -0.1312  0.1483
  666TMC3    C6 9856   4.510   4.672   9.842  0.2751  0.5078 -0.4619
  666TMC3     C 9857   4.266   4.624   9.511  0.4751  0.3929  0.0065
  666TMC3     O 9858   4.258   4.506   9.475  0.1478 -0.0185 -0.1496
  666TMC3     H 9859   4.355   4.439   9.673 -0.2856 -0.1209  0.2631
  666TMC3    H1 9860   4.392   0.131   9.578  0.2342 -1.0380 -0.8632
  666TMC3    H2 9861   4.564   4.692   9.933 -0.1815 -1.7050  0.2908
  666TMC3    C7 9862   4.509   0.189   9.816  0.5411 -0.1734  0.2263
  666TMC3    C8 9863   4.498   4.432   9.889  0.4268 -0.0306  0.1837
  666TMC3    O1 9864   4.527   0.198   9.936 -0.2226 -0.0645 -0.2475
  666TMC3    O2 9865   4.431   4.332   9.880 -0.1727  0.1042 -0.3926
  667MPD2     C 9866   2.287   4.496  14.864  0.0853  0.1316  0.2309
  667MPD2    C1 9867   2.162   4.533  14.917 -0.1841  0.1408 -0.1968
  667MPD2    C2 9868   2.041   4.481  14.866  0.3667  0.2425 -0.6239
  667MPD2    C3 9869   2.051   4.388  14.762  0.4093  0.3926 -0.8734
  667MPD2    C4 9870   2.172   4.340  14.716  0.6154  0.8273 -0.1466
  667MPD2    C5 9871   2.291   4.398  14.765  0.1901  0.2935 -0.0429
  667MPD2     H 9872   1.943   4.517  14.896  0.1122  0.1788 -1.3931
  667MPD2    H1 9873   2.180   4.274  14.631  0.2251 -0.9087  1.1732
  667MPD2    H2 9874   2.385   4.518  14.905  0.9603 -0.5556 -1.4854
  667MPD2    H3 9875   2.383   4.355  14.726  1.0001  1.5562  0.4887
  667MPD2     N 9876   1.942   4.350  14.682 -0.9377  0.3135 -0.0882
  667MPD2    H5 9877   1.958   4.275  14.614 -0.0730  1.4454 -1.1421
  667MPD2    N1 9878   2.160   4.611  15.029 -0.1201 -0.3640 -0.1829
  667MPD2    H7 9879   2.073   4.622  15.079  1.4187 -0.2605  2.4868
  668TMC3    C1 9880   2.235   0.014  15.211 -0.1819 -0.2918 -0.2103
  668TMC3    C2 9881   2.313   0.118  15.249  0.8465  0.3075 -0.4023
  668TMC3    C3 9882   2.309   0.165  15.379  0.0727  0.3818 -0.3519
  668TMC3    C4 9883   2.143   4.678  15.294 -0.1551 -0.2589  0.0668
  668TMC3    C5 9884   2.142   0.001  15.422 -0.6891  0.4705  0.3701
  668TMC3    C6 9885   2.227   0.101  15.471 -0.2441 -0.1983 -0.1436
  668TMC3     C 9886   2.271   4.680  15.086  0.5256 -0.5618  0.8889
  668TMC3     O 9887   2.376   4.711  15.035  0.1956  0.3388 -0.6188
  668TMC3     H 9888   2.382   0.163  15.177  1.5598  2.4933  1.6386
  668TMC3    H1 9889   2.092   4.585  15.274 -1.2710  0.4900 -0.5345
  668TMC3    H2 9890   2.222   0.131  15.575  2.5424 -0.8425  0.1647
  668TMC3    C7 9891   2.054   4.653  15.514  0.4311 -0.3704 -0.2439
  668TMC3    C8 9892   2.380   0.290  15.411  0.4389  0.3297 -0.7752
  668TMC3    O1 9893   2.088   4.639  15.629  0.0556 -0.5106  0.2183
  668TMC3    O2 9894   2.352   0.339  15.519  0.0865  0.1189  0.4161
  669TMC3    C1 9895   0.249   4.582  14.220 -0.0479 -0.6882 -0.0946
  669TMC3    C2 9896   0.144   4.665  14.212  0.1533 -0.6017  0.1638
  669TMC3    C3 9897   0.149   0.048  14.126  0.0891  0.2308 -0.4040
  669TMC3    C4 9898   0.365   4.614  14.158 -0.2498  0.4882  0.6220
  669TMC3    C5 9899   0.368   4.720  14.072  0.7259 -0.1957 -0.9107
  669TMC3    C6 9900   0.260   0.071  14.050 -0.3038  0.2292  0.3665
  669TMC3     C 9901   0.249   4.475  14.315 -0.4061 -0.4303 -0.2109
  669TMC3     O 9902   0.357   4.437  14.365 -0.3150  0.2761  0.3867
  669TMC3     H 9903   0.059   4.642  14.275 -1.8664 -0.1882 -2.4167
  669TMC3    H1 9904   0.454   4.554  14.177  0.8399  1.9651  0.1785
  669TMC3    H2 9905   0.262   0.144  13.970  2.4566  1.1893  1.3008
  669TMC3    C7 9906   0.495   0.052  14.052 -0.2369  0.4166 -1.3254
  669TMC3    C8 9907   0.016   0.095  14.084 -0.1584  0.0636 -0.1989
  669TMC3    O1 9908   0.568   0.064  14.149 -0.5481  0.3688 -0.5067
  669TMC3    O2 9909   4.641   0.037  14.124 -0.1067  0.9746  0.1966
  670MPD2     C 9910   2.922   2.127  13.203 -0.6193 -0.0635 -0.0203
  670MPD2    C1 9911   3.014   2.227  13.233 -0.2426  0.1968  0.1635
  670MPD2    C2 9912   3.037   2.255  13.363 -0.3321 -0.3141  0.5948
  670MPD2    C3 9913   2.972   2.186  13.462  0.2622  0.6761  0.7239
  670MPD2    C4 9914   2.881   2.087  13.435 -0.3986  0.1323 -0.5581
  670MPD2    C5 9915   2.855   2.053  13.304  0.3029  0.3747 -0.4133
  670MPD2     H 9916   3.110   2.326  13.398 -0.5015  0.2802 -0.2600
  670MPD2    H1 9917   2.828   2.033  13.513 -1.7008  1.0205 -0.8155
  670MPD2    H2 9918   2.913   2.084  13.104  1.0010  2.7187 -1.3839
  670MPD2    H3 9919   2.785   1.972  13.289 -1.4733  1.3131  2.8140
  670MPD2     N 9920   3.001   2.230  13.596 -0.0406  0.5258 -0.8302
  670MPD2    H5 9921   3.057   2.314  13.606 -0.7759  0.7217  1.7023
  670MPD2    N1 9922   3.084   2.294  13.129  0.0302 -0.1722  0.1846
  670MPD2    H7 9923   3.140   2.373  13.160 -2.0251  1.7077 -0.9142
  671TMC3    C1 9924   2.969   2.234  13.824 -0.4188 -0.1122 -0.4958
  671TMC3    C2 9925   3.109   2.234  13.844  0.1589 -0.0795  0.3353
  671TMC3    C3 9926   3.165   2.170  13.951  0.7702 -0.5812  0.2924
  671TMC3    C4 9927   2.899   2.188  13.932 -0.5303 -0.3634  0.2941
  671TMC3    C5 9928   2.953   2.114  14.033  0.0185  0.3433  0.3831
  671TMC3    C6 9929   3.089   2.099  14.046 -0.4470 -0.4917 -0.0185
  671TMC3     C 9930   2.932   2.168  13.704  0.3005  0.4637  0.7225
  671TMC3     O 9931   2.855   2.076  13.722 -0.2151  0.0536  0.3487
  671TMC3     H 9932   3.177   2.261  13.764 -3.1176 -1.3003 -2.8835
  671TMC3    H1 9933   2.791   2.180  13.929 -0.5308 -0.6236  1.1727
  671TMC3    H2 9934   3.130   2.043  14.130  0.4803 -1.7845 -1.3476
  671TMC3    C7 9935   2.892   1.994  14.053  0.4526  0.6851 -0.8752
  671TMC3    C8 9936   3.312   2.162  13.953 -0.0300 -0.5376  0.5355
  671TMC3    O1 9937   2.966   1.897  14.049 -0.7947  0.3457  0.0792
  671TMC3    O2 9938   3.383   2.249  13.904 -0.3633 -0.4816 -0.0278
  672MPD2     C 9939   4.390   3.072  17.485 -0.2209 -0.0781  0.2845
  672MPD2    C1 9940   4.434   3.049  17.622  0.2698  0.4020 -0.2983
  672MPD2    C2 9941   4.558   3.094  17.659  0.7078  1.3366  0.0529
  672MPD2    C3 9942   4.636   3.172  17.573  0.4841 -0.0753  0.4209
  672MPD2    C4 9943   4.577   3.219  17.453  0.1674 -0.5872  0.1900
  672MPD2    C5 9944   4.461   3.158  17.408 -0.2017 -0.0194  0.2781
  672MPD2     H 9945   4.596   3.062   0.055  1.3696  0.0724 -0.6220
  672MPD2    H1 9946   4.628   3.288  17.388  0.5492 -0.9056  0.1529
  672MPD2    H2 9947   4.299   3.038  17.436 -0.4495 -1.0906  1.4156
  672MPD2    H3 9948   4.425   3.187  17.310  1.9090  2.4804  0.2488
  672MPD2     N 9949   0.051   3.201  17.600  0.0942  0.5243 -0.1075
  672MPD2    H5 9950   0.092   3.270  17.538 -1.9006  0.5009 -1.4414
  672MPD2    N1 9951   4.347   2.967  17.695  0.7234  0.0377  0.3838
  672MPD2    H7 9952   4.262   2.927  17.655 -0.9321  2.3160  1.6170
  673TMC3    C1 9953   4.265   2.834   0.171 -0.2893 -0.5804 -0.1090
  673TMC3    C2 9954   4.310   2.733   0.254 -0.3058 -0.0033  0.5694
  673TMC3    C3 9955   4.228   2.666   0.339 -0.3974  0.2005 -0.1314
  673TMC3    C4 9956   4.143   2.885   0.185 -0.2246  0.3257 -0.2869
  673TMC3    C5 9957   4.059   2.817   0.277  0.4973 -0.0672 -0.5959
  673TMC3    C6 9958   4.101   2.708   0.358  0.3447 -0.0969 -0.6025
  673TMC3     C 9959   4.363   2.931   0.127 -0.6449 -0.1424  0.8951
  673TMC3     O 9960   4.455   2.954   0.203 -0.1735 -0.3865 -0.4214
  673TMC3     H 9961   4.413   2.701   0.242 -1.0345 -1.3870 -1.9409
  673TMC3    H1 9962   4.102   2.958   0.116 -0.0165  0.0635 -0.6906
  673TMC3    H2 9963   4.040   2.662   0.434  1.2378 -0.1695  0.0765
  673TMC3    C7 9964   3.923   2.837   0.274  0.0589  0.3679 -0.0204
  673TMC3    C8 9965   4.273   2.548   0.406  0.0680 -0.4449 -0.0784
  673TMC3    O1 9966   3.848   2.752   0.317 -0.0109 -0.3093  0.0378
  673TMC3    O2 9967   4.185   2.477   0.449  0.0357 -0.0871  0.0356
  674MPD2     C 9968   4.560   1.831   0.664  0.2084  0.1284 -0.4871
  674MPD2    C1 9969   4.450   1.857   0.585  0.1828  0.4663  0.6967
  674MPD2    C2 9970   4.327   1.897   0.642  0.1730  0.9375 -0.0993
  674MPD2    C3 9971   4.319   1.916   0.779 -0.2589 -0.1282  0.2295
  674MPD2    C4 9972   4.432   1.892   0.853 -0.5265 -0.8630 -0.2268
  674MPD2    C5 9973   4.546   1.855   0.804 -0.5116  0.0277 -0.0561
  674MPD2     H 9974   4.233   1.914   0.590 -1.3240 -1.0372  1.9343
  674MPD2    H1 9975   4.434   1.909   0.960  0.0631 -0.7118 -0.2576
  674MPD2    H2 9976   4.661   1.814   0.629  0.4922 -1.0853  0.9053
  674MPD2    H3 9977   4.634   1.844   0.866 -0.3811  1.5974  0.0266
  674MPD2     N 9978   4.191   1.945   0.828  0.8110  0.2300  0.0644
  674MPD2    H5 9979   4.119   1.970   0.761 -0.7030 -2.0004  0.8914
  674MPD2    N1 9980   4.454   1.841   0.448  0.4767 -0.2813 -0.0137
  674MPD2    H7 9981   4.363   1.851   0.404  1.0581 -1.0286 -1.3993
  675TMC3    C1 9982   4.528   1.823   0.230  0.8038  0.4792 -0.2152
  675TMC3    C2 9983   4.400   1.771   0.195  0.2212  0.4499 -0.3528
  675TMC3    C3 9984   4.358   1.788   0.063 -0.1747 -0.1470  0.1303
  675TMC3    C4 9985   4.607   1.890   0.145  0.2430 -0.8272  0.1108
  675TMC3    C5 9986   4.550   1.912   0.015 -0.4006  0.6223  0.5222
  675TMC3    C6 9987   4.432   1.854  17.671  0.5664 -0.9308  0.3847
  675TMC3     C 9988   4.567   1.819   0.369  0.9169 -1.5189 -0.5204
  675TMC3     O 9989   4.685   1.800   0.400 -0.1201  0.1017 -0.1170
  675TMC3     H 9990   4.343   1.705   0.259  0.7094  0.4358  0.0684
  675TMC3    H1 9991   4.712   1.893   0.171  0.1344  2.8563  0.0415
  675TMC3    H2 9992   4.377   1.883  17.582  0.9281  0.7584  0.7059
  675TMC3    C7 9993   4.605   2.020  17.627  0.1162  0.2467 -0.3800
  675TMC3    C8 9994   4.237   1.723   0.027  0.5624 -0.6302 -0.7681
  675TMC3    O1 9995   4.548   2.055  17.525 -0.2538 -0.2180  0.6658
  675TMC3    O2 9996   4.235   1.662  17.620  0.2646  0.1584  0.5109
  676MPD2     C 9997   0.496   1.004  11.327 -0.8099 -0.5803  0.3784
  676MPD2    C1 9998   0.514   0.901  11.410 -0.7862  0.5971 -0.2917
  676MPD2    C2 9999   0.576   0.789  11.364 -0.1632  0.3574 -0.4323
  676MPD2    C310000   0.616   0.780  11.229  0.4888  0.0267 -0.1600
  676MPD2    C410001   0.606   0.888  11.148  0.1574 -0.4710  0.0129
  676MPD2    C510002   0.543   0.996  11.199  0.2526 -0.3546 -0.2063
  676MPD2     H10003   0.582   0.710  11.438 -1.1713  1.0346  0.3717
  676MPD2    H110004   0.652   0.890  11.049  0.1649  0.4702  0.0297
  676MPD2    H210005   0.448   1.094  11.365  0.1658 -0.0245  0.2999
  676MPD2    H310006   0.542   1.084  11.136 -0.9551  0.8492  1.5035
  676MPD2     N10007   0.689   0.662  11.194  0.3072 -0.4144 -0.1652
  676MPD2    H510008   0.698   0.593  11.267  0.5894  1.1489  1.2512
  676MPD2    N110009   0.452   0.888  11.535  0.3161 -0.6002  0.1236
  676MPD2    H710010   0.474   0.803  11.586  0.9843  0.0275  0.9043
  677TMC3    C110011   0.363   0.924  11.729  0.3415 -0.1009 -0.2676
  677TMC3    C210012   0.341   0.786  11.739 -0.8612 -0.2171 -0.4678
  677TMC3    C310013   0.392   0.723  11.848  0.1396 -0.5044  0.0083
  677TMC3    C410014   0.433   0.989  11.830 -0.6658  0.8615 -0.0988
  677TMC3    C510015   0.472   0.915  11.943 -0.1570  0.2705 -0.2669
  677TMC3    C610016   0.445   0.788  11.955  0.2901  0.4431 -0.3789
  677TMC3     C10017   0.371   0.975  11.604 -0.5209 -0.0395  0.5560
  677TMC3     O10018   0.364   1.098  11.593  0.0383  0.1897 -0.3235
  677TMC3     H10019   0.296   0.727  11.660 -0.3168  1.3988 -1.9825
  677TMC3    H110020   0.442   1.097  11.831  1.5870  0.6579  0.7119
  677TMC3    H210021   0.480   0.735  12.042 -2.9268 -1.9277 -0.5216
  677TMC3    C710022   0.591   0.966  12.014 -0.7470 -0.5062 -0.0059
  677TMC3    C810023   0.500   0.633  11.810  0.7061 -0.2774 -0.0673
  677TMC3    O110024   0.622   0.914  12.121  0.0133  0.3394  0.4197
  677TMC3    O210025   0.543   0.648  11.699 -0.7199  0.1300 -0.0171
  678MPD2     C10026   2.948   0.773   1.534 -0.0635  0.1490  0.1423
  678MPD2    C110027   2.947   0.709   1.407 -0.7162  0.1256 -0.8665
  678MPD2    C210028   2.838   0.736   1.326 -0.3395  0.4663 -0.1994
  678MPD2    C310029   2.731   0.821   1.362  0.4170 -0.3212 -0.3305
  678MPD2    C410030   2.743   0.888   1.481 -0.3102  0.0165 -0.2171
  678MPD2    C510031   2.845   0.859   1.568 -0.3120  0.2143  0.0307
  678MPD2     H10032   2.826   0.677   1.236  0.9125  0.5768 -0.4390
  678MPD2    H110033   2.667   0.957   1.516 -0.1212  0.1196 -0.0102
  678MPD2    H210034   3.028   0.757   1.606 -0.6817  2.6138  1.3818
  678MPD2    H310035   2.850   0.913   1.662 -0.6823  1.2021 -0.5232
  678MPD2     N10036   2.620   0.829   1.283  0.7390 -0.0501  0.6326
  678MPD2    H510037   2.612   0.773   1.198  1.5962 -1.5012  1.5017
  678MPD2    N110038   3.044   0.620   1.361  0.1864  0.6343 -0.5458
  678MPD2    H710039   3.022   0.595   1.265 -0.7968 -3.3809  0.7274
  679TMC3    C110040   3.456   0.402   1.305  0.3558  0.4185 -0.4666
  679TMC3    C210041   3.354   0.444   1.382  0.5741  0.4296 -0.6893
  679TMC3    C310042   3.241   0.500   1.330 -0.3545  0.0421  0.0716
  679TMC3    C410043   3.453   0.425   1.171 -0.3148 -0.3840 -0.4603
  679TMC3    C510044   3.340   0.487   1.122  0.0980  0.5648 -0.2129
  679TMC3    C610045   3.231   0.515   1.196 -0.0943 -0.0582 -0.8671
  679TMC3     C10046   3.557   0.311   1.358  0.5731  0.9218 -0.3023
  679TMC3     O10047   3.645   0.284   1.276 -0.6663  0.0803 -0.0804
  679TMC3     H10048   3.357   0.437   1.490 -0.6368  1.2064 -0.5955
  679TMC3    H110049   3.530   0.391   1.103 -2.7211 -1.0973 -2.8181
  679TMC3    H210050   3.156   0.582   1.156  0.0992  1.4296  1.3180
  679TMC3    C710051   3.338   0.534   0.984 -0.2525  0.2332  0.3984
  679TMC3    C810052   3.158   0.576   1.417  0.3689 -0.3320 -0.1512
  679TMC3    O110053   3.226   0.563   0.937  0.3743  0.5272  0.2284
  679TMC3    O210054   3.194   0.589   1.531  0.0747 -0.2365  0.2576
  680MPD2     C10055   2.973   4.623  13.801 -0.2959 -0.2489  0.8209
  680MPD2    C110056   3.055   4.524  13.751 -0.1651 -0.0095  0.6021
  680MPD2    C210057   3.193   4.525  13.785  0.6123  0.6191  0.2772
  680MPD2    C310058   3.240   4.624  13.874 -0.5236  0.6576 -0.3291
  680MPD2    C410059   3.155   4.722  13.911 -0.0905  0.0555  0.4754
  680MPD2    C510060   3.021   4.720  13.878  0.4299 -0.6328 -0.7491
  680MPD2     H10061   3.258   4.452  13.738  0.0413 -1.0337  2.0768
  680MPD2    H110062   3.188   0.091  13.954 -0.3749  0.4477 -0.1492
  680MPD2    H210063   2.868   4.634  13.774  0.8318  2.3422 -2.5799
  680MPD2    H310064   2.959   0.082  13.900  1.2705 -0.3105  0.3875
  680MPD2     N10065   3.376   4.637  13.914  0.5525 -0.2635 -0.0021
  680MPD2    H510066   3.395   0.004  13.954 -1.0577 -0.8765  2.1952
  680MPD2    N110067   2.998   4.435  13.660  0.3510  0.6035  0.0388
  680MPD2    H710068   2.897   4.425  13.655  0.3801 -0.6798  1.8977
  681TMC3    C110069   2.979   4.249  13.527 -0.0794 -1.3777 -0.5732
  681TMC3    C210070   2.879   4.202  13.615 -0.5586 -0.2022 -0.5067
  681TMC3    C310071   2.832   4.079  13.576 -0.0948 -0.3669 -0.1180
  681TMC3    C410072   3.007   4.197  13.404 -0.4694  0.8362  0.0143
  681TMC3    C510073   2.956   4.076  13.372 -0.2021 -0.2286 -0.3457
  681TMC3    C610074   2.876   4.017  13.460  0.1147 -0.5224 -1.2509
  681TMC3     C10075   3.065   4.353  13.570  0.3402  0.0059  0.0166
  681TMC3     O10076   3.172   4.372  13.514  0.3131  0.1822  0.4047
  681TMC3     H10077   2.860   4.232  13.718 -0.9945 -1.3194 -0.2561
  681TMC3    H110078   3.092   4.234  13.347  1.1528 -0.2894  1.6801
  681TMC3    H210079   2.856   3.911  13.453 -1.3544 -0.2679 -0.9831
  681TMC3    C710080   3.056   3.980  13.329 -0.0648 -0.4499 -0.2059
  681TMC3    C810081   2.761   3.996  13.666  0.1476 -0.5719  0.1857
  681TMC3    O110082   3.104   3.923  13.426  0.5502  0.2914  0.0361
  681TMC3    O210083   2.685   3.920  13.611 -0.5797 -0.1489 -0.1183
  682MPD2     C10084   0.026   1.307  10.564  0.8399  0.1102  0.1325
  682MPD2    C110085   4.694   1.189  10.596 -0.8801  0.6131  0.4091
  682MPD2    C210086   4.619   1.179  10.706 -0.1499  0.6482  0.3853
  682MPD2    C310087   4.608   1.288  10.799  0.2177 -0.7740 -0.8164
  682MPD2    C410088   4.671   1.402  10.766 -0.0206  0.0000  0.2562
  682MPD2    C510089   0.015   1.413  10.653  0.8262 -0.1558 -0.1201
  682MPD2     H10090   4.579   1.079  10.720 -2.2905  1.3837 -0.4465
  682MPD2    H110091   4.667   1.488  10.832 -1.2641 -0.0703  0.2839
  682MPD2    H210092   0.083   1.319  10.473 -1.9619 -1.7365 -1.8702
  682MPD2    H310093   0.067   1.506  10.630 -0.7115  0.3391 -1.5799
  682MPD2     N10094   4.527   1.272  10.922 -0.5207  1.1661 -0.3424
  682MPD2    H510095   4.536   1.337  10.999 -2.3182  0.4369  0.4815
  682MPD2    N110096   4.698   1.077  10.514  0.0614  0.7385  0.1950
  682MPD2    H710097   4.644   0.996  10.541  0.9730 -0.3643 -1.3368
  683TMC3    C110098   4.339   1.276  11.288  0.0979 -0.1345 -0.4066
  683TMC3    C210099   4.239   1.188  11.322  0.3036 -0.5729 -0.7573
  683TMC3    C310100   4.215   1.095  11.225 -0.6522  0.2421  0.2580
  683TMC3    C410101   4.411   1.264  11.169 -0.2662 -0.2982 -0.1277
  683TMC3    C510102   4.385   1.166  11.088 -0.1246  0.2345 -0.6061
  683TMC3    C610103   4.284   1.078  11.109 -0.4472 -0.1477 -0.0374
  683TMC3     C10104   4.396   1.356  11.395  0.5345  0.7190 -0.0405
  683TMC3     O10105   4.466   1.458  11.366  0.1889  0.3509  0.1048
  683TMC3     H10106   4.174   1.195  11.409 -1.0196 -1.1896 -1.6860
  683TMC3    H110107   4.497   1.329  11.162  0.0632 -0.7336 -0.1251
  683TMC3    H210108   4.276   0.996  11.039  0.8968 -1.7430  1.6955
  683TMC3    C710109   4.446   1.164  10.952 -0.5056  0.3814 -0.2223
  683TMC3    C810110   4.099   1.010  11.254  0.5914 -0.4066  0.4000
  683TMC3    O110111   4.410   1.069  10.885  0.3633 -0.2099 -0.2005
  683TMC3    O210112   4.011   1.069  11.317  0.1425 -0.0345  0.0509
  684MPD2     C10113   3.223   0.090  16.512 -0.1667 -0.8133 -0.6748
  684MPD2    C110114   3.128   0.134  16.426  0.8020  0.5332 -0.3752
  684MPD2    C210115   3.073   0.259  16.458 -0.0715 -0.5356  0.0294
  684MPD2    C310116   3.109   0.325  16.577  0.4391  0.3588  0.3120
  684MPD2    C410117   3.198   0.271  16.666  0.2957  0.5078 -0.1409
  684MPD2    C510118   3.259   0.156  16.628 -0.7626  0.3293  0.2049
  684MPD2     H10119   3.023   0.311  16.378 -2.8703  1.7089  3.2221
  684MPD2    H110120   3.233   0.327  16.752 -0.4047  1.2229 -0.3152
  684MPD2    H210121   3.273   4.720  16.498 -0.1285 -1.0376  0.9073
  684MPD2    H310122   3.346   0.123  16.684 -0.6584  2.4616  1.2815
  684MPD2     N10123   3.087   0.469  16.594  0.0130  0.1078 -0.6565
  684MPD2    H510124   3.150   0.511  16.662  0.8280 -0.8275 -0.8331
  684MPD2    N110125   3.110   0.082  16.296  0.2867 -0.5549  0.7059
  684MPD2    H710126   3.047   0.134  16.236  0.0450 -3.1913 -1.3263
  685TMC3    C110127   3.123   4.644  16.123 -0.6320  0.0420 -0.3601
  685TMC3    C210128   3.017   4.700  16.062  0.0094 -0.1787  1.2364
  685TMC3    C310129   3.007   4.676  15.927  0.0166  0.7003 -0.6525
  685TMC3    C410130   3.206   4.555  16.060  0.5051  0.2740  0.3180
  685TMC3    C510131   3.196   4.549  15.926  1.0272  0.2928  0.0282
  685TMC3    C610132   3.102   4.611  15.853 -0.4616  0.2984  0.4994
  685TMC3     C10133   3.156   4.679  16.260 -0.5355  0.2507 -0.1891
  685TMC3     O10134   3.238   4.608  16.315  0.4733 -0.1204 -0.6906
  685TMC3     H10135   2.937   0.018  16.122  0.3721 -0.1091  1.6699
  685TMC3    H110136   3.281   4.499  16.114  1.8409 -0.3833 -2.2018
  685TMC3    H210137   3.106   4.601  15.745 -0.6742  1.3600  0.3937
  685TMC3    C710138   3.330   4.552  15.864  0.4113  0.2961  0.1419
  685TMC3    C810139   2.901   4.724  15.843  0.6566  0.5147  0.4095
  685TMC3    O110140   3.329   4.558  15.741  0.3991 -0.2101 -1.1275
  685TMC3    O210141   2.908   4.709  15.719 -0.1491 -0.2608 -0.1824
  686MPD2     C10142   0.153   0.399  15.522 -0.4270  0.7063 -0.1764
  686MPD2    C110143   0.070   0.288  15.559 -0.3516 -0.7670  0.3285
  686MPD2    C210144   0.102   0.167  15.499 -0.2204  0.1934 -0.1321
  686MPD2    C310145   0.194   0.145  15.399  0.5813 -0.3084  0.4637
  686MPD2    C410146   0.259   0.262  15.357 -0.6061 -0.0815  0.5079
  686MPD2    C510147   0.245   0.386  15.424  0.2484 -0.3614  0.0630
  686MPD2     H10148   0.036   0.082  15.513 -1.2837  1.1675  0.7936
  686MPD2    H110149   0.321   0.268  15.268 -0.5572 -2.7029  0.3550
  686MPD2    H210150   0.134   0.498  15.562  0.9774 -0.2957  3.0347
  686MPD2    H310151   0.295   0.479  15.398 -1.8644  1.1049  1.2455
  686MPD2     N10152   0.211   0.027  15.325  0.2067  0.5866  0.2187
  686MPD2    H510153   0.260   0.039  15.237 -1.6961 -0.3428 -0.9754
  686MPD2    N110154   4.711   0.293  15.673 -0.0773  0.3127  0.1884
  686MPD2    H710155   4.685   0.386  15.706 -2.8018 -0.6473  0.7891
  687TMC3    C110156   0.122   4.581  15.482 -0.0645 -0.2221  0.3744
  687TMC3    C210157   0.002   4.514  15.503 -0.1532  0.8308  0.4777
  687TMC3    C310158   4.699   4.469  15.627 -0.1357 -0.0993 -0.2306
  687TMC3    C410159   0.222   4.592  15.576  0.4080 -0.3263  0.3993
  687TMC3    C510160   0.188   4.565  15.707  0.4163  0.0151 -0.0369
  687TMC3    C610161   0.065   4.500  15.732  0.0677  0.3755 -0.9197
  687TMC3     C10162   0.139   4.637  15.345 -0.1826 -0.2225 -0.4082
  687TMC3     O10163   0.115   4.560  15.256 -0.4849  0.4135  0.0174
  687TMC3     H10164   4.645   4.508  15.432  1.5075 -0.9872 -1.2811
  687TMC3    H110165   0.315   4.641  15.551  0.3375 -0.5255 -0.2327
  687TMC3    H210166   0.038   4.484  15.836  0.2621  0.3700 -0.8694
  687TMC3    C710167   0.259   4.649  15.808  0.6280 -0.4463 -0.0851
  687TMC3    C810168   4.560   4.458  15.659  0.5332  0.3454  0.5434
  687TMC3    O110169   0.303   0.029  15.766  0.0877 -0.6040  0.2957
  687TMC3    O210170   4.521   4.354  15.716  0.2000  0.1577  0.0614
  688MPD2     C10171   3.818   3.983  17.045 -0.2192  0.5728  0.4243
  688MPD2    C110172   3.864   3.851  17.051  0.1878  0.4069  0.6605
  688MPD2    C210173   3.954   3.805  16.965 -0.6892  0.2609  0.2972
  688MPD2    C310174   3.998   3.884  16.859 -0.0325 -0.2299  0.2267
  688MPD2    C410175   3.941   4.007  16.842  1.1115  0.7228 -0.4006
  688MPD2    C510176   3.858   4.062  16.937  0.3348 -0.1959  0.4617
  688MPD2     H10177   3.989   3.703  16.974  0.6524  0.8217  1.5217
  688MPD2    H110178   3.976   4.078  16.767  2.9424 -0.4676 -0.6713
  688MPD2    H210179   3.765   4.028  17.127 -1.0558  0.0357  0.1720
  688MPD2    H310180   3.829   4.165  16.922  3.0933  1.1358  4.3664
  688MPD2     N10181   4.093   3.844  16.763 -0.3466  0.2791  0.5698
  688MPD2    H510182   4.090   3.895  16.675 -3.9147 -0.0029  0.5369
  688MPD2    N110183   3.812   3.771  17.154 -0.0183 -0.8042 -0.0892
  688MPD2    H710184   3.752   3.814  17.223 -1.0078 -0.6774 -1.0185
  689TMC3    C110185   3.822   3.595  17.302  0.3101 -0.1777 -0.1005
  689TMC3    C210186   3.880   3.687  17.392  0.0682 -0.2685  0.7862
  689TMC3    C310187   3.923   3.618  17.513  0.1753 -0.4610  0.7108
  689TMC3    C410188   3.806   3.459  17.317  0.4330  0.4171 -0.3026
  689TMC3    C510189   3.843   3.406  17.438  0.3689 -0.2095 -0.2469
  689TMC3    C610190   3.904   3.485  17.537 -0.5178  0.5819 -0.0929
  689TMC3     C10191   3.839   3.638  17.162 -0.8313  0.0775 -0.2736
  689TMC3     O10192   3.860   3.562  17.070 -0.1126 -0.0067  0.7739
  689TMC3     H10193   3.910   3.789  17.371 -0.7744 -0.6492 -2.2178
  689TMC3    H110194   3.774   3.394  17.237 -1.9126  1.2186 -0.0042
  689TMC3    H210195   3.931   3.446  17.635 -0.9723  1.6110  0.4448
  689TMC3    C710196   3.803   3.269  17.486 -0.4535 -0.4614 -0.0002
  689TMC3    C810197   4.007   3.699  17.600 -0.4167 -0.2785 -0.3907
  689TMC3    O110198   3.855   3.239  17.592 -0.1459 -0.1718  0.2747
  689TMC3    O210199   4.040   3.812  17.567 -0.1633  0.3288  0.3687
  690MPD2     C10200   1.499   0.701  15.286  0.0881  0.0342  0.5555
  690MPD2    C110201   1.372   0.668  15.233 -0.8559 -0.4438 -0.3960
  690MPD2    C210202   1.349   0.695  15.105  0.1385  0.6094 -0.6436
  690MPD2    C310203   1.441   0.760  15.023  0.8036  0.4668 -0.7031
  690MPD2    C410204   1.566   0.792  15.072 -0.5009  0.2276  0.6653
  690MPD2    C510205   1.588   0.769  15.201 -0.1855 -0.7589  0.0309
  690MPD2     H10206   1.249   0.674  15.068 -0.0578 -1.0512  0.8020
  690MPD2    H110207   1.644   0.831  15.008  0.3892 -0.4210  1.3351
  690MPD2    H210208   1.533   0.676  15.386 -0.9847 -0.1391  0.8701
  690MPD2    H310209   1.685   0.793  15.243 -1.1521 -1.4581  2.6723
  690MPD2     N10210   1.402   0.783  14.894 -0.0057  0.3976 -0.2545
  690MPD2    H510211   1.306   0.759  14.870  0.2198  0.7165 -1.5171
  690MPD2    N110212   1.267   0.613  15.309 -0.4833  0.5706 -0.4166
  690MPD2    H710213   1.174   0.628  15.272 -1.3237 -0.3333  1.3028
  691TMC3    C110214   1.186   0.466  15.470 -0.5826  0.4586  0.1891
  691TMC3    C210215   1.059   0.495  15.419  1.3886 -0.2836 -0.8850
  691TMC3    C310216   0.965   0.395  15.421 -0.0930  0.6367 -0.5426
  691TMC3    C410217   1.222   0.353  15.530 -0.5699  0.2286  0.1339
  691TMC3    C510218   1.130   0.251  15.517  0.3126 -0.8238 -0.4687
  691TMC3    C610219   1.004   0.269  15.466 -0.0312  0.6765 -0.2981
  691TMC3     C10220   1.290   0.549  15.428 -0.7272  0.5652  0.0534
  691TMC3     O10221   1.392   0.544  15.498  0.5537  0.1057  0.4404
  691TMC3     H10222   1.040   0.587  15.364  1.9804  0.5175  0.2610
  691TMC3    H110223   1.325   0.332  15.556 -1.0095  1.6860  3.0261
  691TMC3    H210224   0.933   0.188  15.476  1.6467 -0.7687 -0.0591
  691TMC3    C710225   1.178   0.121  15.560  0.9216 -0.5502  0.6488
  691TMC3    C810226   0.827   0.424  15.407 -0.0013  0.0049 -0.2794
  691TMC3    O110227   1.277   0.118  15.630  0.1064 -0.1801 -0.4692
  691TMC3    O210228   0.749   0.333  15.372 -0.3535  0.2175 -0.1304
  692TMC3    C110229   3.089   1.767  15.852  0.3779  0.5313 -1.1781
  692TMC3    C210230   3.214   1.808  15.890  0.2727  0.2056 -0.5516
  692TMC3    C310231   3.300   1.710  15.942 -0.3450  0.3289  0.3961
  692TMC3    C410232   3.060   1.636  15.852 -0.0258  0.0332 -0.1024
  692TMC3    C510233   3.139   1.549  15.910  0.3150 -0.3309 -0.1604
  692TMC3    C610234   3.255   1.585  15.973  0.1796  0.0448 -0.1330
  692TMC3     C10235   2.977   1.861  15.832 -0.3582  0.0137 -0.5234
  692TMC3     O10236   2.869   1.811  15.828 -0.1421 -0.5509 -0.3750
  692TMC3     H10237   3.263   1.890  15.837 -2.0384  1.0532 -1.3688
  692TMC3    H110238   2.961   1.608  15.818 -0.9092 -0.4862  2.8201
  692TMC3    H210239   3.327   1.509  16.004  0.5561  0.7844  0.8385
  692TMC3    C710240   3.119   1.410  15.890 -0.2576 -0.3751  0.6956
  692TMC3    C810241   3.364   1.761  16.057 -0.5890 -0.4779  0.2953
  692TMC3    O110242   3.091   1.377  15.773 -0.0395  0.1537 -0.5139
  692TMC3    O210243   3.425   1.678  16.120 -0.6285  0.2068 -0.0921
  693MPD2     C10244   2.043   3.952  10.175  0.2452  0.6308 -0.3081
  693MPD2    C110245   2.065   3.970  10.307  0.3428 -0.4949  0.4092
  693MPD2    C210246   2.185   3.937  10.362  0.0596  0.3575 -0.5487
  693MPD2    C310247   2.287   3.890  10.282 -0.6375  0.8902  0.6744
  693MPD2    C410248   2.284   3.906  10.147  0.1894  0.0874  0.0187
  693MPD2    C510249   2.153   3.924  10.099  0.1466 -0.9916  0.7743
  693MPD2     H10250   2.198   3.935  10.469 -0.6354 -4.2209 -0.5467
  693MPD2    H110251   2.369   3.890  10.083  0.1670 -2.5363  0.6525
  693MPD2    H210252   1.945   3.973  10.135 -0.2781 -0.7390  0.2573
  693MPD2    H310253   2.143   3.919   9.991 -0.7291 -0.3423  0.8239
  693MPD2     N10254   2.411   3.851  10.347  0.0352  0.8805  0.1512
  693MPD2    H510255   2.495   3.884  10.301  0.4738 -1.6583 -0.8435
  693MPD2    N110256   1.952   4.023  10.375  0.1179 -0.4325  0.3124
  693MPD2    H710257   1.861   4.031  10.330  0.4934  0.9027 -0.2174
  694TMC3    C110258   1.848   4.137  10.554  0.1999  0.0093  0.4039
  694TMC3    C210259   1.741   4.058  10.557 -0.2768  0.0298  0.5497
  694TMC3    C310260   1.645   4.090  10.649  0.3355  1.0741  0.5481
  694TMC3    C410261   1.872   4.242  10.630  0.1411  0.7205 -0.8254
  694TMC3    C510262   1.779   4.267  10.725 -0.3520  0.4648 -0.5312
  694TMC3    C610263   1.662   4.192  10.740 -0.3397  0.6952  0.4162
  694TMC3     C10264   1.968   4.084  10.498  0.2450  0.1005  0.4768
  694TMC3     O10265   2.069   4.106  10.561 -0.0463  0.1630  0.0488
  694TMC3     H10266   1.730   3.963  10.506  0.8100  0.1664  0.0548
  694TMC3    H110267   1.969   4.290  10.629  0.1344  0.7167 -1.4350
  694TMC3    H210268   1.593   4.220  10.819  0.9835 -1.8397  2.4396
  694TMC3    C710269   1.831   4.335  10.840 -0.2828  0.5417 -0.3319
  694TMC3    C810270   1.534   4.002  10.661  0.1126  0.0037  0.7045
  694TMC3    O110271   1.913   4.423  10.820  0.8658 -0.1699 -0.3775
  694TMC3    O210272   1.430   4.061  10.703  0.0404 -0.5482 -0.4970
  695MPD2     C10273   3.373   1.123  13.623 -0.6068  0.1449  0.4918
  695MPD2    C110274   3.325   1.200  13.724 -0.0657  0.2045 -0.1998
  695MPD2    C210275   3.190   1.239  13.724 -0.3648  0.3340 -0.1429
  695MPD2    C310276   3.105   1.193  13.632 -0.4108 -0.8052 -0.1653
  695MPD2    C410277   3.151   1.118  13.524  0.0834  0.3321 -0.2545
  695MPD2    C510278   3.282   1.082  13.520  0.4760  0.3269  1.0003
  695MPD2     H10279   3.153   1.310  13.797 -1.3159 -0.8779  0.5588
  695MPD2    H110280   3.081   1.057  13.468 -0.8422 -0.8615  2.2190
  695MPD2    H210281   3.480   1.105  13.614 -0.5154  0.8952  0.0588
  695MPD2    H310282   3.320   1.017  13.442  0.7846 -0.9306  2.1851
  695MPD2     N10283   2.972   1.237  13.640  0.1429  0.4893  1.0596
  695MPD2    H510284   2.937   1.293  13.717 -1.5276  0.9798 -0.0494
  695MPD2    N110285   3.412   1.251  13.821  0.0585 -0.1144  0.1698
  695MPD2    H710286   3.360   1.298  13.895  0.0164  0.1077 -0.0014
  696TMC3    C110287   2.742   1.267  13.602 -0.0748  0.1631  0.8707
  696TMC3    C210288   2.743   1.317  13.729  0.4078 -0.1224  0.0176
  696TMC3    C310289   2.646   1.406  13.763 -0.1149 -0.7539 -0.3402
  696TMC3    C410290   2.654   1.299  13.511 -0.4375 -1.1278  0.3650
  696TMC3    C510291   2.556   1.388  13.552  0.2610 -0.0183 -0.1287
  696TMC3    C610292   2.543   1.436  13.676 -0.4497 -0.4797  0.3000
  696TMC3     C10293   2.869   1.214  13.547 -0.0028 -0.1920 -0.2207
  696TMC3     O10294   2.867   1.145  13.448 -0.3823  0.8934 -0.6210
  696TMC3     H10295   2.809   1.274  13.805  0.7020  1.8791  0.8881
  696TMC3    H110296   2.679   1.282  13.407  0.4151  0.0415  0.3906
  696TMC3    H210297   2.455   1.495  13.697  1.4971  1.4183  3.0407
  696TMC3    C710298   2.542   1.496  13.457 -0.1216 -0.3476 -0.0724
  696TMC3    C810299   2.691   1.513  13.857 -0.0687  0.5232 -0.2195
  696TMC3    O110300   2.557   1.465  13.343  0.4635 -0.1351 -0.6758
  696TMC3    O210301   2.811   1.541  13.857 -0.2926  0.3319 -0.4606
  697MPD2     C10302   2.772   3.183  15.739 -0.3478  1.1818 -0.2028
  697MPD2    C110303   2.802   3.146  15.608 -0.2454  0.6460 -0.3375
  697MPD2    C210304   2.878   3.231  15.537 -0.0861  0.8000 -0.1717
  697MPD2    C310305   2.937   3.346  15.576  0.0306  0.3348  0.2588
  697MPD2    C410306   2.907   3.382  15.710  0.5022 -0.3313 -0.3018
  697MPD2    C510307   2.829   3.302  15.787  0.8779 -0.4697  0.1324
  697MPD2     H10308   2.899   3.210  15.433 -0.0802  0.3635 -0.0789
  697MPD2    H110309   2.928   3.480  15.752  0.2066 -0.3417 -0.1281
  697MPD2    H210310   2.702   3.127  15.800 -0.5198  1.7151  0.0923
  697MPD2    H310311   2.811   3.331  15.890  0.6798  1.3305 -0.4175
  697MPD2     N10312   3.006   3.428  15.481  0.4995  0.1194 -0.1832
  697MPD2    H510313   3.020   3.403  15.384  0.8622 -1.7343  0.3537
  697MPD2    N110314   2.768   3.027  15.551  0.1199  0.6850 -0.1101
  697MPD2    H710315   2.793   3.023  15.452  0.4603 -1.3215  0.0626
  698TMC3    C110316   3.117   3.622  15.404  0.1644  0.2878  0.2612
  698TMC3    C210317   3.179   3.737  15.433 -0.2918 -0.3381 -0.1842
  698TMC3    C310318   3.218   3.824  15.338 -0.3234  0.5846 -0.2388
  698TMC3    C410319   3.071   3.593  15.277  0.0294  0.0180 -0.3412
  698TMC3    C510320   3.113   3.686  15.179 -0.5194  0.2659  0.2996
  698TMC3    C610321   3.185   3.800  15.208 -0.0955 -0.2492 -0.2072
  698TMC3     C10322   3.064   3.545  15.511 -0.0283 -0.2402 -0.2379
  698TMC3     O10323   3.085   3.590  15.620 -0.2213  0.7151  0.3462
  698TMC3     H10324   3.216   3.743  15.535 -1.6779  0.9455  0.2492
  698TMC3    H110325   3.006   3.512  15.245 -0.5970  1.1419 -1.8665
  698TMC3    H210326   3.203   3.873  15.130 -3.4865 -1.0212 -1.7109
  698TMC3    C710327   3.052   3.665  15.049 -0.3425  0.2585 -0.2343
  698TMC3    C810328   3.251   3.953  15.386 -0.5749  0.3393  0.0298
  698TMC3    O110329   2.944   3.609  15.055  0.2970  0.7014  0.2378
  698TMC3    O210330   3.213   3.963  15.502  0.1603  0.0785  0.6519
  699TMC3    C110331   3.031   0.752  13.195 -0.3405 -0.5954  0.3499
  699TMC3    C210332   3.115   0.711  13.294 -0.6610  1.0712  0.0685
  699TMC3    C310333   3.105   0.585  13.344 -0.2761 -0.7892 -0.7857
  699TMC3    C410334   2.927   0.667  13.149 -0.4092 -0.4401  0.6121
  699TMC3    C510335   2.919   0.539  13.205 -0.0611  0.5268  0.1051
  699TMC3    C610336   3.011   0.493  13.294 -0.2514  0.1180 -0.0436
  699TMC3     C10337   3.027   0.889  13.149  0.2203  0.6083 -1.3175
  699TMC3     O10338   2.917   0.923  13.113 -0.1312  0.0452  0.2134
  699TMC3     H10339   3.166   0.790  13.349  0.4515  0.4079 -0.0136
  699TMC3    H110340   2.855   0.705  13.079 -0.1292  2.3114  1.8301
  699TMC3    H210341   2.987   0.400  13.343 -0.6575  0.3962  0.2901
  699TMC3    C710342   2.795   0.468  13.205 -0.4574 -0.1788  0.0046
  699TMC3    C810343   3.136   0.574  13.482  0.6764 -0.4451  0.5883
  699TMC3    O110344   2.775   0.356  13.248  0.4883  0.2275  0.4681
  699TMC3    O210345   3.073   0.492  13.547  0.5048 -0.0485 -0.1727
  700TMC3    C110346   2.173   3.740  17.165 -0.1391 -0.0988  0.3438
  700TMC3    C210347   2.220   3.619  17.123 -0.3965  0.2083 -0.0596
  700TMC3    C310348   2.317   3.561  17.198 -0.7157 -0.0972  0.4220
  700TMC3    C410349   2.222   3.806  17.278  0.6093  0.5944 -0.5596
  700TMC3    C510350   2.314   3.743  17.358 -0.4058  0.4929  0.7742
  700TMC3    C610351   2.365   3.621  17.311 -0.5130 -0.1251  0.1911
  700TMC3     C10352   2.057   3.793  17.088 -0.0942  0.1913 -0.0051
  700TMC3     O10353   1.986   3.723  17.021  0.2767 -0.4212 -0.2210
  700TMC3     H10354   2.186   3.570  17.032  1.8131  1.5610 -1.6299
  700TMC3    H110355   2.185   3.904  17.308  1.8318  0.2947  1.8620
  700TMC3    H210356   2.449   3.572  17.360 -0.0187  1.7029  1.1803
  700TMC3    C710357   2.374   3.831  17.463 -0.2873  0.6231 -0.2775
  700TMC3    C810358   2.387   3.458  17.127 -0.3699  0.6839 -0.1570
  700TMC3    O110359   2.302   3.926  17.497 -0.0188  0.4011  0.1626
  700TMC3    O210360   2.374   3.460  17.006  0.1406 -0.1179 -0.1685
  701TMC3    C110361   2.057   2.533  15.461 -0.6602 -0.5519 -0.5009
  701TMC3    C210362   2.079   2.467  15.344  0.1499 -0.0555 -0.1044
  701TMC3    C310363   2.166   2.533  15.264  0.4787 -0.7392 -0.3275
  701TMC3    C410364   2.131   2.636  15.508  0.3728 -0.7054  0.8910
  701TMC3    C510365   2.225   2.690  15.425 -0.2103 -0.2109  0.2730
  701TMC3    C610366   2.237   2.640  15.297 -0.6414  0.0730  0.5509
  701TMC3     C10367   1.946   2.485  15.549  0.1018  0.2290 -0.0761
  701TMC3     O10368   1.918   2.558  15.643  0.4075 -0.0070  0.3359
  701TMC3     H10369   2.039   2.371  15.314  3.7352 -1.8982  0.9396
  701TMC3    H110370   2.110   2.663  15.611 -0.6329 -0.7425  0.6941
  701TMC3    H210371   2.315   2.680  15.234 -1.0851  2.7546  1.6918
  701TMC3    C710372   2.264   2.824  15.438  0.4880  0.5503 -0.0539
  701TMC3    C810373   2.169   2.500  15.116  0.3685  0.2324  0.5150
  701TMC3    O110374   2.266   2.886  15.333  0.3331  0.2544 -0.1405
  701TMC3    O210375   2.267   2.540  15.054 -0.0457  0.2679 -0.0495
  702MPD2     C10376   0.975   0.351  10.451  0.5284 -0.1797  0.3085
  702MPD2    C110377   0.954   0.458  10.544 -0.1953  0.2973  0.3179
  702MPD2    C210378   0.983   0.585  10.502 -0.0663  0.5747  0.5534
  702MPD2    C310379   1.030   0.612  10.375  0.1008  0.1604  0.9712
  702MPD2    C410380   1.073   0.511  10.291  0.0993 -0.1570 -0.3248
  702MPD2    C510381   1.029   0.385  10.330  0.1279  0.3802  0.2938
  702MPD2     H10382   0.954   0.664  10.570 -0.9803  1.8306 -1.2811
  702MPD2    H110383   1.111   0.526  10.191  1.0628 -0.4187  0.0020
  702MPD2    H210384   0.960   0.246  10.474 -0.3679 -0.1238 -0.0170
  702MPD2    H310385   1.049   0.303  10.262 -0.0515  1.6800 -1.3230
  702MPD2     N10386   1.039   0.748  10.339 -0.0799  1.4282  0.1148
  702MPD2    H510387   1.005   0.813  10.408 -3.3432 -0.1630  0.0009
  702MPD2    N110388   0.908   0.442  10.676  0.3358  0.0513 -0.1380
  702MPD2    H710389   0.898   0.527  10.731  1.2656 -0.6105  1.0305
  703TMC3    C110390   1.114   0.945  10.211  0.0252 -0.9428 -0.4522
  703TMC3    C210391   1.047   1.028  10.292  0.0399  0.2139  0.4151
  703TMC3    C310392   1.080   1.165  10.294 -0.5316 -0.4744  0.2113
  703TMC3    C410393   1.207   0.994  10.125  0.2308 -0.2950 -0.2730
  703TMC3    C510394   1.237   1.131  10.117  0.1621 -0.1419  0.3159
  703TMC3    C610395   1.173   1.215  10.207  0.6585  0.1206  0.4543
  703TMC3     C10396   1.106   0.795  10.228 -0.4653  0.5440 -0.7984
  703TMC3     O10397   1.165   0.731  10.145  0.1739  0.1886  0.0355
  703TMC3     H10398   0.978   0.981  10.361 -1.4380  0.8801 -0.6162
  703TMC3    H110399   1.237   0.924  10.048  3.6105  1.5460 -0.6235
  703TMC3    H210400   1.193   1.322  10.201  0.6516  0.1140  0.3193
  703TMC3    C710401   1.381   1.155  10.092  0.2347  0.1119 -0.1672
  703TMC3    C810402   1.020   1.263  10.383  0.0667  0.5492  0.4340
  703TMC3    O110403   1.464   1.071  10.123  0.0294  0.3212 -0.5598
  703TMC3    O210404   1.044   1.381  10.359  0.1500 -0.5807  0.1299
  704TMC3    C110405   3.926   3.468  12.908  0.3324 -0.4362 -0.3176
  704TMC3    C210406   4.022   3.477  12.813  0.1992  0.1699  0.3968
  704TMC3    C310407   4.130   3.395  12.811 -0.7230 -0.0982  0.4921
  704TMC3    C410408   3.940   3.388  13.020  0.0524  0.2783  0.2728
  704TMC3    C510409   4.044   3.297  13.014  1.1162  0.1984  0.2738
  704TMC3    C610410   4.140   3.310  12.919  0.8933 -0.0527 -0.3908
  704TMC3     C10411   3.793   3.477  12.853 -0.2934  0.9925 -0.5296
  704TMC3     O10412   3.706   3.502  12.937 -0.2210  0.1408 -0.0618
  704TMC3     H10413   3.993   3.534  12.725 -3.2285  1.6295  2.4547
  704TMC3    H110414   3.858   3.379  13.090 -2.1925 -0.5934 -2.4715
  704TMC3    H210415   4.227   3.246  12.919  0.4233 -0.6888 -0.4393
  704TMC3    C710416   4.010   3.161  13.033 -0.8151 -0.3845  0.1590
  704TMC3    C810417   4.141   3.327  12.680 -0.0998  0.4112 -0.4005
  704TMC3    O110418   4.077   3.080  12.971  0.5187  0.4076 -0.0174
  704TMC3    O210419   4.042   3.282  12.624  0.7687 -0.1945  0.3763
  705MPD2     C10420   3.419   1.215  16.312 -1.0786  0.5839  0.3313
  705MPD2    C110421   3.447   1.351  16.301 -0.1994  0.4129 -0.1356
  705MPD2    C210422   3.395   1.441  16.393  0.2870 -0.6704  0.1792
  705MPD2    C310423   3.301   1.392  16.485  0.1830  0.1380 -0.2557
  705MPD2    C410424   3.264   1.261  16.485 -0.3879 -0.0025 -0.6402
  705MPD2    C510425   3.330   1.173  16.404  0.4828  0.2000 -0.5443
  705MPD2     H10426   3.417   1.547  16.391  1.8328 -0.9717  1.4760
  705MPD2    H110427   3.189   1.224  16.554  2.5127  1.1617  3.1340
  705MPD2    H210428   3.461   1.138  16.247  0.6468  0.4342  1.6195
  705MPD2    H310429   3.294   1.071  16.404 -1.4088  0.8686 -0.7559
  705MPD2     N10430   3.220   1.476  16.572 -0.8800  0.0285  0.0503
  705MPD2    H510431   3.155   1.424  16.629 -0.5929  0.8675  1.1517
  705MPD2    N110432   3.533   1.400  16.207 -0.8631  0.1021  0.4603
  705MPD2    H710433   3.547   1.501  16.199 -1.0675 -0.1769 -3.3324
  706TMC3    C110434   3.841   1.356  15.841 -0.1995 -0.5817 -0.5906
  706TMC3    C210435   3.803   1.475  15.788 -0.5983  0.0845 -0.0175
  706TMC3    C310436   3.705   1.538  15.855  0.5581  0.1265  1.0146
  706TMC3    C410437   3.785   1.309  15.957 -0.5422 -0.2034  0.5069
  706TMC3    C510438   3.692   1.388  16.027  0.1384  0.2160  0.4041
  706TMC3    C610439   3.652   1.508  15.974  0.3400  0.2265  0.4633
  706TMC3     C10440   3.948   1.284  15.773  1.4460  0.0518  0.4092
  706TMC3     O10441   4.012   1.207  15.846 -0.0333  0.7362 -0.0526
  706TMC3     H10442   3.839   1.522  15.697 -2.0508 -0.4585 -0.8724
  706TMC3    H110443   3.826   1.217  15.997  3.0905  0.9813 -0.4843
  706TMC3    H210444   3.579   1.575  16.016 -0.9874 -1.1346  0.3190
  706TMC3    C710445   3.629   1.324  16.139  0.2123  0.1007  0.2352
  706TMC3    C810446   3.680   1.673  15.812 -0.0692  0.6901 -0.0667
  706TMC3    O110447   3.675   1.214  16.176  0.0299 -0.6502  0.3524
  706TMC3    O210448   3.647   1.702  15.700  0.3541  0.2796  0.3508
  707TMC3    C110449   0.148   0.935   0.885 -0.2244  0.2334  0.7607
  707TMC3    C210450   0.146   0.803   0.903  1.2627  0.4153  0.3727
  707TMC3    C310451   0.022   0.737   0.900  1.5749 -0.0230  0.0558
  707TMC3    C410452   0.038   1.009   0.877  0.0963 -0.4274  0.4924
  707TMC3    C510453   4.646   0.947   0.868 -0.9774 -0.4914  1.0701
  707TMC3    C610454   4.628   0.809   0.877 -0.4666 -0.6273  0.3037
  707TMC3     C10455   0.275   0.996   0.909  0.5549  0.0846  0.2911
  707TMC3     O10456   0.345   0.930   0.985  0.3390  0.0216  0.1651
  707TMC3     H10457   0.242   0.754   0.910  1.0358 -0.1161 -0.3439
  707TMC3    H110458   0.045   1.117   0.878 -0.7172 -0.3692  0.1138
  707TMC3    H210459   4.530   0.764   0.883 -1.5880  1.6387 -1.3194
  707TMC3    C710460   4.533   1.024   0.834 -0.0716 -0.0739  0.3265
  707TMC3    C810461   0.023   0.602   0.843 -0.8024 -0.5343  0.2655
  707TMC3    O110462   4.534   1.137   0.873 -0.4343 -0.0744 -0.0171
  707TMC3    O210463   4.665   0.581   0.761  0.0870  0.0350 -0.1089
  708MPD2     C10464   2.018   0.304  13.765 -0.8898 -0.3446 -0.0981
  708MPD2    C110465   1.952   0.192  13.728 -0.0928  0.4992 -0.0620
  708MPD2    C210466   1.955   0.080  13.809  0.4337 -0.9776  0.4981
  708MPD2    C310467   2.029   0.080  13.924 -0.1580 -1.1011 -0.4901
  708MPD2    C410468   2.114   0.190  13.948  0.5659 -0.9012  0.4738
  708MPD2    C510469   2.107   0.304  13.869 -0.5554 -0.1687 -0.9231
  708MPD2     H10470   1.896   4.721  13.772 -0.9444  0.7358 -1.1898
  708MPD2    H110471   2.173   0.198  14.039 -3.1782  0.1776  2.7873
  708MPD2    H210472   2.010   0.390  13.699 -2.8779  0.0175  0.6314
  708MPD2    H310473   2.166   0.392  13.892 -2.7729  1.0821 -0.0620
  708MPD2     N10474   2.020   4.701  14.021 -0.1280 -0.1651 -0.6866
  708MPD2    H510475   2.088   4.706  14.097 -0.9654 -0.9658  0.1192
  708MPD2    N110476   1.870   0.207  13.613 -0.2546 -0.0424 -0.0502
  708MPD2    H710477   1.864   0.304  13.582 -1.6129  0.0338  0.4348
  709TMC3    C110478   1.682   0.156  13.478 -0.1735 -0.6342  0.4455
  709TMC3    C210479   1.621   0.088  13.373 -0.0871 -0.2755 -0.5177
  709TMC3    C310480   1.486   0.107  13.353 -0.2022  0.3384  0.5531
  709TMC3    C410481   1.605   0.240  13.558  0.4502  0.0919 -0.0992
  709TMC3    C510482   1.469   0.255  13.528  0.3530 -0.0130  0.2091
  709TMC3    C610483   1.406   0.190  13.427 -0.1858  0.6435  0.5942
  709TMC3     C10484   1.799   0.099  13.543 -0.0752 -0.2812 -0.0033
  709TMC3     O10485   1.816   4.704  13.545 -0.3166 -0.3248  0.0607
  709TMC3     H10486   1.695   0.038  13.311 -1.9057 -0.5982 -2.4470
  709TMC3    H110487   1.652   0.306  13.631 -0.2853 -0.0867  0.5345
  709TMC3    H210488   1.299   0.197  13.415 -0.2963  0.5228  1.5102
  709TMC3    C710489   1.405   0.249  13.655 -0.6624 -0.3277  0.5047
  709TMC3    C810490   1.417   0.063  13.233  0.6669  0.1497  0.1030
  709TMC3    O110491   1.286   0.249  13.662  0.6714 -0.2475  0.0994
  709TMC3    O210492   1.312   0.120  13.207  0.2037 -0.0217 -0.4045
  710TMC3    C110493   3.008   1.061   0.420 -0.5526  0.2439  0.3078
  710TMC3    C210494   3.074   1.111   0.313 -0.4149  0.5281  0.8416
  710TMC3    C310495   3.191   1.050   0.276  0.6755  0.0219 -0.5222
  710TMC3    C410496   3.051   0.951   0.486 -0.3794 -0.0885 -0.4105
  710TMC3    C510497   3.178   0.912   0.455 -0.0036 -0.2832  0.6018
  710TMC3    C610498   3.255   0.959   0.351  1.2674 -1.0224 -0.6703
  710TMC3     C10499   2.904   1.142   0.481  0.1865  0.0688  0.9903
  710TMC3     O10500   2.801   1.076   0.512 -0.3798  0.0076  0.4955
  710TMC3     H10501   3.031   1.190   0.253 -0.5144  0.6174  1.0338
  710TMC3    H110502   2.995   0.911   0.570  3.2410 -1.6362  1.2549
  710TMC3    H210503   3.345   0.904   0.323  1.8467  0.2411 -1.2750
  710TMC3    C710504   3.237   0.840   0.564  0.0299 -0.1198 -0.4584
  710TMC3    C810505   3.251   1.096   0.151 -0.2939  0.9716  0.9605
  710TMC3    O110506   3.161   0.764   0.622 -0.0848  0.4768 -0.5167
  710TMC3    O210507   3.168   1.143   0.075 -0.3045 -0.1423 -0.3532
  711TMC3    C110508   2.301   2.115  14.886 -0.5401  0.0117 -0.5252
  711TMC3    C210509   2.323   2.192  14.994 -0.5010 -0.9462 -0.0800
  711TMC3    C310510   2.447   2.250  14.994  0.7792 -0.4682  0.0902
  711TMC3    C410511   2.403   2.085  14.795  0.5526 -0.2171 -0.0745
  711TMC3    C510512   2.527   2.142  14.803 -0.5543 -0.4339  0.0484
  711TMC3    C610513   2.549   2.231  14.901  0.1025  0.0679  0.3984
  711TMC3     C10514   2.170   2.068  14.842 -0.1285  0.0467 -0.4800
  711TMC3     O10515   2.167   2.012  14.737 -0.0183  0.2629 -0.7347
  711TMC3     H10516   2.254   2.203  15.077  2.0754  3.6893  1.4730
  711TMC3    H110517   2.393   2.016  14.712  1.1253  1.3141 -1.4016
  711TMC3    H210518   2.644   2.285  14.900  0.1817 -0.1053 -1.4936
  711TMC3    C710519   2.638   2.046  14.806  0.6583  0.8045  0.2804
  711TMC3    C810520   2.498   2.276  15.129  0.3398 -0.2893 -0.5096
  711TMC3    O110521   2.746   2.090  14.840  0.1601 -0.0262 -1.1306
  711TMC3    O210522   2.418   2.287  15.220 -0.0842  0.1693 -0.0488
  712MPD2     C10523   3.140   3.926  14.041  0.0014 -0.7981 -0.4398
  712MPD2    C110524   3.136   3.913  13.905  0.3183  0.0358  0.0859
  712MPD2    C210525   3.202   3.997  13.823  0.2645  0.5448 -0.6423
  712MPD2    C310526   3.265   4.110  13.875 -0.1302 -0.6024 -0.2718
  712MPD2    C410527   3.251   4.135  14.007 -0.8703  0.3675  0.1892
  712MPD2    C510528   3.201   4.037  14.084  0.0924 -0.0833  0.7100
  712MPD2     H10529   3.192   3.974  13.717  1.3962 -0.5563 -0.5105
  712MPD2    H110530   3.302   4.213  14.063 -0.3963 -0.6931  1.2389
  712MPD2    H210531   3.116   3.846  14.109  0.7377  0.2126  1.0107
  712MPD2    H310532   3.217   4.053  14.190  1.3313 -1.0405  0.6717
  712MPD2     N10533   3.343   4.199  13.806  0.2833  0.1148  0.3968
  712MPD2    H510534   3.385   4.278  13.854  1.1009 -0.0630 -0.0247
  712MPD2    N110535   3.077   3.797  13.849 -0.5303 -0.1435 -0.0269
  712MPD2    H710536   3.099   3.776  13.752  0.9699  1.9689 -0.1447
  713TMC3    C110537   3.506   4.260  13.652 -0.0010 -0.5171 -0.3621
  713TMC3    C210538   3.617   4.224  13.729  0.1337 -0.2078 -0.7274
  713TMC3    C310539   3.739   4.283  13.694  0.6479  0.3226  0.0298
  713TMC3    C410540   3.517   4.316  13.527 -0.4892  0.6061 -0.3162
  713TMC3    C510541   3.641   4.358  13.491  0.3312  0.0236  0.2068
  713TMC3    C610542   3.746   4.360  13.578 -0.3628  0.2344 -0.2601
  713TMC3     C10543   3.383   4.183  13.671  0.6667  0.0382  0.0849
  713TMC3     O10544   3.346   4.102  13.589 -0.1815  0.0165  0.6038
  713TMC3     H10545   3.607   4.169  13.822 -0.1812 -0.7024 -1.0596
  713TMC3    H110546   3.424   4.341  13.477 -0.4808  0.3275 -0.4706
  713TMC3    H210547   3.834   4.412  13.541 -0.8262 -0.9581 -3.0032
  713TMC3    C710548   3.662   4.381  13.354  0.6701 -0.6350 -0.7245
  713TMC3    C810549   3.849   4.194  13.698 -0.5060  0.4505  0.1239
  713TMC3    O110550   3.776   4.411  13.327  0.1382  0.0539  0.3810
  713TMC3    O210551   3.956   4.224  13.640  0.4033  0.4732  0.0936
  714MPD2     C10552   2.157   2.679   1.613  1.3067 -0.3895  0.6872
  714MPD2    C110553   2.155   2.566   1.538 -0.7572 -0.0530 -0.6104
  714MPD2    C210554   2.039   2.553   1.463  0.5079 -0.0310  0.2854
  714MPD2    C310555   1.935   2.641   1.458  0.6263 -0.4552 -0.2328
  714MPD2    C410556   1.940   2.746   1.546 -0.1116 -0.5344  0.4846
  714MPD2    C510557   2.049   2.765   1.621  0.1911  0.1240 -0.5171
  714MPD2     H10558   2.025   2.465   1.401 -1.5598  1.1905 -0.9760
  714MPD2    H110559   1.858   2.817   1.542  0.4407 -0.0574 -2.5052
  714MPD2    H210560   2.230   2.688   1.692  0.5964  0.2700  1.2742
  714MPD2    H310561   2.053   2.853   1.684 -0.7954 -0.9744  1.0921
  714MPD2     N10562   1.833   2.630   1.357  0.0374  0.0004  0.3118
  714MPD2    H510563   1.835   2.549   1.296 -1.4456 -1.1169  1.7382
  714MPD2    N110564   2.257   2.469   1.544  0.4861 -0.1546 -0.8425
  714MPD2    H710565   2.341   2.505   1.589  0.3172 -0.4099 -0.3298
  715TMC3    C110566   2.389   2.287   1.467  0.3176  0.6948 -0.6474
  715TMC3    C210567   2.391   2.169   1.399  0.4447 -0.1441  0.1314
  715TMC3    C310568   2.510   2.109   1.387 -0.0442 -0.0926  0.3323
  715TMC3    C410569   2.502   2.352   1.515 -0.4580 -0.6066 -0.2647
  715TMC3    C510570   2.623   2.294   1.482  0.3231 -0.3085 -0.1897
  715TMC3    C610571   2.621   2.167   1.428 -0.5300  0.4524 -0.3164
  715TMC3     C10572   2.256   2.349   1.479  0.2408  0.3865 -0.5769
  715TMC3     O10573   2.166   2.282   1.443  0.3878 -0.1244  0.1549
  715TMC3     H10574   2.301   2.113   1.378  0.1004  0.7134 -0.7027
  715TMC3    H110575   2.499   2.438   1.581 -1.1077 -1.3907  0.7372
  715TMC3    H210576   2.710   2.107   1.425 -0.1039  1.0042  1.0017
  715TMC3    C710577   2.752   2.355   1.498 -0.4897  0.2690 -0.1991
  715TMC3    C810578   2.519   1.986   1.318  0.1226  0.4093 -0.1508
  715TMC3    O110579   2.853   2.293   1.461 -0.4919 -0.7152 -0.4269
  715TMC3    O210580   2.423   1.909   1.326 -0.2061  0.3449  0.1248
  716MPD2     C10581   0.943   4.315  10.555 -0.0537 -0.0900 -0.5987
  716MPD2    C110582   0.855   4.328  10.449 -0.2810 -0.0703 -0.0560
  716MPD2    C210583   0.804   4.214  10.392  0.7029 -0.0596 -0.2431
  716MPD2    C310584   0.853   4.089  10.439 -0.3838  0.2666 -0.7935
  716MPD2    C410585   0.951   4.080  10.540  0.6692 -0.7386  0.6215
  716MPD2    C510586   0.993   4.193  10.601  0.8080 -0.3121  0.5584
  716MPD2     H10587   0.728   4.227  10.315 -0.6079  1.0272  1.2319
  716MPD2    H110588   0.988   3.992  10.592 -4.9036 -1.5884  3.1748
  716MPD2    H210589   0.985   4.410  10.588  0.6561 -0.4167 -0.5584
  716MPD2    H310590   1.069   4.186  10.677  1.4274 -1.6141 -0.1871
  716MPD2     N10591   0.789   3.971  10.381 -0.5845 -0.4744 -0.0297
  716MPD2    H510592   0.722   3.975  10.305 -0.8747  2.5172  0.4198
  716MPD2    N110593   0.822   4.460  10.407 -0.4965  0.0481 -0.2766
  716MPD2    H710594   0.860   4.537  10.460  0.7664 -0.9420  0.2593
  717TMC3    C110595   0.748   3.742  10.349 -0.1215 -0.1658  0.3584
  717TMC3    C210596   0.614   3.755  10.322  0.7897 -0.1210 -0.1411
  717TMC3    C310597   0.546   3.642  10.271  0.0323  0.0249 -0.2830
  717TMC3    C410598   0.811   3.621  10.351  0.0086  0.0612 -0.3447
  717TMC3    C510599   0.739   3.504  10.313 -0.8656  0.2328 -1.0218
  717TMC3    C610600   0.600   3.514  10.277  0.1334  0.6751 -0.5287
  717TMC3     C10601   0.818   3.842  10.425 -0.0143 -0.3568  0.2336
  717TMC3     O10602   0.884   3.797  10.515 -0.3058 -0.1174 -0.0194
  717TMC3     H10603   0.575   3.856  10.317  0.9613 -0.0039  0.9015
  717TMC3    H110604   0.914   3.612  10.383  0.0109  2.8503  0.4187
  717TMC3    H210605   0.546   3.427  10.241 -2.2223  1.9349 -0.0456
  717TMC3    C710606   0.806   3.384  10.267 -0.1266 -1.1499 -0.7139
  717TMC3    C810607   0.431   3.672  10.184  0.8068  0.1841  0.3425
  717TMC3    O110608   0.723   3.302  10.227  0.5290  0.1169 -0.0558
  717TMC3    O210609   0.419   3.786  10.146 -0.1519  0.3863 -0.0102
  718MPD2     C10610   0.767   3.319  12.689  0.3137  0.9587 -0.6228
  718MPD2    C110611   0.675   3.380  12.611  0.1892 -0.4140  0.1313
  718MPD2    C210612   0.548   3.402  12.645 -0.1733  0.9895 -0.2713
  718MPD2    C310613   0.517   3.405  12.780  0.0425 -0.1829  0.6490
  718MPD2    C410614   0.606   3.358  12.872 -0.5283 -0.1063  0.1454
  718MPD2    C510615   0.731   3.316  12.824  0.7671 -0.8231 -0.4208
  718MPD2     H10616   0.474   3.451  12.582 -1.5457 -1.9118 -0.9367
  718MPD2    H110617   0.592   3.360  12.979 -0.0752 -2.8272  0.2375
  718MPD2    H210618   0.864   3.290  12.653  0.3794 -0.8316  0.9808
  718MPD2    H310619   0.812   3.293  12.892  0.3261  0.3695  0.4958
  718MPD2     N10620   0.387   3.460  12.819 -0.4140 -0.2496 -0.5132
  718MPD2    H510621   0.322   3.493  12.747 -0.4315 -1.2167 -0.9355
  718MPD2    N110622   0.703   3.432  12.481  0.2853  0.4576 -0.1825
  718MPD2    H710623   0.632   3.482  12.428  1.6634  1.7124 -0.8538
  719TMC3    C110624   0.805   3.529  12.294 -0.6432 -0.0851 -0.2951
  719TMC3    C210625   0.675   3.534  12.251 -0.8058 -0.4838  0.0437
  719TMC3    C310626   0.632   3.650  12.185 -0.2962  0.0543 -1.3442
  719TMC3    C410627   0.889   3.631  12.263 -0.2704 -0.5537 -0.3995
  719TMC3    C510628   0.839   3.748  12.207  1.0223  0.1748  0.0681
  719TMC3    C610629   0.714   3.762  12.170  0.0156 -0.3803  0.0589
  719TMC3     C10630   0.828   3.448  12.415 -0.0739  0.2238  0.2454
  719TMC3     O10631   0.942   3.418  12.457 -0.1257 -0.0492 -0.1416
  719TMC3     H10632   0.607   3.450  12.261 -0.5992 -0.6669 -0.0938
  719TMC3    H110633   0.988   3.627  12.308  0.6480 -0.2335 -2.4011
  719TMC3    H210634   0.669   3.850  12.127  1.1890 -1.0910 -2.6314
  719TMC3    C710635   0.935   3.835  12.131  0.4039  0.2660  0.0662
  719TMC3    C810636   0.512   3.683  12.258  0.2915  0.0829  1.1735
  719TMC3    O110637   0.888   3.907  12.045 -0.5091 -0.3910 -0.7840
  719TMC3    O210638   0.521   3.622  12.364 -0.1613  0.2258  0.2497
  720MPD2     C10639   3.818   0.288  14.072 -0.2828  0.3336  0.2883
  720MPD2    C110640   3.896   0.363  13.989 -0.1349  0.3901 -0.1452
  720MPD2    C210641   4.017   0.413  14.037 -0.4355  0.5341 -0.3057
  720MPD2    C310642   4.051   0.402  14.169  0.3593  0.1244 -0.9771
  720MPD2    C410643   3.956   0.341  14.253  0.8833 -0.0897  0.0658
  720MPD2    C510644   3.849   0.282  14.200  0.2280 -0.2052  0.6112
  720MPD2     H10645   4.092   0.454  13.970  0.8298 -0.5412  0.4493
  720MPD2    H110646   3.957   0.361  14.359 -0.7252  3.2323 -0.5588
  720MPD2    H210647   3.724   0.240  14.049  0.4733 -0.7997 -0.4145
  720MPD2    H310648   3.764   0.255  14.262 -0.1359  2.4564  1.2876
  720MPD2     N10649   4.175   0.452  14.213 -0.1756 -0.2000  0.0042
  720MPD2    H510650   4.233   0.499  14.144  1.9287 -0.4912  1.5939
  720MPD2    N110651   3.857   0.382  13.850 -0.1556  0.0644 -0.0400
  720MPD2    H710652   3.919   0.447  13.802 -1.8453  1.3185 -0.5387
  721TMC3    C110653   4.356   0.507  14.357 -0.3874 -0.4286 -0.4797
  721TMC3    C210654   4.388   0.527  14.490  0.6390 -0.2327  0.4505
  721TMC3    C310655   4.522   0.556  14.518 -0.5331 -0.0546 -0.4474
  721TMC3    C410656   4.454   0.495  14.260 -0.3236  0.7118  0.2709
  721TMC3    C510657   4.580   0.512  14.290  0.1135  0.2295  1.3057
  721TMC3    C610658   4.616   0.528  14.424 -0.7848  0.3359  0.1761
  721TMC3     C10659   4.216   0.459  14.343 -0.3986  0.4860 -0.2427
  721TMC3     O10660   4.149   0.432  14.444  0.4700  0.3229  0.0387
  721TMC3     H10661   4.313   0.528  14.567 -0.1498  0.7868 -0.3375
  721TMC3    H110662   4.434   0.465  14.158  1.0015  0.2475  0.1445
  721TMC3    H210663   4.721   0.538  14.449  0.0574 -4.2054 -1.3113
  721TMC3    C710664   4.687   0.492  14.197  0.3677  0.2540 -0.1618
  721TMC3    C810665   4.583   0.571  14.654 -0.3754  0.8953 -0.1265
  721TMC3    O110666   4.679   0.555  14.094  0.1137  0.2568 -0.6149
  721TMC3    O210667   4.703   0.555  14.667 -0.0058  0.3534  0.1886
  722MPD2     C10668   2.740   4.023  13.140  0.2454  0.2754  0.9523
  722MPD2    C110669   2.676   4.120  13.069 -0.2756  0.3668  0.0290
  722MPD2    C210670   2.537   4.139  13.083  0.0073 -0.3239 -0.0139
  722MPD2    C310671   2.462   4.063  13.174  0.3464 -0.3680  0.6105
  722MPD2    C410672   2.518   3.955  13.238  0.3367 -0.0747  0.0925
  722MPD2    C510673   2.655   3.932  13.214  0.4512  0.1908 -0.2393
  722MPD2     H10674   2.492   4.218  13.023 -0.4478 -0.1866  0.5041
  722MPD2    H110675   2.467   3.879  13.296 -1.1362  1.1338  0.3687
  722MPD2    H210676   2.847   4.011  13.126 -0.5854 -2.7146 -2.6868
  722MPD2    H310677   2.702   3.845  13.261 -1.0581 -1.1226 -1.1651
  722MPD2     N10678   2.323   4.093  13.186  0.1354 -0.3570  0.3844
  722MPD2    H510679   2.284   4.167  13.129 -0.6838 -1.4629 -0.4951
  722MPD2    N110680   2.741   4.180  12.956  0.1089 -0.1441  0.2209
  722MPD2    H710681   2.681   4.225  12.888 -0.3188 -2.0320 -0.6326
  723TMC3    C110682   2.101   4.027  13.212 -0.6189  0.1755  0.2053
  723TMC3    C210683   2.036   3.912  13.197 -0.4470  0.6447  1.1799
  723TMC3    C310684   1.907   3.904  13.144  0.2155 -0.6775  0.0662
  723TMC3    C410685   2.047   4.146  13.176  0.3101  0.4212  0.1204
  723TMC3    C510686   1.914   4.137  13.130 -0.3876 -0.0922  0.4131
  723TMC3    C610687   1.845   4.023  13.112  0.1435 -0.0154 -0.6193
  723TMC3     C10688   2.231   4.013  13.256  0.0854  0.7235 -0.6969
  723TMC3     O10689   2.256   3.941  13.354 -0.5468 -0.2367 -0.0553
  723TMC3     H10690   2.089   3.821  13.222  0.1369  0.6600  0.0139
  723TMC3    H110691   2.104   4.234  13.202  2.0011 -0.1962 -1.4432
  723TMC3    H210692   1.754   4.018  13.053  0.2830 -1.3144 -0.7192
  723TMC3    C710693   1.854   4.262  13.096  0.5399 -0.3724  0.9965
  723TMC3    C810694   1.885   3.799  13.049  0.0530  0.8199  0.7600
  723TMC3    O110695   1.778   4.263  12.995 -0.0444  0.3921 -0.1101
  723TMC3    O210696   1.817   3.832  12.956 -0.8096  0.5731 -0.9912
  724TMC3    C110697   3.103   2.627  10.363  0.1021  0.0676  0.6299
  724TMC3    C210698   3.042   2.704  10.458  0.4576  0.1654  0.0147
  724TMC3    C310699   2.996   2.823  10.409 -0.7512  0.2789 -0.5824
  724TMC3    C410700   3.073   2.639  10.227  0.3037 -0.1182  0.0887
  724TMC3    C510701   3.006   2.751  10.182 -0.0680 -0.2039  0.3753
  724TMC3    C610702   2.966   2.847  10.276 -1.3636  0.0214  0.7875
  724TMC3     C10703   3.124   2.494  10.411  0.1814  0.8497 -0.3052
  724TMC3     O10704   3.188   2.468  10.514 -0.6806  0.1196 -0.4009
  724TMC3     H10705   3.075   2.684  10.559  0.3064 -1.1816 -0.2090
  724TMC3    H110706   3.110   2.562  10.160 -1.6551 -0.6002 -0.4136
  724TMC3    H210707   2.916   2.936  10.240 -0.7271  0.5103  1.1084
  724TMC3    C710708   2.956   2.746  10.046 -0.1501 -0.0453  0.0440
  724TMC3    C810709   2.971   2.919  10.499 -0.4631 -0.4459  0.2657
  724TMC3    O110710   2.946   2.629  10.005  0.5086 -0.2872 -0.4929
  724TMC3    O210711   2.975   2.887  10.618  0.3740 -0.1411  0.1527
  725TMC3    C110712   4.213   0.887  12.653  0.2110 -0.1744 -0.0703
  725TMC3    C210713   4.111   0.942  12.578 -0.4522  0.7608  0.2109
  725TMC3    C310714   4.065   0.866  12.473 -0.1013  0.1728  0.3353
  725TMC3    C410715   4.270   0.763  12.624  0.2165 -0.3116 -0.2352
  725TMC3    C510716   4.216   0.693  12.520 -0.1355 -0.0038 -0.0765
  725TMC3    C610717   4.114   0.744  12.442  0.6887 -0.4126  0.7424
  725TMC3     C10718   4.273   0.972  12.760 -0.0422  0.3468 -0.0789
  725TMC3     O10719   4.232   1.084  12.784  0.4286  0.0928  0.0308
  725TMC3     H10720   4.048   1.024  12.610 -0.0636  1.2951 -0.4227
  725TMC3    H110721   4.353   0.723  12.682  1.0732  1.8784  0.0547
  725TMC3    H210722   4.079   0.688  12.356 -0.6278  0.7517  0.5064
  725TMC3    C710723   4.270   0.567  12.484  0.1297 -0.3255 -0.6197
  725TMC3    C810724   3.926   0.880  12.435 -0.5256 -0.1809 -0.0674
  725TMC3    O110725   4.261   0.530  12.368  0.4366  0.2933 -0.4161
  725TMC3    O210726   3.865   0.775  12.418  0.4156 -0.1079  1.0064
  726MPD2     C10727   2.378   2.386  11.091  0.3120  0.3430  0.1489
  726MPD2    C110728   2.318   2.408  10.965  0.1833  0.4812 -0.2126
  726MPD2    C210729   2.188   2.369  10.948 -0.0553 -0.1896  0.4990
  726MPD2    C310730   2.115   2.316  11.057 -0.3804 -0.0838 -0.2867
  726MPD2    C410731   2.174   2.288  11.176 -0.2156  0.2100 -0.1491
  726MPD2    C510732   2.310   2.319  11.188  0.6315 -0.2757 -0.1156
  726MPD2     H10733   2.141   2.383  10.851  1.0421 -4.1827 -0.6211
  726MPD2    H110734   2.116   2.247  11.257  1.8589  0.0547  1.2584
  726MPD2    H210735   2.476   2.425  11.116  1.8611 -3.0746 -0.6172
  726MPD2    H310736   2.353   2.316  11.288  0.7417  0.9774 -0.1339
  726MPD2     N10737   1.978   2.260  11.047  0.1220 -0.3409  0.1181
  726MPD2    H510738   1.953   2.200  11.125  0.9000 -0.9605 -0.1025
  726MPD2    N110739   2.384   2.475  10.863 -0.3053  0.3507 -0.2547
  726MPD2    H710740   2.331   2.501  10.781  0.4365  1.9670 -0.2290
  727TMC3    C110741   2.527   2.617  10.757  0.9886 -0.3709  0.4643
  727TMC3    C210742   2.595   2.731  10.786  0.1870  0.3296 -0.4305
  727TMC3    C310743   2.561   2.844  10.729 -0.1936 -0.6360  0.0875
  727TMC3    C410744   2.441   2.608  10.650 -0.5512  0.1221  0.1957
  727TMC3    C510745   2.422   2.728  10.577  0.2841 -0.3500 -0.8814
  727TMC3    C610746   2.476   2.844  10.621  0.6652 -0.0002 -0.2542
  727TMC3     C10747   2.511   2.525  10.865  0.3366 -0.0666 -0.7376
  727TMC3     O10748   2.598   2.538  10.953  0.0414 -0.3697 -0.2859
  727TMC3     H10749   2.663   2.737  10.871 -0.5774  0.7829  0.1464
  727TMC3    H110750   2.383   2.520  10.624 -0.6945 -0.2174  1.6509
  727TMC3    H210751   2.431   2.939  10.593 -1.7149 -1.1542 -0.3412
  727TMC3    C710752   2.340   2.723  10.447 -0.1807  0.3555 -0.5308
  727TMC3    C810753   2.581   2.967  10.804 -0.3092  0.5954 -0.2027
  727TMC3    O110754   2.284   2.612  10.426 -0.9506 -0.6040  0.3709
  727TMC3    O210755   2.614   2.949  10.921  0.2592 -0.0997 -0.4779
  728TMC3    C110756   1.408   0.869  14.675 -0.0740 -0.4941  0.1864
  728TMC3    C210757   1.478   0.885  14.562 -0.3601  0.0503  0.0148
  728TMC3    C310758   1.416   0.952  14.468  0.5083  0.0270  0.2246
  728TMC3    C410759   1.275   0.901  14.691  0.3016  0.6524 -0.9767
  728TMC3    C510760   1.215   0.958  14.584 -0.1355  0.2317  0.3954
  728TMC3    C610761   1.287   0.981  14.470  0.0911  0.6099 -0.3513
  728TMC3     C10762   1.478   0.848  14.796 -0.0831  0.6433  0.4556
  728TMC3     O10763   1.599   0.874  14.800 -0.1730 -0.2844  0.4461
  728TMC3     H10764   1.586   0.870  14.561 -0.0771  1.9349  2.2426
  728TMC3    H110765   1.228   0.904  14.788  0.9985 -1.5150 -0.5715
  728TMC3    H210766   1.232   1.003  14.380 -1.2804  0.0467  0.3585
  728TMC3    C710767   1.127   1.066  14.614  0.0374 -0.3739 -0.7266
  728TMC3    C810768   1.486   1.065  14.403 -0.1628 -0.4153  0.2946
  728TMC3    O110769   1.049   1.053  14.709 -0.0192  0.0965 -0.0800
  728TMC3    O210770   1.416   1.168  14.396  0.4504 -0.5311  0.2605
  729MPD2     C10771   4.203   1.938  16.273  0.1796  0.0503 -0.0925
  729MPD2    C110772   4.292   1.954  16.378  0.0960 -0.0653  0.4163
  729MPD2    C210773   4.254   1.943  16.514  0.7524  0.2074  0.4065
  729MPD2    C310774   4.128   1.895  16.535  0.0134  0.4623 -0.5111
  729MPD2    C410775   4.038   1.886  16.430  0.6947 -0.2410 -0.2714
  729MPD2    C510776   4.070   1.917  16.303 -0.7476  0.3458  0.2804
  729MPD2     H10777   4.325   1.960  16.594  1.2226 -1.8852  0.4233
  729MPD2    H110778   3.937   1.854  16.456  0.7618  0.4772  0.8594
  729MPD2    H210779   4.235   1.959  16.171  1.6815  0.5693  0.4819
  729MPD2    H310780   3.993   1.912  16.227 -0.1281  2.4313 -0.4876
  729MPD2     N10781   4.080   1.879  16.667 -0.2609  0.4151 -0.2886
  729MPD2    H510782   3.979   1.874  16.679 -0.1699  0.2519  0.3853
  729MPD2    N110783   4.409   2.022  16.335 -0.5794  0.1650 -0.6054
  729MPD2    H710784   4.424   2.025  16.235 -0.0008 -1.0347 -0.5594
  730TMC3    C110785   4.071   1.953  16.894 -0.0674 -0.2765  0.1307
  730TMC3    C210786   4.105   1.920  17.025 -0.5140 -0.6167  0.7100
  730TMC3    C310787   4.087   2.025  17.115  1.2458  0.3475  0.3652
  730TMC3    C410788   4.009   2.078  16.856  0.7267  0.9270 -0.2885
  730TMC3    C510789   3.996   2.176  16.945  0.1383 -0.0531  0.7179
  730TMC3    C610790   4.030   2.146  17.079 -0.1221  0.2855 -0.1266
  730TMC3     C10791   4.146   1.885  16.788 -0.7582  0.0391 -0.0666
  730TMC3     O10792   4.265   1.876  16.809 -0.2482  0.2372  0.0111
  730TMC3     H10793   4.156   1.830  17.056  0.6893  0.5957  2.1843
  730TMC3    H110794   3.963   2.088  16.758  1.5310  0.4081 -0.7151
  730TMC3    H210795   4.000   2.214  17.158 -0.4170 -0.9802  0.8434
  730TMC3    C710796   3.964   2.311  16.893 -0.2474  0.3840 -0.3518
  730TMC3    C810797   4.057   1.985  17.249 -0.3085 -1.1348 -0.2501
  730TMC3    O110798   3.947   2.319  16.771 -0.3601  0.0808 -0.4391
  730TMC3    O210799   3.957   1.914  17.261  0.1781 -0.4285 -0.1743
  731MPD2     C10800   4.265   0.108  12.031 -0.2647 -0.5746 -0.3575
  731MPD2    C110801   4.164   0.204  12.053 -0.2623  0.5957 -0.3304
  731MPD2    C210802   4.108   0.229  12.178  0.3999 -0.0672  0.5988
  731MPD2    C310803   4.157   0.158  12.283  0.2666 -0.3178 -0.3669
  731MPD2    C410804   4.244   0.052  12.260  0.2097 -0.0582  0.8605
  731MPD2    C510805   4.307   0.037  12.142  0.0161  0.5597  0.3136
  731MPD2     H10806   4.030   0.305  12.178 -0.0600 -0.5257 -0.7459
  731MPD2    H110807   4.291   0.001  12.343 -0.7582 -2.8433 -0.2899
  731MPD2    H210808   4.328   0.098  11.943  0.8229 -2.3541  0.6138
  731MPD2    H310809   4.386   4.688  12.134  0.8372  1.5172 -0.3808
  731MPD2     N10810   4.112   0.185  12.411  0.5065  0.2725 -0.5768
  731MPD2    H510811   4.126   0.111  12.478  0.0261  0.4476 -0.2749
  731MPD2    N110812   4.122   0.276  11.939  0.5434  0.4616 -0.2662
  731MPD2    H710813   4.183   0.260  11.860 -1.2542  0.4451 -1.6490
  732TMC3    C110814   3.978   0.388  11.804 -0.3043 -0.1903 -0.1973
  732TMC3    C210815   3.856   0.376  11.741 -0.1778  0.1771  0.3443
  732TMC3    C310816   3.856   0.415  11.608  0.6368  0.4500 -0.2783
  732TMC3    C410817   4.092   0.446  11.757  0.2317  0.2344 -0.4806
  732TMC3    C510818   4.078   0.489  11.629 -0.7265 -0.5926  0.3093
  732TMC3    C610819   3.966   0.480  11.552 -0.1872  0.1202 -0.1078
  732TMC3     C10820   3.995   0.315  11.927 -0.1852 -0.6310 -0.3952
  732TMC3     O10821   3.895   0.286  11.993  0.7004  0.2193  0.1297
  732TMC3     H10822   3.783   0.318  11.797 -0.5155  0.4137  0.1534
  732TMC3    H110823   4.172   0.475  11.825  3.0778 -0.4093 -3.5268
  732TMC3    H210824   3.975   0.504  11.447  0.3485  0.5657  0.0396
  732TMC3    C710825   4.204   0.527  11.562 -0.3841 -0.1819  0.4862
  732TMC3    C810826   3.767   0.336  11.523  0.3277  0.2112  0.1786
  732TMC3    O110827   4.213   0.625  11.492  0.3054 -0.2464 -0.3290
  732TMC3    O210828   3.801   0.327  11.405  0.2630  0.5282  0.7299
  733TMC3    C110829   0.021   3.632  13.025  0.4462 -0.2013 -0.2016
  733TMC3    C210830   0.131   3.550  13.037 -0.1737 -0.7242  0.4233
  733TMC3    C310831   0.245   3.577  12.967  0.1699 -0.2159 -0.2093
  733TMC3    C410832   0.022   3.747  12.945 -0.4952 -0.6387 -0.6343
  733TMC3    C510833   0.134   3.758  12.863 -0.3710  0.4008  0.7407
  733TMC3    C610834   0.246   3.677  12.868  0.3341 -0.3826  0.4067
  733TMC3     C10835   4.622   3.608  13.101  0.4217  0.7927  0.1683
  733TMC3     O10836   4.568   3.713  13.137  0.9172  0.6219 -0.4608
  733TMC3     H10837   0.121   3.457  13.092 -0.6998 -1.1138 -0.3256
  733TMC3    H110838   4.664   3.817  12.950 -1.1486 -1.2891 -2.2343
  733TMC3    H210839   0.340   3.697  12.817  0.9663 -0.8799  1.3673
  733TMC3    C710840   0.116   3.833  12.738 -0.4582  0.4215 -0.0295
  733TMC3    C810841   0.343   3.476  12.950  0.4539 -0.6864  0.1138
  733TMC3    O110842   0.028   3.916  12.729  0.3566 -0.2257  0.5448
  733TMC3    O210843   0.384   3.419  13.049 -0.3355 -0.3087 -0.0555
  734MPD2     C10844   2.106   1.020  12.427  0.3827  0.0179  0.7279
  734MPD2    C110845   2.003   0.933  12.391 -0.4711  0.3428  0.4395
  734MPD2    C210846   1.921   0.978  12.291  0.6134 -0.8898 -0.4603
  734MPD2    C310847   1.937   1.094  12.212  0.0771 -0.2455  0.2481
  734MPD2    C410848   2.042   1.176  12.251 -0.6118  0.4968 -0.1288
  734MPD2    C510849   2.124   1.139  12.358 -0.4332 -0.6093  0.0524
  734MPD2     H10850   1.841   0.913  12.257  0.2502 -1.5668  1.7100
  734MPD2    H110851   2.062   1.268  12.197 -0.7820  1.4536  1.4663
  734MPD2    H210852   2.163   0.996  12.517  0.6639  0.0858  0.5662
  734MPD2    H310853   2.201   1.203  12.399 -0.7633 -0.3896  0.3313
  734MPD2     N10854   1.851   1.107  12.097  0.3835  1.0033 -0.2760
  734MPD2    H510855   1.775   1.040  12.094  2.4391 -1.2155 -3.0331
  734MPD2    N110856   1.985   0.809  12.466  0.6465 -0.3649 -0.1775
  734MPD2    H710857   2.067   0.770  12.513  0.2631  0.7627  1.4224
  735TMC3    C110858   1.884   0.595  12.517  0.4517  0.0420  0.1392
  735TMC3    C210859   1.776   0.523  12.480 -0.3562 -0.0188 -0.3623
  735TMC3    C310860   1.790   0.395  12.423 -0.6568 -0.4155 -0.2351
  735TMC3    C410861   2.009   0.537  12.512 -0.2822  0.3524 -0.1779
  735TMC3    C510862   2.019   0.406  12.467 -0.8674 -0.2307 -0.2083
  735TMC3    C610863   1.911   0.332  12.424 -0.0223  0.2249 -1.2485
  735TMC3     C10864   1.864   0.734  12.478  0.4020  0.0251 -0.5021
  735TMC3     O10865   1.756   0.773  12.434  0.6884  0.2829  0.2863
  735TMC3     H10866   1.678   0.569  12.479  0.1563  1.1567  2.5249
  735TMC3    H110867   2.091   0.593  12.554 -1.3479  1.7347  0.0491
  735TMC3    H210868   1.913   0.238  12.370  0.6368  0.0714 -0.9600
  735TMC3    C710869   2.148   0.362  12.420  0.0345  0.5221  0.1387
  735TMC3    C810870   1.710   0.375  12.309 -0.4841 -0.3643 -0.0522
  735TMC3    O110871   2.244   0.437  12.425  0.3028 -0.3271 -0.6221
  735TMC3    O210872   1.683   0.259  12.276 -0.0555  0.0612 -0.2212
  736MPD2     C10873   2.233   0.014  12.363 -0.0052 -0.1699 -0.5215
  736MPD2    C110874   2.244   0.148  12.345  0.5748 -0.0910  0.7170
  736MPD2    C210875   2.357   0.197  12.278 -0.3201  0.6328  0.2612
  736MPD2    C310876   2.458   0.115  12.233  0.8337  0.4366 -0.3258
  736MPD2    C410877   2.443   4.708  12.259 -0.9779 -0.6027 -0.2163
  736MPD2    C510878   2.338   4.661  12.327 -0.3566 -0.0246  0.0662
  736MPD2     H10879   2.366   0.302  12.254 -1.9705  1.4878  3.3997
  736MPD2    H110880   2.523   4.641  12.229 -0.4713 -0.5298  1.0125
  736MPD2    H210881   2.152   4.688  12.414 -1.3314  2.8684  0.3894
  736MPD2    H310882   2.335   4.553  12.337 -0.8362  0.1744  2.1715
  736MPD2     N10883   2.569   0.149  12.158 -0.0728 -0.2418 -0.0515
  736MPD2    H510884   2.635   0.072  12.145  0.4667  0.2872 -0.4631
  736MPD2    N110885   2.143   0.228  12.398  0.4867  0.3054  0.0581
  736MPD2    H710886   2.055   0.192  12.433  1.0945 -3.0289 -1.9028
  737TMC3    C110887   2.701   0.280  12.012  0.2948  0.1283  0.4954
  737TMC3    C210888   2.723   0.399  11.958  0.2887  0.6105 -0.1529
  737TMC3    C310889   2.814   0.416  11.863 -0.5588 -0.7969  0.5369
  737TMC3    C410890   2.763   0.167  11.961  0.1130  0.8430  0.1062
  737TMC3    C510891   2.847   0.187  11.855 -0.0844 -0.3887 -0.3247
  737TMC3    C610892   2.872   0.312  11.799 -0.6385 -0.7683  0.6460
  737TMC3     C10893   2.587   0.267  12.096  0.1841 -0.4881  0.5587
  737TMC3     O10894   2.514   0.365  12.111  0.2756 -0.3594  0.0437
  737TMC3     H10895   2.674   0.485  12.004 -2.4536 -0.1178 -1.6834
  737TMC3    H110896   2.732   0.068  11.994  0.0285  1.6628  2.5487
  737TMC3    H210897   2.933   0.332  11.712 -1.3388  0.5327  0.4600
  737TMC3    C710898   2.890   0.062  11.792 -1.0571 -0.4258 -0.1471
  737TMC3    C810899   2.802   0.545  11.798 -0.2976  0.0715  0.5113
  737TMC3    O110900   2.861   4.674  11.835  0.0986 -0.0123 -0.2968
  737TMC3    O210901   2.783   0.638  11.872 -0.6915 -0.0873 -0.0736
  738MPD2     C10902   3.356   4.232  15.456 -0.1268  0.5464 -0.1517
  738MPD2    C110903   3.406   4.152  15.356 -0.1628 -0.3848  0.0087
  738MPD2    C210904   3.509   4.198  15.277  0.2146 -0.8400 -0.1594
  738MPD2    C310905   3.573   4.318  15.305  0.7163 -0.0946  0.1310
  738MPD2    C410906   3.530   4.391  15.414  0.0125 -0.6543  0.0367
  738MPD2    C510907   3.429   4.341  15.489 -0.0060 -0.5614 -0.0116
  738MPD2     H10908   3.544   4.127  15.203 -0.3216 -0.6947 -0.5544
  738MPD2    H110909   3.585   4.478  15.448  1.4903 -0.7226 -2.1665
  738MPD2    H210910   3.272   4.195  15.514  0.2034 -1.9713 -1.2945
  738MPD2    H310911   3.390   4.396  15.573 -0.3455  1.5004 -1.5096
  738MPD2     N10912   3.669   4.376  15.215  0.5696  0.3149 -0.0143
  738MPD2    H510913   3.722   4.459  15.241  2.4064 -0.4359 -1.3217
  738MPD2    N110914   3.336   4.028  15.311  0.1864 -0.6581 -0.8621
  738MPD2    H710915   3.380   3.975  15.236 -0.3227 -0.3532 -1.3786
  739TMC3    C110916   3.824   4.384  15.027  0.4932  0.0292 -0.9608
  739TMC3    C210917   3.846   4.337  14.897 -0.1556 -0.7211 -0.2270
  739TMC3    C310918   3.941   4.395  14.821  0.5612 -0.5989 -0.7156
  739TMC3    C410919   3.909   4.472  15.083  0.5412 -0.1326 -0.4832
  739TMC3    C510920   4.016   4.515  15.003  0.1475 -0.0096  0.2876
  739TMC3    C610921   4.033   4.477  14.875  0.0895 -0.0154 -0.3006
  739TMC3     C10922   3.716   4.313  15.096  0.0191 -0.0942  1.0290
  739TMC3     O10923   3.662   4.222  15.042 -0.0765  0.4964  0.0767
  739TMC3     H10924   3.790   4.250  14.863 -1.9412 -0.5832  2.3825
  739TMC3    H110925   3.896   4.500  15.187  0.7199  1.4225 -0.8809
  739TMC3    H210926   4.108   4.516  14.807  2.3929 -0.9620  1.6729
  739TMC3    C710927   4.116   4.594  15.077  0.2113  0.1188 -0.0700
  739TMC3    C810928   3.953   4.370  14.676  0.2106 -0.4904 -0.0895
  739TMC3    O110929   4.092   4.645  15.187 -0.2985 -0.0631  0.0720
  739TMC3    O210930   3.853   4.340  14.614  0.4421  0.3114  0.3798
  740TMC3    C110931   3.837   0.847  14.581 -0.4174  0.0327 -0.2262
  740TMC3    C210932   3.895   0.792  14.691  0.6012  0.3637 -0.4406
  740TMC3    C310933   4.025   0.772  14.681  0.4992 -0.9287  0.4086
  740TMC3    C410934   3.914   0.885  14.470 -0.1813  0.2289 -0.0442
  740TMC3    C510935   4.046   0.849  14.462  1.1936  0.1419 -0.4150
  740TMC3    C610936   4.106   0.805  14.577  0.2110  0.0071 -0.8119
  740TMC3     C10937   3.713   0.916  14.599  0.1784  0.6239 -0.0575
  740TMC3     O10938   3.704   1.028  14.548 -0.0804 -0.8076  0.5509
  740TMC3     H10939   3.846   0.796  14.788  0.5688  1.9984 -0.5254
  740TMC3    H110940   3.881   0.945  14.385  1.8866  2.0573  0.4361
  740TMC3    H210941   4.213   0.786  14.573 -0.0761 -1.9988  0.7575
  740TMC3    C710942   4.123   0.863  14.343 -0.0318  0.4707 -0.1000
  740TMC3    C810943   4.089   0.667  14.763 -0.0604 -0.2434  0.0797
  740TMC3    O110944   4.239   0.888  14.360 -0.3814 -0.3289  0.0506
  740TMC3    O210945   4.211   0.657  14.755  0.2274  0.2825  0.0827
  741TMC3    C110946   3.434   0.031  15.116 -0.0373  0.3310  0.5898
  741TMC3    C210947   3.333   4.669  15.086 -0.0338 -0.0881 -0.2964
  741TMC3    C310948   3.212   4.699  15.142 -1.0511 -0.8183 -0.7708
  741TMC3    C410949   3.423   0.141  15.200  0.3212 -0.5196  0.4985
  741TMC3    C510950   3.304   0.162  15.258  0.0314 -0.4341 -0.1879
  741TMC3    C610951   3.196   0.080  15.232  0.1062 -0.3548 -0.0596
  741TMC3     C10952   3.565   4.719  15.070  0.6410 -0.1576  0.2291
  741TMC3     O10953   3.657   0.041  15.139  0.4648  0.1005  0.0288
  741TMC3     H10954   3.335   4.591  15.011 -1.0453 -0.3499 -0.0523
  741TMC3    H110955   3.513   0.200  15.207  1.1217 -1.7452  0.4208
  741TMC3    H210956   3.093   0.105  15.254 -0.0125 -1.3684  0.5143
  741TMC3    C710957   3.278   0.274  15.346 -0.3529  0.3912 -0.1370
  741TMC3    C810958   3.108   4.658  15.057 -0.9490  0.7338  0.1044
  741TMC3    O110959   3.169   0.278  15.400  0.7452 -0.5354 -0.7525
  741TMC3    O210960   3.127   4.675  14.936  0.0977  0.3839  0.1918
  742TMC3    C110961   3.353   3.058  15.509  0.2590  0.3240 -0.0652
  742TMC3    C210962   3.315   3.163  15.431 -0.2694 -0.4232  0.3142
  742TMC3    C310963   3.413   3.214  15.349 -0.6195  0.2461  0.7310
  742TMC3    C410964   3.479   3.012  15.512 -0.3040 -0.3163 -0.0544
  742TMC3    C510965   3.574   3.083  15.445 -0.6545 -0.5495  0.2098
  742TMC3    C610966   3.543   3.182  15.358 -0.2673  0.2546 -0.1259
  742TMC3     C10967   3.247   2.973  15.568  0.2339  0.0363  0.2376
  742TMC3     O10968   3.131   2.982  15.537  0.0631  0.1334 -0.1562
  742TMC3     H10969   3.208   3.165  15.416  0.1141  1.2484 -2.2732
  742TMC3    H110970   3.502   2.914  15.554  3.0190  0.7990  0.6856
  742TMC3    H210971   3.626   3.223  15.302  0.1194 -0.2982  0.0497
  742TMC3    C710972   3.706   3.025  15.418  1.2874 -0.1083  0.0017
  742TMC3    C810973   3.361   3.282  15.236  0.3649  0.3131  0.1630
  742TMC3    O110974   3.755   3.048  15.309  0.0004 -0.1039 -0.7124
  742TMC3    O210975   3.241   3.282  15.217  1.0769 -0.0838  0.3130
  743MPD2     C10976   0.831   0.373   1.526 -0.7029  0.5313 -0.1698
  743MPD2    C110977   0.910   0.293   1.449 -0.1800  0.3953  0.3934
  743MPD2    C210978   1.018   0.243   1.516 -0.4373  0.6610 -0.1294
  743MPD2    C310979   1.049   0.283   1.641  0.0766  0.0669 -0.0405
  743MPD2    C410980   0.978   0.381   1.705 -0.2690  0.2856 -0.7429
  743MPD2    C510981   0.871   0.430   1.641  0.1159 -0.4506  0.0879
  743MPD2     H10982   1.075   0.157   1.483 -0.8463  0.6961 -0.9474
  743MPD2    H110983   1.000   0.423   1.802  3.2303 -0.9432 -1.0342
  743MPD2    H210984   0.740   0.412   1.483 -0.4872  1.6721  0.3939
  743MPD2    H310985   0.809   0.498   1.699  0.1024  0.1936 -0.6715
  743MPD2     N10986   1.165   0.221   1.703  0.0314  0.0197 -0.2610
  743MPD2    H510987   1.220   0.155   1.650 -1.5013 -0.1222 -1.6921
  743MPD2    N110988   0.876   0.260   1.314 -0.1644 -0.5988 -0.8691
  743MPD2    H710989   0.802   0.312   1.268  1.8304  2.7990 -0.2890
  744TMC3    C110990   0.865   0.140   1.106  0.0808 -0.5342  0.1042
  744TMC3    C210991   0.741   0.179   1.090  0.8957 -0.2230 -0.2687
  744TMC3    C310992   0.688   0.187   0.963 -0.3127 -0.4512  0.4278
  744TMC3    C410993   0.946   0.117   1.001 -0.0445  0.1296  0.3136
  744TMC3    C510994   0.892   0.110   0.876 -0.5450  0.3676 -0.0690
  744TMC3    C610995   0.763   0.150   0.846 -1.4843  0.0798  0.4623
  744TMC3     C10996   0.929   0.163   1.239 -0.0268 -0.7190  0.5472
  744TMC3     O10997   1.020   0.086   1.257 -0.4493 -0.0051 -0.2851
  744TMC3     H10998   0.679   0.189   1.178  0.1112 -0.1329 -0.8280
  744TMC3    H110999   1.049   0.086   1.011  0.3129  0.5623 -2.2055
  744TMC3    H211000   0.736   0.176   0.744 -0.7446  0.3940  0.3498
  744TMC3    C711001   0.973   0.064   0.761  0.3375  0.6363 -0.7652
  744TMC3    C811002   0.554   0.241   0.955  0.6649  0.1339 -0.7786
  744TMC3    O111003   1.089   0.041   0.787  1.3182 -0.1250 -1.2738
  744TMC3    O211004   0.505   0.296   1.053  0.1015  0.2097  0.0472
  745TMC3    C111005   3.000   3.573  13.824 -0.4561  0.1964  0.1152
  745TMC3    C211006   3.054   3.456  13.875 -0.3969 -0.1519 -0.0025
  745TMC3    C311007   3.110   3.370  13.784 -0.3441  0.4578  0.2874
  745TMC3    C411008   2.995   3.594  13.690  0.3795  0.0978 -0.2952
  745TMC3    C511009   3.028   3.496  13.608 -0.2827 -0.0276  0.1044
  745TMC3    C611010   3.092   3.386  13.657 -0.4694 -0.8241  1.1699
  745TMC3     C11011   3.012   3.688  13.915  0.0804  0.1301  0.5401
  745TMC3     O11012   2.989   3.668  14.037 -0.3234 -0.3498  0.0302
  745TMC3     H11013   3.069   3.447  13.982  0.5333  2.9476  0.1145
  745TMC3    H111014   2.935   3.676  13.652 -0.6624  0.2212  1.6323
  745TMC3    H211015   3.113   3.308  13.584 -0.2284  0.0853  0.2723
  745TMC3    C711016   3.051   3.527  13.467 -0.0289 -0.2430  0.3004
  745TMC3    C811017   3.204   3.267  13.819  0.1762 -0.6027  0.3553
  745TMC3    O111018   2.973   3.606  13.412 -0.1776 -0.4206  0.0021
  745TMC3    O211019   3.179   3.155  13.794 -0.0806  0.6840 -0.1117
  746TMC3    C111020   0.778   0.493  11.052  0.2894  0.4669  0.7783
  746TMC3    C211021   0.838   0.464  10.926  0.7430  0.0470  0.4528
  746TMC3    C311022   0.833   0.341  10.869  0.6960  0.0986 -0.5139
  746TMC3    C411023   0.699   0.395  11.110 -0.2695 -0.6221  0.1662
  746TMC3    C511024   0.682   0.276  11.035 -0.8830  0.6195 -0.2945
  746TMC3    C611025   0.759   0.240  10.924  0.1100  0.1343 -0.1133
  746TMC3     C11026   0.738   0.630  11.071 -0.2820  0.5586  0.4420
  746TMC3     O11027   0.745   0.700  10.971 -0.0722  0.5198 -0.1345
  746TMC3     H11028   0.897   0.546  10.885  0.3395  0.3245  0.4250
  746TMC3    H111029   0.633   0.422  11.191  1.4766 -0.2035  1.4360
  746TMC3    H211030   0.724   0.160  10.861 -4.1782 -0.0277  2.4962
  746TMC3    C711031   0.583   0.192  11.084 -0.2614  0.2261  0.1997
  746TMC3    C811032   0.879   0.321  10.737 -0.3066 -0.1787 -0.5781
  746TMC3    O111033   0.485   0.243  11.130 -0.2027  0.5587 -0.1143
  746TMC3    O211034   0.893   0.206  10.700 -0.2773  0.3925 -0.2984
  747TMC3    C111035   3.358   0.169  10.861 -0.0897 -0.6449  0.9595
  747TMC3    C211036   3.292   0.095  10.950 -0.3040  0.0186 -0.6401
  747TMC3    C311037   3.323   0.097  11.085  1.0915  0.6501 -0.4136
  747TMC3    C411038   3.461   0.243  10.914  0.3524 -0.3734  0.7401
  747TMC3    C511039   3.500   0.241  11.050  0.2121 -1.0277 -0.4417
  747TMC3    C611040   3.427   0.167  11.136  0.2856  0.0618 -0.7568
  747TMC3     C11041   3.299   0.239  10.749  0.1488  0.4896 -0.6757
  747TMC3     O11042   3.311   0.360  10.742  0.8542 -0.1583 -0.2304
  747TMC3     H11043   3.212   0.033  10.914  0.3230 -0.4352 -1.2639
  747TMC3    H111044   3.521   0.298  10.841  0.7730 -1.2898  0.3918
  747TMC3    H211045   3.455   0.159  11.241 -0.3859  1.6033 -0.4512
  747TMC3    C711046   3.513   0.374  11.100 -0.1352 -0.0197  0.1841
  747TMC3    C811047   3.253   0.004  11.172  0.5006  0.5683 -0.7431
  747TMC3    O111048   3.527   0.381  11.221  0.6494 -0.0993  0.4222
  747TMC3    O211049   3.199   4.633  11.124  0.1496  0.3363 -1.1750
  748MPD2     C11050   0.382   1.095   1.421 -0.5634  0.1506 -0.1765
  748MPD2    C111051   0.440   1.072   1.543 -0.1058 -0.4136 -0.6283
  748MPD2    C211052   0.569   1.123   1.563 -0.7103 -0.4776  0.3133
  748MPD2    C311053   0.632   1.200   1.469  0.5483  0.1749 -0.0358
  748MPD2    C411054   0.572   1.222   1.350 -0.0894  0.4963 -0.0631
  748MPD2    C511055   0.452   1.165   1.324  0.0218  0.2860  0.4104
  748MPD2     H11056   0.623   1.087   1.650  1.9573  1.0891 -0.6929
  748MPD2    H111057   0.623   1.272   1.268 -0.4823 -1.7373 -1.6800
  748MPD2    H211058   0.281   1.058   1.406 -1.4722  2.3826  0.4735
  748MPD2    H311059   0.401   1.178   1.229 -1.1945 -0.6192  0.9464
  748MPD2     N11060   0.767   1.228   1.494  0.4022  0.5655 -0.4327
  748MPD2    H511061   0.800   1.178   1.576  1.6734 -0.1583 -1.3947
  748MPD2    N111062   0.371   1.005   1.648 -0.4890  0.0442  0.1617
  748MPD2    H711063   0.279   0.969   1.629  0.0774 -0.7270 -1.0919
  749TMC3    C111064   0.982   1.306   1.465 -0.3940 -1.2420  0.5919
  749TMC3    C211065   1.026   1.191   1.532 -1.3588 -0.6109 -0.7943
  749TMC3    C311066   1.159   1.164   1.518  0.5674 -0.3204  0.2225
  749TMC3    C411067   1.069   1.376   1.382 -0.7034 -0.4398  0.0021
  749TMC3    C511068   1.205   1.345   1.382  0.4724 -0.5136 -0.5872
  749TMC3    C611069   1.247   1.235   1.459  0.2834  0.5285  0.0522
  749TMC3     C11070   0.850   1.310   1.423  0.0868 -0.2306  0.1037
  749TMC3     O11071   0.820   1.374   1.326  0.5777 -0.5984  0.2858
  749TMC3     H11072   0.968   1.130   1.601  1.4275 -2.5204 -0.1463
  749TMC3    H111073   1.036   1.465   1.331  2.6254  0.3639 -0.7493
  749TMC3    H211074   1.352   1.211   1.473  0.0066 -1.2372 -0.8758
  749TMC3    C711075   1.309   1.436   1.327 -0.5301 -0.0330  1.0277
  749TMC3    C811076   1.223   1.067   1.608  0.2498 -0.1672 -0.5339
  749TMC3    O111077   1.262   1.534   1.271 -0.7450  0.6210 -0.5112
  749TMC3    O211078   1.195   1.068   1.727  0.1482  0.3387 -0.0260
  750MPD2     C11079   1.346   2.287  11.580  0.2253  0.1366  0.5481
  750MPD2    C111080   1.278   2.177  11.627 -0.4051 -0.4699  0.6012
  750MPD2    C211081   1.210   2.111  11.529 -0.4055  0.6028 -0.0786
  750MPD2    C311082   1.222   2.142  11.393  0.4640 -0.8905 -0.3809
  750MPD2    C411083   1.300   2.244  11.353 -0.1859 -0.5781  0.0085
  750MPD2    C511084   1.365   2.323  11.447  0.6351  0.0619 -0.2127
  750MPD2     H11085   1.147   2.029  11.563 -1.2077  1.1406 -0.2718
  750MPD2    H111086   1.304   2.271  11.247  2.2765  1.5261  0.6117
  750MPD2    H211087   1.379   2.358  11.655 -1.6411  1.4673  0.1125
  750MPD2    H311088   1.419   2.411  11.414 -0.5344  0.9340  0.1710
  750MPD2     N11089   1.152   2.065  11.296  0.1489  0.3918 -0.1417
  750MPD2    H511090   1.182   2.071  11.199 -1.0192  4.0230 -0.2578
  750MPD2    N111091   1.281   2.144  11.763  0.5128 -0.1557 -0.3602
  750MPD2    H711092   1.304   2.220  11.826 -0.4516  0.3191 -0.5741
  751TMC3    C111093   1.002   1.894  11.222  0.0803 -0.3849  0.3386
  751TMC3    C211094   0.868   1.845  11.222  0.2759 -0.1527 -0.1114
  751TMC3    C311095   0.841   1.746  11.125 -0.5200 -0.9074  0.1924
  751TMC3    C411096   1.102   1.826  11.155  0.7300 -0.4872 -0.1481
  751TMC3    C511097   1.064   1.733  11.066 -0.2879 -0.9745  0.8673
  751TMC3    C611098   0.938   1.691  11.047 -0.0734 -0.4337 -0.4707
  751TMC3     C11099   1.037   1.986  11.330 -0.1609  0.5496 -0.0952
  751TMC3     O11100   0.981   1.968  11.435  0.5294 -0.4966 -0.7491
  751TMC3     H11101   0.796   1.897  11.285  0.0057  1.1198 -1.4686
  751TMC3    H111102   1.205   1.860  11.162  0.7144 -0.5777  0.6104
  751TMC3    H211103   0.915   1.630  10.960  0.3791  1.2104 -1.7439
  751TMC3    C711104   1.167   1.656  10.994  0.4482 -0.3802  0.7285
  751TMC3    C811105   0.713   1.729  11.085 -0.2275  0.4242 -1.0292
  751TMC3    O111106   1.262   1.711  10.945 -0.4081  0.5096 -0.8029
  751TMC3    O211107   0.696   1.668  10.980 -0.2243  1.3533 -0.5067
  752TMC3    C111108   0.651   2.241  17.051 -0.7089  0.3242  0.1441
  752TMC3    C211109   0.586   2.361  17.049  0.6672 -0.0628 -0.4395
  752TMC3    C311110   0.590   2.431  17.167  0.2782  0.2124  0.3371
  752TMC3    C411111   0.720   2.187  17.154  0.5434 -0.2536 -0.5998
  752TMC3    C511112   0.720   2.260  17.267 -0.9574 -0.4383  0.2499
  752TMC3    C611113   0.642   2.372  17.282  0.5583  0.1289 -0.1394
  752TMC3     C11114   0.640   2.161  16.924 -0.2125 -0.0436 -0.6664
  752TMC3     O11115   0.724   2.070  16.912 -0.2859 -0.6221 -0.0335
  752TMC3     H11116   0.567   2.412  16.955 -0.4164  2.1466  0.9650
  752TMC3    H111117   0.774   2.097  17.128  0.8020 -0.2948  0.0642
  752TMC3    H211118   0.644   2.431  17.373  1.3561 -0.6364  0.3418
  752TMC3    C711119   0.777   2.191  17.379 -0.2335  0.1573  0.1195
  752TMC3    C811120   0.505   2.549  17.172  0.3795 -0.6541 -0.3032
  752TMC3    O111121   0.767   2.068  17.388 -0.6936 -0.4386  0.3314
  752TMC3    O211122   0.533   2.633  17.255  0.8538 -0.0440  0.3571
  753TMC3    C111123   2.028   2.946  13.563  0.2752 -0.0199 -0.0463
  753TMC3    C211124   2.122   2.945  13.665 -0.2394  0.3061  0.2114
  753TMC3    C311125   2.157   2.815  13.707 -0.2021 -0.1077  0.7004
  753TMC3    C411126   1.964   2.833  13.521 -0.1197 -0.0864 -0.3920
  753TMC3    C511127   1.994   2.710  13.575 -0.3260 -0.2783 -0.1436
  753TMC3    C611128   2.100   2.695  13.655  0.1867  0.3549 -0.2705
  753TMC3     C11129   1.968   3.073  13.517 -0.1488 -0.3738  0.3807
  753TMC3     O11130   1.899   3.065  13.416  0.0042  0.0618  0.1508
  753TMC3     H11131   2.183   3.032  13.688 -0.1123 -0.0396  1.1729
  753TMC3    H111132   1.889   2.840  13.444  0.0674  0.7504 -0.4985
  753TMC3    H211133   2.111   2.606  13.715 -2.4061  0.5270  0.4605
  753TMC3    C711134   1.895   2.601  13.556  0.5706  1.0041 -0.1592
  753TMC3    C811135   2.259   2.794  13.809 -0.5164  0.2458  0.0183
  753TMC3    O111136   1.942   2.487  13.573  0.2435  0.3340  0.8779
  753TMC3    O211137   2.319   2.684  13.797  0.1445 -0.2816  0.2336
  754MPD2     C11138   0.697   1.796  13.116  0.4241 -0.0625 -0.6596
  754MPD2    C111139   0.656   1.664  13.082 -0.3885  1.1280  0.5416
  754MPD2    C211140   0.538   1.651  13.016  0.1373  0.9918 -0.0651
  754MPD2    C311141   0.449   1.753  12.990  0.1061 -0.4782  0.3742
  754MPD2    C411142   0.489   1.880  13.033  1.1734 -0.2298 -0.8097
  754MPD2    C511143   0.609   1.900  13.097  0.1849  0.3650  0.5892
  754MPD2     H11144   0.508   1.553  12.979  2.0705 -0.3705  1.9393
  754MPD2    H111145   0.421   1.964  13.032  1.8680  0.3267 -2.3573
  754MPD2    H211146   0.794   1.828  13.152 -0.0281 -0.6108  1.0584
  754MPD2    H311147   0.641   1.998  13.129  1.7185  0.8802 -2.4962
  754MPD2     N11148   0.314   1.737  12.947 -0.1657  0.5736 -0.0143
  754MPD2    H511149   0.255   1.819  12.952 -2.9874 -1.4814  0.6540
  754MPD2    N111150   0.753   1.562  13.110  0.0765  0.2412  0.4380
  754MPD2    H711151   0.845   1.592  13.140 -0.4488  1.8364  0.4475
  755MPD2     C11152   4.501   2.351  13.114 -0.3027 -0.1572 -0.2120
  755MPD2    C111153   4.416   2.248  13.105 -0.2688 -0.7905 -0.1926
  755MPD2    C211154   4.456   2.129  13.055  0.5445 -0.5261  0.0322
  755MPD2    C311155   4.591   2.101  13.036 -0.1566  0.1001 -0.2729
  755MPD2    C411156   4.679   2.207  13.048  0.0996  0.6005 -0.5660
  755MPD2    C511157   4.633   2.334  13.075  0.4873 -0.0647  0.3271
  755MPD2     H11158   4.379   2.056  13.033  1.8932 -1.4573 -1.6607
  755MPD2    H111159   0.060   2.193  13.027 -0.0543 -0.9380 -0.2788
  755MPD2    H211160   4.475   2.454  13.137  2.0578  0.2920  0.5446
  755MPD2    H311161   4.710   2.411  13.083  1.1180 -0.6236 -0.3624
  755MPD2     N11162   4.633   1.974  12.993 -0.2398 -0.1724  0.2545
  755MPD2    H511163   0.005   1.962  12.964  0.1161  2.0530  0.5156
  755MPD2    N111164   4.286   2.261  13.150  0.3509 -0.8466  0.1165
  755MPD2    H711165   4.246   2.172  13.175  1.5405 -2.1185 -2.5875
  756MPD2     C11166   1.567   2.060  10.067 -0.3684  0.3766 -0.4222
  756MPD2    C111167   1.460   2.145  10.039 -0.1377 -0.3236  0.1408
  756MPD2    C211168   1.402   2.131   9.915  0.8928 -0.1496  0.2126
  756MPD2    C311169   1.431   2.037   9.818 -0.0271  0.4791  0.4162
  756MPD2    C411170   1.527   1.945   9.856  0.3647 -1.3260  0.6094
  756MPD2    C511171   1.594   1.967   9.974  0.2086 -0.1185 -0.2566
  756MPD2     H11172   1.331   2.208   9.887  0.9622 -1.0072 -2.3291
  756MPD2    H111173   1.561   1.861   9.796  0.7428 -1.7516  1.4178
  756MPD2    H211174   1.625   2.063  10.159 -1.1813  2.1204  0.0481
  756MPD2    H311175   1.680   1.903   9.989  0.7494  0.4189 -1.1111
  756MPD2     N11176   1.355   2.034   9.699 -0.3445  0.2882 -0.5929
  756MPD2    H511177   1.317   2.124   9.672  1.0957  0.4348 -2.1303
  756MPD2    N111178   1.421   2.252  10.123  0.2419  0.2241 -0.6364
  756MPD2    H711179   1.340   2.305  10.094  0.6675  0.6210 -1.1017
  757MPD2     C11180   0.722   1.561   9.101 -0.5402  0.4001  0.1222
  757MPD2    C111181   0.779   1.524   9.224  0.7227 -0.9368 -0.1549
  757MPD2    C211182   0.899   1.586   9.259 -0.3802 -0.1273  0.5670
  757MPD2    C311183   0.955   1.690   9.182  0.3396 -0.3006 -0.3308
  757MPD2    C411184   0.889   1.728   9.070  0.9249  0.4788 -0.4347
  757MPD2    C511185   0.776   1.664   9.033  0.3148  0.1718 -0.0429
  757MPD2     H11186   0.947   1.555   9.351 -0.3161 -0.1944  0.5106
  757MPD2    H111187   0.934   1.794   8.996 -1.8947 -0.1131 -2.7083
  757MPD2    H211188   0.629   1.515   9.071  0.2135 -0.3933 -0.9818
  757MPD2    H311189   0.732   1.699   8.940 -1.9554 -1.1955  0.4917
  757MPD2     N11190   1.071   1.755   9.228  0.3595 -0.0062 -0.2858
  757MPD2    H511191   1.125   1.703   9.297  0.7368 -0.6419 -1.0621
  757MPD2    N111192   0.714   1.423   9.303 -0.1742  0.2533  0.2908
  757MPD2    H711193   0.643   1.365   9.261  0.2424 -0.6923  0.8934
  758MPD2     C11194   1.094   1.401  15.837 -0.0227  0.3290 -0.2116
  758MPD2    C111195   1.128   1.326  15.949  0.0217 -0.4979  0.2888
  758MPD2    C211196   1.063   1.356  16.069  0.7345  0.2067 -0.3483
  758MPD2    C311197   0.978   1.464  16.073  0.0878 -0.2003 -0.5738
  758MPD2    C411198   0.952   1.534  15.963 -0.8291  0.4406 -0.0938
  758MPD2    C511199   1.006   1.509  15.836 -1.0343 -0.6478 -0.0513
  758MPD2     H11200   1.093   1.297  16.155 -2.2119  0.5974  0.9660
  758MPD2    H111201   0.880   1.615  15.970 -0.9468  0.2083  1.4037
  758MPD2    H211202   1.141   1.365  15.746 -1.3456 -1.1395 -0.3216
  758MPD2    H311203   0.993   1.569  15.746  0.9497 -0.3237 -0.1146
  758MPD2     N11204   0.909   1.504  16.185  0.3649 -0.8021  0.1467
  758MPD2    H511205   0.846   1.583  16.177  0.5884 -0.5520  0.8398
  758MPD2    N111206   1.231   1.230  15.943  0.5531 -0.1297 -0.1563
  758MPD2    H711207   1.279   1.215  15.855 -1.6393 -1.1376 -1.1784
  759MPD2     C11208   4.167   4.289   8.790 -0.5686 -0.0852  0.4682
  759MPD2    C111209   4.147   4.418   8.739 -0.0115 -0.4837  0.1092
  759MPD2    C211210   4.237   4.511   8.777  0.5173 -0.2716 -0.0816
  759MPD2    C311211   4.339   4.478   8.870  0.2931  0.0944  0.2507
  759MPD2    C411212   4.370   4.349   8.901 -0.1977 -0.4840 -0.2580
  759MPD2    C511213   4.270   4.255   8.875 -0.4146  0.2740 -0.1143
  759MPD2     H11214   4.214   4.614   8.755 -1.5968 -0.4052  1.4447
  759MPD2    H111215   4.457   4.324   8.961  0.2576  0.0612 -0.6907
  759MPD2    H211216   4.097   4.212   8.763 -0.0894 -0.3302 -0.0794
  759MPD2    H311217   4.279   4.148   8.892  0.8525  0.7192  2.1141
  759MPD2     N11218   4.413   4.582   8.929 -0.7961 -0.1995 -0.2836
  759MPD2    H511219   4.480   4.552   8.999 -0.8342 -0.2662 -0.2752
  759MPD2    N111220   4.036   4.468   8.664 -0.2222 -0.4620  0.4589
  759MPD2    H711221   4.021   4.567   8.646  1.4606 -0.0703  1.2177
  760MPD2     C11222   3.482   1.923  11.436 -0.6181 -0.2437  0.4007
  760MPD2    C111223   3.602   1.938  11.498 -0.5452  0.2592  1.2658
  760MPD2    C211224   3.634   1.873  11.614  0.1005  0.9340 -0.1493
  760MPD2    C311225   3.530   1.824  11.689  0.0057 -0.7475  0.4781
  760MPD2    C411226   3.405   1.815  11.632 -0.0321 -0.1735 -0.0602
  760MPD2    C511227   3.389   1.849  11.504  0.0786  0.2088 -0.0066
  760MPD2     H11228   3.732   1.877  11.659 -0.0847 -0.6247  0.3800
  760MPD2    H111229   3.319   1.770  11.682 -0.4668 -0.2387 -0.8643
  760MPD2    H211230   3.459   1.962  11.337  1.2135 -0.6978 -0.1994
  760MPD2    H311231   3.290   1.836  11.461  0.3735  0.0667 -0.6402
  760MPD2     N11232   3.535   1.808  11.830  0.6685 -0.0032 -0.3372
  760MPD2    H511233   3.459   1.767  11.883  0.5456  0.8383  0.1336
  760MPD2    N111234   3.710   2.014  11.445  0.4450 -0.0022  0.0266
  760MPD2    H711235   3.798   2.009  11.496 -0.1949 -0.9557  1.0338
  761MPD2     C11236   0.208   1.680  11.186  0.8181 -0.7549  0.1254
  761MPD2    C111237   0.289   1.608  11.103 -0.3750  0.3072  0.0571
  761MPD2    C211238   0.421   1.649  11.086  0.1127 -0.8110  0.2396
  761MPD2    C311239   0.476   1.748  11.171 -0.7477  0.4013 -0.5448
  761MPD2    C411240   0.392   1.810  11.263  0.2996  0.4864  0.6458
  761MPD2    C511241   0.261   1.769  11.268 -1.0027 -0.2469  0.0555
  761MPD2     H11242   0.484   1.592  11.018  3.3120  1.9751  0.8417
  761MPD2    H111243   0.425   1.881  11.339  0.0611  2.0206 -0.6887
  761MPD2    H211244   0.104   1.652  11.192 -0.2107  3.0675  0.0141
  761MPD2    H311245   0.197   1.806  11.347  0.3652  0.5035  0.8128
  761MPD2     N11246   0.614   1.786  11.167  0.2441 -0.5029 -0.3000
  761MPD2    H511247   0.647   1.850  11.238  2.3845  0.1688 -1.9098
  761MPD2    N111248   0.235   1.497  11.037  0.0084 -0.6237  0.3142
  761MPD2    H711249   0.139   1.477  11.062 -0.4821  0.6081 -0.5427
  762MPD2     C11250   0.708   1.411  10.757  0.6181 -0.0616  0.0262
  762MPD2    C111251   0.679   1.284  10.721  0.3883 -0.0311  0.1801
  762MPD2    C211252   0.756   1.210  10.630 -0.2798  0.7781  0.1996
  762MPD2    C311253   0.855   1.279  10.568  0.2247 -0.6269 -0.3017
  762MPD2    C411254   0.896   1.408  10.608 -0.8750  0.3148 -0.4519
  762MPD2    C511255   0.818   1.473  10.709  0.1315  1.0001 -0.1284
  762MPD2     H11256   0.726   1.109  10.602 -0.9963  1.0872 -0.1462
  762MPD2    H111257   0.989   1.453  10.575 -1.1142  0.6502 -0.6634
  762MPD2    H211258   0.646   1.461  10.831 -0.5913 -0.2167 -0.8894
  762MPD2    H311259   0.836   1.575  10.740  2.3423  0.1300  1.4989
  762MPD2     N11260   0.925   1.207  10.469 -0.0675 -0.3240 -0.3464
  762MPD2    H511261   0.894   1.115  10.440  1.8268 -1.2128  0.4738
  762MPD2    N111262   0.558   1.243  10.778  0.2257  0.8463  0.2467
  762MPD2    H711263   0.493   1.318  10.804  1.0598  1.6003  0.1507
  763MPD2     C11264   3.068   1.738  16.256 -0.2161 -0.0374 -0.2079
  763MPD2    C111265   2.940   1.773  16.223  0.3000 -0.8401 -0.0217
  763MPD2    C211266   2.891   1.892  16.267 -0.5111  0.6824  0.0620
  763MPD2    C311267   2.960   1.972  16.354 -0.0833 -0.1988  0.3418
  763MPD2    C411268   3.088   1.929  16.393 -0.2909  0.2736  0.6368
  763MPD2    C511269   3.144   1.821  16.332  0.6450  0.5408 -0.2676
  763MPD2     H11270   2.787   1.920  16.255 -0.2018  2.4156  1.4612
  763MPD2    H111271   3.158   1.999  16.437  0.1417  1.6294 -2.1635
  763MPD2    H211272   3.110   1.641  16.232 -0.4495 -0.3469  0.6278
  763MPD2    H311273   3.241   1.785  16.366  1.3565  2.3901 -0.3161
  763MPD2     N11274   2.922   2.104  16.398 -0.7436 -0.3125  0.3535
  763MPD2    H511275   2.991   2.146  16.459  0.2413  0.7415 -1.4851
  763MPD2    N111276   2.856   1.693  16.137  0.7313  0.1553 -0.2499
  763MPD2    H711277   2.768   1.734  16.106  1.6331  0.5239 -2.3117
  764MPD2     C11278   0.636   3.336  17.457  0.3781 -0.2200 -0.0091
  764MPD2    C111279   0.599   3.204  17.431  0.1046  0.2695 -0.0097
  764MPD2    C211280   0.628   3.105  17.525 -0.7616 -0.3300 -0.0621
  764MPD2    C311281   0.691   3.128  17.646  0.2464  0.2907 -0.2599
  764MPD2    C411282   0.730   3.262  17.668  0.0018 -0.0716 -0.3973
  764MPD2    C511283   0.705   3.363  17.573 -0.0434 -0.2654 -0.3546
  764MPD2     H11284   0.598   3.004  17.496 -0.1171 -0.8549  1.1053
  764MPD2    H111285   0.777   3.294   0.060 -0.1754  0.4219 -0.4783
  764MPD2    H211286   0.609   3.422  17.397  1.6556  0.0362 -0.2213
  764MPD2    H311287   0.734   3.464  17.601  2.1745 -0.3574 -2.3083
  764MPD2     N11288   0.717   3.017   0.032  0.3112 -0.5343 -0.1480
  764MPD2    H511289   0.670   2.930   0.010 -0.2736 -0.7443  1.9931
  764MPD2    N111290   0.537   3.162  17.309  0.5188 -0.3522  0.2534
  764MPD2    H711291   0.544   3.063  17.285 -2.3824 -0.3347 -0.6605
  765MPD2     C11292   0.425   0.723  15.321 -0.4491 -0.2733 -0.5828
  765MPD2    C111293   0.508   0.786  15.420  0.3513  0.3916 -0.0805
  765MPD2    C211294   0.626   0.729  15.455  0.5117 -0.2976  0.5230
  765MPD2    C311295   0.682   0.622  15.387  0.1842 -0.5314  0.1388
  765MPD2    C411296   0.607   0.569  15.286  0.1092  0.2107  0.1228
  765MPD2    C511297   0.481   0.612  15.253 -0.4096  0.5627 -0.5031
  765MPD2     H11298   0.689   0.771  15.532 -0.2053 -0.8022  1.3701
  765MPD2    H111299   0.658   0.493  15.227 -0.7661 -1.5915  1.6736
  765MPD2    H211300   0.327   0.763  15.301 -0.9667 -1.1065  0.2980
  765MPD2    H311301   0.437   0.566  15.165 -0.7752 -0.6710  0.3216
  765MPD2     N11302   0.802   0.559  15.427  0.0380  0.8594  0.1307
  765MPD2    H511303   0.864   0.599  15.497 -0.8974  1.4520  0.6212
  765MPD2    N111304   0.451   0.891  15.490  0.2261 -0.4814 -0.3094
  765MPD2    H711305   0.352   0.912  15.478  0.3025  0.4505  0.7614
  766MPD2     C11306   0.014   0.762  15.431  0.4860 -0.0446  0.5665
  766MPD2    C111307   0.070   0.887  15.413 -0.0672  0.6286 -0.7116
  766MPD2    C211308   0.120   0.914  15.286  0.0255 -0.5248  0.5678
  766MPD2    C311309   0.122   0.821  15.179 -0.4725 -0.1201  0.9910
  766MPD2    C411310   0.064   0.698  15.198  0.7851  0.1202  1.3080
  766MPD2    C511311   0.011   0.673  15.318 -0.2272  0.1970 -0.0249
  766MPD2     H11312   0.167   1.010  15.269 -1.2196 -0.4911 -2.7143
  766MPD2    H111313   0.062   0.630  15.114 -0.1297 -0.0610  1.4744
  766MPD2    H211314   4.692   0.734  15.525  1.6275 -1.1979  0.7836
  766MPD2    H311315   4.684   0.579  15.333  0.7102 -0.2902  0.1598
  766MPD2     N11316   0.189   0.846  15.055  0.7755 -0.3111  0.0143
  766MPD2    H511317   0.171   0.779  14.980  0.5138 -0.7772  0.4928
  766MPD2    N111318   0.096   0.974  15.525  0.2468 -0.2233  0.1818
  766MPD2    H711319   0.098   0.931  15.618 -0.4057  1.5634  1.0103
  767MPD2     C11320   4.601   1.064  15.100 -0.1097  0.1698 -0.0947
  767MPD2    C111321   4.691   1.137  15.028  0.1585  0.1871  0.2917
  767MPD2    C211322   4.697   1.107  14.893  0.3343 -0.3227  0.3883
  767MPD2    C311323   4.613   1.007  14.837 -0.1989 -0.3492 -0.0602
  767MPD2    C411324   4.519   0.944  14.911  0.2099 -0.4264  0.6351
  767MPD2    C511325   4.522   0.967  15.047  0.3943  0.1055 -0.1475
  767MPD2     H11326   0.039   1.162  14.828  0.5040 -2.4904 -1.2489
  767MPD2    H111327   4.469   0.853  14.882  0.1370 -0.3185  0.4190
  767MPD2    H211328   4.604   1.089  15.206  0.4819  2.9471 -0.7507
  767MPD2    H311329   4.457   0.912  15.115  0.5809  1.6577  1.2934
  767MPD2     N11330   4.633   0.985  14.704  0.6032 -0.4839 -0.0764
  767MPD2    H511331   4.718   1.024  14.665  0.2262 -0.6935 -1.1113
  767MPD2    N111332   0.047   1.229  15.092  0.6924 -0.0181  0.7428
  767MPD2    H711333   0.058   1.223  15.193  0.0330  0.0740  0.8188
  768MPD2     C11334   0.216   4.348  10.528 -0.1202 -0.9805 -0.7680
  768MPD2    C111335   0.200   4.341  10.665 -0.2069 -0.6350  0.1914
  768MPD2    C211336   0.315   4.332  10.740  0.3528 -0.2321 -0.0453
  768MPD2    C311337   0.435   4.358  10.683 -0.2257  0.0152 -0.0932
  768MPD2    C411338   0.443   4.373  10.548 -0.2627 -0.0724  0.1831
  768MPD2    C511339   0.333   4.367  10.465  0.6892 -0.3508 -0.2847
  768MPD2     H11340   0.309   4.317  10.848  1.5971 -0.0148  0.0567
  768MPD2    H111341   0.538   4.392  10.500 -0.9492 -0.0161 -1.1451
  768MPD2    H211342   0.135   4.336  10.456  0.5573 -1.0269 -1.5300
  768MPD2    H311343   0.336   4.376  10.357  0.7654 -2.5393 -0.4675
  768MPD2     N11344   0.553   4.363  10.760 -0.0315  0.5113  0.0187
  768MPD2    H511345   0.558   4.317  10.850 -2.2938  0.3383  0.0536
  768MPD2    N111346   0.076   4.337  10.731 -0.3522 -0.9913 -0.5857
  768MPD2    H711347   0.072   4.331  10.832 -1.0402  2.9263 -0.3693
  769MPD2     C11348   1.977   2.387  14.647 -0.6482  0.3768  0.1956
  769MPD2    C111349   1.871   2.393  14.731 -0.1656 -0.1792 -0.2768
  769MPD2    C211350   1.899   2.419  14.867  0.0108  0.2441 -0.0269
  769MPD2    C311351   2.031   2.445  14.913 -0.3912  0.6278 -0.4297
  769MPD2    C411352   2.136   2.453  14.820 -0.5518  0.2480 -0.9677
  769MPD2    C511353   2.102   2.430  14.693 -0.0965 -0.0047  0.0615
  769MPD2     H11354   1.816   2.421  14.936 -0.1598  0.9454 -0.2525
  769MPD2    H111355   2.239   2.473  14.843 -1.1197  2.2021 -0.1374
  769MPD2    H211356   1.967   2.370  14.541 -0.7107 -0.1470  0.2836
  769MPD2    H311357   2.181   2.451  14.622  1.7996 -2.0054  1.5873
  769MPD2     N11358   2.049   2.454  15.058  0.0702 -0.2098 -0.1437
  769MPD2    H511359   1.967   2.442  15.116  1.0135  0.0777  1.2621
  769MPD2    N111360   1.739   2.362  14.686  1.1324 -0.5042 -0.0271
  769MPD2    H711361   1.725   2.321  14.594  2.2135 -0.5992 -0.1577
  770MPD2     C11362   1.065   1.737  15.039 -0.1866  0.5682 -1.0091
  770MPD2    C111363   1.149   1.695  14.935  0.3579 -0.9845  0.0624
  770MPD2    C211364   1.199   1.796  14.859 -0.1756 -0.0803 -0.0925
  770MPD2    C311365   1.157   1.928  14.868 -0.2625  0.1105  0.4183
  770MPD2    C411366   1.062   1.960  14.960 -0.2168 -0.5224  0.1349
  770MPD2    C511367   1.017   1.862  15.043  0.8913 -0.4006  0.0459
  770MPD2     H11368   1.284   1.763  14.800  1.4751 -1.1672  2.9307
  770MPD2    H111369   1.020   2.058  14.983  1.5423  0.4058 -0.6144
  770MPD2    H211370   1.033   1.663  15.111 -0.7552  1.2503 -0.5659
  770MPD2    H311371   0.947   1.890  15.120  0.9299  0.9956 -0.4301
  770MPD2     N11372   1.226   2.026  14.789 -0.3043  0.0357 -0.2677
  770MPD2    H511373   1.309   1.992  14.740 -0.4208 -0.8312  0.1352
  770MPD2    N111374   1.192   1.563  14.944 -0.3130 -0.5837  0.4181
  770MPD2    H711375   1.153   1.512  15.022 -0.6722  0.5029  0.9508
  771MPD2     C11376   2.713   0.153  13.975 -0.6635  0.1772 -0.2183
  771MPD2    C111377   2.682   0.290  13.952  1.2844 -0.3886 -0.3086
  771MPD2    C211378   2.596   0.319  13.850 -0.4064  0.0558  0.4048
  771MPD2    C311379   2.537   0.220  13.771 -0.2418 -0.3972 -0.1019
  771MPD2    C411380   2.566   0.082  13.796  0.0698 -0.5660 -0.7850
  771MPD2    C511381   2.657   0.051  13.892  0.1579  0.3387 -0.3802
  771MPD2     H11382   2.569   0.422  13.826  0.4854 -0.0312 -0.9454
  771MPD2    H111383   2.518   0.004  13.738  0.9227 -1.1235 -0.7539
  771MPD2    H211384   2.778   0.126  14.058  0.9581 -1.6937 -2.1001
  771MPD2    H311385   2.668   4.672  13.922  1.3232  0.9535  1.3607
  771MPD2     N11386   2.446   0.256  13.665 -0.9129 -0.1434 -0.1743
  771MPD2    H511387   2.440   0.356  13.652 -1.2461 -0.0553  0.6398
  771MPD2    N111388   2.726   0.401  14.032 -0.0773 -0.1599  0.2409
  771MPD2    H711389   2.681   0.489  14.012  0.5715  0.3130  0.8726
  772MPD2     C11390   2.453   1.038  14.150 -0.0127  0.6415 -0.0997
  772MPD2    C111391   2.454   0.909  14.108  0.5749 -0.6739 -0.1415
  772MPD2    C211392   2.338   0.850  14.055 -0.1584  0.0276  0.1816
  772MPD2    C311393   2.216   0.924  14.039 -0.8728 -0.0307  0.2334
  772MPD2    C411394   2.223   1.054  14.092 -0.1222  0.2622  0.0008
  772MPD2    C511395   2.339   1.113  14.142 -0.3051 -0.2755  0.1563
  772MPD2     H11396   2.345   0.743  14.038  0.4413  0.2866 -1.1487
  772MPD2    H111397   2.132   1.112  14.084 -0.7491 -1.0364 -2.2989
  772MPD2    H211398   2.534   1.093  14.196 -1.3911  0.7296  2.2254
  772MPD2    H311399   2.340   1.218  14.166 -0.1748 -0.1165 -0.5242
  772MPD2     N11400   2.092   0.877  13.995 -0.2019  0.0441  0.3263
  772MPD2    H511401   2.010   0.935  14.002  0.4697  1.0953 -0.4726
  772MPD2    N111402   2.566   0.828  14.123 -0.0959  0.3720 -0.5298
  772MPD2    H711403   2.566   0.739  14.074 -1.7542  1.5493 -2.7074
  773MPD2     C11404   1.857   2.094   0.471  0.2322  0.3879 -0.4319
  773MPD2    C111405   1.804   1.985   0.411  0.3060 -0.1982 -0.0080
  773MPD2    C211406   1.875   1.867   0.430  0.1994 -0.3106 -0.4239
  773MPD2    C311407   1.993   1.857   0.503 -0.3288  0.5841  0.2964
  773MPD2    C411408   2.045   1.972   0.552 -0.2561 -0.9313  0.5586
  773MPD2    C511409   1.978   2.090   0.532  0.2096 -0.7220  0.3578
  773MPD2     H11410   1.844   1.775   0.382  0.3301 -2.4499  3.6576
  773MPD2    H111411   2.142   1.982   0.600  0.4283  1.2396 -1.2820
  773MPD2    H211412   1.813   2.193   0.463  0.3444  0.4763  0.0030
  773MPD2    H311413   2.024   2.180   0.570 -1.0636 -0.0852  0.4064
  773MPD2     N11414   2.056   1.725   0.514  0.6258 -0.3918 -0.1876
  773MPD2    H511415   2.019   1.658   0.448  1.6546 -0.3753 -0.7748
  773MPD2    N111416   1.684   1.987   0.335 -0.2644 -0.1722 -0.2101
  773MPD2    H711417   1.655   1.895   0.302 -2.7434  0.3402  0.5382
  774MPD2     C11418   0.763   0.645  13.180 -0.2296  0.0925  0.3713
  774MPD2    C111419   0.672   0.693  13.270 -0.6429  0.5642 -0.1112
  774MPD2    C211420   0.583   0.790  13.224  0.3021  0.2519 -0.2250
  774MPD2    C311421   0.594   0.851  13.094 -0.9160 -0.4648 -0.4404
  774MPD2    C411422   0.689   0.792  13.012  0.0780 -0.1770  0.4745
  774MPD2    C511423   0.781   0.703  13.054  0.0327  0.4278 -0.2915
  774MPD2     H11424   0.511   0.835  13.292  0.1481  0.6586 -0.6512
  774MPD2    H111425   0.695   0.824  12.909  1.3142  0.0512  0.6147
  774MPD2    H211426   0.832   0.565  13.206  0.2978  0.4399  0.0276
  774MPD2    H311427   0.845   0.654  12.982 -0.7184 -0.6242 -0.2279
  774MPD2     N11428   0.519   0.966  13.063 -0.0489 -0.0676 -0.3412
  774MPD2    H511429   0.459   1.006  13.134  1.8209  0.7082  0.8223
  774MPD2    N111430   0.675   0.643  13.409 -0.2695 -0.7734  0.7338
  774MPD2    H711431   0.741   0.571  13.435  2.1645  1.1671 -0.1226
  775MPD2     C11432   2.107   2.169  15.718 -0.0930 -0.0720  0.1670
  775MPD2    C111433   2.154   2.270  15.797 -0.6099 -0.0057  0.3519
  775MPD2    C211434   2.259   2.339  15.746  0.3696 -0.5018 -0.3579
  775MPD2    C311435   2.332   2.306  15.633 -0.2516  0.0003  0.2044
  775MPD2    C411436   2.295   2.188  15.575 -0.2420 -0.1743 -0.1125
  775MPD2    C511437   2.179   2.127  15.609  0.0542 -0.5291 -0.3779
  775MPD2     H11438   2.283   2.437  15.785  0.8374 -0.4475 -0.7764
  775MPD2    H111439   2.344   2.140  15.491  0.8536  0.9941 -0.1274
  775MPD2    H211440   2.013   2.119  15.740  0.7376 -2.1863 -1.0354
  775MPD2    H311441   2.143   2.043  15.551  1.5161 -0.6342 -1.1327
  775MPD2     N11442   2.428   2.394  15.568 -0.3554 -0.5296  0.0448
  775MPD2    H511443   2.461   2.349  15.483  0.7139 -0.0985  0.2344
  775MPD2    N111444   2.086   2.308  15.920 -0.2742 -0.0002 -0.7779
  775MPD2    H711445   2.000   2.259  15.943  0.3503 -1.0392 -0.6580
  776MPD2     C11446   1.025   2.548  12.199  0.4323  0.5717  0.2728
  776MPD2    C111447   0.954   2.490  12.095  0.2988  1.0488  0.1318
  776MPD2    C211448   0.882   2.573  12.010 -0.3193  0.1439 -0.1036
  776MPD2    C311449   0.894   2.710  12.023 -0.5462 -0.1485 -0.0448
  776MPD2    C411450   0.967   2.764  12.125 -0.0973 -0.1704  0.2198
  776MPD2    C511451   1.026   2.683  12.217  0.1648 -0.3825 -0.4646
  776MPD2     H11452   0.827   2.532  11.926 -0.4226  2.2598 -1.0945
  776MPD2    H111453   0.981   2.870  12.143  1.1255 -0.3950  0.6348
  776MPD2    H211454   1.076   2.486  12.273 -0.0093  0.6838  0.6721
  776MPD2    H311455   1.078   2.714  12.307  1.2076 -0.8245 -0.9062
  776MPD2     N11456   0.848   2.808  11.928 -0.6789  0.0540 -0.2438
  776MPD2    H511457   0.874   2.902  11.956 -0.5109 -0.5517  1.6276
  776MPD2    N111458   0.964   2.350  12.076  0.5619 -0.0156 -0.0140
  776MPD2    H711459   1.041   2.312  12.131  2.0548  0.3423 -1.8620
  777MPD2     C11460   2.094   0.503   0.670  0.2402 -0.2972  0.5132
  777MPD2    C111461   1.997   0.435   0.742 -0.0003 -0.0784 -0.0568
  777MPD2    C211462   1.913   0.344   0.677 -0.4162  0.4916 -0.7378
  777MPD2    C311463   1.927   0.327   0.542  0.5332 -0.4166  0.1990
  777MPD2    C411464   2.024   0.393   0.469 -0.5680 -0.1756  0.3246
  777MPD2    C511465   2.106   0.476   0.534  0.1957 -0.4966  0.2734
  777MPD2     H11466   1.841   0.281   0.729  1.5986  0.9734  2.6275
  777MPD2    H111467   2.042   0.375   0.364  2.5131 -0.5258  0.9167
  777MPD2    H211468   2.158   0.579   0.711 -0.4509  0.9103 -0.6320
  777MPD2    H311469   2.192   0.510   0.477  0.6467 -1.9188  0.1068
  777MPD2     N11470   1.841   0.235   0.481 -0.5738 -0.2421 -0.6829
  777MPD2    H511471   1.778   0.191   0.548  0.6917  1.4618  1.6340
  777MPD2    N111472   1.992   0.462   0.885  0.4507  0.0292 -0.1532
  777MPD2    H711473   2.060   0.528   0.920  0.0905 -0.2028  0.9771
  778MPD2     C11474   2.549   0.543  15.410 -0.5406  0.4551 -0.1109
  778MPD2    C111475   2.525   0.465  15.300  0.5354  0.2490  0.0466
  778MPD2    C211476   2.592   0.495  15.182  0.9420 -0.5137 -0.2524
  778MPD2    C311477   2.681   0.602  15.172 -0.0878  0.1617 -0.0306
  778MPD2    C411478   2.695   0.688  15.288 -0.4513  0.1963 -0.0796
  778MPD2    C511479   2.634   0.653  15.405  0.2285 -0.1637 -0.0558
  778MPD2     H11480   2.572   0.437  15.093  2.5851  0.7486 -1.4290
  778MPD2    H111481   2.759   0.776  15.293 -1.3743  0.7007  2.8110
  778MPD2    H211482   2.515   0.520  15.511 -1.2617 -0.7926 -0.6432
  778MPD2    H311483   2.642   0.716  15.493  0.7915 -1.5695  0.8880
  778MPD2     N11484   2.750   0.619  15.045  0.3020 -0.2079  0.0165
  778MPD2    H511485   2.737   0.556  14.967  2.8366  0.2634 -0.7717
  778MPD2    N111486   2.449   0.346  15.301  0.3971 -0.4683  0.7494
  778MPD2    H711487   2.452   0.291  15.215 -0.2020  1.6829 -0.6355
  779MPD2     C11488   2.210   3.951  14.392  0.4612 -0.6052  0.2743
  779MPD2    C111489   2.350   3.946  14.399 -0.6860  0.5538  1.1162
  779MPD2    C211490   2.427   4.058  14.402 -0.2865 -0.2060  0.8333
  779MPD2    C311491   2.362   4.182  14.390  0.4000  0.2944  0.4282
  779MPD2    C411492   2.220   4.184  14.385 -0.4002 -0.3463  1.1681
  779MPD2    C511493   2.149   4.071  14.384  0.5090  0.4567 -0.2342
  779MPD2     H11494   2.534   4.051  14.410 -0.2174 -0.4876 -0.2624
  779MPD2    H111495   2.168   4.279  14.375 -1.2487 -1.0260 -0.8572
  779MPD2    H211496   2.148   3.862  14.394 -1.2198  0.5770  0.5020
  779MPD2    H311497   2.042   4.080  14.376  0.4164  0.0016  0.4964
  779MPD2     N11498   2.441   4.295  14.391  1.3535 -0.2035  0.1704
  779MPD2    H511499   2.539   4.278  14.373  1.5939  1.0202  0.3488
  779MPD2    N111500   2.419   3.818  14.410  0.6852 -0.1561  0.3096
  779MPD2    H711501   2.519   3.823  14.427  0.8032  0.2683 -0.5463
  780MPD2     C11502   2.061   4.385   1.148 -0.4053  0.4342 -0.5595
  780MPD2    C111503   2.011   4.294   1.057 -0.1742  0.6114  0.2078
  780MPD2    C211504   2.044   4.301   0.927  0.9457  0.3503 -0.2673
  780MPD2    C311505   2.136   4.395   0.884  0.4842 -0.2686 -0.8450
  780MPD2    C411506   2.193   4.481   0.973  0.1711  0.6318 -0.1859
  780MPD2    C511507   2.152   4.478   1.104  0.6243  0.4493  0.6488
  780MPD2     H11508   2.002   4.229   0.857  0.5633 -1.7468  2.0857
  780MPD2    H111509   2.269   4.555   0.949 -0.5595  1.3016 -0.4604
  780MPD2    H211510   2.036   4.368   1.253  1.0171 -1.7719 -0.5752
  780MPD2    H311511   2.195   4.551   1.173 -0.8961  2.0021 -0.0589
  780MPD2     N11512   2.179   4.389   0.748 -0.2402  0.4736 -0.4156
  780MPD2    H511513   2.140   4.316   0.690  2.3841 -1.3979  0.1886
  780MPD2    N111514   1.922   4.195   1.107 -0.1186  0.4778  0.7040
  780MPD2    H711515   1.932   4.175   1.206  0.9427 -1.7907  0.1355
  781MPD2     C11516   3.981   0.597  12.094  0.1037  0.4978  0.1625
  781MPD2    C111517   3.850   0.575  12.117  1.0971 -0.2789  0.1972
  781MPD2    C211518   3.757   0.629  12.023  0.1229 -0.2193 -0.5092
  781MPD2    C311519   3.797   0.694  11.904 -0.6298  0.5046  0.1197
  781MPD2    C411520   3.931   0.699  11.878 -0.0957  0.3887  0.0856
  781MPD2    C511521   4.020   0.658  11.977 -0.1107  0.0607  0.6738
  781MPD2     H11522   3.650   0.618  12.039 -0.1029  0.7727 -1.3096
  781MPD2    H111523   3.973   0.744  11.789  0.0284 -0.4434 -0.2743
  781MPD2    H211524   4.052   0.567  12.170  0.1294 -0.7782 -0.3708
  781MPD2    H311525   4.125   0.682  11.972 -0.0632 -0.4686 -1.0557
  781MPD2     N11526   3.703   0.743  11.819 -0.1821 -0.0976 -0.0249
  781MPD2    H511527   3.607   0.746  11.852 -1.0177  0.6099 -2.4591
  781MPD2    N111528   3.810   0.521  12.248 -0.1151 -0.4479  0.1918
  781MPD2    H711529   3.883   0.515  12.317 -0.5421  0.9942  0.7712
  782MPD2     C11530   1.305   1.934  10.337  0.1931 -0.2401 -0.5555
  782MPD2    C111531   1.433   1.890  10.368  0.1623  0.8051  0.3976
  782MPD2    C211532   1.504   1.960  10.463 -0.5211 -0.5006  0.2094
  782MPD2    C311533   1.450   2.059  10.538  0.1654 -0.1854 -0.3497
  782MPD2    C411534   1.327   2.115  10.499 -0.5246 -0.3868  0.0598
  782MPD2    C511535   1.266   2.056  10.396 -0.1616 -0.6761 -0.4508
  782MPD2     H11536   1.605   1.925  10.482 -1.6734 -2.5648  2.5501
  782MPD2    H111537   1.275   2.201  10.539 -0.0014 -0.2525  0.4548
  782MPD2    H211538   1.238   1.885  10.266  2.0827 -3.5212 -0.0209
  782MPD2    H311539   1.168   2.092  10.366  1.2065  1.7959 -1.9456
  782MPD2     N11540   1.529   2.109  10.645 -0.0644 -0.1236  0.1609
  782MPD2    H511541   1.619   2.065  10.661  0.1431  0.9286  1.9136
  782MPD2    N111542   1.480   1.772  10.300 -0.5103  0.3678  0.6937
  782MPD2    H711543   1.402   1.721  10.259 -1.0238  1.6435  0.0704
  783MPD2     C11544   1.114   1.304  10.895 -0.4628  0.6067  0.0403
  783MPD2    C111545   1.172   1.427  10.886  0.1710 -0.3821 -0.5600
  783MPD2    C211546   1.257   1.449  10.777  0.4141 -0.1319 -0.2395
  783MPD2    C311547   1.284   1.355  10.685  0.6168  0.6526  0.0626
  783MPD2    C411548   1.227   1.232  10.698 -0.2450  0.2938  0.5351
  783MPD2    C511549   1.136   1.211  10.799 -0.2655  0.4810 -0.4927
  783MPD2     H11550   1.297   1.550  10.766  1.6852 -0.6582 -0.3873
  783MPD2    H111551   1.239   1.158  10.619 -1.5537  0.1899  0.4308
  783MPD2    H211552   1.043   1.277  10.972  1.7819 -2.0638  1.1761
  783MPD2    H311553   1.093   1.113  10.815 -0.8486  0.4058 -2.5713
  783MPD2     N11554   1.375   1.387  10.582 -0.0052  0.5754 -0.8968
  783MPD2    H511555   1.386   1.485  10.557  0.2169  0.7091 -0.2706
  783MPD2    N111556   1.126   1.527  10.978 -0.0903  0.4630  0.9289
  783MPD2    H711557   1.049   1.494  11.036  0.6637 -0.6803  1.2644
  784MPD2     C11558   4.609   2.252   0.635  0.8372 -0.2117  0.2858
  784MPD2    C111559   4.670   2.372   0.599 -0.0969  0.2558  0.3223
  784MPD2    C211560   4.599   2.473   0.543 -0.2460  0.4714  0.2865
  784MPD2    C311561   4.470   2.454   0.507 -0.2122 -0.0304  0.8536
  784MPD2    C411562   4.414   2.336   0.530  0.1279  0.2182  0.0054
  784MPD2    C511563   4.480   2.239   0.599  0.2400 -1.0973  0.2861
  784MPD2     H11564   4.642   2.569   0.515  1.2422 -0.4012 -0.3996
  784MPD2    H111565   4.312   2.307   0.507  0.2267 -0.2897  0.2004
  784MPD2    H211566   4.654   2.165   0.682  1.4538 -0.3035 -0.4685
  784MPD2    H311567   4.421   2.156   0.634 -1.3066  0.5933  1.6577
  784MPD2     N11568   4.405   2.560   0.442 -0.0577  0.1821  0.0585
  784MPD2    H511569   4.445   2.647   0.410  1.5835 -0.1792  1.1593
  784MPD2    N111570   0.081   2.397   0.618  0.3370  0.2932  0.7804
  784MPD2    H711571   0.123   2.487   0.594 -0.3220  0.2309 -0.6395
  785MPD2     C11572   3.994   0.041  10.244  0.0465  0.4104 -0.1493
  785MPD2    C111573   3.973   0.138  10.344 -0.0999 -0.5918 -0.5194
  785MPD2    C211574   3.850   0.204  10.361  0.2715  0.1985  0.0990
  785MPD2    C311575   3.751   0.174  10.266 -0.5131  0.5482 -0.6131
  785MPD2    C411576   3.771   0.081  10.169 -0.2565  0.5168  0.5407
  785MPD2    C511577   3.889   0.017  10.155 -0.1285 -0.7201  0.0677
  785MPD2     H11578   3.828   0.271  10.443  3.2847  1.8902 -0.5028
  785MPD2    H111579   3.693   0.070  10.094 -0.3121  0.0321  0.6748
  785MPD2    H211580   4.087   4.710  10.240 -1.1175 -1.4976 -0.3917
  785MPD2    H311581   3.903   4.671  10.074  0.0545  0.3458 -0.8439
  785MPD2     N11582   3.623   0.234  10.291  0.6444  0.0743 -0.4513
  785MPD2    H511583   3.613   0.299  10.369 -1.1508 -1.9228  0.9805
  785MPD2    N111584   4.083   0.153  10.438 -0.0455  0.5877  0.0005
  785MPD2    H711585   4.175   0.117  10.417  0.3958  1.2401  0.8353
  786MPD2     C11586   3.428   3.403  14.736 -0.4048  0.1744 -0.7792
  786MPD2    C111587   3.320   3.345  14.801 -0.2794 -0.8162  0.1798
  786MPD2    C211588   3.322   3.332  14.942 -0.1231 -0.6518 -0.4524
  786MPD2    C311589   3.445   3.352  15.012 -0.2987  0.1173  0.1554
  786MPD2    C411590   3.554   3.398  14.940  0.2669 -0.2055  0.3814
  786MPD2    C511591   3.541   3.424  14.811  0.2139 -0.2595  0.0290
  786MPD2     H11592   3.236   3.297  14.999 -1.2358 -0.6845 -2.1551
  786MPD2    H111593   3.652   3.412  14.984  1.0282 -1.5788 -0.8606
  786MPD2    H211594   3.431   3.415  14.628  0.0682 -0.7255 -0.8718
  786MPD2    H311595   3.628   3.461  14.758  1.3739 -1.6748  0.9491
  786MPD2     N11596   3.462   3.323  15.157  0.7350  0.1253 -0.4169
  786MPD2    H511597   3.560   3.321  15.185  1.7136  3.1958 -3.6002
  786MPD2    N111598   3.198   3.308  14.739 -0.0245 -0.3683  0.3325
  786MPD2    H711599   3.117   3.280  14.795 -1.1709  0.3027 -0.9950
  787MPD2     C11600   2.962   2.800  14.995  0.3806  0.1212  0.9971
  787MPD2    C111601   3.028   2.791  14.874  0.2921 -0.3275 -0.0457
  787MPD2    C211602   3.114   2.682  14.852  0.4451 -0.0023 -0.2581
  787MPD2    C311603   3.133   2.582  14.951 -0.2477  0.2553  0.3423
  787MPD2    C411604   3.067   2.594  15.074 -0.6120  0.5583  0.0842
  787MPD2    C511605   2.984   2.700  15.089 -0.8912  0.0836 -0.3530
  787MPD2     H11606   3.176   2.666  14.765  1.8961 -1.4282  1.0461
  787MPD2    H111607   3.085   2.529  15.159 -0.8587 -0.6508 -0.7932
  787MPD2    H211608   2.915   2.895  15.018 -0.0077 -0.3470  2.1139
  787MPD2    H311609   2.944   2.713  15.189 -0.8308  0.6117 -0.3972
  787MPD2     N11610   3.199   2.467  14.913  0.2959 -0.1334  0.3036
  787MPD2    H511611   3.234   2.467  14.818 -0.8022 -0.3096 -0.0918
  787MPD2    N111612   2.990   2.882  14.777  0.0041 -0.8458 -0.3730
  787MPD2    H711613   2.910   2.941  14.798  1.2291  0.7821 -0.2577
  788MPD2     C11614   0.978   1.434   0.657 -0.4725 -0.2570  0.4112
  788MPD2    C111615   0.857   1.389   0.609 -0.4095  0.5662 -0.6923
  788MPD2    C211616   0.770   1.476   0.550 -0.0279  0.0218 -0.9197
  788MPD2    C311617   0.814   1.603   0.525 -0.0206 -0.6203  0.2587
  788MPD2    C411618   0.929   1.647   0.580  0.4758 -0.6607 -0.3437
  788MPD2    C511619   1.009   1.564   0.649  0.4247  0.0543  0.5533
  788MPD2     H11620   0.679   1.426   0.520  0.8850 -1.0705 -1.8609
  788MPD2    H111621   0.963   1.749   0.569 -0.6620 -0.1143  1.0986
  788MPD2    H211622   1.053   1.375   0.707 -0.9248 -1.3897 -0.2401
  788MPD2    H311623   1.100   1.599   0.697  1.4279  1.2003 -2.1476
  788MPD2     N11624   0.736   1.691   0.438  0.4079 -1.2380 -0.1018
  788MPD2    H511625   0.778   1.781   0.422 -2.0179  0.2017  1.6165
  788MPD2    N111626   0.818   1.252   0.611  0.1399 -0.0829 -0.0766
  788MPD2    H711627   0.732   1.236   0.559  0.4814  0.5661 -0.8407
  789MPD2     C11628   0.652   1.409  15.884  0.0349 -0.1463  0.2479
  789MPD2    C111629   0.621   1.324  15.983  0.3430  0.2993  0.3770
  789MPD2    C211630   0.538   1.364  16.085 -0.2889 -0.1478 -0.4743
  789MPD2    C311631   0.474   1.489  16.080  0.8122 -0.3515  0.8696
  789MPD2    C411632   0.495   1.572  15.971  0.1595  0.6573 -0.4826
  789MPD2    C511633   0.580   1.525  15.873 -0.4984 -0.2118  0.2880
  789MPD2     H11634   0.519   1.287  16.159  0.4614 -1.1351 -1.3101
  789MPD2    H111635   0.440   1.662  15.944 -1.8998  0.1043  1.9312
  789MPD2    H211636   0.725   1.384  15.807 -1.3710 -0.5167 -0.9669
  789MPD2    H311637   0.591   1.584  15.783  0.5510 -0.3817  0.2994
  789MPD2     N11638   0.375   1.522  16.163  0.2095 -0.1504  0.2452
  789MPD2    H511639   0.325   1.607  16.141 -3.2140 -1.4449  3.0400
  789MPD2    N111640   0.680   1.202  16.002  0.5655  0.4977  1.2011
  789MPD2    H711641   0.658   1.163  16.093  1.7015 -0.1167  1.2082
  790MPD2     C11642   1.032   3.363  13.574 -0.5627 -0.2446 -0.4955
  790MPD2    C111643   1.083   3.234  13.589 -0.5302 -0.8674 -0.2715
  790MPD2    C211644   1.089   3.156  13.477 -0.0291  0.6492  0.8506
  790MPD2    C311645   1.060   3.206  13.357  0.6733  0.0302  0.2928
  790MPD2    C411646   1.005   3.334  13.339  1.1592 -0.3478 -0.3517
  790MPD2    C511647   0.985   3.409  13.456  0.1241  0.5171 -0.6746
  790MPD2     H11648   1.119   3.052  13.486  0.3599  0.5803 -1.1137
  790MPD2    H111649   0.982   3.382  13.244 -2.5120 -0.3396  0.5661
  790MPD2    H211650   1.013   3.421  13.663  0.1031  0.6932 -0.9674
  790MPD2    H311651   0.948   3.511  13.458  0.0956  0.5156 -1.1808
  790MPD2     N11652   1.085   3.113  13.251  0.0756 -0.0310  0.1282
  790MPD2    H511653   1.136   3.030  13.279  2.2471  0.5584 -2.1223
  790MPD2    N111654   1.113   3.185  13.717  0.7807 -0.2334 -0.1876
  790MPD2    H711655   1.104   3.250  13.794  0.6867 -0.9770  0.4357
  791MPD2     C11656   0.506   2.969  12.790  0.0084 -0.7215  0.2393
  791MPD2    C111657   0.570   2.852  12.836  0.3713  0.0801  0.4492
  791MPD2    C211658   0.500   2.739  12.829 -0.6474  0.4302  0.1532
  791MPD2    C311659   0.369   2.732  12.785 -0.7987  0.0525 -0.4956
  791MPD2    C411660   0.311   2.844  12.735  0.2426  0.0626  0.4449
  791MPD2    C511661   0.374   2.969  12.743 -0.0504  0.4867 -0.2035
  791MPD2     H11662   0.543   2.645  12.861  0.3756  0.3124 -1.6015
  791MPD2    H111663   0.211   2.842  12.692  0.7612 -0.3316 -0.7505
  791MPD2    H211664   0.560   3.061  12.777  0.4419 -0.8786  0.9490
  791MPD2    H311665   0.326   3.059  12.707 -1.6085 -0.2522  0.0200
  791MPD2     N11666   0.310   2.603  12.787 -0.4407 -0.1378  0.4227
  791MPD2    H511667   0.362   2.518  12.807 -1.4950 -1.2505 -1.4532
  791MPD2    N111668   0.704   2.864  12.881  0.7712  0.5521 -0.2057
  791MPD2    H711669   0.752   2.953  12.872  1.9525 -0.0748 -0.1071
  792MPD2     C11670   1.167   2.773  11.786 -0.3270  0.2897 -0.1384
  792MPD2    C111671   1.150   2.853  11.677  0.3489 -0.8946  0.1779
  792MPD2    C211672   1.105   2.793  11.556  0.3866  0.5346 -0.2457
  792MPD2    C311673   1.079   2.658  11.554  0.2634 -0.1508  0.2487
  792MPD2    C411674   1.096   2.581  11.664  0.3215 -0.2471 -0.1776
  792MPD2    C511675   1.152   2.636  11.777  0.4376  0.3362  0.2968
  792MPD2     H11676   1.088   2.857  11.470  0.1159 -1.4116 -1.6369
  792MPD2    H111677   1.081   2.474  11.664  0.9764 -0.3369  4.8467
  792MPD2    H211678   1.199   2.805  11.884 -3.2596  0.2272  0.8415
  792MPD2    H311679   1.164   2.578  11.867  0.4604 -0.5568 -0.2814
  792MPD2     N11680   1.022   2.587  11.442  0.0163  0.0058  0.1566
  792MPD2    H511681   1.008   2.487  11.455 -1.3976  0.0655 -0.8937
  792MPD2    N111682   1.182   2.995  11.696 -0.1822 -0.3254  0.2655
  792MPD2    H711683   1.213   3.032  11.786 -0.2512  1.0276 -0.2619
  793MPD2     C11684   0.794   2.517  10.435  0.1756  0.0037 -0.5088
  793MPD2    C111685   0.880   2.545  10.529  0.6165 -0.2527  0.5238
  793MPD2    C211686   0.852   2.573  10.657 -0.1751  0.1621 -0.4953
  793MPD2    C311687   0.719   2.570  10.700 -0.1775  0.4183 -0.1411
  793MPD2    C411688   0.626   2.542  10.603 -0.6075 -0.0994 -0.7090
  793MPD2    C511689   0.660   2.520  10.473  0.2817 -0.1244  0.2781
  793MPD2     H11690   0.928   2.593  10.732 -2.1745  0.8987  1.3669
  793MPD2    H111691   0.518   2.537  10.612 -0.1895 -4.9060  1.5984
  793MPD2    H211692   0.823   2.483  10.336  2.0160  0.3536 -0.0950
  793MPD2    H311693   0.585   2.496  10.399  0.0328 -2.0848  1.1445
  793MPD2     N11694   0.692   2.571  10.838 -0.3160 -0.8071 -0.0750
  793MPD2    H511695   0.603   2.530  10.867  0.6307 -0.9965  2.5600
  793MPD2    N111696   1.021   2.539  10.507  0.7135  0.2196  0.0945
  793MPD2    H711697   1.080   2.554  10.588  1.2152  2.0122 -0.5999
  794MPD2     C11698   1.288   2.463  17.433 -0.5981 -0.0720  0.3661
  794MPD2    C111699   1.255   2.327  17.438 -0.3096  0.3249 -0.0017
  794MPD2    C211700   1.208   2.264  17.323  0.5506 -0.5613  0.3917
  794MPD2    C311701   1.222   2.331  17.201  0.2511  0.3548 -0.0137
  794MPD2    C411702   1.263   2.461  17.194  0.7622 -0.2360  0.1504
  794MPD2    C511703   1.283   2.530  17.311 -0.2273 -0.5525  0.3318
  794MPD2     H11704   1.169   2.163  17.334 -0.0699 -0.2537  1.0281
  794MPD2    H111705   1.261   2.523  17.105 -3.1004 -1.4905 -0.6532
  794MPD2    H211706   1.306   2.520  17.523  1.7641 -0.7431  0.3161
  794MPD2    H311707   1.311   2.633  17.327 -2.8236  0.1174  0.6583
  794MPD2     N11708   1.170   2.280  17.073 -0.7899  0.5771  0.1458
  794MPD2    H511709   1.175   2.349  16.998 -1.0662 -1.1532 -1.4527
  794MPD2    N111710   1.249   2.264  17.561  0.3197 -0.7924 -0.2504
  794MPD2    H711711   1.206   2.172  17.559  1.2512 -1.2381  0.8053
  795MPD2     C11712   3.542   4.379  12.856  0.1506 -0.9416 -0.6483
  795MPD2    C111713   3.426   4.349  12.926 -0.1907  0.6149 -1.1079
  795MPD2    C211714   3.431   4.348  13.066  0.5912 -0.3300 -0.1415
  795MPD2    C311715   3.554   4.372  13.128 -0.7932  0.0006 -0.9450
  795MPD2    C411716   3.671   4.412  13.057  0.1798  0.1047  0.1321
  795MPD2    C511717   3.656   4.416  12.923  0.1172  0.0811  0.7162
  795MPD2     H11718   3.344   4.335  13.128  1.2355 -0.7744  0.6732
  795MPD2    H111719   3.761   4.431  13.114 -0.9526  2.3266  1.2065
  795MPD2    H211720   3.548   4.367  12.748  0.5339  0.2248 -0.7459
  795MPD2    H311721   3.749   4.433  12.871 -0.1191 -1.7184 -0.2974
  795MPD2     N11722   3.555   4.357  13.269  0.6832 -0.8303 -0.4317
  795MPD2    H511723   3.465   4.326  13.305 -0.0085  3.2133  1.3869
  795MPD2    N111724   3.301   4.319  12.865  0.0316  0.1537  0.4044
  795MPD2    H711725   3.227   4.270  12.914  0.4608  1.2727  2.1577
  796MPD2     C11726   3.085   0.934  16.043 -0.0002 -0.0054 -0.0710
  796MPD2    C111727   3.062   1.011  16.155 -0.4410 -0.7769 -0.1101
  796MPD2    C211728   3.076   1.151  16.138 -0.2588 -0.3377  0.1739
  796MPD2    C311729   3.096   1.200  16.005 -0.5107  0.0872  0.0218
  796MPD2    C411730   3.113   1.119  15.897  0.3330  0.8790 -0.2230
  796MPD2    C511731   3.113   0.981  15.916  0.0087 -0.1108 -0.0877
  796MPD2     H11732   3.065   1.222  16.220  2.7396 -0.1477  0.4001
  796MPD2    H111733   3.140   1.154  15.798 -1.3340 -1.2234 -1.4157
  796MPD2    H211734   3.071   0.828  16.061  1.5212  0.1067  1.8030
  796MPD2    H311735   3.136   0.925  15.826  0.3754  2.4558 -1.5581
  796MPD2     N11736   3.130   1.336  16.004  0.0742 -0.6379 -0.4932
  796MPD2    H511737   3.122   1.391  16.089  0.5788 -0.2579 -0.6865
  796MPD2    N111738   3.030   0.942  16.276 -0.5239 -0.0745  0.1034
  796MPD2    H711739   3.045   0.843  16.262  0.2725  0.4262 -2.5855
  797MPD2     C11740   4.248   0.675  16.767  0.4684 -0.5784  0.0004
  797MPD2    C111741   4.281   0.680  16.900 -0.0870 -0.4429 -0.1341
  797MPD2    C211742   4.171   0.685  16.982  0.4070  0.1847 -0.1001
  797MPD2    C311743   4.041   0.695  16.940 -0.7665 -0.3476 -0.2490
  797MPD2    C411744   4.019   0.710  16.810 -0.0933  0.0080  0.0914
  797MPD2    C511745   4.122   0.695  16.719  0.9342 -0.2846 -0.5223
  797MPD2     H11746   4.186   0.682  17.089 -1.6385 -1.6429  0.1526
  797MPD2    H111747   3.913   0.711  16.785 -0.5194  2.1570  1.9604
  797MPD2    H211748   4.325   0.662  16.692  1.0470  1.0601  0.3105
  797MPD2    H311749   4.087   0.694  16.617  0.2878  2.4212 -0.3306
  797MPD2     N11750   3.931   0.711  17.032 -0.4687 -0.2301 -0.1084
  797MPD2    H511751   3.848   0.758  16.995 -0.5198 -0.3950 -0.2042
  797MPD2    N111752   4.411   0.665  16.951  0.6100  0.0077  0.1125
  797MPD2    H711753   4.416   0.670  17.052  2.6257 -2.0167  0.1232
  798MPD2     C11754   4.269   0.743  17.667 -0.0579 -0.4055  0.1137
  798MPD2    C111755   4.227   0.799  17.551  0.7338  0.0936  0.5614
  798MPD2    C211756   4.316   0.820  17.450 -0.7087  0.5471  0.1024
  798MPD2    C311757   4.447   0.772  17.457 -0.6095  0.7792 -0.2681
  798MPD2    C411758   4.493   0.718  17.577  0.3537  0.0795 -0.1213
  798MPD2    C511759   4.405   0.716  17.683 -0.5843  0.0152  0.4283
  798MPD2     H11760   4.283   0.867  17.358 -1.2632 -0.1897 -0.0771
  798MPD2    H111761   4.595   0.685  17.596  0.0179 -1.0531 -0.2868
  798MPD2    H211762   4.196   0.725   0.045 -0.9370  1.1681 -0.3263
  798MPD2    H311763   4.446   0.693   0.081  0.4824 -1.2002 -0.2997
  798MPD2     N11764   4.529   0.773  17.342  0.1940 -0.1661  0.3779
  798MPD2    H511765   4.477   0.819  17.267 -0.8692 -1.7437  0.1502
  798MPD2    N111766   4.091   0.837  17.544 -0.2949 -0.5071 -0.0280
  798MPD2    H711767   4.028   0.793  17.610  0.8258  1.7260  2.5303
  799MPD2     C11768   2.943   2.503  14.484  0.2932  0.7896 -0.0374
  799MPD2    C111769   2.907   2.376  14.433  1.0642  0.0852  1.0898
  799MPD2    C211770   2.817   2.365  14.338 -0.7169  1.2505 -0.2604
  799MPD2    C311771   2.756   2.470  14.278 -0.1361  0.9547  0.8593
  799MPD2    C411772   2.787   2.594  14.328  0.4438 -0.4106 -0.0644
  799MPD2    C511773   2.877   2.611  14.433 -0.4992  0.5544  0.1872
  799MPD2     H11774   2.782   2.271  14.297 -1.9842  1.7826 -0.3961
  799MPD2    H111775   2.747   2.683  14.282 -1.9286 -0.0943  2.6397
  799MPD2    H211776   3.015   2.515  14.564 -0.4826  0.3235  0.7408
  799MPD2    H311777   2.913   2.710  14.458  0.0288  0.4250 -0.0650
  799MPD2     N11778   2.682   2.473  14.153  0.0640 -0.0688  0.6066
  799MPD2    H511779   2.649   2.563  14.121 -0.6356 -0.8957 -1.0153
  799MPD2    N111780   2.953   2.254  14.491 -0.0067  0.8402 -0.0479
  799MPD2    H711781   2.899   2.172  14.466  1.0113 -0.1100  0.8289
  800MPD2     C11782   3.663   3.120  14.005 -0.3993  0.4049  0.0750
  800MPD2    C111783   3.656   3.262  14.012 -1.0532 -0.3663 -0.7386
  800MPD2    C211784   3.534   3.322  13.976 -0.4686 -0.1953 -0.1296
  800MPD2    C311785   3.431   3.242  13.923 -0.7051 -0.0976  0.1742
  800MPD2    C411786   3.450   3.106  13.903 -0.1705 -0.3652  0.0481
  800MPD2    C511787   3.568   3.047  13.944 -0.5099  0.3734  0.2755
  800MPD2     H11788   3.503   3.425  13.988 -0.5096 -0.2832  0.5159
  800MPD2    H111789   3.372   3.044  13.861 -1.6531  0.8716  0.9817
  800MPD2    H211790   3.744   3.061  14.045 -0.3827 -0.4423 -1.1877
  800MPD2    H311791   3.569   2.939  13.933  1.3988  0.4777 -0.4629
  800MPD2     N11792   3.316   3.314  13.882  0.0479  0.2208  0.2468
  800MPD2    H511793   3.319   3.411  13.913 -1.4366 -0.6051  2.9830
  800MPD2    N111794   3.764   3.334  14.072  0.4695  0.9192  0.4565
  800MPD2    H711795   3.843   3.279  14.106  0.6713  1.7326  1.2971
  801MPD2     C11796   3.760   3.923  14.646 -0.3918 -0.1240  0.2718
  801MPD2    C111797   3.688   3.858  14.551 -0.0715 -0.0210 -0.4421
  801MPD2    C211798   3.549   3.868  14.554 -0.3259  0.3426  0.2198
  801MPD2    C311799   3.491   3.963  14.638  0.4726  0.1228  0.3506
  801MPD2    C411800   3.568   4.020  14.729 -0.3734  0.3118 -0.6730
  801MPD2    C511801   3.698   3.991  14.737 -0.5911  0.2864 -0.0793
  801MPD2     H11802   3.499   3.816  14.474 -0.0987 -1.3464  1.1827
  801MPD2    H111803   3.519   4.086  14.800  1.4286 -0.2548  1.0935
  801MPD2    H211804   3.867   3.907  14.653 -0.5105 -0.5239  1.2943
  801MPD2    H311805   3.757   4.039  14.814 -0.5366  1.4530 -0.8464
  801MPD2     N11806   3.348   3.991  14.634  0.2911  0.4281  0.0903
  801MPD2    H511807   3.297   4.025  14.715  0.5063 -1.0887  0.8656
  801MPD2    N111808   3.757   3.783  14.451  0.2556 -0.1692 -0.7701
  801MPD2    H711809   3.701   3.739  14.378 -2.0793  1.1346  0.2248
  802MPD2     C11810   3.666   0.070   0.552  0.3410  0.0392  0.9403
  802MPD2    C111811   3.547   0.000   0.569 -0.1125 -0.7531 -1.2231
  802MPD2    C211812   3.500   4.638   0.472 -0.3534  0.0524 -0.2204
  802MPD2    C311813   3.578   4.613   0.364 -0.2821 -0.7097 -0.1906
  802MPD2    C411814   3.696   4.679   0.342 -0.1564  0.4300  0.1910
  802MPD2    C511815   3.743   0.041   0.438  0.3532  0.0295  0.3200
  802MPD2     H11816   3.401   4.595   0.478  0.2323 -1.2830 -0.2909
  802MPD2    H111817   3.758   4.654   0.257  0.4873  0.2148  0.7255
  802MPD2    H211818   3.714   0.140   0.619  3.2577 -0.5820 -0.4939
  802MPD2    H311819   3.834   0.100   0.425  0.5881 -0.4844 -0.3904
  802MPD2     N11820   3.524   4.520   0.271  0.0790  0.3455  0.5760
  802MPD2    H511821   3.434   4.480   0.294  0.9337 -1.1837  1.3329
  802MPD2    N111822   3.457   0.034   0.671 -0.0546 -0.1930 -0.0266
  802MPD2    H711823   3.375   4.700   0.684  2.9458 -4.1502  0.9259
  803MPD2     C11824   3.739   2.740  12.044 -0.8875  0.0133  0.5835
  803MPD2    C111825   3.851   2.778  12.111  0.3570 -0.1041  0.7610
  803MPD2    C211826   3.860   2.734  12.243  0.3511  0.1627 -0.2756
  803MPD2    C311827   3.761   2.656  12.305  0.3168 -0.2185 -0.1860
  803MPD2    C411828   3.648   2.630  12.242  0.6010 -0.3631  0.3314
  803MPD2    C511829   3.637   2.666  12.105  0.4062 -0.0971 -0.6547
  803MPD2     H11830   3.953   2.747  12.297 -1.0009 -0.1113  2.0826
  803MPD2    H111831   3.558   2.587  12.285 -0.3394 -0.1798 -1.4474
  803MPD2    H211832   3.725   2.780  11.944  1.3948  0.9082  0.6440
  803MPD2    H311833   3.544   2.641  12.056  1.0682 -3.2476 -0.3119
  803MPD2     N11834   3.759   2.611  12.440 -0.2922 -0.0883 -0.3520
  803MPD2    H511835   3.675   2.604  12.496 -0.6559 -2.3668 -1.1940
  803MPD2    N111836   3.964   2.849  12.055  0.3040  0.3395 -0.7929
  803MPD2    H711837   4.034   2.875  12.124 -0.6310  2.1771 -0.5380
  804MPD2     C11838   3.635   3.960  16.404  0.2083  0.1406  0.4727
  804MPD2    C111839   3.614   3.942  16.538  0.3067 -0.5028 -0.1993
  804MPD2    C211840   3.653   4.041  16.623  0.2063 -0.2387 -0.1753
  804MPD2    C311841   3.721   4.153  16.593  0.5835  0.0907 -0.7238
  804MPD2    C411842   3.753   4.166  16.460  0.0539  0.1956 -0.8111
  804MPD2    C511843   3.713   4.069  16.370 -0.2434  0.4564 -0.1486
  804MPD2     H11844   3.635   4.027  16.729 -0.2544  0.0126 -0.2215
  804MPD2    H111845   3.796   4.258  16.420  2.6806 -0.2538  0.9929
  804MPD2    H211846   3.610   3.895  16.321 -1.5488  1.7633 -0.2597
  804MPD2    H311847   3.729   4.075  16.262 -1.0782  0.9210 -0.2488
  804MPD2     N11848   3.741   4.251  16.691  0.1536  0.4576  0.6288
  804MPD2    H511849   3.717   4.232  16.787  1.2518 -2.1594  0.3628
  804MPD2    N111850   3.558   3.827  16.597 -0.6657 -0.1847 -0.6987
  804MPD2    H711851   3.538   3.824  16.697 -1.7293 -0.3988 -0.9259
  805MPD2     C11852   2.648   2.241  15.372  0.1787 -0.1488  0.6214
  805MPD2    C111853   2.714   2.254  15.248  0.4891  0.0408 -0.1452
  805MPD2    C211854   2.855   2.260  15.242  0.7473  0.0302  1.2417
  805MPD2    C311855   2.924   2.277  15.357 -0.2868  0.0113  0.8581
  805MPD2    C411856   2.860   2.266  15.478 -0.2427 -0.4909 -0.4093
  805MPD2    C511857   2.721   2.250  15.482 -0.0072 -0.0845 -0.1707
  805MPD2     H11858   2.902   2.280  15.146  0.5699 -0.3723  1.0703
  805MPD2    H111859   2.912   2.304  15.565 -1.5361 -2.9675  1.4485
  805MPD2    H211860   2.543   2.215  15.373 -0.1137  1.1680  2.3847
  805MPD2    H311861   2.675   2.233  15.579  2.8179 -0.5927  1.0688
  805MPD2     N11862   3.062   2.276  15.349  0.6302  0.1492  0.1213
  805MPD2    H511863   3.110   2.294  15.261 -2.2628  1.6038 -1.1536
  805MPD2    N111864   2.635   2.260  15.133 -0.2609  0.1234  0.3192
  805MPD2    H711865   2.682   2.239  15.046 -0.9547  2.8725 -0.7176
  806MPD2     C11866   3.756   1.606   0.110 -0.2812  0.3310  0.1507
  806MPD2    C111867   3.805   1.624   0.234 -0.4494  0.9556 -0.2135
  806MPD2    C211868   3.939   1.673   0.243 -0.0236  0.0046 -0.6242
  806MPD2    C311869   4.020   1.684   0.128  0.0507 -0.1700 -0.1850
  806MPD2    C411870   3.963   1.670   0.007 -0.0558  0.2268  0.4065
  806MPD2    C511871   3.831   1.631   0.001 -0.1248 -0.1718 -0.0430
  806MPD2     H11872   3.986   1.704   0.335  0.2564 -0.2558 -0.6771
  806MPD2    H111873   4.007   1.674  17.608 -1.7828  0.5044 -0.3425
  806MPD2    H211874   3.653   1.575   0.096 -0.3195  0.2906  0.5319
  806MPD2    H311875   3.798   1.613  17.600  0.0052 -4.2717  0.6406
  806MPD2     N11876   4.155   1.714   0.138  0.0113 -0.2943  0.1906
  806MPD2    H511877   4.181   1.758   0.226  0.8115  0.0004 -0.2024
  806MPD2    N111878   3.715   1.617   0.342 -0.0356 -0.2542 -0.0349
  806MPD2    H711879   3.620   1.596   0.311  0.2227  0.6545 -1.4624
  807MPD2     C11880   3.273   1.157   0.822  0.3397 -0.2491  0.2017
  807MPD2    C111881   3.404   1.165   0.857 -0.1903  0.5054  0.4165
  807MPD2    C211882   3.466   1.094   0.954  0.6175 -0.3814  0.0399
  807MPD2    C311883   3.396   0.997   1.009  0.0315 -0.0019  0.4373
  807MPD2    C411884   3.268   0.971   0.971  0.0600 -1.4685  0.9594
  807MPD2    C511885   3.203   1.051   0.876  0.5130  0.4300  0.4819
  807MPD2     H11886   3.558   1.135   0.995  0.9682  0.3839 -1.5129
  807MPD2    H111887   3.214   0.890   1.018  0.4746 -0.9283  2.3895
  807MPD2    H211888   3.225   1.221   0.749 -1.6170 -1.2857  0.5556
  807MPD2    H311889   3.102   1.029   0.844 -0.2268  1.2059  2.2472
  807MPD2     N11890   3.459   0.935   1.120  0.3731  0.1211 -0.2883
  807MPD2    H511891   3.554   0.965   1.141 -0.0492  0.3001  1.3682
  807MPD2    N111892   3.477   1.278   0.812  0.3406 -0.2064 -0.1310
  807MPD2    H711893   3.567   1.291   0.856  0.0899  0.9508  0.0340
  808MPD2     C11894   3.075   4.044   9.770  0.4696  0.6019 -0.7023
  808MPD2    C111895   3.189   4.046   9.849 -0.5343 -0.6914 -0.0635
  808MPD2    C211896   3.296   4.123   9.816 -0.1574  0.9052 -0.4415
  808MPD2    C311897   3.284   4.207   9.705  0.3682  0.0584 -0.2244
  808MPD2    C411898   3.177   4.205   9.625 -0.0830 -0.5281  0.5820
  808MPD2    C511899   3.070   4.132   9.665 -0.9112 -0.2363  0.0395
  808MPD2     H11900   3.386   4.132   9.877  1.4849 -0.1942 -2.7149
  808MPD2    H111901   3.181   4.258   9.530  0.7609 -0.8453  0.4382
  808MPD2    H211902   2.991   3.980   9.794  1.7760 -0.3595  1.2548
  808MPD2    H311903   2.981   4.128   9.603 -1.5473 -2.5425  1.0895
  808MPD2     N11904   3.391   4.280   9.643  0.0162 -0.3933  0.0181
  808MPD2    H511905   3.369   4.327   9.556  0.8639 -1.4725 -0.7622
  808MPD2    N111906   3.213   3.971   9.962  0.0493  0.0900 -0.1928
  808MPD2    H711907   3.304   3.971  10.006  0.0939  2.2227 -0.3154
  809MPD2     C11908   4.232   4.668  10.033 -0.1071  0.4547  0.1357
  809MPD2    C111909   4.171   0.024   9.940  0.5929  0.3730  0.4876
  809MPD2    C211910   4.081   4.698   9.850  0.3161  0.1567 -0.4884
  809MPD2    C311911   4.059   4.563   9.844 -0.9803  0.5259 -0.6273
  809MPD2    C411912   4.122   4.478   9.935  0.1727 -0.1282  0.6458
  809MPD2    C511913   4.205   4.533  10.033 -0.8632 -0.2846  0.1908
  809MPD2     H11914   4.021   0.041   9.790  1.0442  0.4943 -0.8346
  809MPD2    H111915   4.110   4.371   9.933 -0.2347 -0.0887  1.0997
  809MPD2    H211916   4.301   4.700  10.110  0.8034 -0.0379 -0.4682
  809MPD2    H311917   4.254   4.463  10.100 -0.0075 -1.0075 -1.1968
  809MPD2     N11918   3.976   4.496   9.749 -0.3391  0.0203 -0.7018
  809MPD2    H511919   3.957   4.397   9.749  0.4316 -0.1379  0.8510
  809MPD2    N111920   4.164   0.166   9.949 -0.3178  0.5707 -0.1445
  809MPD2    H711921   4.119   0.219   9.876 -1.5320 -1.1026 -0.6116
  810MPD2     C11922   3.083   2.474  11.230 -0.0561 -0.8700  0.2998
  810MPD2    C111923   3.059   2.540  11.112  0.4233 -0.3219  0.2842
  810MPD2    C211924   3.068   2.671  11.118 -0.3008 -0.4121 -0.3475
  810MPD2    C311925   3.088   2.738  11.241  0.0992 -0.3354  0.3991
  810MPD2    C411926   3.110   2.670  11.357 -0.1933  0.9669  0.1881
  810MPD2    C511927   3.104   2.534  11.354 -0.0641  0.5087 -0.2408
  810MPD2     H11928   3.026   2.734  11.041 -1.2712  0.2929  0.7479
  810MPD2    H111929   3.137   2.719  11.450 -0.5436  0.3871  0.5952
  810MPD2    H211930   3.081   2.366  11.240  0.8955 -0.7905  1.3176
  810MPD2    H311931   3.132   2.472  11.438  0.8306  2.3985  0.8714
  810MPD2     N11932   3.091   2.878  11.232 -0.0255  0.5411 -0.0353
  810MPD2    H511933   3.092   2.923  11.142 -2.0410  2.3971  0.8670
  810MPD2    N111934   3.013   2.474  11.001 -0.1822 -0.2031 -0.2268
  810MPD2    H711935   2.994   2.375  11.009 -2.0810  0.2613  1.0013
  811MPD2     C11936   2.547   2.352  10.205  0.3938 -0.2124 -0.0411
  811MPD2    C111937   2.598   2.455  10.276 -0.2366 -0.3550 -0.5511
  811MPD2    C211938   2.610   2.577  10.221 -0.3839  0.1615  0.4667
  811MPD2    C311939   2.572   2.591  10.088  0.0277 -0.2266 -0.1377
  811MPD2    C411940   2.531   2.483  10.010  0.1920 -0.1281  0.3479
  811MPD2    C511941   2.514   2.368  10.072  0.4289  0.8131  0.3172
  811MPD2     H11942   2.632   2.668  10.276 -0.4060 -0.7079  1.9162
  811MPD2    H111943   2.501   2.485   9.906  1.1520 -1.0560  0.0475
  811MPD2    H211944   2.528   2.252  10.241 -0.5825 -0.2301 -0.6235
  811MPD2    H311945   2.472   2.287  10.013  2.7534 -0.7149  0.7875
  811MPD2     N11946   2.582   2.726  10.033 -0.0388  0.1187  0.4961
  811MPD2    H511947   2.600   2.795  10.105  0.9978 -0.5413  0.8704
  811MPD2    N111948   2.633   2.429  10.407 -0.0052  0.2133 -0.1122
  811MPD2    H711949   2.609   2.337  10.442 -0.9710  0.3271 -0.4815
  812MPD2     C11950   1.953   2.850  12.463  0.8153  0.3352 -0.7424
  812MPD2    C111951   1.828   2.829  12.523  0.7004  0.0754 -0.5347
  812MPD2    C211952   1.814   2.721  12.613  0.4749 -0.2550  0.1975
  812MPD2    C311953   1.921   2.634  12.634 -0.2917  0.7638 -0.4017
  812MPD2    C411954   2.044   2.661  12.570  0.1651 -0.2772  0.3305
  812MPD2    C511955   2.064   2.767  12.482 -0.0462 -0.3306 -1.2670
  812MPD2     H11956   1.719   2.721  12.665 -0.0569 -1.0232 -0.7698
  812MPD2    H111957   2.140   2.613  12.588  0.0104 -0.8720 -0.4576
  812MPD2    H211958   1.970   2.933  12.395  2.8937  0.1354 -0.4596
  812MPD2    H311959   2.164   2.786  12.443 -0.0622  2.0643 -0.0709
  812MPD2     N11960   1.901   2.530  12.735  0.4398 -0.0896 -0.1535
  812MPD2    H511961   1.805   2.514  12.764  0.2778 -1.3480 -1.3731
  812MPD2    N111962   1.735   2.938  12.520 -0.5861  0.3673  0.1482
  812MPD2    H711963   1.782   3.021  12.488 -3.0049  2.5034  2.1293
  813MPD2     C11964   0.861   4.171  12.818 -0.2557  0.1409  0.3726
  813MPD2    C111965   0.762   4.267  12.796  0.3661 -0.5452  0.8134
  813MPD2    C211966   0.657   4.281  12.890 -1.1093 -0.0443  0.5924
  813MPD2    C311967   0.664   4.204  13.004 -0.0959 -0.1971  0.4869
  813MPD2    C411968   0.763   4.102  13.024  0.5420  0.1289 -0.0573
  813MPD2    C511969   0.856   4.084  12.926  0.0991 -0.8602 -0.1535
  813MPD2     H11970   0.585   4.359  12.869 -1.5370 -1.2794 -2.4982
  813MPD2    H111971   0.770   4.036  13.110  0.9952  1.6948  1.1179
  813MPD2    H211972   0.948   4.148  12.757  0.0274  1.7711  0.1724
  813MPD2    H311973   0.942   4.026  12.957  0.5748 -0.8339 -1.4400
  813MPD2     N11974   0.566   4.226  13.101 -0.0631 -0.2914  0.1298
  813MPD2    H511975   0.488   4.285  13.075 -1.1337 -0.6301  2.5724
  813MPD2    N111976   0.778   4.355  12.686 -0.1577 -1.0907  0.2591
  813MPD2    H711977   0.870   4.361  12.644 -0.6404 -0.3271 -0.6736
  814MPD2     C11978   1.365   0.696  12.361  0.1931 -0.0318 -0.1650
  814MPD2    C111979   1.308   0.794  12.285 -0.0474 -0.2976  0.7307
  814MPD2    C211980   1.281   0.918  12.351  0.1776 -0.3231 -0.5980
  814MPD2    C311981   1.310   0.942  12.483 -0.3409 -0.0972 -0.3389
  814MPD2    C411982   1.362   0.841  12.556  0.5953  0.0889  0.1904
  814MPD2    C511983   1.380   0.719  12.494  0.5996 -0.1359 -0.0911
  814MPD2     H11984   1.253   1.006  12.294 -0.2658  0.0059  0.1296
  814MPD2    H111985   1.392   0.868  12.657  0.3188  1.7747 -0.1811
  814MPD2    H211986   1.393   0.599  12.322  1.2067  0.4258 -0.5877
  814MPD2    H311987   1.421   0.633  12.547 -0.7447 -0.2098  0.8412
  814MPD2     N11988   1.300   1.067  12.543  0.0914 -0.4638  0.6449
  814MPD2    H511989   1.322   1.081  12.641  0.0546 -0.6443  0.6783
  814MPD2    N111990   1.280   0.791  12.146 -0.0962  0.4427 -0.4192
  814MPD2    H711991   1.263   0.882  12.103 -1.1792 -0.1653 -1.2590
  815MPD2     C11992   1.980   0.088  11.526 -0.1081 -0.2390  0.3216
  815MPD2    C111993   2.000   4.716  11.616  0.2776  0.4096 -0.4381
  815MPD2    C211994   1.886   4.641  11.649  0.2338 -0.3261  0.7068
  815MPD2    C311995   1.765   4.664  11.592 -0.5021  0.0681  0.7325
  815MPD2    C411996   1.747   0.037  11.494 -0.4822  0.8170  1.0119
  815MPD2    C511997   1.859   0.117  11.473 -0.6800 -0.3543 -1.1077
  815MPD2     H11998   1.902   4.546  11.698 -2.0442 -1.1797 -0.2045
  815MPD2    H111999   1.653   0.058  11.445 -0.2046  0.5817  0.3750
  815MPD2    H212000   2.060   0.152  11.490 -0.7614  0.4561  0.1015
  815MPD2    H312001   1.841   0.200  11.406  0.5982  0.8530  0.0202
  815MPD2     N12002   1.669   4.554  11.612  0.3559  0.0089  0.1408
  815MPD2    H512003   1.694   4.482  11.679 -4.4061 -0.1933  1.7615
  815MPD2    N112004   2.133   4.668  11.632 -0.6599 -0.0329 -0.2951
  815MPD2    H712005   2.199   4.698  11.561  1.8195 -2.2996  1.0467
  816MPD2     C12006   2.651   3.225  17.251 -0.2432  0.6024  0.5987
  816MPD2    C112007   2.574   3.292  17.159  0.0915  0.1386  0.1778
  816MPD2    C212008   2.586   3.253  17.027  0.3818  0.6238  1.1941
  816MPD2    C312009   2.683   3.164  16.991 -1.3393 -0.1354  0.3252
  816MPD2    C412010   2.768   3.107  17.080  0.5282 -0.6061 -0.8647
  816MPD2    C512011   2.751   3.140  17.212 -0.5754  0.1268  1.1812
  816MPD2     H12012   2.529   3.296  16.945 -1.1714 -2.2601  0.7408
  816MPD2    H112013   2.846   3.035  17.056  0.6885 -0.9676  0.7196
  816MPD2    H212014   2.646   3.249  17.356  0.9260 -0.7531  0.9606
  816MPD2    H312015   2.815   3.085  17.281  0.0418 -1.1805 -0.4231
  816MPD2     N12016   2.707   3.148  16.855 -0.2349 -0.3056  0.1003
  816MPD2    H512017   2.653   3.194  16.783  1.8189  0.5475 -0.9126
  816MPD2    N112018   2.481   3.396  17.206 -0.3293  0.0703  0.0715
  816MPD2    H712019   2.497   3.421  17.303 -1.2715  2.1781 -0.3157
  817MPD2     C12020   1.109   4.586  10.297 -0.1492  0.2306 -0.3303
  817MPD2    C112021   1.092   4.503  10.196 -0.0376 -0.0564  0.4278
  817MPD2    C212022   1.038   4.539  10.073 -0.1485 -0.1225 -0.0861
  817MPD2    C312023   1.010   4.672  10.047 -0.4429  0.0562 -0.0413
  817MPD2    C412024   1.033   0.042  10.148 -0.3845 -0.2441 -0.5810
  817MPD2    C512025   1.071   4.722  10.272  0.8451 -0.1206 -0.5487
  817MPD2     H12026   1.034   4.470   9.990 -0.8212  1.0967 -1.0684
  817MPD2    H112027   1.006   0.147  10.138 -1.2500 -0.2939  1.1795
  817MPD2    H212028   1.151   4.555  10.392 -0.5713  2.2445  0.5332
  817MPD2    H312029   1.087   0.073  10.348 -1.7450  0.5244 -0.6449
  817MPD2     N12030   0.951   4.698   9.923 -0.0517 -0.0326 -0.1038
  817MPD2    H512031   0.921   4.623   9.862  0.8351 -2.4424  2.4513
  817MPD2    N112032   1.125   4.368  10.218 -0.2710  0.4132  0.2547
  817MPD2    H712033   1.099   4.300  10.148 -0.1706 -1.1762  1.7834
  818MPD2     C12034   4.712   0.668   9.749  0.2555  0.4358  0.3845
  818MPD2    C112035   4.680   0.595   9.866  0.2117  0.0118  0.3790
  818MPD2    C212036   4.625   0.471   9.860  0.6077 -0.6015  0.4763
  818MPD2    C312037   4.598   0.411   9.745 -1.0260 -1.1530 -0.0003
  818MPD2    C412038   4.633   0.484   9.633 -0.2033 -0.8560 -0.1193
  818MPD2    C512039   4.683   0.609   9.630  0.3013 -0.4791 -0.6951
  818MPD2     H12040   4.593   0.442   9.960 -0.0656 -0.3233  0.3400
  818MPD2    H112041   4.613   0.434   9.540 -1.8542 -1.2564  0.4432
  818MPD2    H212042   0.048   0.758   9.751 -1.0289  1.3460 -1.8410
  818MPD2    H312043   4.711   0.642   9.531 -4.1167  0.9039 -1.4943
  818MPD2     N12044   4.556   0.280   9.724  0.0441  0.3212 -0.5737
  818MPD2    H512045   4.552   0.239   9.631 -1.0949 -1.1683  0.1265
  818MPD2    N112046   4.700   0.636   9.994  0.0027  1.1217 -0.7358
  818MPD2    H712047   4.650   0.580  10.062 -1.2045  3.2946  0.1538
  819MPD2     C12048   3.534   2.142  15.322 -0.4120  0.3085 -0.9812
  819MPD2    C112049   3.504   2.030  15.396  0.2317  0.3259  0.4021
  819MPD2    C212050   3.603   1.978  15.480  0.1454  0.1699  0.0382
  819MPD2    C312051   3.721   2.054  15.502 -0.1715  0.2246 -0.3970
  819MPD2    C412052   3.757   2.161  15.422 -0.6237 -0.1856  0.4570
  819MPD2    C512053   3.660   2.200  15.334 -0.9892  0.1609  0.1171
  819MPD2     H12054   3.591   1.891  15.543  2.3441  0.2208  0.5261
  819MPD2    H112055   3.858   2.200  15.423 -0.2188 -1.2310  0.4559
  819MPD2    H212056   3.459   2.187  15.257 -1.8592 -1.1482 -0.3088
  819MPD2    H312057   3.673   2.287  15.271  0.2175  0.4956  0.8215
  819MPD2     N12058   3.816   1.981  15.581  0.2879  0.2476 -0.2024
  819MPD2    H512059   3.781   1.894  15.620 -1.0099 -0.1266 -2.1999
  819MPD2    N112060   3.378   1.970  15.375  0.4212  0.1398 -0.1563
  819MPD2    H712061   3.332   1.975  15.285  0.3351  0.2864 -0.1046
  820MPD2     C12062   2.629   1.680  14.805 -0.6235 -0.2423  1.1289
  820MPD2    C112063   2.680   1.803  14.834 -0.1804  1.0182 -0.2200
  820MPD2    C212064   2.770   1.814  14.938 -0.3975 -0.1452 -0.4140
  820MPD2    C312065   2.818   1.706  14.994 -0.4695 -0.0943  0.1098
  820MPD2    C412066   2.775   1.579  14.958  0.8139  0.0945 -0.8465
  820MPD2    C512067   2.684   1.571  14.855  0.3430  0.3278 -0.6469
  820MPD2     H12068   2.784   1.915  14.976  0.9687 -1.5929  2.8852
  820MPD2    H112069   2.803   1.490  15.013 -0.1158  0.5747  0.4061
  820MPD2    H212070   2.543   1.668  14.739  0.7039  0.9130 -0.8034
  820MPD2    H312071   2.651   1.469  14.837 -1.8961  0.8827  0.4089
  820MPD2     N12072   2.908   1.708  15.101 -0.6344 -0.1867  0.3907
  820MPD2    H512073   2.931   1.617  15.142  1.7668 -0.2520 -1.0882
  820MPD2    N112074   2.601   1.917  14.789  0.4521  0.4599  0.4316
  820MPD2    H712075   2.519   1.903  14.731  2.4323 -0.0919 -2.2374
  821MPD2     C12076   3.172   3.498  13.190  0.3584  0.0240  0.4777
  821MPD2    C112077   3.244   3.504  13.309 -0.4699 -0.7153 -0.6633
  821MPD2    C212078   3.380   3.495  13.312  0.6747 -0.2819 -0.0918
  821MPD2    C312079   3.455   3.496  13.195  0.0543  0.6251 -1.1918
  821MPD2    C412080   3.389   3.480  13.073  0.0779  0.2907  0.1076
  821MPD2    C512081   3.250   3.480  13.076  0.5417  0.7246  0.4067
  821MPD2     H12082   3.429   3.507  13.408 -0.9710  1.7073  0.5128
  821MPD2    H112083   3.452   3.501  12.987  0.8417  2.2043  1.1258
  821MPD2    H212084   3.064   3.500  13.181  0.6423  0.0123 -2.9863
  821MPD2    H312085   3.205   3.462  12.979  3.0092  0.5935 -0.7163
  821MPD2     N12086   3.586   3.546  13.187  0.0237  0.2743 -0.5056
  821MPD2    H512087   3.635   3.533  13.099 -2.5751 -2.5301 -1.5613
  821MPD2    N112088   3.184   3.512  13.435 -0.1187 -0.0805  0.5598
  821MPD2    H712089   3.246   3.497  13.514 -0.3795 -0.8555  0.6229
  822MPD2     C12090   4.435   3.584  15.431  0.0678 -0.7084 -0.0214
  822MPD2    C112091   4.382   3.496  15.523  0.2735  0.4547 -0.1637
  822MPD2    C212092   4.271   3.538  15.599  0.7430 -0.1753 -0.1069
  822MPD2    C312093   4.207   3.657  15.575  0.5970 -0.1644 -0.6691
  822MPD2    C412094   4.254   3.741  15.470  0.1116  0.8588  0.1251
  822MPD2    C512095   4.373   3.702  15.406 -0.4632  0.0127 -0.4992
  822MPD2     H12096   4.243   3.475  15.684  0.4114  0.0881 -0.0219
  822MPD2    H112097   4.212   3.839  15.455 -0.8014  0.0914 -2.2663
  822MPD2    H212098   4.528   3.571  15.378  0.6759  0.1094  0.8438
  822MPD2    H312099   4.413   3.768  15.329  1.6395 -0.4440  0.1963
  822MPD2     N12100   4.110   3.690  15.669 -0.4462  0.2007 -0.0139
  822MPD2    H512101   4.094   3.622  15.743 -2.4962 -0.5091 -1.0988
  822MPD2    N112102   4.459   3.382  15.562  0.0101  0.1548  0.3366
  822MPD2    H712103   4.420   3.326  15.637  0.4122 -0.3489  0.1685
  823MPD2     C12104   3.924   3.710  16.410  0.8366  0.5522 -0.9786
  823MPD2    C112105   3.923   3.644  16.294  0.3066  0.0914  0.3154
  823MPD2    C212106   3.940   3.509  16.294  0.1081 -0.0350  0.4054
  823MPD2    C312107   3.941   3.446  16.417 -0.6568 -0.3710 -0.4923
  823MPD2    C412108   3.920   3.517  16.539 -0.1713  0.0905  0.4570
  823MPD2    C512109   3.925   3.650  16.532  0.6083 -0.6647 -1.1669
  823MPD2     H12110   3.939   3.446  16.206  1.1540  0.5092  0.0043
  823MPD2    H112111   3.916   3.469  16.636  0.3656 -0.7903  0.0483
  823MPD2    H212112   3.920   3.818  16.420  0.6506  0.3647  1.0106
  823MPD2    H312113   3.918   3.702  16.626  0.1526 -0.6511 -1.2085
  823MPD2     N12114   3.951   3.307  16.434 -0.2651 -0.6432 -1.0782
  823MPD2    H512115   3.934   3.265  16.524 -0.3703  0.3681 -0.6311
  823MPD2    N112116   3.885   3.717  16.187 -0.3770  0.6502 -0.2278
  823MPD2    H712117   3.885   3.818  16.197 -2.3924  0.5760  0.6228
  824MPD2     C12118   4.537   2.570  15.572  0.3333 -0.8233 -0.8187
  824MPD2    C112119   4.646   2.642  15.613  0.4057  0.2905  0.4489
  824MPD2    C212120   0.048   2.582  15.631 -0.3656 -0.0181 -0.3772
  824MPD2    C312121   0.060   2.448  15.610 -0.4180 -0.0522 -0.7036
  824MPD2    C412122   4.670   2.375  15.584  0.2893  0.8954 -0.0522
  824MPD2    C512123   4.549   2.435  15.574  0.3208 -0.1584  0.4538
  824MPD2     H12124   0.130   2.651  15.651  1.0425 -1.1484 -2.2651
  824MPD2    H112125   4.675   2.267  15.576 -0.4915  0.8512  0.0638
  824MPD2    H212126   4.444   2.614  15.539  0.4735 -1.5095 -2.1399
  824MPD2    H312127   4.471   2.365  15.546 -0.8894  1.4933 -0.3408
  824MPD2     N12128   0.191   2.394  15.623 -0.1112 -0.4675 -0.3507
  824MPD2    H512129   0.263   2.464  15.642  0.5518 -1.0956 -0.5405
  824MPD2    N112130   4.639   2.778  15.622  0.7757  0.6462  0.2581
  824MPD2    H712131   4.719   2.826  15.662 -0.3250 -0.0801  3.3587
  825MPD2     C12132   0.972   2.623  15.679  1.3599 -0.0484 -0.1365
  825MPD2    C112133   0.850   2.631  15.606 -0.3151 -0.1312 -0.6316
  825MPD2    C212134   0.825   2.747  15.542 -0.0813 -0.2583 -0.2971
  825MPD2    C312135   0.922   2.844  15.526 -0.2013 -0.4887  0.8843
  825MPD2    C412136   1.032   2.843  15.602 -0.1626  0.6995 -0.4794
  825MPD2    C512137   1.050   2.728  15.682  0.4103  0.1561 -0.3344
  825MPD2     H12138   0.737   2.747  15.478  2.8522  0.4515 -4.3052
  825MPD2    H112139   1.102   2.927  15.599  1.7455 -0.9499 -2.6206
  825MPD2    H212140   0.994   2.544  15.750 -1.1078 -0.1847  0.5011
  825MPD2    H312141   1.143   2.719  15.738  0.1215  2.3623  0.5414
  825MPD2     N12142   0.905   2.957  15.443 -0.4882  0.6329 -0.2227
  825MPD2    H512143   0.987   3.018  15.444  0.6035 -0.8553  1.6409
  825MPD2    N112144   0.769   2.517  15.604 -0.2802 -0.3325 -0.3103
  825MPD2    H712145   0.792   2.439  15.664  0.6951  0.6028  0.5353
  826MPD2     C12146   4.359   2.264  13.485 -0.0243 -0.6964  0.0790
  826MPD2    C112147   4.475   2.316  13.539 -0.2454 -0.2497  0.4113
  826MPD2    C212148   4.471   2.403  13.648  0.0497  0.6542 -0.0130
  826MPD2    C312149   4.348   2.444  13.703  0.0912  0.4810  0.3882
  826MPD2    C412150   4.230   2.384  13.655  0.4975 -0.3062  0.1672
  826MPD2    C512151   4.240   2.301  13.546 -0.5704  0.3420  0.1240
  826MPD2     H12152   4.560   2.449  13.690  0.0448  0.3224  0.3570
  826MPD2    H112153   4.133   2.406  13.699 -0.3143  0.1727 -1.8497
  826MPD2    H212154   4.356   2.202  13.396  2.9920  1.0926 -1.2321
  826MPD2    H312155   4.147   2.266  13.502 -1.2869 -0.2519  2.1016
  826MPD2     N12156   4.326   2.534  13.815  0.8345  0.2663  0.9461
  826MPD2    H512157   4.232   2.570  13.826 -0.1713 -1.8518 -0.8661
  826MPD2    N112158   4.593   2.277  13.481 -0.8659  0.3438 -0.8697
  826MPD2    H712159   4.594   2.189  13.430 -1.5132 -0.0899 -0.1498
  827MPD2     C12160   0.543   4.010  10.583  0.4538 -0.2658  0.3773
  827MPD2    C112161   0.519   3.932  10.694 -0.3564 -0.1347  0.3335
  827MPD2    C212162   0.396   3.868  10.704 -0.2437  0.1033  0.2869
  827MPD2    C312163   0.293   3.889  10.606 -0.7672  0.3902 -0.0769
  827MPD2    C412164   0.325   3.968  10.492 -0.8733  0.9136 -0.1584
  827MPD2    C512165   0.447   4.025  10.483 -0.1135 -0.7694 -0.0226
  827MPD2     H12166   0.381   3.810  10.795  1.3624  1.8163  1.6107
  827MPD2    H112167   0.250   3.984  10.416 -1.1148 -1.8487 -0.5097
  827MPD2    H212168   0.634   4.067  10.568 -0.4091  1.0147  0.0846
  827MPD2    H312169   0.467   4.087  10.396  0.7310  0.1263  0.8012
  827MPD2     N12170   0.162   3.828  10.616  0.0369  0.1266  0.5281
  827MPD2    H512171   0.148   3.747  10.675  2.1327 -1.2771 -0.8986
  827MPD2    N112172   0.620   3.901  10.777  0.4593 -0.4322 -0.1951
  827MPD2    H712173   0.712   3.935  10.750  1.5134 -2.0147  1.3956
  828MPD2     C12174   4.226   3.561  12.324  1.2999 -0.1279  0.4521
  828MPD2    C112175   4.151   3.531  12.206 -0.4976  0.6704 -0.1980
  828MPD2    C212176   4.212   3.518  12.084 -0.2807  0.1759 -0.2984
  828MPD2    C312177   4.347   3.535  12.075 -0.1956  0.4220  0.8425
  828MPD2    C412178   4.418   3.555  12.190  0.1179  0.0137  0.2150
  828MPD2    C512179   4.362   3.558  12.317  0.5391  0.4532 -0.2364
  828MPD2     H12180   4.149   3.481  12.004 -1.0236  2.0252 -0.5832
  828MPD2    H112181   4.524   3.575  12.188  0.5118 -2.0525  0.1317
  828MPD2    H212182   4.178   3.590  12.417 -1.4329  1.7643 -1.5499
  828MPD2    H312183   4.424   3.577  12.404 -1.9386  0.4299  1.5081
  828MPD2     N12184   4.421   3.529  11.953  0.0642  0.8393 -0.3889
  828MPD2    H512185   4.521   3.545  11.956 -0.3859  3.5091  0.4765
  828MPD2    N112186   4.007   3.547  12.211 -0.1464  0.5690 -0.0885
  828MPD2    H712187   3.957   3.554  12.123 -1.0636 -1.2895  0.2791
  829MPD2     C12188   3.498   3.700  11.575  0.4872 -0.3653 -0.6813
  829MPD2    C112189   3.412   3.676  11.678 -0.2529 -0.1397  0.6074
  829MPD2    C212190   3.464   3.618  11.789  1.7029 -0.2453  0.1337
  829MPD2    C312191   3.593   3.571  11.789 -0.2656 -0.8038 -0.1208
  829MPD2    C412192   3.678   3.597  11.690 -0.4702  0.3557  1.5207
  829MPD2    C512193   3.631   3.662  11.580 -0.3590  0.9737  0.1408
  829MPD2     H12194   3.405   3.614  11.880 -1.0405  1.2428 -1.5690
  829MPD2    H112195   3.778   3.557  11.685 -0.6788 -0.2368  2.1868
  829MPD2    H212196   3.457   3.739  11.482  0.5136  2.7707  0.6328
  829MPD2    H312197   3.686   3.683  11.489  0.2503 -1.8104 -0.1352
  829MPD2     N12198   3.643   3.519  11.907 -0.8164 -0.2226  0.8794
  829MPD2    H512199   3.743   3.518  11.921 -0.4310  2.2443 -1.6583
  829MPD2    N112200   3.276   3.721  11.668 -0.0309  0.1890 -0.7228
  829MPD2    H712201   3.241   3.772  11.588 -0.7640  0.8455  0.0148
  830MPD2     C12202   4.400   1.367  15.538 -0.3269 -0.1038  0.0356
  830MPD2    C112203   4.294   1.437  15.485  0.8269  0.7262 -0.5267
  830MPD2    C212204   4.285   1.439  15.346  0.0203 -0.1754 -0.2415
  830MPD2    C312205   4.384   1.375  15.269 -0.1362 -0.2818  0.2530
  830MPD2    C412206   4.478   1.301  15.333  0.5784  0.1407  0.4187
  830MPD2    C512207   4.484   1.287  15.469 -0.4595 -0.6343  0.1242
  830MPD2     H12208   4.208   1.505  15.306 -1.8401 -2.0967  0.1574
  830MPD2    H112209   4.550   1.254  15.266 -1.1169 -1.4414 -0.2939
  830MPD2    H212210   4.410   1.361  15.646  0.1768  0.4378  0.0192
  830MPD2    H312211   4.558   1.221  15.513  1.7566  0.3394 -2.0930
  830MPD2     N12212   4.394   1.378  15.126  0.3854 -0.2431 -0.3399
  830MPD2    H512213   4.476   1.334  15.086  0.1966 -2.5280  1.7281
  830MPD2    N112214   4.216   1.516  15.574 -0.1007 -0.0653 -0.2598
  830MPD2    H712215   4.240   1.505  15.672 -0.4058  0.4315 -0.1301
  831MPD2     C12216   4.311   3.725  15.961 -0.5097 -0.2343 -0.5053
  831MPD2    C112217   4.402   3.654  15.897  0.2393 -0.1605 -0.3074
  831MPD2    C212218   4.396   3.516  15.914 -0.1869  0.7390  0.3133
  831MPD2    C312219   4.295   3.456  15.986  0.4882  0.7267 -0.7245
  831MPD2    C412220   4.209   3.537  16.050  0.9276  0.7824  0.8560
  831MPD2    C512221   4.212   3.675  16.037 -0.4173  0.4051  0.1568
  831MPD2     H12222   4.453   3.451  15.849 -1.3646 -2.0142  2.0325
  831MPD2    H112223   4.121   3.494  16.096  0.4479  0.3613 -0.4683
  831MPD2    H212224   4.316   3.832  15.944  0.4736 -0.5763 -2.4292
  831MPD2    H312225   4.135   3.737  16.081  0.2694  1.5783 -0.2930
  831MPD2     N12226   4.255   3.319  15.972  0.1463 -0.0419  0.2617
  831MPD2    H512227   4.179   3.287  16.031  1.0505  0.6980  1.8389
  831MPD2    N112228   4.489   3.713  15.813 -0.2805  0.4231 -1.7133
  831MPD2    H712229   4.465   3.807  15.783 -0.1120  0.9465 -0.2136
  832MPD2     C12230   2.787   4.645  17.167 -0.5922 -0.1354 -0.0510
  832MPD2    C112231   2.729   0.043  17.155 -0.5061  0.0711  0.1559
  832MPD2    C212232   2.601   0.055  17.107  0.6819 -0.0077 -0.3744
  832MPD2    C312233   2.531   4.661  17.075  0.0422  1.1493  0.8004
  832MPD2    C412234   2.590   4.538  17.094 -0.4083  0.3922  0.2710
  832MPD2    C512235   2.719   4.531  17.141  0.2460 -0.2604  0.4452
  832MPD2     H12236   2.545   0.147  17.107  1.3500  0.4025 -1.5537
  832MPD2    H112237   2.536   4.446  17.074 -0.3687  1.0478 -2.7630
  832MPD2    H212238   2.892   4.635  17.193 -0.6711 -1.4013 -0.2010
  832MPD2    H312239   2.769   4.437  17.161  1.0574 -0.6634 -3.4422
  832MPD2     N12240   2.393   4.656  17.041 -0.2730  0.4210  0.1540
  832MPD2    H512241   2.346   4.566  17.035  1.8092 -0.5343 -1.7113
  832MPD2    N112242   2.798   0.152  17.204  0.4782  0.7515 -0.1839
  832MPD2    H712243   2.884   0.133  17.254  0.8062  1.2952 -0.5361
  833MPD2     C12244   4.279   1.705  12.413 -0.2751 -0.9813 -1.1815
  833MPD2    C112245   4.309   1.837  12.405  0.2540  1.0414  0.5282
  833MPD2    C212246   4.421   1.883  12.341  0.7869 -0.0031 -0.6787
  833MPD2    C312247   4.517   1.793  12.299  0.3290 -0.2063  0.2441
  833MPD2    C412248   4.490   1.664  12.318 -1.4443  0.5632 -0.4760
  833MPD2    C512249   4.366   1.621  12.362 -0.2023  0.4498 -0.4389
  833MPD2     H12250   4.442   1.989  12.336  1.5112 -0.2348 -2.2627
  833MPD2    H112251   4.560   1.593  12.276 -2.3327 -0.1051 -0.8206
  833MPD2    H212252   4.182   1.677  12.452 -0.8527  0.3005 -1.6805
  833MPD2    H312253   4.344   1.515  12.370 -3.7956  1.2827  1.0038
  833MPD2     N12254   4.632   1.826  12.234  0.0235  0.5458 -0.1270
  833MPD2    H512255   4.678   1.743  12.199 -1.3508  0.1142 -0.9122
  833MPD2    N112256   4.210   1.922  12.461 -0.3738  0.5792  0.5624
  833MPD2    H712257   4.127   1.877  12.500 -1.4294 -0.0559 -2.4665
  834MPD2     C12258   4.339   1.287  11.753 -0.1721  0.1099  1.0478
  834MPD2    C112259   4.391   1.358  11.653 -0.1340  0.4413  0.4609
  834MPD2    C212260   4.471   1.465  11.676 -0.3745 -0.2415  0.0075
  834MPD2    C312261   4.506   1.497  11.805  0.5498  0.1533 -0.7462
  834MPD2    C412262   4.450   1.430  11.904  0.3905  1.1492 -0.6258
  834MPD2    C512263   4.362   1.324  11.881  0.3637  0.7546  0.2459
  834MPD2     H12264   4.498   1.527  11.591  2.9002 -1.6737  0.0212
  834MPD2    H112265   4.461   1.458  12.008 -1.8762 -1.6387  0.4006
  834MPD2    H212266   4.260   1.217  11.728 -1.3579  2.1529 -0.8582
  834MPD2    H312267   4.327   1.268  11.967 -1.7275  1.3830 -0.1799
  834MPD2     N12268   4.593   1.607  11.825  0.8704  0.6276  0.3545
  834MPD2    H512269   4.610   1.655  11.737  2.0565  0.9445  0.7563
  834MPD2    N112270   4.358   1.304  11.521  0.1397 -0.1157 -0.3670
  834MPD2    H712271   4.297   1.224  11.532  1.1685 -0.2941  4.1390
  835MPD2     C12272   0.040   3.272  11.284 -0.1885 -0.6875 -0.8016
  835MPD2    C112273   0.048   3.405  11.312  0.2809 -0.6748 -0.1345
  835MPD2    C212274   0.142   3.443  11.401 -1.2741 -0.1515 -0.4254
  835MPD2    C312275   0.223   3.351  11.468  0.3091  0.7683 -0.2808
  835MPD2    C412276   0.224   3.221  11.431  0.4235 -0.8316 -0.2077
  835MPD2    C512277   0.132   3.183  11.340  0.4152 -0.7690  0.6988
  835MPD2     H12278   0.129   3.545  11.437 -0.4479 -0.0298 -0.4687
  835MPD2    H112279   0.277   3.148  11.491  0.3441 -1.9051 -1.4426
  835MPD2    H212280   4.690   3.234  11.214 -1.4614 -2.9012  1.7592
  835MPD2    H312281   0.130   3.078  11.315 -1.3007 -0.2441 -1.4691
  835MPD2     N12282   0.304   3.387  11.578 -0.0745 -0.0678 -0.0553
  835MPD2    H512283   0.320   3.319  11.652 -0.3429  0.2433  0.2924
  835MPD2    N112284   4.693   3.509  11.259 -0.7670  0.4114 -0.6661
  835MPD2    H712285   4.692   3.603  11.297 -1.1562  0.0075  0.3173
  836MPD2     C12286   4.606   3.952  11.686 -0.4988 -0.6574  0.6985
  836MPD2    C112287   4.618   3.884  11.812 -0.0909  0.0786  0.2041
  836MPD2    C212288   4.503   3.872  11.898 -0.4848  0.3362 -0.1416
  836MPD2    C312289   4.376   3.910  11.860  0.5872 -0.0971 -0.6476
  836MPD2    C412290   4.369   3.975  11.738  0.2114 -0.3796 -0.0505
  836MPD2    C512291   4.480   4.003  11.659  0.8832  0.3101  0.3549
  836MPD2     H12292   4.522   3.826  11.994 -0.0325  2.9381  1.0071
  836MPD2    H112293   4.270   4.013  11.714  1.0219  0.5585 -1.8607
  836MPD2    H212294   4.685   3.967  11.614 -0.5721  0.3031  0.8222
  836MPD2    H312295   4.475   4.072  11.576  0.1641  0.4586  0.5267
  836MPD2     N12296   4.262   3.912  11.945 -0.2478 -0.0428 -0.1406
  836MPD2    H512297   4.172   3.940  11.906  0.1787  0.6769 -0.6088
  836MPD2    N112298   0.020   3.828  11.840 -0.4559  0.0576  0.0707
  836MPD2    H712299   0.089   3.843  11.766  1.6832  0.7183  2.1995
  837MPD2     C12300   2.694   3.444  10.269 -0.5947  0.1502 -0.1313
  837MPD2    C112301   2.616   3.442  10.151 -0.6635 -0.1720 -0.0054
  837MPD2    C212302   2.608   3.564  10.084 -0.0096  0.0505 -0.5226
  837MPD2    C312303   2.652   3.686  10.136  0.1702  0.0187 -0.5615
  837MPD2    C412304   2.732   3.687  10.251 -0.0212  0.1155 -1.0539
  837MPD2    C512305   2.753   3.562  10.311 -0.4576 -0.8759  0.5731
  837MPD2     H12306   2.572   3.560   9.982 -0.7498 -1.9472 -0.1836
  837MPD2    H112307   2.781   3.777  10.288 -1.1295 -0.2936  1.4211
  837MPD2    H212308   2.704   3.362  10.338 -1.4881  0.5620  0.4820
  837MPD2    H312309   2.820   3.561  10.396  0.1775  1.0397  0.1055
  837MPD2     N12310   2.618   3.802  10.069  0.3826 -0.2941  0.7009
  837MPD2    H512311   2.558   3.790   9.988  1.1299 -2.6070  0.4886
  837MPD2    N112312   2.574   3.327  10.084 -0.2872  0.5540  0.5861
  837MPD2    H712313   2.510   3.328  10.005 -2.1499  0.0877  2.0666
  838MPD2     C12314   0.709   1.393  11.203  0.5741 -0.2655 -0.0765
  838MPD2    C112315   0.712   1.448  11.333 -0.2309  0.2354 -0.0250
  838MPD2    C212316   0.591   1.457  11.395  0.1900 -1.1141  0.0470
  838MPD2    C312317   0.478   1.390  11.349  0.0369  0.1425  0.0919
  838MPD2    C412318   0.470   1.345  11.220 -0.0095  0.2792  0.2168
  838MPD2    C512319   0.589   1.352  11.148  0.0437  0.3318 -0.4575
  838MPD2     H12320   0.593   1.508  11.490  2.7184  2.1796 -1.7397
  838MPD2    H112321   0.387   1.283  11.187 -0.9096  1.8658 -0.4596
  838MPD2    H212322   0.797   1.362  11.147  0.4330  0.9170 -0.9408
  838MPD2    H312323   0.596   1.284  11.064  0.1148 -2.6080  1.9339
  838MPD2     N12324   0.373   1.384  11.440 -0.5327  0.5072  0.4729
  838MPD2    H512325   0.389   1.433  11.527  2.5872  2.3303 -1.1274
  838MPD2    N112326   0.831   1.486  11.398 -0.6835  0.0070 -0.1244
  838MPD2    H712327   0.811   1.528  11.488 -3.1775 -0.9688 -0.2168
  839MPD2     C12328   0.822   1.140  12.111 -0.0295  0.2409 -0.0643
  839MPD2    C112329   0.784   1.123  11.974  0.6832  0.5732  0.8426
  839MPD2    C212330   0.849   1.193  11.878  0.6560 -0.2069  0.6163
  839MPD2    C312331   0.961   1.272  11.915  0.4485 -0.1204  0.5894
  839MPD2    C412332   0.997   1.290  12.044 -0.4052 -0.8479  0.1193
  839MPD2    C512333   0.924   1.231  12.140  0.4435  0.6205  0.5496
  839MPD2     H12334   0.828   1.192  11.771  0.7223  4.3099  0.5627
  839MPD2    H112335   1.082   1.353  12.066 -0.1370 -1.1457 -0.0581
  839MPD2    H212336   0.762   1.097  12.191  3.8260  1.1592  3.3681
  839MPD2    H312337   0.941   1.267  12.241 -1.6560  3.7124 -0.2123
  839MPD2     N12338   1.016   1.346  11.809  0.1723  0.0243 -0.2538
  839MPD2    H512339   0.978   1.322  11.718  2.6182 -2.5650 -0.5880
  839MPD2    N112340   0.665   1.061  11.937  0.3238  0.1727  0.1115
  839MPD2    H712341   0.628   1.084  11.845  0.1724 -0.0892  0.1082
  840MPD2     C12342   1.381   3.586  10.883 -0.0826  0.0526  0.6326
  840MPD2    C112343   1.306   3.694  10.854 -0.1630  1.1379  0.1502
  840MPD2    C212344   1.361   3.793  10.782  0.6808 -0.3827 -0.4412
  840MPD2    C312345   1.489   3.778  10.739 -0.1230 -0.3488  0.4551
  840MPD2    C412346   1.562   3.668  10.779  0.0298 -0.2764 -0.3877
  840MPD2    C512347   1.510   3.571  10.853 -0.0899  0.5405 -0.2129
  840MPD2     H12348   1.301   3.881  10.762  0.6230 -0.6267 -1.3227
  840MPD2    H112349   1.668   3.664  10.757 -0.1788 -1.1254 -1.2513
  840MPD2    H212350   1.341   3.508  10.946 -0.0726  1.0935  1.9135
  840MPD2    H312351   1.566   3.486  10.890 -0.0982  0.4209 -0.4736
  840MPD2     N12352   1.573   3.876  10.682  0.9018 -0.2090  0.1708
  840MPD2    H512353   1.673   3.855  10.683  0.3766 -2.7305 -0.2338
  840MPD2    N112354   1.182   3.698  10.924  0.6856 -0.5172  0.3976
  840MPD2    H712355   1.167   3.633  11.001 -0.2253  0.3501  0.9610
  841MPD2     C12356   1.270   3.713  14.829 -0.0128  0.1494 -0.0817
  841MPD2    C112357   1.326   3.696  14.700 -0.3648 -0.8091  0.0941
  841MPD2    C212358   1.361   3.806  14.630 -0.0274  0.1232 -0.2144
  841MPD2    C312359   1.346   3.931  14.681 -0.5105 -0.2440  0.6692
  841MPD2    C412360   1.291   3.949  14.811 -0.3396  0.6342 -0.2997
  841MPD2    C512361   1.256   3.838  14.883  0.1436 -0.0254 -0.0806
  841MPD2     H12362   1.408   3.797  14.532  0.6756 -0.7702  0.2071
  841MPD2    H112363   1.270   4.050  14.843 -1.3853  0.1312  0.6313
  841MPD2    H212364   1.236   3.629  14.889  0.2076  0.3500  0.3251
  841MPD2    H312365   1.186   3.859  14.964  1.6354  2.4462  0.5746
  841MPD2     N12366   1.397   4.043  14.606 -0.9129  0.4684 -0.2440
  841MPD2    H512367   1.431   4.033  14.511 -1.3512  0.5881 -0.4137
  841MPD2    N112368   1.350   3.573  14.640 -0.1195 -0.2967  0.6112
  841MPD2    H712369   1.380   3.575  14.543 -0.8068 -1.9835  0.3692
  842MPD2     C12370   1.162   4.615  16.346 -0.0967  0.5595  0.5292
  842MPD2    C112371   1.262   4.703  16.327  0.6136 -0.5158  0.7652
  842MPD2    C212372   1.351   0.007  16.434 -0.5950 -0.1492 -0.4567
  842MPD2    C312373   1.331   4.677  16.561 -0.3055  0.0694 -0.0104
  842MPD2    C412374   1.228   4.585  16.573  0.3186 -0.2739  0.2984
  842MPD2    C512375   1.153   4.550  16.462 -0.5954  0.5789 -0.1157
  842MPD2     H12376   1.425   0.084  16.413  0.4242 -1.2133 -0.7843
  842MPD2    H112377   1.214   4.532  16.666 -0.3002 -4.1099 -1.9616
  842MPD2    H212378   1.092   4.586  16.268 -0.2404  0.4917  0.6821
  842MPD2    H312379   1.079   4.471  16.473  0.0463 -0.1055 -0.7191
  842MPD2     N12380   1.412   4.695  16.679  0.2837  0.5082 -1.1535
  842MPD2    H512381   1.379   4.656  16.767  0.3313  0.8831 -0.9700
  842MPD2    N112382   1.276   0.042  16.199  0.3152 -0.1263 -0.4916
  842MPD2    H712383   1.198   0.025  16.137 -0.1134 -0.8863  0.2504
  843MPD2     C12384   4.708   0.127  17.617 -0.0687  0.0440  0.1680
  843MPD2    C112385   4.680   0.178   0.042  0.4660  0.1795 -0.3490
  843MPD2    C212386   4.714   0.312   0.063 -0.6645 -0.1315 -0.1762
  843MPD2    C312387   0.054   0.394  17.673 -0.2637 -0.6104  0.4795
  843MPD2    C412388   0.089   0.337  17.548  0.2919 -0.7980 -0.4016
  843MPD2    C512389   0.049   0.207  17.523 -0.2105  0.7241  0.0252
  843MPD2     H12390   4.677   0.355   0.156  0.0524 -0.1952  0.1379
  843MPD2    H112391   0.136   0.389  17.466  1.7817  0.2398  1.1025
  843MPD2    H212392   4.683   0.029  17.577  0.0574  0.8558 -1.8882
  843MPD2    H312393   0.081   0.163  17.429  1.5005  0.9000  0.5138
  843MPD2     N12394   0.093   0.531  17.698 -0.1083 -0.4551 -0.1381
  843MPD2    H512395   0.145   0.574  17.622  0.2193  0.3135  0.5302
  843MPD2    N112396   4.636   0.095   0.142  0.4784  0.8845  0.4015
  843MPD2    H712397   4.599   0.006   0.111  0.7782  0.7479  0.4366
  844MPD2     C12398   2.640   4.154  16.673 -0.0372 -0.5631 -0.0905
  844MPD2    C112399   2.589   4.261  16.601 -0.2002  0.4457 -0.8122
  844MPD2    C212400   2.629   4.386  16.629 -0.6185  0.1974  0.7184
  844MPD2    C312401   2.701   4.408  16.748 -0.2046 -0.4008  0.1082
  844MPD2    C412402   2.742   4.301  16.824 -0.4594  0.7623  0.5870
  844MPD2    C512403   2.715   4.174  16.783  0.4833  0.2362 -0.5057
  844MPD2     H12404   2.598   4.462  16.557  2.0131  0.9682  0.4075
  844MPD2    H112405   2.784   4.312  16.923 -0.1455  1.7756  0.3410
  844MPD2    H212406   2.614   4.051  16.654  2.8718 -1.4197  0.5103
  844MPD2    H312407   2.747   4.087  16.839 -3.5227 -0.1363  1.2093
  844MPD2     N12408   2.755   4.528  16.789 -0.5909 -0.5635 -0.4233
  844MPD2    H512409   2.809   4.531  16.874  0.0804  1.8688 -0.9188
  844MPD2    N112410   2.511   4.238  16.479 -0.5118 -0.1545 -0.5128
  844MPD2    H712411   2.484   4.317  16.421 -1.1081  0.5792  0.7637
  845MPD2     C12412   2.538   0.811  16.697 -0.3426 -0.0372 -0.3348
  845MPD2    C112413   2.574   0.749  16.817 -0.0826 -0.6120  0.9070
  845MPD2    C212414   2.647   0.633  16.821  0.7380  0.2312 -0.2624
  845MPD2    C312415   2.669   0.571  16.707  0.2151  0.6205 -0.5648
  845MPD2    C412416   2.616   0.609  16.590 -0.4492  0.2132 -0.3637
  845MPD2    C512417   2.554   0.735  16.584 -0.2935 -0.6543 -0.6089
  845MPD2     H12418   2.653   0.574  16.911  0.3733  1.0522  0.3024
  845MPD2    H112419   2.622   0.539  16.507  2.5118 -2.6249  2.2353
  845MPD2    H212420   2.485   0.905  16.684  0.4983  0.3340 -1.0550
  845MPD2    H312421   2.517   0.760  16.485 -1.2630 -1.1439 -0.3690
  845MPD2     N12422   2.729   0.439  16.716 -0.1089  0.2035 -0.4000
  845MPD2    H512423   2.717   0.373  16.639  0.3914 -0.8550  0.4322
  845MPD2    N112424   2.534   0.826  16.925 -0.2513  0.4723  0.2768
  845MPD2    H712425   2.477   0.909  16.912  0.4917  1.1692  1.4268
  846MPD2     C12426   4.266   0.771  13.874  0.0278  0.1898  0.4055
  846MPD2    C112427   4.139   0.824  13.870  0.5405 -0.3987  0.5407
  846MPD2    C212428   4.067   0.830  13.984  0.0922  0.0005  0.3104
  846MPD2    C312429   4.131   0.811  14.107 -0.7035  0.2522 -0.9058
  846MPD2    C412430   4.260   0.769  14.114  0.1623  0.8401  0.6285
  846MPD2    C512431   4.330   0.743  13.995  0.4297 -0.1676  0.3097
  846MPD2     H12432   3.964   0.862  13.973 -0.1834 -1.1554 -0.4602
  846MPD2    H112433   4.309   0.751  14.209  0.3150 -0.6747  0.2634
  846MPD2    H212434   4.317   0.753  13.780 -0.8205 -0.1994  0.0182
  846MPD2    H312435   4.431   0.704  13.992  0.4854  0.0534 -0.7094
  846MPD2     N12436   4.061   0.834  14.224 -0.4110  1.0725 -0.0623
  846MPD2    H512437   3.959   0.829  14.227 -0.2630 -4.0242 -2.2717
  846MPD2    N112438   4.067   0.843  13.749  0.2892 -0.3858  0.1878
  846MPD2    H712439   3.979   0.892  13.760  0.3614  0.0409 -1.1784
  847MPD2     C12440   4.183   1.746  13.791  0.5904  0.1595 -0.5532
  847MPD2    C112441   4.262   1.818  13.882 -0.1082 -0.7129 -0.2330
  847MPD2    C212442   4.363   1.764  13.948 -0.1989  0.5837  0.5182
  847MPD2    C312443   4.404   1.634  13.924  0.0465 -0.0462  0.7222
  847MPD2    C412444   4.334   1.555  13.827  0.8520 -0.0308  0.1561
  847MPD2    C512445   4.221   1.614  13.774 -0.0480  0.1333 -0.1655
  847MPD2     H12446   4.412   1.824  14.024 -0.2289  1.9757 -0.5536
  847MPD2    H112447   4.366   1.454  13.805 -1.0278 -0.2731 -1.5192
  847MPD2    H212448   4.100   1.794  13.739 -0.0893 -0.3682  0.0406
  847MPD2    H312449   4.164   1.552  13.707  0.4586 -0.5963  0.0787
  847MPD2     N12450   4.510   1.593  14.011  0.0748 -0.3303 -1.0197
  847MPD2    H512451   4.545   1.668  14.069 -0.1248  0.3550 -1.7766
  847MPD2    N112452   4.227   1.947  13.930 -0.2712 -0.1056  0.0863
  847MPD2    H712453   4.300   1.990  13.985  0.7654 -0.4914 -0.9744
  848MPD2     C12454   1.823   0.164  16.482  0.2802  0.0127 -0.0728
  848MPD2    C112455   1.939   0.192  16.550 -0.8114 -0.1967 -0.8008
  848MPD2    C212456   2.017   0.293  16.494  0.7970 -0.3411 -0.0255
  848MPD2    C312457   1.980   0.360  16.377  0.2299 -0.0634  0.1495
  848MPD2    C412458   1.867   0.323  16.321 -0.4130 -0.4099 -0.3372
  848MPD2    C512459   1.785   0.229  16.369 -0.3289 -0.7142 -0.8742
  848MPD2     H12460   2.104   0.331  16.547  1.0132  1.3508 -1.5577
  848MPD2    H112461   1.832   0.371  16.230 -2.0675  0.1233  0.5772
  848MPD2    H212462   1.750   0.090  16.513  0.5566  0.0428  0.6525
  848MPD2    H312463   1.688   0.217  16.324 -0.1042 -2.0288 -1.0073
  848MPD2     N12464   2.045   0.467  16.309 -0.7054  0.3484 -0.3360
  848MPD2    H512465   1.999   0.488  16.220 -0.8329  0.5248 -0.2278
  848MPD2    N112466   1.976   0.132  16.666 -0.1252 -0.0609 -0.3574
  848MPD2    H712467   2.053   0.177  16.716 -1.4725  3.3525 -1.3854
  849MPD2     C12468   1.331   0.176  13.939 -0.0504  0.2281  0.6459
  849MPD2    C112469   1.453   0.150  13.881 -0.5073  0.1504 -0.4174
  849MPD2    C212470   1.547   0.074  13.953 -0.0399  0.2306  0.2341
  849MPD2    C312471   1.518   0.031  14.080 -0.3879  0.2088  0.0608
  849MPD2    C412472   1.394   0.066  14.140  0.2212  1.1443 -0.0389
  849MPD2    C512473   1.303   0.134  14.066 -0.3238  0.6339 -0.1994
  849MPD2     H12474   1.648   0.051  13.919  0.8111  2.5814  1.2128
  849MPD2    H112475   1.372   0.031  14.241 -1.5417  0.8498 -0.5354
  849MPD2    H212476   1.255   0.233  13.887  1.2004  2.3619  1.1621
  849MPD2    H312477   1.204   0.146  14.110 -0.5315 -1.3684 -0.1174
  849MPD2     N12478   1.609   4.661  14.137  0.3125 -0.0663  0.3513
  849MPD2    H512479   1.689   4.643  14.077 -1.1648 -1.9186 -1.0338
  849MPD2    N112480   1.486   0.193  13.750 -0.4536  0.1089 -0.4067
  849MPD2    H712481   1.581   0.169  13.723  0.1725  1.6422  0.4388
  850MPD2     C12482   4.601   2.679  14.694 -0.1301  0.4108 -0.0178
  850MPD2    C112483   4.521   2.677  14.800  0.4343  0.2369  0.2802
  850MPD2    C212484   4.578   2.664  14.925 -0.3146 -0.4314 -0.1967
  850MPD2    C312485   4.717   2.652  14.946  0.2161  0.2081 -0.2319
  850MPD2    C412486   0.069   2.661  14.835 -0.5925 -0.8969  0.1135
  850MPD2    C512487   0.009   2.677  14.710 -0.1362  0.4660 -0.4617
  850MPD2     H12488   4.520   2.656  15.016  0.6384  1.8048  0.6079
  850MPD2    H112489   0.177   2.658  14.847 -0.5308 -0.0653 -0.2182
  850MPD2    H212490   4.566   2.698  14.593 -0.9465 -4.2291 -0.6023
  850MPD2    H312491   0.068   2.693  14.621  1.5685 -0.9832  0.3924
  850MPD2     N12492   0.055   2.627  15.074  0.3901  0.3414  0.0175
  850MPD2    H512493   0.154   2.612  15.063  0.3200  0.3013 -0.5971
  850MPD2    N112494   4.381   2.680  14.775 -0.8044 -0.0036  0.2921
  850MPD2    H712495   4.363   2.709  14.679  0.8007  2.4870  0.7479
  851MPD2     C12496   4.713   2.172  14.879 -0.8523  0.3480 -0.5360
  851MPD2    C112497   4.596   2.142  14.941  0.6435 -0.1896  0.4532
  851MPD2    C212498   4.554   2.010  14.954  0.1739 -0.2442 -0.0045
  851MPD2    C312499   4.636   1.908  14.895 -0.0711 -0.0447  0.0879
  851MPD2    C412500   0.032   1.936  14.840 -0.4669 -0.4343  0.3141
  851MPD2    C512501   0.067   2.067  14.833  0.4297 -0.9178  0.6995
  851MPD2     H12502   4.463   1.977  15.003 -0.6910  1.7697 -0.2775
  851MPD2    H112503   0.095   1.860  14.795 -1.3961  0.2478 -2.1525
  851MPD2    H212504   0.022   2.275  14.871 -0.9540  0.5214  1.3482
  851MPD2    H312505   0.162   2.090  14.786 -1.2718 -1.2631 -2.8734
  851MPD2     N12506   4.588   1.780  14.888 -0.1307 -0.5697 -0.0399
  851MPD2    H512507   4.501   1.765  14.937 -0.0011 -1.0060  0.0558
  851MPD2    N112508   4.513   2.254  14.981  0.1398  0.1248  0.0384
  851MPD2    H712509   4.540   2.344  14.943 -1.9928  1.9075  2.7040
  852MPD2     C12510   3.533   0.882   9.953 -0.3678  0.1992 -0.1321
  852MPD2    C112511   3.615   0.829  10.049 -0.5540  0.6164  0.4026
  852MPD2    C212512   3.754   0.854  10.046 -0.2839 -0.4161 -0.1086
  852MPD2    C312513   3.811   0.930   9.951 -0.6906 -0.0400 -0.2315
  852MPD2    C412514   3.735   0.993   9.860  0.5199  0.1609 -0.6211
  852MPD2    C512515   3.596   0.968   9.863 -0.3147  0.1453  0.2651
  852MPD2     H12516   3.816   0.813  10.125 -0.5327  0.2926  0.4536
  852MPD2    H112517   3.767   1.048   9.773  0.9241  0.2026 -0.4452
  852MPD2    H212518   3.427   0.862   9.937 -0.2503 -0.3538 -0.1983
  852MPD2    H312519   3.524   1.019   9.799  0.7411  1.2482 -0.0367
  852MPD2     N12520   3.953   0.942   9.962  0.0275  0.4421  0.0284
  852MPD2    H512521   3.998   0.896  10.040 -1.1930 -1.9350 -0.6884
  852MPD2    N112522   3.570   0.736  10.147 -0.2770 -0.1497  0.6611
  852MPD2    H712523   3.639   0.713  10.218  0.6634  0.3972 -0.0753
  853MPD2     C12524   0.389   4.625  12.256 -0.2833 -0.3648 -0.5185
  853MPD2    C112525   0.338   0.024  12.238  0.1742 -0.3116 -0.2985
  853MPD2    C212526   0.374   0.081  12.116  0.2768  0.7464 -0.1763
  853MPD2    C312527   0.446   0.017  12.018 -0.0370  0.2560 -0.3128
  853MPD2    C412528   0.498   4.621  12.045  0.1264 -0.7429  0.3518
  853MPD2    C512529   0.467   4.563  12.163  0.3265 -0.4935 -0.4479
  853MPD2     H12530   0.339   0.182  12.100 -0.9022  0.2468 -0.7534
  853MPD2    H112531   0.577   4.577  11.986  1.7534  1.2727  1.0315
  853MPD2    H212532   0.384   4.578  12.354 -1.2589 -0.1124 -0.4385
  853MPD2    H312533   0.510   4.469  12.193 -0.8279 -0.8848  0.0009
  853MPD2     N12534   0.456   0.062  11.884 -0.5575  0.2170  0.7463
  853MPD2    H512535   0.532   0.018  11.832  0.8871  2.0688  1.2568
  853MPD2    N112536   0.285   0.094  12.347  0.7241  0.1317 -0.5350
  853MPD2    H712537   0.266   0.045  12.433  1.5284 -0.0925 -0.4859
  854MPD2     C12538   2.709   4.506  13.117  1.1724  0.4936 -0.4445
  854MPD2    C112539   2.753   4.549  12.991 -0.1163 -0.3079  0.1315
  854MPD2    C212540   2.892   4.571  12.974 -0.1939 -0.6452 -0.8613
  854MPD2    C312541   2.979   4.552  13.072 -0.3442  0.0254 -0.1077
  854MPD2    C412542   2.938   4.507  13.192 -0.1115 -0.3804 -0.3412
  854MPD2    C512543   2.804   4.493  13.214  0.2627  0.7181  0.0669
  854MPD2     H12544   2.921   4.607  12.876 -0.8475  0.4166 -0.6605
  854MPD2    H112545   3.000   4.499  13.280  0.0917  2.5459 -0.2208
  854MPD2    H212546   2.604   4.486  13.132  1.5017 -0.4231  0.7111
  854MPD2    H312547   2.778   4.465  13.315 -1.1280  2.2765  0.1330
  854MPD2     N12548   3.113   4.597  13.065 -0.8710 -0.7894 -0.0418
  854MPD2    H512549   3.167   4.580  13.150  0.8125 -0.4723 -1.0384
  854MPD2    N112550   2.659   4.577  12.888 -0.4249  0.3053 -0.2041
  854MPD2    H712551   2.561   4.583  12.912 -0.3969  2.4641 -0.6782
  855MPD2     C12552   3.936   0.179  13.560  0.0357 -0.4100 -0.3603
  855MPD2    C112553   3.835   0.086  13.569  0.1191  0.4421  0.4291
  855MPD2    C212554   3.748   0.056  13.464 -0.3791 -0.4519  0.0780
  855MPD2    C312555   3.750   0.132  13.347 -0.5420 -0.0629 -0.3188
  855MPD2    C412556   3.847   0.242  13.343 -0.1942 -0.1837 -0.0489
  855MPD2    C512557   3.939   0.259  13.448  0.4641  0.1248 -0.4301
  855MPD2     H12558   3.698   4.684  13.470 -0.5263 -0.3615  0.2962
  855MPD2    H112559   3.837   0.318  13.266 -2.0352 -1.1471 -0.7587
  855MPD2    H212560   3.993   0.208  13.648 -0.4129  1.2815 -0.6283
  855MPD2    H312561   3.996   0.351  13.450 -0.5789  0.8237 -2.8609
  855MPD2     N12562   3.664   0.118  13.236 -0.0217  0.5133 -0.3885
  855MPD2    H512563   3.676   0.184  13.159  4.3932 -0.6381 -0.7229
  855MPD2    N112564   3.801   0.015  13.684 -0.0209  0.6089 -0.0494
  855MPD2    H712565   3.714   4.687  13.681  0.5248 -0.3681  0.9079
  856MPD2     C12566   0.485   1.336  13.529 -0.5327  0.0472  0.0332
  856MPD2    C112567   0.487   1.475  13.542 -0.3944  0.1361  0.7324
  856MPD2    C212568   0.377   1.540  13.578  0.0925  0.6706  0.1484
  856MPD2    C312569   0.258   1.479  13.603  0.6678 -0.3471  0.9098
  856MPD2    C412570   0.247   1.343  13.587 -0.2976  0.4569  0.4205
  856MPD2    C512571   0.362   1.273  13.548  0.0042  0.0913  0.5342
  856MPD2     H12572   0.383   1.649  13.579  0.6538  0.6350  0.5034
  856MPD2    H112573   0.149   1.299  13.598 -1.3047  2.5935 -0.1031
  856MPD2    H212574   0.567   1.269  13.508  0.9148  2.0269 -0.5463
  856MPD2    H312575   0.360   1.167  13.524 -1.3406 -0.2840  2.3890
  856MPD2     N12576   0.146   1.552  13.641  0.1194  1.0004 -0.1418
  856MPD2    H512577   0.055   1.509  13.634  0.5656  0.4528 -2.7763
  856MPD2    N112578   0.604   1.555  13.524 -0.2023  0.3172  0.7822
  856MPD2    H712579   0.593   1.649  13.561  1.6272  1.3155 -1.2069
  857MPD2     C12580   1.985   3.378  12.762  0.1318 -0.0865  0.6508
  857MPD2    C112581   2.025   3.351  12.891 -0.9988  0.0009 -0.1433
  857MPD2    C212582   2.022   3.457  12.992 -0.8191  0.3915 -0.2498
  857MPD2    C312583   1.977   3.585  12.957 -0.2250  0.3468 -0.2477
  857MPD2    C412584   1.935   3.600  12.828  0.3563 -0.3297 -0.0884
  857MPD2    C512585   1.940   3.501  12.733 -0.2141 -0.5182 -0.0103
  857MPD2     H12586   2.062   3.430  13.089 -3.1088 -3.4980 -0.4003
  857MPD2    H112587   1.902   3.699  12.797  1.0193  0.1446  0.7148
  857MPD2    H212588   1.987   3.309  12.678 -0.2648 -0.2841  0.8003
  857MPD2    H312589   1.911   3.527  12.632  0.9921  0.9460  0.0200
  857MPD2     N12590   1.964   3.683  13.058 -0.7099  0.6573 -0.2941
  857MPD2    H512591   2.019   3.668  13.141 -0.8074 -3.6415 -1.0283
  857MPD2    N112592   2.078   3.220  12.911 -0.1187 -0.2433  0.0120
  857MPD2    H712593   2.091   3.154  12.835  1.3376  0.3694 -0.2675
  858MPD2     C12594   2.674   2.549  16.877 -0.2332 -1.3796 -1.1227
  858MPD2    C112595   2.801   2.541  16.833  0.1035 -0.1920  0.0886
  858MPD2    C212596   2.900   2.584  16.920  0.0493  0.4626  0.1188
  858MPD2    C312597   2.874   2.652  17.034 -0.4260  0.7190 -0.7159
  858MPD2    C412598   2.741   2.677  17.066 -0.0036  0.1896 -0.1931
  858MPD2    C512599   2.644   2.616  16.992  0.6662  0.5498  0.5310
  858MPD2     H12600   3.003   2.565  16.892 -0.9898 -2.0672 -2.0570
  858MPD2    H112601   2.705   2.729  17.154 -0.2754  1.1385 -0.8707
  858MPD2    H212602   2.590   2.503  16.826  0.5473 -1.2423 -2.5369
  858MPD2    H312603   2.539   2.614  17.021  0.7542  2.1693  0.9537
  858MPD2     N12604   2.972   2.693  17.121 -0.0495 -0.1776  0.2485
  858MPD2    H512605   2.945   2.754  17.198 -0.3476 -1.3510  1.0724
  858MPD2    N112606   2.822   2.493  16.705 -0.5178 -0.0632  0.2649
  858MPD2    H712607   2.740   2.447  16.666 -0.0924  1.3040 -2.1897
  859MPD2     C12608   1.285   4.257  15.127 -0.1718 -0.4070 -0.1670
  859MPD2    C112609   1.415   4.265  15.083 -0.2077 -0.3774  0.8796
  859MPD2    C212610   1.491   4.149  15.076  0.2877  0.2099  0.5130
  859MPD2    C312611   1.448   4.025  15.123  0.6804  0.2822 -0.5753
  859MPD2    C412612   1.313   4.018  15.167  0.1000 -0.7333  0.7913
  859MPD2    C512613   1.236   4.132  15.172 -0.3995  0.0279 -0.6134
  859MPD2     H12614   1.586   4.151  15.024  1.4008  1.6375  2.5763
  859MPD2    H112615   1.266   3.924  15.197 -0.4130 -0.8097 -0.2571
  859MPD2    H212616   1.214   4.338  15.126 -1.8296 -1.8620 -0.5989
  859MPD2    H312617   1.133   4.120  15.205  0.6662 -0.2392  2.6739
  859MPD2     N12618   1.529   3.899  15.127 -0.2394 -0.2600  0.3527
  859MPD2    H512619   1.474   3.817  15.151  0.6681 -0.3965  1.9651
  859MPD2    N112620   1.469   4.387  15.035 -0.2972  0.3190 -0.8980
  859MPD2    H712621   1.408   4.468  15.030 -2.1624 -1.0008  0.3771
  860MPD2     C12622   3.640   0.082  11.432 -0.1255 -0.5006  0.0296
  860MPD2    C112623   3.607   0.142  11.555 -0.1870  0.0795 -0.1499
  860MPD2    C212624   3.518   0.082  11.648 -0.6373 -0.2209  0.3518
  860MPD2    C312625   3.470   4.677  11.615 -0.2138  0.1009 -0.6065
  860MPD2    C412626   3.503   4.626  11.492  0.1604 -0.5827  1.3900
  860MPD2    C512627   3.587   4.687  11.401 -0.3626  0.3702 -0.9968
  860MPD2     H12628   3.494   0.134  11.740 -2.6100 -0.9367  0.2431
  860MPD2    H112629   3.483   4.522  11.468  1.0381 -0.7318  1.3128
  860MPD2    H212630   3.703   0.131  11.358 -1.6946  1.6208  0.0867
  860MPD2    H312631   3.603   4.647  11.301 -0.4488  1.1936 -1.3428
  860MPD2     N12632   3.407   4.608  11.718 -0.2298 -0.2181 -0.5270
  860MPD2    H512633   3.402   4.654  11.809 -1.9333 -1.8645  0.2066
  860MPD2    N112634   3.668   0.268  11.592  0.2683  0.1281  0.3831
  860MPD2    H712635   3.644   0.312  11.680  1.4846  0.7881  0.3778
  861MPD2     C12636   1.927   3.184  11.659  0.0684  0.8387 -0.4236
  861MPD2    C112637   2.032   3.255  11.608  0.0812 -0.0911  0.3411
  861MPD2    C212638   2.022   3.305  11.483  0.0177 -0.3621  0.2508
  861MPD2    C312639   1.905   3.295  11.407  0.3049  0.6122 -0.3272
  861MPD2    C412640   1.803   3.231  11.469 -0.5095  0.0468  0.2376
  861MPD2    C512641   1.814   3.170  11.588  0.2830 -0.5691  0.5320
  861MPD2     H12642   2.112   3.346  11.437  0.4461 -2.4746 -0.7567
  861MPD2    H112643   1.705   3.228  11.423 -0.0840  0.6823 -0.7101
  861MPD2    H212644   1.923   3.145  11.760  0.6205  0.9253 -0.3689
  861MPD2    H312645   1.728   3.114  11.624  0.4378  0.1949  2.1019
  861MPD2     N12646   1.893   3.357  11.282  0.2855 -0.2931  0.4116
  861MPD2    H512647   1.978   3.397  11.243 -0.9560  1.5195 -0.4332
  861MPD2    N112648   2.143   3.273  11.687 -0.0487 -0.2035 -1.2308
  861MPD2    H712649   2.208   3.341  11.651  0.4534 -0.0126  0.0157
  862MPD2     C12650   1.980   3.146  10.528 -0.4583 -0.2909  0.5190
  862MPD2    C112651   1.988   3.147  10.668  0.1472 -0.1428  0.0438
  862MPD2    C212652   2.049   3.044  10.728 -0.1247  0.0750  0.3305
  862MPD2    C312653   2.071   2.925  10.665  0.3744  0.2607  0.7221
  862MPD2    C412654   2.039   2.919  10.530 -0.1277  0.0038 -0.7621
  862MPD2    C512655   2.001   3.031  10.459  0.4033 -0.1329 -0.3568
  862MPD2     H12656   2.055   3.043  10.837  3.0930  0.6928  0.1492
  862MPD2    H112657   2.059   2.833  10.467 -1.1125 -1.4792  0.9454
  862MPD2    H212658   1.945   3.235  10.476 -1.7551 -0.5262  0.9852
  862MPD2    H312659   1.978   3.023  10.354  1.6255  1.9494 -0.7796
  862MPD2     N12660   2.123   2.815  10.739  0.4419 -0.5884 -0.1528
  862MPD2    H512661   2.099   2.720  10.711 -2.1476 -0.3178  1.1528
  862MPD2    N112662   1.956   3.257  10.757  0.3925 -0.2396 -0.6161
  862MPD2    H712663   1.982   3.242  10.854 -1.2299  0.6834 -0.0403
  863MPD2     C12664   0.854   1.821  17.060  0.2041  0.0349 -0.0436
  863MPD2    C112665   0.927   1.755  16.961  1.1515  0.1327 -0.0150
  863MPD2    C212666   1.050   1.695  16.998 -0.3112 -0.2426  0.0222
  863MPD2    C312667   1.095   1.704  17.124 -0.2046  0.0336  0.5072
  863MPD2    C412668   1.008   1.751  17.224  0.7203  0.5361 -0.1958
  863MPD2    C512669   0.885   1.805  17.187 -0.7760  0.0939 -0.3878
  863MPD2     H12670   1.117   1.662  16.919 -0.5552 -3.8374  1.3163
  863MPD2    H112671   1.038   1.738  17.327 -1.1858 -1.8652  0.0567
  863MPD2    H212672   0.757   1.863  17.034  0.3377  0.1477 -0.3628
  863MPD2    H312673   0.813   1.833  17.263  0.6278 -0.4104  1.1480
  863MPD2     N12674   1.221   1.654  17.173 -0.6513 -0.2817 -0.7557
  863MPD2    H512675   1.226   1.649  17.274 -1.3353 -0.3720 -0.7242
  863MPD2    N112676   0.873   1.732  16.828 -0.0569  0.0639 -0.8526
  863MPD2    H712677   0.786   1.781  16.811 -0.8342 -0.5347  1.3241
  864MPD2     C12678   1.893   2.656  17.507 -0.6157  0.1245 -0.0581
  864MPD2    C112679   1.871   2.601  17.384 -0.4997  0.8560  0.0656
  864MPD2    C212680   1.958   2.638  17.280 -0.0780 -0.2521 -1.0826
  864MPD2    C312681   2.044   2.741  17.294 -0.5793 -0.7727  0.2352
  864MPD2    C412682   2.045   2.813  17.415 -0.5346 -0.2910 -1.1388
  864MPD2    C512683   1.970   2.769  17.521  0.1073 -0.6812  0.7175
  864MPD2     H12684   1.952   2.577  17.190 -1.0239 -1.0983 -0.4529
  864MPD2    H112685   2.124   2.883  17.439 -0.4802 -0.3224 -1.2241
  864MPD2    H212686   1.830   2.621  17.588 -2.3279 -1.6038 -2.1500
  864MPD2    H312687   1.988   2.807  17.621 -1.1534 -0.0995  0.7195
  864MPD2     N12688   2.126   2.786  17.188 -0.2396 -0.8103  0.2501
  864MPD2    H512689   2.155   2.883  17.189 -2.0782 -0.2368 -1.4202
  864MPD2    N112690   1.765   2.509  17.361 -0.5247  0.1436  0.1183
  864MPD2    H712691   1.712   2.481  17.442 -1.5014 -0.2482 -0.6493
  865MPD2     C12692   2.171   3.011  16.284  0.1808 -0.0102  0.6011
  865MPD2    C112693   2.118   2.920  16.373  0.7479  0.4488 -0.0888
  865MPD2    C212694   2.130   2.947  16.508  0.0662 -0.3118  0.1205
  865MPD2    C312695   2.178   3.067  16.552  0.4290  0.8587  0.3026
  865MPD2    C412696   2.219   3.163  16.465 -0.0783 -0.2110  0.6524
  865MPD2    C512697   2.207   3.133  16.332  0.0917 -0.0343 -0.2262
  865MPD2     H12698   2.104   2.870  16.580  1.9731 -1.0152  0.0506
  865MPD2    H112699   2.267   3.257  16.490 -1.3422  0.3762  0.8681
  865MPD2    H212700   2.170   2.993  16.178 -0.4884 -2.5099  1.0309
  865MPD2    H312701   2.232   3.212  16.261  2.4695 -0.0628  0.5791
  865MPD2     N12702   2.206   3.085  16.684  0.0897  0.6415 -0.4687
  865MPD2    H512703   2.252   3.168  16.717  2.2874 -0.4912 -0.6573
  865MPD2    N112704   2.064   2.797  16.318  0.6479  0.0110  1.0359
  865MPD2    H712705   2.086   2.791  16.219 -2.8547 -0.5571  0.2892
  866MPD2     C12706   2.898   3.280  11.633 -0.5425 -0.3477 -0.1219
  866MPD2    C112707   2.932   3.383  11.550 -0.3250  0.2334  0.4510
  866MPD2    C212708   2.824   3.463  11.501  0.1001 -0.6262  0.0043
  866MPD2    C312709   2.695   3.429  11.532  0.2734  0.1294  0.0343
  866MPD2    C412710   2.666   3.322  11.616 -0.0419 -0.1181 -0.2195
  866MPD2    C512711   2.769   3.251  11.661  0.4582 -0.0692 -0.4368
  866MPD2     H12712   2.850   3.546  11.437  0.7091  1.9416  3.5968
  866MPD2    H112713   2.564   3.302  11.646  0.5499 -2.0614  0.4826
  866MPD2    H212714   2.972   3.209  11.668 -0.0319  0.4129  0.3456
  866MPD2    H312715   2.754   3.162  11.722  1.0116 -1.1067 -1.7954
  866MPD2     N12716   2.588   3.500  11.492 -0.1547 -0.7721 -0.5346
  866MPD2    H512717   2.498   3.455  11.509 -0.5558 -0.3788 -1.5806
  866MPD2    N112718   3.067   3.403  11.522  0.2149 -0.3039 -0.1227
  866MPD2    H712719   3.137   3.333  11.546 -0.5698 -1.1961 -0.4204
  867MPD2     C12720   0.563   2.481  16.597  1.5040 -0.6720 -0.1899
  867MPD2    C112721   0.654   2.525  16.690  0.8434 -0.3346 -0.2153
  867MPD2    C212722   0.626   2.636  16.769 -0.0648  0.1442 -0.3741
  867MPD2    C312723   0.504   2.697  16.753 -0.3085  0.2079  0.7474
  867MPD2    C412724   0.410   2.636  16.669  0.6780 -0.2197 -0.3358
  867MPD2    C512725   0.441   2.535  16.582 -0.3983  0.4128  0.6651
  867MPD2     H12726   0.695   2.676  16.842  0.7756 -0.8937 -0.5986
  867MPD2    H112727   0.314   2.681  16.649 -0.0410 -1.2338  0.8436
  867MPD2    H212728   0.582   2.399  16.529 -0.5485 -1.8222  0.6415
  867MPD2    H312729   0.372   2.500  16.506  1.5682  1.3701 -1.5662
  867MPD2     N12730   0.458   2.813  16.823  0.0744 -0.4222  0.3115
  867MPD2    H512731   0.361   2.836  16.800  0.2514  0.7758  0.7207
  867MPD2    N112732   0.772   2.446  16.702 -0.0451 -0.0716 -0.8662
  867MPD2    H712733   0.799   2.378  16.632  0.0337 -1.0652  0.1321
  868MPD2     C12734   2.498   0.409  13.164  0.2943 -0.1904  0.1712
  868MPD2    C112735   2.559   0.536  13.170 -0.1468  0.0990 -0.3682
  868MPD2    C212736   2.480   0.643  13.153 -1.2840 -0.6692  0.4902
  868MPD2    C312737   2.347   0.628  13.130  0.1643 -0.5788 -0.0111
  868MPD2    C412738   2.293   0.501  13.120 -0.2590  0.3279 -0.3505
  868MPD2    C512739   2.366   0.394  13.149  0.1024 -0.1365  0.6142
  868MPD2     H12740   2.519   0.741  13.178  2.5668 -1.7089 -1.4141
  868MPD2    H112741   2.187   0.484  13.113 -0.4434  1.0804  0.5311
  868MPD2    H212742   2.547   0.314  13.183  0.3944 -0.4130 -1.1335
  868MPD2    H312743   2.318   0.297  13.153  1.0008 -0.4842  2.6627
  868MPD2     N12744   2.268   0.748  13.136 -0.2761  0.4013 -0.3890
  868MPD2    H512745   2.320   0.835  13.130  2.0263 -0.9024  0.7696
  868MPD2    N112746   2.696   0.561  13.198 -0.5590  0.7845  0.5827
  868MPD2    H712747   2.729   0.658  13.197 -1.6686  1.1491 -0.7869
  869MPD2     C12748   4.471   4.714   2.202  0.2656 -0.0674 -0.0579
  869MPD2    C112749   4.539   4.626   2.123 -0.1633  0.2327  0.2085
  869MPD2    C212750   4.509   4.612   1.990  1.1275 -0.4181  0.0867
  869MPD2    C312751   4.417   4.693   1.931 -1.1708  0.4282 -0.3620
  869MPD2    C412752   4.355   0.060   2.015 -0.2036  0.0391  0.5223
  869MPD2    C512753   4.378   0.074   2.144  0.4358 -1.3916  0.4869
  869MPD2     H12754   4.556   4.543   1.921 -0.6872 -1.2194 -0.3492
  869MPD2    H112755   4.280   0.129   1.977 -0.4788 -0.2930  0.4633
  869MPD2    H212756   4.488   0.003   2.308  0.6121 -0.7893 -0.0140
  869MPD2    H312757   4.321   0.149   2.197  0.2129  0.6109 -2.5919
  869MPD2     N12758   4.364   4.696   1.802 -0.5154 -0.7056  0.2755
  869MPD2    H512759   4.296   0.044   1.781 -0.3808 -1.5867 -3.2745
  869MPD2    N112760   4.639   4.536   2.165  0.0476 -0.5424  0.4548
  869MPD2    H712761   4.674   4.467   2.098 -0.9707 -1.4259  0.8282
  870MPD2     C12762   3.466   3.967   1.429 -0.8674  0.0987 -0.2615
  870MPD2    C112763   3.541   3.969   1.320 -0.0909  0.0255  0.6648
  870MPD2    C212764   3.476   3.977   1.196 -0.3306 -0.7644 -0.2254
  870MPD2    C312765   3.338   4.000   1.188 -0.2806  0.1555 -0.4295
  870MPD2    C412766   3.261   4.001   1.308 -0.0543  0.3637  0.6926
  870MPD2    C512767   3.330   3.982   1.423 -0.4390  0.1590  0.1370
  870MPD2     H12768   3.530   3.977   1.102  0.8839  3.4239  0.4458
  870MPD2    H112769   3.154   4.018   1.309 -0.1023  0.0447  0.9858
  870MPD2    H212770   3.506   3.952   1.528 -1.0230 -0.9017 -0.3520
  870MPD2    H312771   3.274   3.965   1.514  2.9635  0.2725  2.2765
  870MPD2     N12772   3.293   4.051   1.062 -0.3516 -0.3233  0.3542
  870MPD2    H512773   3.356   4.042   0.982 -1.7531  1.3483 -0.9454
  870MPD2    N112774   3.683   3.954   1.337 -0.1769  0.4021  0.3600
  870MPD2    H712775   3.711   3.930   1.432  0.2534 -0.4905  0.0075
  871MPD2     C12776   4.257   2.764  15.965 -0.0535 -0.2557 -0.1696
  871MPD2    C112777   4.234   2.716  16.091 -0.0368  0.0542  0.1963
  871MPD2    C212778   4.306   2.605  16.135  0.5214 -0.6004  0.2237
  871MPD2    C312779   4.400   2.548  16.056 -0.1481  0.8360  0.1574
  871MPD2    C412780   4.419   2.596  15.931  0.4388 -0.4277 -0.5467
  871MPD2    C512781   4.349   2.705  15.884 -0.0719 -0.5142 -0.3419
  871MPD2     H12782   4.294   2.557  16.232  0.5449  0.6100  0.8256
  871MPD2    H112783   4.485   2.536  15.870 -2.5612 -2.6150 -1.6096
  871MPD2    H212784   4.194   2.844  15.930  0.2124 -0.1854 -0.4801
  871MPD2    H312785   4.356   2.733  15.779 -2.5733  0.7398 -0.1713
  871MPD2     N12786   4.467   2.425  16.089  0.2739  0.0556  0.6487
  871MPD2    H512787   4.435   2.380  16.174  1.7274  2.4403  2.4584
  871MPD2    N112788   4.143   2.786  16.176 -0.1122 -0.7451  0.1032
  871MPD2    H712789   4.090   2.863  16.138  0.1379  0.1657  1.5842
  872MPD2     C12790   0.468   0.386  14.132  0.2961 -0.4773 -0.3902
  872MPD2    C112791   0.389   0.473  14.054 -0.6241 -0.2643  0.1089
  872MPD2    C212792   0.255   0.483  14.094  1.1647  0.5584  0.5096
  872MPD2    C312793   0.202   0.420  14.207  0.0574  0.0923 -0.2487
  872MPD2    C412794   0.287   0.342  14.279 -0.3924  0.3934  0.7604
  872MPD2    C512795   0.417   0.322  14.246  0.5880  0.8031 -0.2078
  872MPD2     H12796   0.195   0.552  14.036  0.9203  1.9473  2.4264
  872MPD2    H112797   0.254   0.293  14.370  1.4217  0.9495  1.7154
  872MPD2    H212798   0.571   0.377  14.102  0.7465 -0.0315  1.0153
  872MPD2    H312799   0.489   0.258  14.296  1.4983  1.5426 -0.5768
  872MPD2     N12800   0.072   0.421  14.255  0.3120  0.2429 -0.2146
  872MPD2    H512801   0.055   0.363  14.337 -1.3471 -1.1126 -1.5291
  872MPD2    N112802   0.443   0.565  13.959  0.3712  0.1667 -0.2882
  872MPD2    H712803   0.384   0.634  13.914  1.4639  1.7754  0.7425
  873MPD2     C12804   2.553   0.451   0.774 -0.3344 -0.4403  0.0300
  873MPD2    C112805   2.435   0.477   0.841  0.7372 -0.4720 -0.3639
  873MPD2    C212806   2.342   0.377   0.859 -0.0874 -0.4532  0.2156
  873MPD2    C312807   2.367   0.250   0.818 -0.0720  0.2082 -0.3305
  873MPD2    C412808   2.479   0.224   0.758 -0.3013 -0.3593 -0.2731
  873MPD2    C512809   2.571   0.321   0.731  0.2429  0.1537  0.5837
  873MPD2     H12810   2.250   0.407   0.907  0.3191  0.6150  0.3411
  873MPD2    H112811   2.492   0.127   0.712 -0.8303 -1.3288  1.6280
  873MPD2    H212812   2.627   0.528   0.755  0.9799 -1.3381  1.4217
  873MPD2    H312813   2.660   0.299   0.672  0.4416  2.4864 -0.0012
  873MPD2     N12814   2.276   0.145   0.836 -0.5411  0.3261 -0.4554
  873MPD2    H512815   2.289   0.059   0.784  0.0392  1.3292 -1.9609
  873MPD2    N112816   2.422   0.607   0.898 -0.1352  0.2156  0.0240
  873MPD2    H712817   2.505   0.665   0.899 -1.5356  2.2302 -0.8586
  874MPD2     C12818   1.712   0.674  15.617 -0.5198 -0.5526 -0.2345
  874MPD2    C112819   1.697   0.599  15.732 -0.0798  0.0126  0.6237
  874MPD2    C212820   1.782   0.634  15.833  0.8207  0.3249 -0.3171
  874MPD2    C312821   1.886   0.720  15.822 -0.8096 -0.0105 -0.5934
  874MPD2    C412822   1.910   0.777  15.705 -0.0294  0.2152  0.4678
  874MPD2    C512823   1.823   0.756  15.602  0.0758 -0.4160 -0.0624
  874MPD2     H12824   1.767   0.597  15.934  2.7111  0.0998 -0.1111
  874MPD2    H112825   1.992   0.846  15.688 -0.8184  0.7834 -0.9447
  874MPD2    H212826   1.650   0.646  15.533  0.7315  1.0639 -1.7022
  874MPD2    H312827   1.851   0.794  15.504  1.6348  0.6245  0.7901
  874MPD2     N12828   1.964   0.735  15.943 -0.3282  0.7593  0.4938
  874MPD2    H512829   1.926   0.686  16.024 -0.7603  0.5219  0.1456
  874MPD2    N112830   1.584   0.510  15.754  1.3462  0.3123  1.1395
  874MPD2    H712831   1.506   0.511  15.689  0.4987  1.1082  2.1651
  875MPD2     C12832   3.054   3.589  14.542  0.1195 -0.2619  0.8665
  875MPD2    C112833   2.953   3.585  14.634 -0.0943  0.0405 -0.2617
  875MPD2    C212834   2.976   3.629  14.762 -0.4072  0.0316  0.1216
  875MPD2    C312835   3.100   3.660  14.804  0.1474  0.4253 -0.0331
  875MPD2    C412836   3.203   3.651  14.719 -0.1991 -0.0073  0.0508
  875MPD2    C512837   3.186   3.619  14.586 -0.0289 -0.4631  0.1296
  875MPD2     H12838   2.887   3.624  14.824  1.3475 -3.5844  2.3325
  875MPD2    H112839   3.305   3.651  14.757  0.4267  2.1977 -1.5783
  875MPD2    H212840   3.040   3.564  14.437  0.1228  0.5729  0.6655
  875MPD2    H312841   3.275   3.607  14.525 -0.3864 -0.2023 -0.4440
  875MPD2     N12842   3.136   3.689  14.942  0.5846  0.5863 -1.0216
  875MPD2    H512843   3.235   3.698  14.963  0.3447 -2.7390  1.7169
  875MPD2    N112844   2.822   3.558  14.590  0.4944  0.0225 -0.6109
  875MPD2    H712845   2.750   3.586  14.656  2.7025  1.1523  1.2883
  876MPD2     C12846   1.347   4.615  15.869  0.0743 -0.5718 -0.0383
  876MPD2    C112847   1.483   4.626  15.843 -0.5552 -0.0802  0.4571
  876MPD2    C212848   1.570   4.530  15.904  0.5887 -0.0817 -0.1248
  876MPD2    C312849   1.514   4.432  15.979 -0.9981  0.2549  0.1678
  876MPD2    C412850   1.379   4.419  16.000 -0.3090 -0.4368  0.1454
  876MPD2    C512851   1.295   4.517  15.952  0.4729 -0.0881  0.0724
  876MPD2     H12852   1.677   4.530  15.887  0.4417  0.8624 -1.0491
  876MPD2    H112853   1.329   4.340  16.057  1.0907 -1.2342  0.2635
  876MPD2    H212854   1.280   4.686  15.823 -1.0064 -1.2252  0.5426
  876MPD2    H312855   1.189   4.504  15.970  0.1645 -1.0948 -2.4567
  876MPD2     N12856   1.600   4.342  16.047 -0.4862 -0.1153  0.4133
  876MPD2    H512857   1.700   4.362  16.046 -0.2359 -1.3379  0.5446
  876MPD2    N112858   1.526   0.010  15.762  0.0107  0.1061  0.0547
  876MPD2    H712859   1.459   0.054  15.700  0.2039 -0.5293 -0.5950
  877MPD2     C12860   1.459   0.339  15.089  0.0870 -0.2325 -0.1704
  877MPD2    C112861   1.582   0.377  15.136  0.1451  0.2871  0.3610
  877MPD2    C212862   1.669   0.449  15.053 -0.0848 -1.0688  0.8045
  877MPD2    C312863   1.638   0.470  14.923 -0.1558 -0.2253  0.3998
  877MPD2    C412864   1.516   0.420  14.872 -0.3766  0.3409 -0.2593
  877MPD2    C512865   1.431   0.354  14.958 -0.5277 -0.8829  0.2192
  877MPD2     H12866   1.761   0.484  15.098  0.6758  0.2085 -1.7713
  877MPD2    H112867   1.501   0.425  14.765 -0.7896 -1.7470 -0.3093
  877MPD2    H212868   1.385   0.292  15.153  2.2261  1.1906  3.3652
  877MPD2    H312869   1.337   0.326  14.913 -0.5272  0.6980 -0.7627
  877MPD2     N12870   1.721   0.536  14.829  0.2264  0.2840  0.3742
  877MPD2    H512871   1.685   0.529  14.734  1.4879  1.4386 -0.1949
  877MPD2    N112872   1.615   0.361  15.272  0.5312  0.2076  0.5610
  877MPD2    H712873   1.704   0.402  15.298 -1.3387  4.0190  0.9497
  878MPD2     C12874   1.359   4.510  12.801 -0.4959 -0.7839  0.6382
  878MPD2    C112875   1.282   4.612  12.865 -0.5090  0.4463  0.1651
  878MPD2    C212876   1.319   4.666  12.982  0.0446  0.5293  0.4578
  878MPD2    C312877   1.430   4.623  13.049  0.4075 -0.4488 -0.3835
  878MPD2    C412878   1.489   4.511  12.998  0.3146  0.2318  0.2841
  878MPD2    C512879   1.453   4.455  12.880  0.6480  0.1217 -0.1886
  878MPD2     H12880   1.262   0.024  13.024 -2.1747 -1.4099  1.2611
  878MPD2    H112881   1.567   4.461  13.054 -0.0022 -1.2000 -0.5607
  878MPD2    H212882   1.330   4.459  12.710 -0.8366  1.0342 -0.2670
  878MPD2    H312883   1.502   4.364  12.845  0.2438 -0.5973  1.1075
  878MPD2     N12884   1.470   4.681  13.173 -0.7423 -0.4161 -0.7042
  878MPD2    H512885   1.545   4.642  13.230  0.4779  1.5313 -0.9812
  878MPD2    N112886   1.162   4.651  12.802  0.1694  0.2950 -0.2906
  878MPD2    H712887   1.160   4.631  12.703 -0.3860 -1.0762 -0.0044
  879MPD2     C12888   2.128   1.868  16.989  0.0023  0.5241  0.1967
  879MPD2    C112889   2.190   1.750  17.029 -0.2089 -0.1108  0.1625
  879MPD2    C212890   2.123   1.631  17.006 -0.2105 -0.0703 -0.0073
  879MPD2    C312891   1.999   1.631  16.945  0.0967  0.4269 -0.0159
  879MPD2    C412892   1.941   1.752  16.909  0.6009  0.4546  0.3062
  879MPD2    C512893   2.009   1.869  16.935  0.3260  0.1808  0.5361
  879MPD2     H12894   2.171   1.538  17.035 -0.4984 -0.0579  0.5015
  879MPD2    H112895   1.840   1.762  16.871  0.7375 -0.7426 -0.3880
  879MPD2    H212896   2.180   1.962  16.998  2.1402 -0.3998 -2.4110
  879MPD2    H312897   1.962   1.955  16.890 -0.6986  0.5639  2.3777
  879MPD2     N12898   1.938   1.505  16.921 -0.5494  0.2947 -0.1163
  879MPD2    H512899   1.852   1.520  16.869  0.6233  2.8130 -1.3234
  879MPD2    N112900   2.319   1.763  17.093  0.0044  0.2811  0.2392
  879MPD2    H712901   2.346   1.860  17.103 -0.9878  0.5241  0.5042
  880MPD2     C12902   3.512   3.102   0.133 -0.2413  0.0547  0.1973
  880MPD2    C112903   3.616   3.189   0.145  1.0610 -0.7658  0.4435
  880MPD2    C212904   3.740   3.138   0.165 -0.0085 -0.0060 -0.7826
  880MPD2    C312905   3.759   3.004   0.189  0.3066 -0.5256  0.1633
  880MPD2    C412906   3.652   2.911   0.195 -0.0727 -0.1351  0.1015
  880MPD2    C512907   3.531   2.971   0.166  0.8147 -0.1854  0.1459
  880MPD2     H12908   3.828   3.201   0.154 -0.4393  0.3364 -2.2235
  880MPD2    H112909   3.665   2.804   0.208 -0.3056 -0.0984  0.6358
  880MPD2    H212910   3.413   3.134   0.103 -0.1124 -0.1376 -0.4217
  880MPD2    H312911   3.454   2.896   0.150 -1.4733  1.7232  2.1244
  880MPD2     N12912   3.886   2.964   0.223 -0.0101  0.8340 -0.4449
  880MPD2    H512913   3.962   3.031   0.220  3.5200 -3.1987 -0.5015
  880MPD2    N112914   3.589   3.328   0.117  0.1474  0.0246  0.3546
  880MPD2    H712915   3.493   3.349   0.091  0.5262  0.2431 -0.8593
  881MPD2     C12916   3.127   3.755  17.039  0.7198  0.6865 -0.6334
  881MPD2    C112917   3.222   3.653  17.049 -0.1351  0.7261 -1.1773
  881MPD2    C212918   3.290   3.625  17.165  0.1034  0.3668  0.8651
  881MPD2    C312919   3.246   3.690  17.273  0.7766 -0.6219  0.3266
  881MPD2    C412920   3.136   3.779  17.267  0.0352 -0.5415  0.0073
  881MPD2    C512921   3.074   3.811  17.153 -0.0744  0.9705 -0.2047
  881MPD2     H12922   3.379   3.563  17.174 -0.2338 -0.6264 -2.4718
  881MPD2    H112923   3.101   3.829  17.357  1.2982  1.4376 -0.5901
  881MPD2    H212924   3.079   3.768  16.942 -0.9194 -1.1401 -0.0631
  881MPD2    H312925   2.983   3.870  17.156  1.7600  3.6049  3.3544
  881MPD2     N12926   3.311   3.684  17.406  0.4279  0.1926  0.2839
  881MPD2    H512927   3.257   3.739  17.472 -1.3717  0.7214 -1.6279
  881MPD2    N112928   3.266   3.609  16.924  0.6611 -0.2296  0.2058
  881MPD2    H712929   3.225   3.649  16.841 -1.4832 -1.3157  0.7362
  882MPD2     C12930   1.877   0.420  14.158  0.1139  0.3135  0.1934
  882MPD2    C112931   1.829   0.535  14.218 -0.4918  0.4736  1.1551
  882MPD2    C212932   1.709   0.586  14.170  0.3196 -0.5104 -0.3528
  882MPD2    C312933   1.631   0.520  14.078 -0.9141 -0.1443 -0.2255
  882MPD2    C412934   1.682   0.401  14.024 -0.2250 -0.2838 -0.0195
  882MPD2    C512935   1.802   0.356  14.064 -0.7621 -0.6445  0.0442
  882MPD2     H12936   1.664   0.676  14.211  0.5473  0.2167 -1.7090
  882MPD2    H112937   1.625   0.340  13.955 -0.0220  0.2049 -0.6150
  882MPD2    H212938   1.959   0.359  14.194  0.5007 -0.1524 -1.4699
  882MPD2    H312939   1.844   0.260  14.035 -0.5995 -0.8035  0.7885
  882MPD2     N12940   1.497   0.551  14.044 -0.3366  0.5286 -0.3511
  882MPD2    H512941   1.454   0.512  13.960 -0.4079 -0.1968  0.0203
  882MPD2    N112942   1.895   0.603  14.323  0.3806  0.2251 -0.1995
  882MPD2    H712943   1.977   0.554  14.358  0.7207  0.4348 -0.7032
  883MPD2     C12944   3.837   0.990  16.770 -0.0159  0.2708  0.2422
  883MPD2    C112945   3.878   1.001  16.637 -0.2363 -0.2277  0.1289
  883MPD2    C212946   4.003   1.046  16.608  0.0500  0.4753 -0.2760
  883MPD2    C312947   4.100   1.072  16.704 -0.3610 -1.0136 -0.4426
  883MPD2    C412948   4.062   1.058  16.834  0.3465 -0.1930 -0.5765
  883MPD2    C512949   3.932   1.022  16.865 -0.1565  0.2918  0.6292
  883MPD2     H12950   4.027   1.050  16.502  1.4235  0.5749  0.0313
  883MPD2    H112951   4.136   1.058  16.913 -0.3359  1.6911  0.0739
  883MPD2    H212952   3.738   0.960  16.802 -0.5200 -0.8298 -2.2959
  883MPD2    H312953   3.902   1.011  16.968 -0.9485  0.9263  0.4667
  883MPD2     N12954   4.232   1.107  16.664  0.1073 -0.1096  0.1175
  883MPD2    H512955   4.254   1.130  16.568 -0.1558 -0.1275  0.0524
  883MPD2    N112956   3.797   0.959  16.528  0.3737  0.0644 -0.3525
  883MPD2    H712957   3.851   0.956  16.443 -0.7611 -2.8872 -0.9439
  884MPD2     C12958   0.831   0.969  15.085  0.6729 -0.0404  0.2328
  884MPD2    C112959   0.862   1.107  15.089  0.2387 -0.4754  0.6007
  884MPD2    C212960   0.761   1.190  15.130 -0.1065 -0.1841 -0.8614
  884MPD2    C312961   0.636   1.144  15.164 -0.2404  0.1726 -0.3059
  884MPD2    C412962   0.618   1.008  15.173 -0.2348  0.0511 -0.1018
  884MPD2    C512963   0.711   0.924  15.131  0.1404 -0.2421 -0.0796
  884MPD2     H12964   0.776   1.297  15.129 -0.5144 -0.1253  0.0808
  884MPD2    H112965   0.521   0.984  15.215 -0.2723  0.3394 -0.0259
  884MPD2    H212966   0.902   0.893  15.053  1.6265  0.3606  1.4047
  884MPD2    H312967   0.685   0.819  15.135  1.8678 -0.6492  0.4247
  884MPD2     N12968   0.525   1.232  15.181  0.0802 -0.3254  0.3385
  884MPD2    H512969   0.434   1.188  15.184  0.3831 -0.9763  0.1097
  884MPD2    N112970   0.994   1.154  15.047 -0.8225  0.4768 -0.0666
  884MPD2    H712971   0.998   1.256  15.050  0.4295  0.4108  0.5678
  885MPD2     C12972   4.201   1.110   0.153  0.0197 -0.1578 -0.0323
  885MPD2    C112973   4.258   1.232   0.172  0.0824 -0.2725 -0.5434
  885MPD2    C212974   4.230   1.329   0.073 -0.4562  0.1661  0.0978
  885MPD2    C312975   4.136   1.305  17.672  0.1883  0.5155 -0.0758
  885MPD2    C412976   4.067   1.185  17.668 -0.4333  0.3223  0.1295
  885MPD2    C512977   4.106   1.084   0.060 -0.4826 -0.4112  0.3112
  885MPD2     H12978   4.285   1.422   0.069  2.4888 -1.5124  1.5766
  885MPD2    H112979   3.999   1.162  17.587  1.2240 -2.2365 -0.5434
  885MPD2    H212980   4.231   1.025   0.213 -0.4626  0.0541  0.5144
  885MPD2    H312981   4.065   0.984   0.063 -0.1767 -0.5722 -1.2563
  885MPD2     N12982   4.111   1.407  17.574  0.1237 -0.0207 -0.0332
  885MPD2    H512983   4.160   1.496  17.581 -1.2794  0.6045  1.7806
  885MPD2    N112984   4.356   1.252   0.277  0.1537  0.3591  0.3718
  885MPD2    H712985   4.374   1.179   0.346  0.6254 -1.6390 -1.8528
  886MPD2     C12986   0.582   4.607  15.622 -0.1485  0.5533  0.4965
  886MPD2    C112987   0.563   4.561  15.491 -0.2084  0.0797 -0.1203
  886MPD2    C212988   0.544   4.647  15.383 -0.3107  0.0210  0.7720
  886MPD2    C312989   0.545   0.061  15.408 -0.6213 -0.3326 -0.4226
  886MPD2    C412990   0.559   0.105  15.540  0.3685 -0.4420  0.0637
  886MPD2    C512991   0.577   0.019  15.645  0.6930  0.3187 -0.8723
  886MPD2     H12992   0.530   4.606  15.283 -2.1515  0.2865  0.9069
  886MPD2    H112993   0.575   0.208  15.567 -2.2860 -0.0333  0.0629
  886MPD2    H212994   0.620   4.545  15.702 -0.5346  3.3338  2.8327
  886MPD2    H312995   0.584   0.058  15.746  0.1826  2.5472 -1.6899
  886MPD2     N12996   0.570   0.142  15.297  0.2885 -0.6352  0.4256
  886MPD2    H512997   0.623   0.223  15.328 -0.0649  0.2107 -1.1841
  886MPD2    N112998   0.570   4.419  15.460 -0.7862  0.0411 -0.3970
  886MPD2    H712999   0.577   4.389  15.364 -0.7879  3.2540 -1.4282
  887MPD2     C13000   1.163   4.334  15.531 -0.4122 -0.2891  0.8299
  887MPD2    C113001   1.059   4.386  15.454 -0.2055 -0.2111 -0.8748
  887MPD2    C213002   1.036   4.521  15.442 -0.0507  0.8979  0.4013
  887MPD2    C313003   1.125   4.606  15.502  1.0653 -0.4415  0.1462
  887MPD2    C413004   1.232   4.554  15.576 -0.2392 -0.2364 -0.1404
  887MPD2    C513005   1.247   4.427  15.589 -0.8762 -0.7917  0.9505
  887MPD2     H13006   0.939   4.562  15.416  0.5779  1.5158 -0.9824
  887MPD2    H113007   1.311   4.617  15.615 -0.9470 -0.0524  1.0018
  887MPD2    H213008   1.195   4.231  15.540 -0.5672 -0.6728 -3.2815
  887MPD2    H313009   1.325   4.385  15.651 -0.6795 -1.0902  0.5031
  887MPD2     N13010   1.104   0.020  15.497 -0.2983  0.5384  0.3172
  887MPD2    H513011   1.034   0.057  15.433  0.0521  0.2942 -0.1991
  887MPD2    N113012   0.959   4.299  15.401 -0.0151 -0.0337  0.5224
  887MPD2    H713013   0.873   4.332  15.357 -1.0037 -0.8296  1.8566
  888MPD2     C13014   2.616   0.047  15.208 -0.4622 -0.8330  0.1910
  888MPD2    C113015   2.677   0.052  15.331 -0.7180  0.0267  0.0228
  888MPD2    C213016   2.779   0.149  15.339 -0.0070 -0.1268 -1.1359
  888MPD2    C313017   2.818   0.232  15.240  0.4050 -0.6545 -0.1399
  888MPD2    C413018   2.759   0.216  15.119 -0.2933 -0.4480 -0.0715
  888MPD2    C513019   2.659   0.124  15.104  0.2432 -0.0573  0.3306
  888MPD2     H13020   2.835   0.145  15.432 -2.0773 -1.7187  0.0490
  888MPD2    H113021   2.798   0.260  15.028 -2.8429  0.4789 -0.7248
  888MPD2    H213022   2.565   4.684  15.170 -0.6386  0.4629 -2.5057
  888MPD2    H313023   2.627   0.108  15.001  2.3388 -0.8672 -0.1824
  888MPD2     N13024   2.930   0.322  15.264 -0.2637  0.6560  0.1332
  888MPD2    H513025   2.977   0.320  15.354 -1.6372 -1.5505  0.8150
  888MPD2    N113026   2.674   4.672  15.426 -0.2543 -0.3810 -0.0014
  888MPD2    H713027   2.748   4.658  15.494 -0.5766 -0.8620  0.2557
  889MPD2     C13028   1.833   4.546  12.999  0.1842 -0.2245 -0.2481
  889MPD2    C113029   1.869   4.513  13.128 -0.4091  0.1036 -0.7004
  889MPD2    C213030   1.935   4.607  13.203  0.2448  0.5623  0.2970
  889MPD2    C313031   1.928   0.020  13.179  0.2604 -0.8446  0.9618
  889MPD2    C413032   1.871   0.058  13.064 -1.4917  0.2902 -0.3855
  889MPD2    C513033   1.829   4.682  12.978  0.2220 -0.1932 -0.0958
  889MPD2     H13034   1.960   4.581  13.306  0.8887 -1.8060 -0.4658
  889MPD2    H113035   1.849   0.161  13.037 -1.9515  1.0706  3.0088
  889MPD2    H213036   1.796   4.478  12.923 -0.4158 -0.2643  0.0802
  889MPD2    H313037   1.790   4.712  12.881  1.8160  0.0762 -0.6497
  889MPD2     N13038   1.992   0.103  13.274 -0.2258 -0.2231 -0.0442
  889MPD2    H513039   2.019   0.052  13.357  1.7809 -0.4657 -0.8369
  889MPD2    N113040   1.895   4.377  13.162  0.1670 -0.6733 -0.2177
  889MPD2    H713041   1.948   4.364  13.247  0.9586  4.1345 -0.0002
  890MPD2     C13042   1.043   1.583  14.564 -0.2727 -0.1075 -0.3465
  890MPD2    C113043   1.143   1.537  14.483 -0.4418  0.3918 -0.1115
  890MPD2    C213044   1.179   1.404  14.479  0.1406  0.2983  0.0560
  890MPD2    C313045   1.104   1.308  14.549  0.8699  0.3562 -1.1173
  890MPD2    C413046   0.998   1.351  14.624  0.1887  0.2469 -0.4241
  890MPD2    C513047   0.969   1.488  14.626  0.3712 -0.0531  0.4043
  890MPD2     H13048   1.259   1.377  14.411 -0.9597 -0.6107 -0.8814
  890MPD2    H113049   0.931   1.281  14.673 -1.1143  1.4664 -0.4719
  890MPD2    H213050   1.016   1.687  14.574 -2.0107 -0.3595 -2.4632
  890MPD2    H313051   0.885   1.526  14.682  0.4287 -1.6430  1.5924
  890MPD2     N13052   1.160   1.182  14.541  0.6040 -0.3610  0.2512
  890MPD2    H513053   1.239   1.172  14.478  2.2456  1.1047  2.1006
  890MPD2    N113054   1.220   1.640  14.422  0.1537  0.4615 -0.2286
  890MPD2    H713055   1.191   1.735  14.443 -1.5743  0.3215 -1.9828
  891MPD2     C13056   4.606   0.096  16.358  0.5462 -0.2585  0.2030
  891MPD2    C113057   4.519   0.054  16.461  0.8003 -0.5760  0.0193
  891MPD2    C213058   4.569   0.011  16.584 -0.2362 -0.0018 -0.0421
  891MPD2    C313059   4.710   4.720  16.597  0.1904 -0.9280  0.1489
  891MPD2    C413060   0.070   0.039  16.495  0.2939  0.1489  0.2412
  891MPD2    C513061   0.019   0.091  16.378 -0.3679 -0.1990 -0.1038
  891MPD2     H13062   4.499   4.696  16.657 -0.3842 -0.5499 -0.4742
  891MPD2    H113063   0.178   0.029  16.503  0.2540 -0.6329 -0.1860
  891MPD2    H213064   4.571   0.134  16.263 -0.1736 -0.1610  0.5044
  891MPD2    H313065   0.090   0.123  16.303 -0.2101  2.3399  1.1328
  891MPD2     N13066   0.024   4.642  16.704  0.2329  0.0236 -0.4119
  891MPD2    H513067   4.679   4.612  16.771  1.9956 -0.3501  1.2637
  891MPD2    N113068   4.384   0.062  16.420 -0.3577 -0.4149 -0.0768
  891MPD2    H713069   4.375   0.088  16.323 -0.0099  1.1573  0.3150
  892MPD2     C13070   0.889   0.664  14.791 -0.1228  0.6020 -0.6271
  892MPD2    C113071   0.815   0.728  14.688  0.4952 -0.4040 -0.8500
  892MPD2    C213072   0.870   0.734  14.561  0.3602 -0.7828 -0.1638
  892MPD2    C313073   0.995   0.687  14.535 -0.1377  0.3972 -0.1745
  892MPD2    C413074   1.064   0.625  14.642 -0.1929 -0.4748  0.3351
  892MPD2    C513075   1.013   0.619  14.766 -0.8853 -0.2128  0.4489
  892MPD2     H13076   0.809   0.780  14.484 -0.5918 -0.5410  0.7418
  892MPD2    H113077   1.166   0.590  14.630  0.5573  1.5724  0.6401
  892MPD2    H213078   0.866   0.657  14.896 -0.8928  1.5709 -0.7281
  892MPD2    H313079   1.079   0.605  14.851  0.2884 -0.3163 -0.4808
  892MPD2     N13080   1.056   0.697  14.408  0.0024 -0.1396  0.3204
  892MPD2    H513081   1.146   0.650  14.400  0.0029  0.2041 -1.6558
  892MPD2    N113082   0.688   0.784  14.704 -0.1962  0.4409 -0.3790
  892MPD2    H713083   0.651   0.846  14.633  0.3889  1.7156  0.4370
  893MPD2     C13084   4.145   4.262   0.972  0.3430  0.3871 -0.1419
  893MPD2    C113085   4.170   4.308   1.099 -1.1267  0.1301  0.0911
  893MPD2    C213086   4.063   4.334   1.181 -0.0627 -0.0661  0.7847
  893MPD2    C313087   3.935   4.317   1.136 -0.3911 -0.2913 -0.8674
  893MPD2    C413088   3.917   4.299   1.002  0.3435 -0.0405  0.0626
  893MPD2    C513089   4.021   4.266   0.914 -0.4517  0.0803 -0.2990
  893MPD2     H13090   4.078   4.377   1.279  1.6717  1.0210  0.0497
  893MPD2    H113091   3.825   4.291   0.947  1.4199 -0.5032 -1.6831
  893MPD2    H213092   4.222   4.231   0.902  1.7716  1.3916  0.9845
  893MPD2    H313093   4.007   4.234   0.811  0.4257  0.7881 -0.6390
  893MPD2     N13094   3.812   4.363   1.203 -0.3416  0.2586  0.0823
  893MPD2    H513095   3.723   4.357   1.156 -0.0558  1.3121 -0.5951
  893MPD2    N113096   4.302   4.321   1.139 -0.2015 -0.5009  0.1051
  893MPD2    H713097   4.371   4.301   1.067  0.1273 -0.9623  0.5501
  894MPD2     C13098   1.593   1.955   0.802 -0.5105 -0.1046 -0.6146
  894MPD2    C113099   1.492   1.994   0.879  0.2114 -0.2037  0.4605
  894MPD2    C213100   1.488   2.127   0.924  0.3354  0.3816  0.0207
  894MPD2    C313101   1.584   2.221   0.886  0.2343  0.2525  0.0814
  894MPD2    C413102   1.681   2.177   0.800 -0.1216 -0.9396  0.5381
  894MPD2    C513103   1.687   2.044   0.757 -0.7130 -0.4469  0.9794
  894MPD2     H13104   1.410   2.159   0.992 -1.6182 -1.8163 -1.1582
  894MPD2    H113105   1.765   2.236   0.763 -1.0402  0.3341  0.5123
  894MPD2    H213106   1.614   1.850   0.783 -0.7315 -0.3742  0.6210
  894MPD2    H313107   1.769   2.013   0.693 -1.2295 -1.7239  0.9204
  894MPD2     N13108   1.575   2.355   0.945 -0.0710 -0.0281 -0.5354
  894MPD2    H513109   1.488   2.368   0.997  1.1079 -1.1231  1.7296
  894MPD2    N113110   1.396   1.902   0.929 -0.2924  0.5984  0.5666
  894MPD2    H713111   1.322   1.944   0.984 -1.0430 -0.5739  0.4443
  895MPD2     C13112   0.022   4.466  13.843  0.0131  0.4361 -0.2305
  895MPD2    C113113   4.704   4.444  13.713  0.6249  0.6664 -0.2468
  895MPD2    C213114   4.679   4.309  13.673  0.1667  0.6903 -0.3182
  895MPD2    C313115   4.703   4.203  13.763 -0.0025  0.2080  0.3411
  895MPD2    C413116   0.010   4.229  13.895  0.1866 -0.1938 -0.3135
  895MPD2    C513117   0.023   4.363  13.935 -0.2078  0.1485  0.2025
  895MPD2     H13118   4.654   4.290  13.570 -1.2009 -0.7520  0.2792
  895MPD2    H113119   0.036   4.152  13.966 -1.4706  1.3931  2.0038
  895MPD2    H213120   0.030   4.569  13.875  0.9648  0.5835 -0.9527
  895MPD2    H313121   0.050   4.374  14.039 -0.3594 -0.8759  0.3526
  895MPD2     N13122   4.688   4.069  13.714  0.3814  0.1952  0.0089
  895MPD2    H513123   4.685   4.054  13.613 -0.8383 -0.1814  0.0967
  895MPD2    N113124   4.685   4.542  13.618 -0.6698  0.2671 -0.2869
  895MPD2    H713125   4.648   4.502  13.533  1.0785 -1.0749 -0.4181
  896MPD2     C13126   2.989   3.237   1.660 -0.2533 -1.1075 -0.1634
  896MPD2    C113127   3.008   3.120   1.590  0.1327 -0.3912  0.3743
  896MPD2    C213128   2.889   3.058   1.538  0.1401  0.3050  0.0025
  896MPD2    C313129   2.767   3.104   1.578  0.5852 -0.1093  0.4325
  896MPD2    C413130   2.757   3.208   1.666 -0.1857  1.1551 -0.2699
  896MPD2    C513131   2.869   3.283   1.706 -0.2410  0.2715  0.1821
  896MPD2     H13132   2.904   2.983   1.462 -2.5244  1.8529 -2.0514
  896MPD2    H113133   2.663   3.250   1.699 -0.4996 -0.0281  0.3562
  896MPD2    H213134   3.068   3.306   1.689  0.0234 -1.8621  0.8748
  896MPD2    H313135   2.865   3.375   1.763 -0.5925  1.9729 -2.5645
  896MPD2     N13136   2.660   3.049   1.524  0.0180  0.3010  0.0565
  896MPD2    H513137   2.679   2.997   1.439  0.2951  0.4282  0.0400
  896MPD2    N113138   3.136   3.067   1.571 -0.4329 -0.1956 -0.1016
  896MPD2    H713139   3.210   3.109   1.626 -0.9133 -0.3472  0.6699
  897MPD2     C13140   3.247   4.177  10.344 -0.5028 -0.4156  0.3052
  897MPD2    C113141   3.136   4.195  10.265 -0.4443 -0.1704  0.3338
  897MPD2    C213142   3.014   4.138  10.295 -0.0564  0.0700 -0.1464
  897MPD2    C313143   3.014   4.054  10.410 -1.0170  0.5768 -0.0572
  897MPD2    C413144   3.130   4.025  10.475  0.5368  0.4034 -0.2452
  897MPD2    C513145   3.251   4.087  10.442 -0.1462 -0.1130  0.2363
  897MPD2     H13146   2.929   4.135  10.228  0.6501 -1.2527 -0.9807
  897MPD2    H113147   3.140   3.967  10.566  0.0309  0.2711 -0.2742
  897MPD2    H213148   3.339   4.224  10.309 -0.4301 -0.5863  0.2676
  897MPD2    H313149   3.345   4.073  10.494  0.0612 -1.0342 -0.3774
  897MPD2     N13150   2.886   4.009  10.455 -0.3019 -0.2028  0.6283
  897MPD2    H513151   2.803   4.035  10.401 -0.6493 -0.5092  1.0179
  897MPD2    N113152   3.161   4.276  10.151  0.0712  0.0381 -0.1433
  897MPD2    H713153   3.255   4.312  10.139 -0.0012  0.5749  0.9053
  898MPD2     C13154   0.541   0.182   0.015 -0.9493 -0.7608  0.2643
  898MPD2    C113155   0.648   0.271   0.004 -0.0324  0.3225  0.2923
  898MPD2    C213156   0.653   0.367  17.602  0.5197  0.1832  0.3172
  898MPD2    C313157   0.541   0.401  17.526 -0.2561 -0.4734  0.4214
  898MPD2    C413158   0.429   0.316  17.549  0.2158  0.3132 -0.5805
  898MPD2    C513159   0.429   0.207  17.641 -0.1153  0.1428  0.0625
  898MPD2     H13160   0.743   0.424  17.584  0.9053 -0.5823 -0.2114
  898MPD2    H113161   0.342   0.334  17.488 -0.4958  1.6387  0.8203
  898MPD2    H213162   0.530   0.101   0.085  1.8043 -1.6180 -0.2918
  898MPD2    H313163   0.338   0.153  17.664  0.6832  0.0890  2.9969
  898MPD2     N13164   0.528   0.502  17.433  0.4977  0.2131  0.3482
  898MPD2    H513165   0.610   0.554  17.401  2.0373 -2.8065 -0.6990
  898MPD2    N113166   0.754   0.272   0.094  0.3287  0.6238  0.6037
  898MPD2    H713167   0.830   0.337   0.079  1.9174 -0.6575  3.0456
  899MPD2     C13168   1.494   1.071  17.439 -0.0916 -0.2518 -0.6501
  899MPD2    C113169   1.507   1.186  17.510  0.8426  0.4330 -0.4085
  899MPD2    C213170   1.530   1.177  17.649 -0.4014 -1.0495 -0.0273
  899MPD2    C313171   1.532   1.055   0.016  0.2770  0.7671  0.2420
  899MPD2    C413172   1.515   0.944  17.640 -0.1052 -0.6444  0.2847
  899MPD2    C513173   1.518   0.956  17.500 -0.4653 -0.5239  0.0333
  899MPD2     H13174   1.513   1.261   0.014 -0.1831 -0.7582 -0.3456
  899MPD2    H113175   1.511   0.845  17.683 -1.8820 -1.1257 -0.9656
  899MPD2    H213176   1.485   1.077  17.331 -0.9791 -0.7177 -0.6039
  899MPD2    H313177   1.504   0.865  17.443 -1.0185 -1.0300  0.9863
  899MPD2     N13178   1.532   1.039   0.154 -1.3566  0.2769 -0.3959
  899MPD2    H513179   1.510   0.947   0.191 -0.3699 -0.8876 -2.7135
  899MPD2    N113180   1.499   1.311  17.441 -0.0991 -0.0806 -0.6034
  899MPD2    H713181   1.487   1.314  17.340 -2.1867  1.6764 -0.2990
  900MPD2     C13182   0.390   2.516  12.453 -0.1435 -0.0042  0.3648
  900MPD2    C113183   0.299   2.428  12.401 -0.1614  0.1487 -0.5002
  900MPD2    C213184   0.198   2.472  12.312 -0.5027  0.6503 -0.3696
  900MPD2    C313185   0.190   2.612  12.295  0.3105  0.6603 -0.1901
  900MPD2    C413186   0.281   2.698  12.356  0.2263 -0.1528  0.4424
  900MPD2    C513187   0.378   2.651  12.435 -0.2699  0.3624 -0.0826
  900MPD2     H13188   0.125   2.410  12.263 -2.3827  0.4115  2.6920
  900MPD2    H113189   0.275   2.806  12.351 -1.6500 -0.3659 -1.8333
  900MPD2    H213190   0.460   2.486  12.530  0.9545 -0.2679 -0.7379
  900MPD2    H313191   0.443   2.725  12.481  0.2760 -1.2407  1.7534
  900MPD2     N13192   0.093   2.660  12.202  0.5257 -0.1061 -0.1085
  900MPD2    H513193   0.036   2.592  12.153 -0.4744  1.2949 -0.8617
  900MPD2    N113194   0.313   2.292  12.435  0.3195 -0.4386  0.2554
  900MPD2    H713195   0.386   2.266  12.501  2.3921  1.7404 -1.1884
  901MPD2     C13196   4.563   1.355  12.634 -0.1962  0.2169  0.6674
  901MPD2    C113197   4.697   1.329  12.622 -0.1950  0.1627 -0.3534
  901MPD2    C213198   0.064   1.430  12.595  0.2414  0.1929  0.7011
  901MPD2    C313199   0.019   1.559  12.583  0.2244  0.2742 -0.2120
  901MPD2    C413200   4.607   1.586  12.605 -0.6645  0.6989  0.4433
  901MPD2    C513201   4.524   1.483  12.632 -0.1330 -0.6339 -0.3330
  901MPD2     H13202   0.165   1.398  12.575  0.0459  0.1681 -0.2812
  901MPD2    H113203   4.554   1.680  12.598 -2.2656 -0.1878  0.3684
  901MPD2    H213204   4.490   1.277  12.651 -0.6726  0.2054 -1.3988
  901MPD2    H313205   4.423   1.519  12.647 -0.2340  0.1483 -2.8415
  901MPD2     N13206   0.120   1.657  12.563  0.5132 -0.1667 -0.0975
  901MPD2    H513207   0.208   1.618  12.531  0.5847  1.2657 -1.6644
  901MPD2    N113208   0.020   1.191  12.617  0.1752  0.0031 -0.5476
  901MPD2    H713209   4.682   1.113  12.600  0.6944  0.0240 -2.5139
  902MPD2     C13210   4.384   0.307  12.721 -0.2171 -0.1459  0.2950
  902MPD2    C113211   4.366   0.369  12.594 -0.5051  0.7433 -0.6836
  902MPD2    C213212   4.420   0.306  12.483  0.2478 -0.4650  0.0368
  902MPD2    C313213   4.500   0.188  12.494  0.2033 -0.5883 -0.1149
  902MPD2    C413214   4.501   0.120  12.622  0.1255  0.2408 -0.0318
  902MPD2    C513215   4.451   0.188  12.732 -0.3259  0.4321  0.2974
  902MPD2     H13216   4.406   0.358  12.389  0.1396 -0.4617  0.0548
  902MPD2    H113217   4.534   0.017  12.627  0.6191  0.3073 -2.0545
  902MPD2    H213218   4.330   0.330  12.812 -1.8863  0.9749 -0.9699
  902MPD2    H313219   4.440   0.141  12.829 -1.0944 -0.7084 -0.3462
  902MPD2     N13220   4.577   0.135  12.382 -0.2234 -0.3294  0.2870
  902MPD2    H513221   4.612   0.041  12.398  0.8979 -0.1182 -0.9564
  902MPD2    N113222   4.287   0.486  12.593 -0.6459 -0.3898 -0.0084
  902MPD2    H713223   4.271   0.530  12.683 -0.7256  2.2548 -1.3327
  903MPD2     C13224   4.695   0.562  11.710  0.7948 -0.3941 -0.1594
  903MPD2    C113225   4.664   0.431  11.722  0.0021 -0.3057  0.2914
  903MPD2    C213226   4.544   0.391  11.666 -0.3243  0.1133 -0.0339
  903MPD2    C313227   4.448   0.486  11.610 -0.0510  0.7323 -0.4382
  903MPD2    C413228   4.494   0.614  11.589 -0.4805 -0.2485  0.6873
  903MPD2    C513229   4.609   0.653  11.645 -0.5013 -0.0346 -0.2529
  903MPD2     H13230   4.501   0.295  11.694 -2.3535  1.6839  2.2627
  903MPD2    H113231   4.424   0.691  11.559  2.4526  1.7503 -0.9768
  903MPD2    H213232   0.052   0.607  11.765 -0.2272  3.2667 -1.6633
  903MPD2    H313233   4.637   0.757  11.639 -3.0553  0.5277 -2.0685
  903MPD2     N13234   4.314   0.448  11.606 -0.4948  0.2331  0.3805
  903MPD2    H513235   4.294   0.358  11.649 -2.1862 -0.4062 -1.7458
  903MPD2    N113236   0.012   0.351  11.811  0.5208 -0.5071  0.1502
  903MPD2    H713237   0.082   0.399  11.866  0.3076  3.0152 -2.7014
  904MPD2     C13238   4.139   4.123  13.948 -0.8971  0.1884 -0.7345
  904MPD2    C113239   4.261   4.154  13.889 -0.3442  0.0134  0.0322
  904MPD2    C213240   4.370   4.078  13.932 -0.6726  0.4547  0.5874
  904MPD2    C313241   4.354   3.965  14.021 -0.3514  0.6453 -0.0832
  904MPD2    C413242   4.227   3.937  14.061 -0.3980 -0.6788 -0.4781
  904MPD2    C513243   4.130   4.017  14.028  0.3508  0.2937 -0.1848
  904MPD2     H13244   4.468   4.099  13.891 -0.8740  2.0169  0.9005
  904MPD2    H113245   4.208   3.868  14.142 -3.5679  0.0410 -0.6355
  904MPD2    H213246   4.045   4.174  13.927 -1.0883 -0.3714 -1.2143
  904MPD2    H313247   4.032   4.001  14.071  1.0707 -1.4055  0.8137
  904MPD2     N13248   4.468   3.890  14.065  0.7844 -0.5046  0.4437
  904MPD2    H513249   4.553   3.927  14.023  2.3662 -0.1732  3.9150
  904MPD2    N113250   4.276   4.258  13.799  0.1682  0.0764 -0.9761
  904MPD2    H713251   4.355   4.260  13.734  0.8248 -0.4671 -0.1980
  905MPD2     C13252   4.310   4.232  13.076  0.6893  0.0494  0.3836
  905MPD2    C113253   4.369   4.269  13.192 -0.1066 -0.4921 -0.2879
  905MPD2    C213254   4.460   4.178  13.255 -0.8120 -0.3919  0.2111
  905MPD2    C313255   4.480   4.050  13.204 -0.6538  0.8734  0.0991
  905MPD2    C413256   4.426   4.021  13.083 -0.3231 -0.4116 -0.2045
  905MPD2    C513257   4.344   4.109  13.022  0.5798 -0.0276 -0.4892
  905MPD2     H13258   4.495   4.197  13.356 -1.1043  0.6015  0.1279
  905MPD2    H113259   4.438   3.930  13.024 -0.0809 -0.1772 -0.5143
  905MPD2    H213260   4.245   4.296  13.016  1.6294 -0.7781 -1.5296
  905MPD2    H313261   4.318   4.091  12.918 -1.7798  0.4938  0.0027
  905MPD2     N13262   4.551   3.948  13.275  0.5497 -0.2635 -0.0303
  905MPD2    H513263   4.534   3.856  13.236 -3.5911  0.6738 -0.4074
  905MPD2    N113264   4.329   4.385  13.269  0.0279 -0.3422  0.0651
  905MPD2    H713265   4.232   4.408  13.252 -0.0151  1.7174  3.1331
  906MPD2     C13266   1.908   4.416  11.124  0.5971 -0.9224  0.5383
  906MPD2    C113267   1.825   4.313  11.092  0.2309  0.5615  0.2837
  906MPD2    C213268   1.786   4.236  11.196 -0.3451  0.0997  0.2987
  906MPD2    C313269   1.822   4.275  11.325  0.4897  0.2175 -0.0504
  906MPD2    C413270   1.898   4.380  11.354 -0.4966 -0.4268  0.3858
  906MPD2    C513271   1.942   4.460  11.250  0.0386 -0.4802  0.5678
  906MPD2     H13272   1.717   4.154  11.183  2.0186 -1.7728 -0.3422
  906MPD2    H113273   1.913   4.411  11.457  1.9336 -1.0815  0.2287
  906MPD2    H213274   1.946   4.476  11.041 -1.4330  0.5322  0.6592
  906MPD2    H313275   2.010   4.541  11.272 -0.3322 -0.3269  1.1494
  906MPD2     N13276   1.767   4.187  11.426 -0.6636 -0.2627  0.1507
  906MPD2    H513277   1.722   4.102  11.393  0.4257 -1.2805  1.2653
  906MPD2    N113278   1.792   4.275  10.960 -0.0819  0.0298 -0.1753
  906MPD2    H713279   1.739   4.188  10.950  1.5846 -0.8686 -1.0933
  907MPD2     C13280   1.059   3.607  15.627  0.2006  0.1600 -0.5018
  907MPD2    C113281   1.076   3.464  15.622 -0.2501 -0.3707 -0.6567
  907MPD2    C213282   1.111   3.400  15.739  0.7574 -0.0298 -0.0208
  907MPD2    C313283   1.144   3.474  15.851 -0.5945  0.0666  0.4242
  907MPD2    C413284   1.119   3.610  15.848 -0.7795  0.1581  0.0025
  907MPD2    C513285   1.075   3.676  15.740  0.4211  0.1584 -0.3550
  907MPD2     H13286   1.113   3.292  15.740 -0.1758 -0.0733 -2.5350
  907MPD2    H113287   1.139   3.681  15.928  0.9797 -0.6888  0.3242
  907MPD2    H213288   1.026   3.662  15.540  0.4874 -0.5086 -1.0255
  907MPD2    H313289   1.062   3.782  15.753  1.6516  0.4755 -1.7559
  907MPD2     N13290   1.163   3.404  15.975  0.1347 -0.3231 -0.5919
  907MPD2    H513291   1.167   3.303  15.963  0.1312 -0.1576 -2.0348
  907MPD2    N113292   1.039   3.389  15.513 -0.2069 -0.4088 -0.1704
  907MPD2    H713293   1.066   3.292  15.523  1.0683  0.0716  0.9887
  908MPD2     C13294   2.855   4.357   9.210 -0.8080  0.1141 -0.4659
  908MPD2    C113295   2.822   4.276   9.311 -0.1867 -0.6394 -0.1620
  908MPD2    C213296   2.864   4.315   9.438 -0.6719 -0.4954  0.1281
  908MPD2    C313297   2.923   4.436   9.460  0.4131  0.2908 -0.4458
  908MPD2    C413298   2.952   4.515   9.356 -0.3135  0.2668  0.1795
  908MPD2    C513299   2.921   4.471   9.235 -0.3975  0.1446  0.2197
  908MPD2     H13300   2.834   4.255   9.524 -0.2491  0.9145  1.2594
  908MPD2    H113301   3.003   4.611   9.358 -0.6344  0.4228  0.8117
  908MPD2    H213302   2.823   4.344   9.107  1.7885 -0.6081 -1.1767
  908MPD2    H313303   2.948   4.537   9.153  1.3852 -1.3180 -0.3834
  908MPD2     N13304   2.961   4.459   9.599  0.1759 -0.6265  0.4928
  908MPD2    H513305   2.931   4.385   9.662 -0.0458 -1.3592 -0.4612
  908MPD2    N113306   2.754   4.158   9.278 -0.2116  0.0929 -0.0782
  908MPD2    H713307   2.725   4.152   9.181 -1.6299 -2.2031  0.5032
  909MPD2     C13308   3.007   2.126  11.828 -0.1795 -0.0271  0.0834
  909MPD2    C113309   3.120   2.213  11.836  0.4718  0.1155  0.1627
  909MPD2    C213310   3.121   2.294  11.948 -0.2289 -0.9287 -0.7909
  909MPD2    C313311   3.026   2.291  12.046  0.4466  0.2665 -0.7736
  909MPD2    C413312   2.919   2.205  12.036 -0.1538  0.3314 -0.8267
  909MPD2    C513313   2.905   2.132  11.922  0.5708 -0.1157  0.2195
  909MPD2     H13314   3.209   2.357  11.953 -0.7901 -0.0646 -1.8444
  909MPD2    H113315   2.834   2.217  12.103  1.1853 -1.7136  1.2568
  909MPD2    H213316   2.994   2.061  11.742 -0.6991  2.1465 -1.4898
  909MPD2    H313317   2.813   2.076  11.915 -0.6619  1.8378  0.6701
  909MPD2     N13318   3.046   2.383  12.162 -0.5369  0.7794 -0.3940
  909MPD2    H513319   3.125   2.447  12.167  1.1826 -1.5876  3.1337
  909MPD2    N113320   3.207   2.241  11.730 -0.2521  0.0613 -0.0956
  909MPD2    H713321   3.273   2.319  11.731  0.4857 -0.5547 -0.9013
  910MPD2     C13322   0.296   4.115  15.618 -0.2208 -0.1623  0.0756
  910MPD2    C113323   0.348   3.993  15.576 -0.3821  0.3635 -0.3366
  910MPD2    C213324   0.377   3.979  15.438  0.5432  0.4160  0.0464
  910MPD2    C313325   0.345   4.083  15.345 -0.3221 -0.0442  0.4035
  910MPD2    C413326   0.278   4.191  15.393  0.0394  0.8132 -0.5893
  910MPD2    C513327   0.259   4.216  15.526 -0.7737 -0.3088  0.9201
  910MPD2     H13328   0.416   3.886  15.398 -1.6198  0.1003 -1.3235
  910MPD2    H113329   0.248   4.266  15.320 -2.5175  0.3570  0.0197
  910MPD2    H213330   0.291   4.151  15.720  0.1857  0.5635 -0.1618
  910MPD2    H313331   0.220   4.309  15.566 -3.3580 -1.2535  0.5649
  910MPD2     N13332   0.392   4.081  15.208  0.4007 -0.2933  0.2458
  910MPD2    H513333   0.363   4.150  15.139 -2.5592 -0.4656  1.2842
  910MPD2    N113334   0.384   3.889  15.663  0.2239  0.4983 -0.3527
  910MPD2    H713335   0.430   3.808  15.623  0.7261  0.4102  0.4045
  911MPD2     C13336   2.757   4.456  16.199 -0.4736  0.1192  0.1361
  911MPD2    C113337   2.807   4.536  16.306  0.5365  0.6951 -0.2293
  911MPD2    C213338   2.740   4.650  16.339  1.0702  0.0807  0.1424
  911MPD2    C313339   2.631   4.695  16.258  0.6279 -0.7681 -0.6805
  911MPD2    C413340   2.592   4.617  16.150 -0.5420  0.1787 -0.2168
  911MPD2    C513341   2.655   4.500  16.119  0.1275  0.7253 -0.6160
  911MPD2     H13342   2.766   4.710  16.426  1.4447 -0.6434  0.5307
  911MPD2    H113343   2.513   4.650  16.083 -1.9154  2.3083  2.4638
  911MPD2    H213344   2.809   4.366  16.167 -3.2471 -1.8815  1.2470
  911MPD2    H313345   2.618   4.440  16.037 -3.1933 -1.8641  2.7393
  911MPD2     N13346   2.543   0.077  16.294  0.0916  0.7043  0.0145
  911MPD2    H513347   2.455   0.075  16.244  1.3934 -0.3677 -2.2326
  911MPD2    N113348   2.913   4.477  16.381 -0.0075  0.7710 -0.3424
  911MPD2    H713349   2.937   4.381  16.357 -1.5928  0.3878 -0.3968
  912MPD2     C13350   2.323   0.023  15.812  0.2900 -0.2969 -0.0039
  912MPD2    C113351   2.268   0.007  15.939 -0.5426  1.0928 -0.4769
  912MPD2    C213352   2.262   4.615  16.002  0.5260  0.2544 -0.3120
  912MPD2    C313353   2.322   4.508  15.941 -0.0322 -0.4722 -0.8708
  912MPD2    C413354   2.398   4.527  15.828  0.9108  0.3782  0.1826
  912MPD2    C513355   2.383   4.642  15.755  0.1966 -0.2997  0.0403
  912MPD2     H13356   2.221   4.583  16.098  0.4380  1.3605  0.0285
  912MPD2    H113357   2.450   4.447  15.775 -1.4925 -2.6107  2.3541
  912MPD2    H213358   2.331   0.122  15.768  3.0921  0.9988  3.4109
  912MPD2    H313359   2.442   4.652  15.665  1.8218 -0.1193  1.1245
  912MPD2     N13360   2.325   4.381  16.011 -0.6042  0.6322  0.0375
  912MPD2    H513361   2.265   4.371  16.092  1.1627  1.4578  1.4187
  912MPD2    N113362   2.237   0.134  16.004 -0.5506  0.5228 -0.1617
  912MPD2    H713363   2.253   0.223  15.956 -1.7858  1.3813  1.0188
  913MPD2     C13364   3.025   0.596  10.918 -0.3986  0.5525  0.0751
  913MPD2    C113365   3.017   0.730  10.955 -0.3654 -0.5397  0.0309
  913MPD2    C213366   2.999   0.829  10.864 -0.1105  1.2646 -0.8316
  913MPD2    C313367   2.994   0.793  10.726 -0.2008 -0.8999  0.3005
  913MPD2    C413368   3.008   0.661  10.687 -0.3154 -0.1785 -0.3569
  913MPD2    C513369   3.019   0.562  10.784  0.2277  0.3484 -0.1054
  913MPD2     H13370   2.974   0.931  10.891  1.3791  1.1398  0.9902
  913MPD2    H113371   3.008   0.632  10.582  0.7044  0.8537 -0.6372
  913MPD2    H213372   3.050   0.517  10.988  0.6035  0.9383  0.1571
  913MPD2    H313373   3.029   0.459  10.752 -1.3073  0.8491 -2.1679
  913MPD2     N13374   2.964   0.891  10.624  0.0426  0.0115  0.4423
  913MPD2    H513375   2.931   0.857  10.534  1.1072  0.8048 -0.2464
  913MPD2    N113376   3.028   0.753  11.098  0.0727 -0.4976  0.4410
  913MPD2    H713377   3.049   0.670  11.153  0.6640  0.4849  1.7039
  914MPD2     C13378   4.698   0.882  11.880 -0.8866  0.3577 -0.6118
  914MPD2    C113379   0.062   0.978  11.905 -0.3937 -0.0240  0.8396
  914MPD2    C213380   0.130   0.977  12.028  1.0651 -0.4408 -0.2017
  914MPD2    C313381   0.119   0.878  12.120 -1.0328  0.2200  0.4531
  914MPD2    C413382   0.041   0.760  12.089 -0.1593 -0.7559  0.0022
  914MPD2    C513383   4.695   0.772  11.967  0.0897  0.3356 -0.2075
  914MPD2     H13384   0.207   1.050  12.048  0.8141 -0.0678 -0.6074
  914MPD2    H113385   0.037   0.666  12.144 -0.9069  0.1015  1.4023
  914MPD2    H213386   4.633   0.886  11.793 -1.4556 -0.8548 -0.2498
  914MPD2    H313387   4.627   0.693  11.938  1.8874 -1.2964  0.0333
  914MPD2     N13388   0.172   0.893  12.250 -0.2250  0.2126 -0.8441
  914MPD2    H513389   0.201   0.989  12.269  2.3347 -0.4336 -1.5379
  914MPD2    N113390   0.071   1.086  11.812  0.2587  0.1310 -0.3485
  914MPD2    H713391   0.006   1.083  11.735  1.1901  1.7683 -1.1987
  915MPD2     C13392   4.160   1.064  15.359 -0.1400  0.5027  0.5158
  915MPD2    C113393   4.058   1.143  15.314  0.1297  0.1310  0.3417
  915MPD2    C213394   3.981   1.219  15.403 -0.6027 -0.1627 -0.3467
  915MPD2    C313395   4.013   1.212  15.542 -0.6682  0.8842  0.8385
  915MPD2    C413396   4.118   1.123  15.588 -0.3974 -0.0606  0.2002
  915MPD2    C513397   4.190   1.061  15.489 -0.7992 -0.3855 -0.4500
  915MPD2     H13398   3.892   1.275  15.377 -0.6733  0.2427  0.8065
  915MPD2    H113399   4.145   1.104  15.692 -1.5964  2.2600  0.9138
  915MPD2    H213400   4.216   1.003  15.288 -1.4448 -0.8814  0.6692
  915MPD2    H313401   4.278   1.008  15.525 -0.6821  0.5787  0.7147
  915MPD2     N13402   3.940   1.293  15.638  0.3220  0.1425  0.0027
  915MPD2    H513403   3.868   1.356  15.607  0.0040  0.4095  1.2575
  915MPD2    N113404   4.040   1.135  15.175  0.1377 -0.0624  0.4858
  915MPD2    H713405   4.090   1.067  15.120 -2.4367 -1.9721  0.4978
  916MPD2     C13406   2.122   4.261  15.760 -0.5565 -0.4094  0.6811
  916MPD2    C113407   2.108   4.138  15.819  0.0014 -0.0309 -0.2687
  916MPD2    C213408   2.148   4.023  15.752 -0.0534 -0.5127 -0.6366
  916MPD2    C313409   2.206   4.033  15.625  0.4159 -0.2505 -0.0486
  916MPD2    C413410   2.237   4.163  15.584  0.5976  0.4517  0.0920
  916MPD2    C513411   2.195   4.275  15.648 -0.8327  0.4016  0.5192
  916MPD2     H13412   2.127   3.929  15.802  3.1123 -0.9557 -0.1275
  916MPD2    H113413   2.290   4.179  15.491  0.1595 -7.1918 -1.4950
  916MPD2    H213414   2.080   4.342  15.818 -0.1221  0.3829 -0.1247
  916MPD2    H313415   2.214   4.372  15.603 -0.7846  0.1930  0.0919
  916MPD2     N13416   2.235   3.916  15.556 -0.2142  0.1257  0.0040
  916MPD2    H513417   2.210   3.829  15.603 -1.9927  0.6968  0.1227
  916MPD2    N113418   2.032   4.139  15.936 -0.1968 -0.1394  0.4091
  916MPD2    H713419   2.001   4.230  15.966  1.9181  0.6549  0.1975
  917MPD2     C13420   2.160   1.497  11.556  0.7753  0.3115 -0.4824
  917MPD2    C113421   2.157   1.605  11.645  0.2665  0.0643  0.0264
  917MPD2    C213422   2.262   1.693  11.648 -0.3032 -0.1654 -0.7662
  917MPD2    C313423   2.373   1.666  11.567  0.2175 -0.1253 -0.3465
  917MPD2    C413424   2.377   1.555  11.487 -0.1692 -0.0507 -0.2594
  917MPD2    C513425   2.276   1.469  11.485  0.6969  0.3917 -0.6358
  917MPD2     H13426   2.244   1.785  11.702 -1.4890 -1.4629  1.0212
  917MPD2    H113427   2.456   1.528  11.419 -0.0813  0.0065 -0.1809
  917MPD2    H213428   2.072   1.434  11.557  0.6241  0.5399  0.3525
  917MPD2    H313429   2.283   1.378  11.428  0.5083  0.4283 -0.7159
  917MPD2     N13430   2.483   1.750  11.563  0.3159 -0.2152 -0.4665
  917MPD2    H513431   2.543   1.753  11.481  1.4807  0.2724  0.4016
  917MPD2    N113432   2.034   1.625  11.714  0.0739  0.1115  0.7861
  917MPD2    H713433   1.965   1.552  11.700 -0.0168  0.0662  1.5159
  918MPD2     C13434   2.206   1.526  12.636 -0.3762 -0.8967  0.9162
  918MPD2    C113435   2.264   1.489  12.516 -0.4654  0.4118  0.2669
  918MPD2    C213436   2.203   1.519  12.396  0.7813 -0.3067  0.2079
  918MPD2    C313437   2.076   1.584  12.400 -0.4066 -0.5916 -0.5542
  918MPD2    C413438   2.025   1.626  12.517 -0.8802 -0.0616 -0.5304
  918MPD2    C513439   2.084   1.589  12.638  0.0382  0.6638  0.3215
  918MPD2     H13440   2.242   1.494  12.298 -0.0680  3.5159 -1.0802
  918MPD2    H113441   1.930   1.677  12.522  0.2612  1.9616  0.4723
  918MPD2    H213442   2.255   1.523  12.732 -1.2142 -1.5623  1.3226
  918MPD2    H313443   2.036   1.617  12.731  1.1992 -0.1768  1.1729
  918MPD2     N13444   2.013   1.604  12.280  0.0946  0.2095 -0.4630
  918MPD2    H513445   2.068   1.587  12.196  0.8608  4.4133 -0.8065
  918MPD2    N113446   2.397   1.431  12.520  0.1248  0.0448 -0.2383
  918MPD2    H713447   2.438   1.422  12.428 -0.5757  0.4420 -0.5869
  919MPD2     C13448   2.682   0.745  11.626 -0.0279  0.0289  0.2292
  919MPD2    C113449   2.737   0.629  11.576 -0.4337 -0.6412 -0.6575
  919MPD2    C213450   2.719   0.603  11.443 -0.0873 -0.4283  0.4411
  919MPD2    C313451   2.662   0.706  11.356  0.1610 -0.8537  0.4720
  919MPD2    C413452   2.632   0.830  11.410  0.2968  0.6896 -0.0872
  919MPD2    C513453   2.634   0.847  11.547  0.2497 -0.9323  0.3391
  919MPD2     H13454   2.763   0.513  11.402 -0.5507 -0.5484  0.2117
  919MPD2    H113455   2.590   0.908  11.349  0.0255  0.6259  0.0182
  919MPD2    H213456   2.682   0.767  11.732 -0.2885 -1.5721  0.5649
  919MPD2    H313457   2.607   0.939  11.598  2.9121  0.9475 -1.6010
  919MPD2     N13458   2.645   0.696  11.214 -0.0832  0.3779 -0.0118
  919MPD2    H513459   2.598   0.774  11.169 -0.2195  0.2241 -0.1351
  919MPD2    N113460   2.795   0.530  11.659 -0.1215  0.6390  0.7661
  919MPD2    H713461   2.816   0.437  11.626  0.1135  0.9150  0.1282
  920MPD2     C13462   2.481   1.244  10.432  0.3447  0.4793  0.3905
  920MPD2    C113463   2.459   1.117  10.391  0.0833 -0.4781 -0.3058
  920MPD2    C213464   2.503   1.011  10.462 -0.2373 -0.1035  0.4692
  920MPD2    C313465   2.565   1.021  10.586  0.5412  0.3062  0.1610
  920MPD2    C413466   2.593   1.156  10.632 -1.0465  0.8749  0.4874
  920MPD2    C513467   2.546   1.264  10.559 -0.7352  0.0677  0.0831
  920MPD2     H13468   2.483   0.910  10.426  0.3919 -1.0421  2.7255
  920MPD2    H113469   2.645   1.175  10.726 -0.4085  3.8817 -0.4972
  920MPD2    H213470   2.454   1.331  10.373  1.5202  1.6171  1.5377
  920MPD2    H313471   2.572   1.362  10.598  0.1870 -0.1310 -0.0243
  920MPD2     N13472   2.599   0.897  10.653  0.0077  0.0761  0.0067
  920MPD2    H513473   2.576   0.812  10.603 -0.0664  0.2185 -0.2023
  920MPD2    N113474   2.383   1.092  10.270 -0.3740 -0.6958 -0.5345
  920MPD2    H713475   2.376   0.992  10.252 -0.2418 -0.8973  0.5807
  921MPD2     C13476   3.699   0.125  16.924  0.1803  0.2139 -0.2201
  921MPD2    C113477   3.701   0.079  16.795  0.5659 -0.2325 -0.0315
  921MPD2    C213478   3.600   4.712  16.754 -0.3950  0.1952 -1.0070
  921MPD2    C313479   3.487   4.684  16.832  0.1022 -0.0206 -1.0994
  921MPD2    C413480   3.493   0.013  16.959  0.2171 -0.0614  0.0407
  921MPD2    C513481   3.597   0.089  17.000  0.1463  0.0516  0.3089
  921MPD2     H13482   3.616   4.672  16.655  0.4505  0.9684 -1.1808
  921MPD2    H113483   3.413   4.715  17.029  0.2912 -0.1823  0.0872
  921MPD2    H213484   3.786   0.179  16.961  0.8151 -0.2740 -0.9888
  921MPD2    H313485   3.599   0.122  17.103 -0.2943  0.9272  0.0329
  921MPD2     N13486   3.383   4.593  16.793  0.3947 -1.2873  0.2724
  921MPD2    H513487   3.304   4.588  16.855 -0.0598  0.2523 -0.1767
  921MPD2    N113488   3.804   0.110  16.705 -0.1454  0.1446 -0.4357
  921MPD2    H713489   3.869   0.182  16.736 -0.5972  0.3705 -0.0090
  922MPD2     C13490   4.098   2.080   0.050  0.2614  0.2139  0.2356
  922MPD2    C113491   4.205   2.145  17.682 -0.6245  0.5057 -0.6109
  922MPD2    C213492   4.199   2.129  17.544 -0.3533 -0.2931 -0.3990
  922MPD2    C313493   4.111   2.057  17.473  0.1159  0.7536  0.0292
  922MPD2    C413494   4.020   1.981  17.545 -0.3348 -0.3442 -0.1789
  922MPD2    C513495   4.016   2.001  17.675 -0.0696  0.1363  0.0435
  922MPD2     H13496   4.269   2.188  17.485 -2.3997  1.5138 -1.0172
  922MPD2    H113497   3.952   1.912  17.497  1.9594 -3.7620  1.4670
  922MPD2    H213498   4.090   2.077   0.158 -0.2859  1.0373  0.2168
  922MPD2    H313499   3.944   1.936   0.023 -1.5895  0.8077 -1.3101
  922MPD2     N13500   4.129   2.056  17.342  0.6927  0.4919 -0.5803
  922MPD2    H513501   4.212   2.101  17.305  0.8737  0.0419 -0.7147
  922MPD2    N113502   4.321   2.199   0.043 -0.3084  0.4131 -0.2035
  922MPD2    H713503   4.386   2.238  17.675 -0.9638  0.7461 -0.6382
  923MPD2     C13504   0.094   3.489   9.851  0.1843  0.2933 -0.3551
  923MPD2    C113505   0.111   3.618   9.888 -0.0141 -0.0366  0.0846
  923MPD2    C213506   0.212   3.650   9.978 -0.4237  0.2740 -0.0413
  923MPD2    C313507   0.274   3.543  10.044 -0.7760  0.7136  0.2025
  923MPD2    C413508   0.252   3.413  10.008 -0.1711  0.3820  0.4246
  923MPD2    C513509   0.153   3.387   9.911 -0.7599 -0.4838  0.1152
  923MPD2     H13510   0.238   3.751  10.008  0.1813  0.4904 -1.2950
  923MPD2    H113511   0.304   3.335  10.062 -2.3864 -0.3093  1.5426
  923MPD2    H213512   0.026   3.470   9.768  1.8603  1.1929 -1.9191
  923MPD2    H313513   0.145   3.283   9.881  0.0915 -0.0416 -1.6160
  923MPD2     N13514   0.374   3.558  10.144 -0.5156 -0.4380  0.1574
  923MPD2    H513515   0.407   3.472  10.187 -1.7578 -1.0024 -0.0243
  923MPD2    N113516   0.034   3.713   9.828  1.2157 -0.2633  0.0708
  923MPD2    H713517   4.690   3.688   9.757 -1.1195  0.2507  2.1442
  924MPD2     C13518   1.226   2.618  15.959 -0.0189  0.3042  0.6128
  924MPD2    C113519   1.157   2.671  16.067 -0.1675 -0.0798  0.0167
  924MPD2    C213520   1.198   2.790  16.136  0.1244 -0.5165 -0.0531
  924MPD2    C313521   1.310   2.858  16.091 -0.1040 -0.3520 -0.4875
  924MPD2    C413522   1.382   2.796  15.994  0.4611 -0.3949 -0.5645
  924MPD2    C513523   1.340   2.683  15.926 -0.4453 -0.4912 -0.3243
  924MPD2     H13524   1.128   2.837  16.203 -0.0125 -1.4052  0.4199
  924MPD2    H113525   1.478   2.839  15.967 -1.3295  1.2405 -4.2551
  924MPD2    H213526   1.198   2.525  15.911  0.7929  0.7558 -0.7250
  924MPD2    H313527   1.397   2.649  15.840  2.9061 -0.0862  1.7269
  924MPD2     N13528   1.346   2.983  16.143  0.2045 -0.2582  0.4065
  924MPD2    H513529   1.419   3.042  16.106 -0.9388 -1.0984 -3.1949
  924MPD2    N113530   1.033   2.603  16.103 -0.1681 -0.0111  0.8260
  924MPD2    H713531   0.995   2.535  16.038  0.6713 -1.3658  1.7779
  925MPD2     C13532   4.615   0.447  14.923  0.1626 -0.3120 -0.2593
  925MPD2    C113533   4.506   0.532  14.891  0.1746  0.4997  0.1846
  925MPD2    C213534   4.416   0.568  14.986 -0.5186  0.2212  1.3345
  925MPD2    C313535   4.443   0.530  15.118  0.0505  0.0622  0.1388
  925MPD2    C413536   4.549   0.443  15.148 -0.0214  0.0453 -0.4658
  925MPD2    C513537   4.637   0.405  15.049  0.0595 -0.8065  0.1998
  925MPD2     H13538   4.336   0.636  14.959  0.0680  0.8896  1.2864
  925MPD2    H113539   4.569   0.399  15.245  2.0227  0.8228 -0.5422
  925MPD2    H213540   4.682   0.409  14.846 -1.4350  1.0553 -2.3205
  925MPD2    H313541   4.722   0.339  15.063  0.4827 -0.2158  0.4538
  925MPD2     N13542   4.358   0.565  15.228  0.6404  0.8347  0.2989
  925MPD2    H513543   4.388   0.518  15.313  0.3074 -0.7423 -0.4636
  925MPD2    N113544   4.488   0.568  14.753  0.0935  0.5526 -0.1742
  925MPD2    H713545   4.396   0.608  14.737  0.1234  1.1035  0.9892
  926MPD2     C13546   3.298   3.867  13.208 -0.0321 -0.5619 -0.1753
  926MPD2    C113547   3.204   3.936  13.134 -0.5855 -0.9495 -0.3136
  926MPD2    C213548   3.236   3.974  13.001 -0.4360 -0.2286  0.3774
  926MPD2    C313549   3.365   3.950  12.954 -0.3054  0.2717  0.1401
  926MPD2    C413550   3.459   3.878  13.027 -0.9246 -0.2610  0.1293
  926MPD2    C513551   3.422   3.840  13.150  0.2369  0.1786  0.4151
  926MPD2     H13552   3.165   4.037  12.951 -1.0806 -1.2150  0.0483
  926MPD2    H113553   3.559   3.851  12.993 -0.6286  1.7268 -0.5756
  926MPD2    H213554   3.274   3.826  13.306 -0.1629  2.8902  1.2490
  926MPD2    H313555   3.498   3.791  13.210  1.2862 -0.1885 -1.2223
  926MPD2     N13556   3.407   3.996  12.832 -0.5920  0.2433  0.0499
  926MPD2    H513557   3.506   3.994  12.810 -0.9454 -0.4903 -1.4795
  926MPD2    N113558   3.091   3.992  13.194  0.1940 -0.0463 -0.6241
  926MPD2    H713559   3.042   4.047  13.125  1.5250  2.5239  0.4724
  927MPD2     C13560   3.584   1.231   0.102  1.0354 -0.3447  0.3020
  927MPD2    C113561   3.458   1.185   0.064  0.2644 -0.1235 -0.2199
  927MPD2    C213562   3.415   1.220  17.636  0.2143 -0.1788 -0.6097
  927MPD2    C313563   3.504   1.283  17.551  0.1167  0.0777 -0.1976
  927MPD2    C413564   3.631   1.320  17.593 -0.1336  0.8068  0.1412
  927MPD2    C513565   3.672   1.287   0.018 -0.0742  0.0264  0.1592
  927MPD2     H13566   3.319   1.186  17.601  0.5500 -2.1248  0.3724
  927MPD2    H113567   3.698   1.378  17.531  0.8375  0.1754  0.5999
  927MPD2    H213568   3.624   1.209   0.201  0.5657  2.6549  1.1633
  927MPD2    H313569   3.771   1.305   0.060 -1.1240  2.2917  1.6346
  927MPD2     N13570   3.459   1.308  17.424 -0.4302  0.8034 -0.1988
  927MPD2    H513571   3.376   1.258  17.393  0.4392 -0.7019 -0.1154
  927MPD2    N113572   3.381   1.127   0.163 -0.4174  0.5862 -0.2472
  927MPD2    H713573   3.425   1.115   0.253  1.8190  2.4421 -1.0901
  928MPD2     C13574   0.891   4.638   0.438  0.0067 -0.0227  0.3776
  928MPD2    C113575   0.969   4.674   0.545 -0.9016  0.0392  0.3193
  928MPD2    C213576   1.107   4.701   0.508  0.4734  0.0708 -0.3485
  928MPD2    C313577   1.157   4.669   0.383 -0.5803  0.0746 -0.3934
  928MPD2    C413578   1.081   4.609   0.289  0.0294 -0.9915 -0.2889
  928MPD2    C513579   0.943   4.607   0.317  0.4330  0.2338  0.4930
  928MPD2     H13580   1.164   0.032   0.581 -3.1548 -0.2812  2.7856
  928MPD2    H113581   1.110   4.576   0.190  0.0157  0.2846 -0.7073
  928MPD2    H213582   0.785   4.621   0.456  0.2575 -0.5273  1.3944
  928MPD2    H313583   0.879   4.580   0.234 -2.1559  1.2509  2.1442
  928MPD2     N13584   1.289   4.695   0.346  0.4634 -0.0571  0.1607
  928MPD2    H513585   1.322   4.669   0.254  1.5417  1.7176  0.0459
  928MPD2    N113586   0.903   0.017   0.652 -0.1352  0.1637  0.5206
  928MPD2    H713587   0.801   0.013   0.658 -0.1517  0.0817  0.1962
  929MPD2     C13588   0.054   4.200  10.250  0.0252 -0.1484  0.1077
  929MPD2    C113589   4.646   4.216  10.243 -0.6209 -0.0808 -0.4518
  929MPD2    C213590   4.599   4.285  10.135  0.5706  0.6938  0.8265
  929MPD2    C313591   4.674   4.364  10.054 -0.4065 -0.7623  0.4245
  929MPD2    C413592   0.086   4.370  10.075  0.7654 -0.4962  0.2354
  929MPD2    C513593   0.138   4.277  10.168 -0.5069 -0.2161  0.0835
  929MPD2     H13594   4.493   4.301  10.121  0.2373 -1.0240  1.4528
  929MPD2    H113595   0.157   4.422  10.012 -0.5911  0.9450 -0.1103
  929MPD2    H213596   0.103   4.130  10.318 -0.2435  1.1457  1.6359
  929MPD2    H313597   0.244   4.257  10.173 -0.3192  0.3069 -1.9635
  929MPD2     N13598   4.624   4.441   9.947 -0.0531  0.3420 -0.5623
  929MPD2    H513599   4.682   4.517   9.912  0.5130  0.8863  1.5414
  929MPD2    N113600   4.563   4.155  10.338 -0.8214  0.3029 -0.3828
  929MPD2    H713601   4.619   4.106  10.407  2.9580  2.3241 -1.9986
  930MPD2     C13602   2.534   1.934  14.114  0.5772  0.1156 -0.8061
  930MPD2    C113603   2.664   1.902  14.073 -0.8011  0.2868  0.5331
  930MPD2    C213604   2.687   1.776  14.011 -0.3581 -0.5124 -0.1763
  930MPD2    C313605   2.579   1.691  13.994  0.3674  1.0121 -0.2031
  930MPD2    C413606   2.461   1.721  14.040 -0.4799 -0.5646 -0.0507
  930MPD2    C513607   2.437   1.844  14.098  0.3142  1.1437  0.8410
  930MPD2     H13608   2.785   1.740  13.981  0.0105 -0.4201  0.9082
  930MPD2    H113609   2.379   1.651  14.025 -0.9627  0.6131 -2.9048
  930MPD2    H213610   2.498   2.029  14.151 -1.5943 -1.0291  0.0211
  930MPD2    H313611   2.339   1.876  14.133 -0.0465  1.0017 -0.0450
  930MPD2     N13612   2.586   1.574  13.918 -0.0799 -0.0770  0.6894
  930MPD2    H513613   2.496   1.530  13.901  0.4505 -1.4449  1.3972
  930MPD2    N113614   2.759   2.004  14.082  0.8428  0.0153  0.8202
  930MPD2    H713615   2.729   2.095  14.115 -1.8742  0.2821 -2.2459
  931MPD2     C13616   3.587   0.851   0.660 -0.6406  0.1478  0.4951
  931MPD2    C113617   3.456   0.813   0.668 -0.5989  0.5143  0.2243
  931MPD2    C213618   3.416   0.709   0.751 -0.1197  0.2308 -0.0180
  931MPD2    C313619   3.500   0.668   0.851  0.1478 -0.4612 -0.0151
  931MPD2    C413620   3.631   0.703   0.844 -0.4272  0.7732 -0.4854
  931MPD2    C513621   3.676   0.795   0.753  0.0002 -0.4599 -0.0079
  931MPD2     H13622   3.313   0.681   0.770  0.1186 -1.3658 -1.0497
  931MPD2    H113623   3.701   0.661   0.915 -1.8760  1.1154  1.1330
  931MPD2    H213624   3.619   0.934   0.597  0.6097  0.4869  1.5760
  931MPD2    H313625   3.772   0.846   0.759  1.3266 -2.6476 -2.1707
  931MPD2     N13626   3.464   0.588   0.960 -0.0646 -0.0376  0.0461
  931MPD2    H513627   3.540   0.554   1.019  0.3503  1.8094  0.5718
  931MPD2    N113628   3.371   0.860   0.567  0.0845  0.7610 -0.0503
  931MPD2    H713629   3.410   0.926   0.500  1.2423 -1.2285 -1.3512
  932MPD2     C13630   3.875   0.828  11.250 -0.5575 -0.2680 -0.3435
  932MPD2    C113631   4.002   0.789  11.220  0.4000  0.1833 -0.0029
  932MPD2    C213632   4.033   0.660  11.194 -0.1225 -0.1455  0.8011
  932MPD2    C313633   3.934   0.563  11.208  1.0539  0.5075  0.0809
  932MPD2    C413634   3.799   0.603  11.227  0.0488  0.5856  0.3175
  932MPD2    C513635   3.774   0.735  11.243 -0.2649 -0.1284  0.0415
  932MPD2     H13636   4.136   0.631  11.175 -0.1546  0.1406  0.1970
  932MPD2    H113637   3.716   0.534  11.238  0.6927 -0.3168 -0.4864
  932MPD2    H213638   3.839   0.930  11.264 -0.0424  0.1884 -2.3136
  932MPD2    H313639   3.672   0.767  11.264 -0.1453  0.4144 -0.2025
  932MPD2     N13640   3.958   0.427  11.205  0.7963  0.2384 -0.2908
  932MPD2    H513641   3.881   0.363  11.226 -0.7046  1.9735 -0.4762
  932MPD2    N113642   4.098   0.884  11.198  0.4620 -0.0313 -0.4362
  932MPD2    H713643   4.179   0.846  11.149  1.2336  0.7537  0.2249
  933MPD2     C13644   0.329   0.230   0.671  0.7496  0.5287  0.0312
  933MPD2    C113645   0.373   0.269   0.795 -0.5418 -0.0345 -0.1164
  933MPD2    C213646   0.296   0.364   0.860 -0.3932  0.3177 -0.2382
  933MPD2    C313647   0.183   0.415   0.809 -0.0777 -0.3620  0.8241
  933MPD2    C413648   0.136   0.379   0.684  0.6617  0.5185 -0.3119
  933MPD2    C513649   0.211   0.284   0.611 -0.1024 -0.4109 -0.9860
  933MPD2     H13650   0.343   0.387   0.955  0.2118 -1.5518 -0.0839
  933MPD2    H113651   0.052   0.424   0.632  0.2086  0.1198  0.0782
  933MPD2    H213652   0.387   0.156   0.617 -0.3098  0.4059 -0.9461
  933MPD2    H313653   0.175   0.258   0.512  1.6448 -1.1610 -1.4181
  933MPD2     N13654   0.121   0.518   0.886 -0.2854  0.0006  0.3119
  933MPD2    H513655   0.178   0.539   0.966  0.6123  0.4813 -0.4540
  933MPD2    N113656   0.499   0.219   0.828  0.2598 -0.5724 -0.2697
  933MPD2    H713657   0.550   0.167   0.757  0.1826  1.6143 -1.9158
  934MPD2     C13658   3.055   2.710   1.722 -0.2209  0.1015 -0.0265
  934MPD2    C113659   3.081   2.582   1.675  0.1979 -0.4973  0.5474
  934MPD2    C213660   2.980   2.511   1.610 -0.0693 -0.1317 -0.3384
  934MPD2    C313661   2.854   2.566   1.597  0.5416  0.5926 -0.6533
  934MPD2    C413662   2.830   2.690   1.652 -0.2896 -0.1203  0.2060
  934MPD2    C513663   2.928   2.762   1.715  0.1496 -0.6977  0.0663
  934MPD2     H13664   2.987   2.408   1.577 -1.3371 -0.5489  0.6697
  934MPD2    H113665   2.739   2.744   1.632 -1.2179 -1.3427  1.1239
  934MPD2    H213666   3.131   2.784   1.745  1.2971 -1.8148  1.1315
  934MPD2    H313667   2.896   2.858   1.752 -1.8115 -1.2254 -0.2566
  934MPD2     N13668   2.746   2.481   1.551  0.0116  0.6779  0.3077
  934MPD2    H513669   2.652   2.517   1.562 -0.1803  0.1718  0.2892
  934MPD2    N113670   3.203   2.508   1.706  0.2869  0.5602 -0.1328
  934MPD2    H713671   3.225   2.426   1.651 -0.3759  0.2606  0.0503
  935MPD2     C13672   2.787   1.643   1.053 -0.2391  0.0835 -0.2608
  935MPD2    C113673   2.654   1.639   1.101 -0.3853 -0.2300 -0.4188
  935MPD2    C213674   2.592   1.745   1.160  0.0088  0.1439 -0.2343
  935MPD2    C313675   2.680   1.851   1.197  0.5799  0.2027 -0.3968
  935MPD2    C413676   2.816   1.857   1.156  0.5414  0.4192 -0.0958
  935MPD2    C513677   2.868   1.756   1.085 -0.0077 -0.3156 -0.3647
  935MPD2     H13678   2.490   1.723   1.189  0.9864  0.5074  3.3928
  935MPD2    H113679   2.873   1.945   1.184 -0.5556  0.9873  0.3441
  935MPD2    H213680   2.833   1.564   0.995 -0.6089 -0.2487 -0.0986
  935MPD2    H313681   2.973   1.751   1.058  0.4794 -1.8030  1.8384
  935MPD2     N13682   2.641   1.964   1.261 -0.1225 -0.0909 -0.0962
  935MPD2    H513683   2.701   2.046   1.255  1.1920 -1.1349 -1.0205
  935MPD2    N113684   2.578   1.521   1.094  0.2693 -0.7913  0.3350
  935MPD2    H713685   2.478   1.522   1.108  0.1809  1.4395 -0.5032
  936MPD2     C13686   0.118   3.949  12.456  0.4189  0.0713  0.2998
  936MPD2    C113687   0.203   3.850  12.502  0.5185 -0.0475 -0.5429
  936MPD2    C213688   0.302   3.789  12.425 -0.2420  0.0652 -0.1523
  936MPD2    C313689   0.318   3.827  12.293 -0.1610  0.7264 -1.0739
  936MPD2    C413690   0.239   3.932  12.245 -0.3388  0.3159 -0.0185
  936MPD2    C513691   0.141   3.985  12.328 -0.5901  0.1723 -0.1094
  936MPD2     H13692   0.369   3.721  12.476 -0.4545 -0.0778 -0.0678
  936MPD2    H113693   0.256   3.967  12.144  0.4334 -2.1616 -0.7451
  936MPD2    H213694   0.034   3.993  12.509  0.9048  0.7400  0.5196
  936MPD2    H313695   0.085   4.060  12.273 -0.1182  1.8066  1.6167
  936MPD2     N13696   0.421   3.773  12.208  0.2204  0.0170  0.1744
  936MPD2    H513697   0.427   3.796  12.109  4.1757 -0.9948  0.2081
  936MPD2    N113698   0.198   3.796  12.635  0.0354  0.1504 -0.1522
  936MPD2    H713699   0.239   3.703  12.642 -1.2763 -0.3621  0.8643
  937MPD2     C13700   3.018   4.594  11.590 -0.6063  0.5117  0.5840
  937MPD2    C113701   3.044   4.723  11.599 -0.2319  0.2867  0.2603
  937MPD2    C213702   3.120   0.063  11.505  0.3153 -0.0748  0.0193
  937MPD2    C313703   3.169   4.713  11.399  0.4020 -0.3265  0.0248
  937MPD2    C413704   3.159   4.576  11.393 -0.0086 -0.3295 -0.1979
  937MPD2    C513705   3.083   4.518  11.492  0.5130  0.2320 -0.2569
  937MPD2     H13706   3.136   0.170  11.510 -0.0774 -0.1016  1.9645
  937MPD2    H113707   3.216   4.516  11.324 -0.0274 -1.8006  1.0515
  937MPD2    H213708   2.951   4.550  11.662 -0.5453 -0.0347  0.3041
  937MPD2    H313709   3.078   4.410  11.491 -0.9537  0.2883  0.7955
  937MPD2     N13710   3.240   0.059  11.299  0.2064 -0.5546  0.0042
  937MPD2    H513711   3.255   0.159  11.306  0.6943 -0.6370  0.1427
  937MPD2    N113712   2.981   0.088  11.692  0.3751 -0.7274  0.9102
  937MPD2    H713713   3.002   0.187  11.681 -0.2494 -0.8551 -1.3965
  938MPD2     C13714   1.765   1.566   1.131  0.1732  0.3351 -0.5570
  938MPD2    C113715   1.655   1.638   1.159 -0.0308 -0.2883 -0.5962
  938MPD2    C213716   1.547   1.581   1.216 -0.1210  1.0706 -0.0733
  938MPD2    C313717   1.543   1.449   1.248 -0.2746  0.3255 -0.8478
  938MPD2    C413718   1.650   1.368   1.215  0.2304  0.2950  0.3443
  938MPD2    C513719   1.759   1.422   1.149  0.4572  0.7120  0.1148
  938MPD2     H13720   1.465   1.649   1.238 -0.2544  0.2728  1.8865
  938MPD2    H113721   1.651   1.262   1.241  3.1405 -0.1016 -1.3835
  938MPD2    H213722   1.854   1.605   1.084  0.8952 -0.3165  0.2828
  938MPD2    H313723   1.847   1.372   1.111  1.4027  1.3962  1.3778
  938MPD2     N13724   1.430   1.378   1.298 -0.4568  0.1495  0.8208
  938MPD2    H513725   1.438   1.278   1.314  0.2162 -0.0623 -0.7607
  938MPD2    N113726   1.662   1.778   1.149 -0.0379 -0.3730 -0.3139
  938MPD2    H713727   1.581   1.836   1.168 -1.0704 -1.4429 -1.5113
  939MPD2     C13728   3.233   3.312   1.252 -0.3442 -0.6604  0.2832
  939MPD2    C113729   3.108   3.250   1.241 -0.8648 -0.5144 -0.1749
  939MPD2    C213730   3.095   3.126   1.170  0.0007  0.0977 -0.4005
  939MPD2    C313731   3.210   3.071   1.117 -0.2581  0.3991 -1.1232
  939MPD2    C413732   3.339   3.129   1.133 -0.0662  0.0535  0.0689
  939MPD2    C513733   3.343   3.249   1.203 -0.4332  0.0198 -0.2978
  939MPD2     H13734   3.004   3.068   1.159 -0.2636  0.5607 -0.6055
  939MPD2    H113735   3.433   3.088   1.097 -0.1185  0.5017 -0.5825
  939MPD2    H213736   3.237   3.410   1.297  0.9136 -0.3073 -0.5936
  939MPD2    H313737   3.436   3.302   1.222 -0.4776  0.7341 -2.0675
  939MPD2     N13738   3.196   2.954   1.041  0.1636 -0.3318  0.2135
  939MPD2    H513739   3.106   2.908   1.035  0.2462 -0.4184 -0.3223
  939MPD2    N113740   2.997   3.318   1.287  0.3802 -0.0016 -0.3128
  939MPD2    H713741   3.024   3.399   1.342  0.8339 -0.1061 -0.3789
  940MPD2     C13742   1.172   3.427  12.891  0.1587  0.3126 -0.2140
  940MPD2    C113743   1.263   3.361  12.967  0.6082  0.1166 -0.3599
  940MPD2    C213744   1.301   3.235  12.925 -0.6035  0.0016  0.3803
  940MPD2    C313745   1.253   3.176  12.813  0.7563  0.1140  0.6798
  940MPD2    C413746   1.165   3.245  12.734 -0.4101  1.2369 -0.5852
  940MPD2    C513747   1.127   3.374  12.771  0.9380 -0.2750 -0.3834
  940MPD2     H13748   1.384   3.184  12.972  0.9388  2.9528  0.8432
  940MPD2    H113749   1.123   3.185  12.654 -2.1497  0.7673  0.6747
  940MPD2    H213750   1.149   3.531  12.910 -2.3674  0.0621 -1.8663
  940MPD2    H313751   1.053   3.422  12.709 -0.5895  1.3831  2.7327
  940MPD2     N13752   1.274   3.040  12.777  0.1527 -0.4722 -0.5072
  940MPD2    H513753   1.225   3.021  12.690 -0.1371 -0.2185 -0.3980
  940MPD2    N113754   1.295   3.398  13.102 -0.4141 -0.5625 -0.8456
  940MPD2    H713755   1.351   3.330  13.152  0.5840  1.2007  0.4481
  941MPD2     C13756   0.713   1.893   9.298 -0.0015  0.7510  0.2158
  941MPD2    C113757   0.706   1.826   9.418  0.5699  0.2105 -0.3205
  941MPD2    C213758   0.598   1.746   9.451  0.3573  0.2496  0.2014
  941MPD2    C313759   0.490   1.744   9.364 -0.0866  0.1176 -0.1119
  941MPD2    C413760   0.490   1.806   9.243  0.4096  0.0455 -0.4069
  941MPD2    C513761   0.601   1.880   9.214 -0.7704 -0.2858  0.1890
  941MPD2     H13762   0.593   1.703   9.550  2.7694 -1.2302 -0.3088
  941MPD2    H113763   0.409   1.805   9.172  2.3519 -1.9510 -2.5754
  941MPD2    H213764   0.800   1.944   9.258  0.8248  0.1436  1.2357
  941MPD2    H313765   0.613   1.927   9.116  0.4104 -0.0300  0.4488
  941MPD2     N13766   0.382   1.655   9.391  0.1102  0.2434 -0.1958
  941MPD2    H513767   0.306   1.651   9.323  0.8065 -0.5634 -0.9221
  941MPD2    N113768   0.801   1.849   9.516  0.1791 -0.2111  0.1804
  941MPD2    H713769   0.806   1.783   9.593  3.2485  0.8209  0.8667
  942MPD2     C13770   4.298   3.940  10.008 -0.7770  0.6793  0.0008
  942MPD2    C113771   4.259   3.810   9.981  0.4245  0.3951  0.3271
  942MPD2    C213772   4.344   3.715  10.027  0.3214  0.2013 -0.0800
  942MPD2    C313773   4.471   3.738  10.080 -0.8822 -0.1796 -0.0150
  942MPD2    C413774   4.505   3.869  10.106 -0.1482  0.1735  0.7138
  942MPD2    C513775   4.417   3.966  10.069  0.6591  0.6655 -0.7743
  942MPD2     H13776   4.319   3.611  10.007 -0.3198  0.1042  1.2331
  942MPD2    H113777   4.584   3.899  10.175  0.1075 -0.6217  0.7694
  942MPD2    H213778   4.233   4.026   9.994  2.3935  3.1523  0.5318
  942MPD2    H313779   4.432   4.069  10.097 -1.9624  0.4440  1.4106
  942MPD2     N13780   4.558   3.645  10.136 -0.3949  0.7170 -0.2751
  942MPD2    H513781   4.639   3.689  10.179 -0.3752  0.1491  0.2711
  942MPD2    N113782   4.136   3.771   9.910  0.0729 -0.1631  0.5025
  942MPD2    H713783   4.109   3.673   9.907  1.9406 -0.7183  2.0273
  943MPD2     C13784   3.074   1.740   9.486  0.0075  0.1393 -0.8542
  943MPD2    C113785   3.123   1.857   9.548  0.6129 -0.4971  0.7128
  943MPD2    C213786   3.067   1.975   9.527 -0.6471  0.3400 -0.4572
  943MPD2    C313787   2.976   1.985   9.417 -0.5932  0.0632 -1.0173
  943MPD2    C413788   2.930   1.867   9.357  0.3453  0.2678  0.3647
  943MPD2    C513789   2.974   1.747   9.396 -0.4262  0.3346  0.5213
  943MPD2     H13790   3.094   2.062   9.586 -0.7487  0.2151 -0.2307
  943MPD2    H113791   2.858   1.871   9.276 -1.1311 -1.7862  1.5614
  943MPD2    H213792   3.121   1.645   9.511 -1.8160 -0.4976  0.1212
  943MPD2    H313793   2.929   1.660   9.351 -1.2133  0.8963  0.2298
  943MPD2     N13794   2.917   2.103   9.385 -0.0783 -0.0913 -0.6022
  943MPD2    H513795   2.864   2.099   9.298 -0.9033  0.4303 -0.1184
  943MPD2    N113796   3.234   1.846   9.634  0.3397  0.5631 -0.3039
  943MPD2    H713797   3.272   1.752   9.638 -0.1266  0.4255  0.9651
  944MPD2     C13798   4.056   1.537  11.623 -0.3093 -0.8630 -0.8654
  944MPD2    C113799   3.989   1.510  11.501 -0.2990 -0.9120 -0.2197
  944MPD2    C213800   3.853   1.469  11.503 -0.1165  0.3894  0.4069
  944MPD2    C313801   3.787   1.478  11.626 -0.3829  1.4546 -0.3665
  944MPD2    C413802   3.858   1.508  11.741  0.8820  0.2774  0.6844
  944MPD2    C513803   3.994   1.535  11.739  0.9833 -1.0080  0.3466
  944MPD2     H13804   3.788   1.439  11.422 -2.0924  0.2302  2.0546
  944MPD2    H113805   3.813   1.511  11.840 -2.1867 -1.2422 -0.6652
  944MPD2    H213806   4.162   1.558  11.624 -0.6690  0.8671  0.5050
  944MPD2    H313807   4.052   1.549  11.830  1.9362 -0.5893 -0.3179
  944MPD2     N13808   3.648   1.450  11.627  0.0572  0.2199  0.3246
  944MPD2    H513809   3.607   1.429  11.536  0.7946 -2.5130  0.6291
  944MPD2    N113810   4.065   1.528  11.376  0.1212 -0.0899  0.4446
  944MPD2    H713811   4.153   1.577  11.386  1.0943 -1.5239 -0.9777
    1TCq1    O113812   1.047   2.726  14.196  1.3925 -0.5143  0.1795
    1TCq1    C113813   1.127   2.690  14.299 -0.1799 -0.0148  0.2789
    1TCq1    O213814   1.144   2.762  14.398  0.5716  0.0296 -0.7185
    1TCq1    C213815   1.240   2.613  14.245  0.4788 -0.5790  0.3649
    1TCq1    C313816   1.232   2.520  14.143 -0.2256  0.5448  1.0992
    1TCq1    C413817   1.346   2.454  14.105 -0.4327 -0.0352 -0.2241
    1TCq1    C513818   1.467   2.474  14.167  0.6866 -0.0788 -0.3625
    1TCq1    C613819   1.470   2.569  14.268 -0.0182 -0.0085 -0.3492
    1TCq1    C713820   1.360   2.642  14.306 -0.3762 -0.4200 -0.1298
    1TCq1    C813821   1.595   2.581  14.341 -0.4014 -0.2602 -0.0211
    1TCq1    O413822   1.661   2.479  14.370 -0.2386 -0.1415 -0.6337
    1TCq1    C913823   1.326   2.342  14.010  0.6576 -0.1193 -0.7343
    1TCq1    O513824   1.216   2.332  13.958  0.0154  0.3621 -0.1075
    1TCq1    O613825   1.424   2.266  13.978  0.1632  0.1310  0.0461
    1TCq1    H113826   1.032   2.655  14.130  3.6657 -0.3116 -0.5728
    1TCq1    H213827   1.140   2.487  14.098  0.9918 -1.7577  0.2881
    1TCq1    H313828   1.555   2.422  14.131  1.4367 -0.1235  1.5496
    1TCq1    H413829   1.363   2.704  14.394  3.0105 -2.4075  1.1425
    2MPD2     C13830   1.944   2.884  14.578  0.1489  0.0231 -0.4095
    2MPD2    C113831   1.843   2.961  14.531 -0.3003 -0.0246 -0.2362
    2MPD2    C213832   1.729   2.899  14.478  0.5909  0.0340 -0.8140
    2MPD2    C313833   1.722   2.765  14.455  0.4639 -0.0333 -0.0875
    2MPD2    C413834   1.812   2.687  14.514 -0.7527  0.3646 -0.2525
    2MPD2    C513835   1.914   2.744  14.580  0.0125  0.2731  0.5714
    2MPD2     H13836   1.646   2.958  14.441  1.0903  0.7512 -0.7896
    2MPD2    H113837   1.806   2.579  14.520  3.5919  0.2032  0.9660
    2MPD2    H213838   2.030   2.926  14.628 -0.4751  2.1088 -1.0694
    2MPD2    H313839   1.979   2.675  14.632  0.2397  0.7195  0.8770
    2MPD2     N13840   1.614   2.715  14.378  0.4433  0.3950  0.4544
    2MPD2    H513841   1.550   2.778  14.331  1.2289  0.3771 -0.6181
    2MPD2    N113842   1.867   3.101  14.513 -0.1446 -0.0069  0.4131
    2MPD2    H713843   1.951   3.134  14.559  0.4929  0.9417 -1.4744
    3TMC2    C113844   1.869   3.319  14.437 -0.0449 -0.1729  0.8167
    3TMC2    C213845   1.942   3.350  14.543  0.1983 -0.6803 -0.3442
    3TMC2    C313846   2.006   3.466  14.538  0.9024 -0.1119 -0.6945
    3TMC2    C413847   1.853   3.401  14.332  0.2706 -0.1521  0.5091
    3TMC2    C513848   1.921   3.520  14.329  0.0369  0.4058 -0.5751
    3TMC2    C613849   2.001   3.552  14.429 -0.0474  0.8294  0.6420
    3TMC2     C13850   1.806   3.192  14.435  0.7176 -0.2201 -0.2849
    3TMC2     O13851   1.726   3.170  14.344 -0.9384  0.4500 -0.2084
    3TMC2     H13852   1.958   3.279  14.624 -1.9369  0.0299  0.6725
    3TMC2    H113853   1.799   3.369  14.244 -1.0802  0.0810  1.2536
    3TMC2    H213854   2.050   3.649  14.436  2.1880 -0.2478  0.1393
    3TMC2    C713855   1.915   3.609  14.209  0.1259 -0.2022  0.3718
    3TMC2    C813856   2.122   3.481  14.618  0.8184  0.3096  0.1004
    3TMC2    O113857   1.828   3.580  14.122  0.8267 -0.1898  0.1690
    3TMC2    O213858   2.151   3.592  14.661  0.3657  0.6065  0.1640
    3TMC2    O513859   2.171   3.360  14.654  0.2596 -0.4741 -0.3158
    3TMC2    H513860   2.152   3.294  14.584 -1.2219  0.6485 -0.9857
    4MPD2     C13861   0.854   4.090  13.698 -0.5653  1.0023 -0.4250
    4MPD2    C113862   0.928   4.029  13.602 -0.0563  0.9637 -0.6606
    4MPD2    C213863   1.061   4.053  13.600  0.0855  0.1910 -0.5953
    4MPD2    C313864   1.115   4.139  13.696  0.1383 -0.1624 -0.2856
    4MPD2    C413865   1.036   4.194  13.791  0.5768 -0.4400 -0.9888
    4MPD2    C513866   0.911   4.165  13.799 -0.2271  0.3029  0.5812
    4MPD2     H13867   1.127   4.000  13.531  0.5136 -0.7065  0.5041
    4MPD2    H113868   1.081   4.260  13.865 -1.4862 -0.9940  0.7586
    4MPD2    H213869   0.748   4.072  13.700  0.0313 -2.4506  0.4738
    4MPD2    H313870   0.854   4.200  13.884 -2.5503 -1.0288 -0.4047
    4MPD2     N13871   1.249   4.153  13.675  0.3701 -0.0064 -0.3955
    4MPD2    H513872   1.294   4.097  13.603  2.0379  2.1206 -0.9978
    4MPD2    N113873   0.865   3.944  13.510  0.2245  0.9894 -0.6874
    4MPD2    H713874   0.770   3.917  13.532  1.2183 -1.2382  0.8333
    5TCq2    C113875   1.331   4.228  13.761 -0.3903  0.7427 -0.2965
    5TCq2    O213876   1.312   4.301  13.856  0.0189  0.1475  0.0494
    5TCq2    C213877   1.468   4.200  13.727 -0.1162 -0.4320  0.8165
    5TCq2    C313878   1.508   4.201  13.598 -0.0446  0.2287 -0.5063
    5TCq2    C413879   1.636   4.170  13.569  0.2539 -0.1256 -0.7361
    5TCq2    C513880   1.722   4.127  13.672  0.8841  0.1685 -0.1245
    5TCq2    C613881   1.670   4.121  13.797  0.2489  0.3577 -0.6803
    5TCq2    C713882   1.551   4.164  13.828 -0.5680  0.5319 -0.2965
    5TCq2    C813883   1.732   4.042  13.899  0.3089 -0.1169  0.0574
    5TCq2    O413884   1.659   3.980  13.977 -0.5610 -0.2340  0.3060
    5TCq2    C913885   1.683   4.172  13.439  0.3772 -0.6211 -0.0328
    5TCq2    O513886   1.587   4.186  13.353 -0.1077  0.2903  0.0792
    5TCq2    O613887   1.786   4.103  13.420 -0.4147 -0.2255 -0.5823
    5TCq2    H213888   1.454   4.229  13.508 -0.8303  1.5689  0.3945
    5TCq2    H313889   1.822   4.105  13.635 -0.1289 -0.8533 -2.2444
    5TCq2    H413890   1.523   4.165  13.932 -1.3212  3.8006 -0.5055
    6MPD1     C13891   0.113   4.154  11.822  0.2919  0.1712 -0.3221
    6MPD1    C113892   0.232   4.082  11.805  0.2310 -0.2139  0.0284
    6MPD1    C213893   0.325   4.093  11.911 -0.0552 -0.0497  0.2949
    6MPD1    C313894   0.309   4.180  12.018  0.2962 -0.5075  0.1717
    6MPD1    C413895   0.195   4.261  12.020 -0.0468  0.3539  0.0191
    6MPD1    C513896   0.099   4.245  11.924 -0.0450 -0.3138  0.1236
    6MPD1     H13897   0.414   4.030  11.915  2.4609  3.5917  2.1251
    6MPD1    H113898   0.181   4.342  12.091 -0.8125 -1.9333  2.4448
    6MPD1    H213899   0.028   4.143  11.755 -0.1581  1.5674  0.0237
    6MPD1    H313900   0.012   4.310  11.919 -0.4096 -0.8961 -0.9280
    6MPD1     N13901   0.399   4.202  12.125  0.0981  0.0410  0.4286
    6MPD1    H513902   0.370   4.267  12.198 -2.7372 -1.6401  0.8067
    6MPD1    N113903   0.249   3.986  11.706 -0.0304 -0.5622 -0.1801
    6MPD1    H613904   0.223   4.024  11.615  1.2538 -2.0572 -1.1619
    6MPD1    H713905   0.348   3.966  11.696 -0.1065 -0.4057 -1.3294
    7MPD2     C13906   0.297   4.112  12.879 -0.5492 -0.7918 -0.6818
    7MPD2    C113907   0.401   4.033  12.825 -0.7074 -0.0536 -0.1766
    7MPD2    C213908   0.465   3.937  12.901 -0.2618  0.4463  0.0147
    7MPD2    C313909   0.425   3.906  13.026 -0.3326  0.0141  0.2124
    7MPD2    C413910   0.312   3.967  13.083  0.0542 -0.0534 -0.4723
    7MPD2    C513911   0.255   4.067  13.007  0.7984 -0.0705  0.2878
    7MPD2     H13912   0.543   3.882  12.849 -0.0326  1.9525 -1.2146
    7MPD2    H113913   0.284   3.961  13.187  0.8327 -1.2252 -0.3274
    7MPD2    H213914   0.249   4.193  12.826 -0.8727 -1.2168 -1.0392
    7MPD2    H313915   0.165   4.115  13.043  0.6099 -0.8623  0.8620
    7MPD2     N13916   0.511   3.816  13.093  0.5422  0.1501 -1.0278
    7MPD2    H513917   0.600   3.788  13.053 -0.4005 -2.6045 -1.2081
    7MPD2    N113918   0.457   4.055  12.703 -0.2878 -0.3292  0.1320
    7MPD2    H713919   0.533   3.988  12.704 -1.5560 -1.7645  1.3638
    8TMC3    C113920   0.625   3.722  13.265  0.4281 -0.3241 -0.2884
    8TMC3    C213921   0.702   3.787  13.356 -0.0411  0.5470  0.7491
    8TMC3    C313922   0.829   3.805  13.316 -0.3043 -0.8111 -0.0495
    8TMC3    C413923   0.682   3.646  13.158 -0.0821  0.1053  0.5087
    8TMC3    C513924   0.812   3.666  13.128 -0.2453 -0.8749 -0.2222
    8TMC3    C613925   0.889   3.752  13.202 -0.4542  0.0752 -0.0881
    8TMC3     C13926   0.512   3.799  13.227  0.0820 -0.2091 -0.9784
    8TMC3     O13927   0.445   3.847  13.316 -0.0269 -0.2649  0.0263
    8TMC3     H13928   0.657   3.848  13.434 -0.6877 -0.2816  1.0339
    8TMC3    H113929   0.610   3.584  13.106  1.9872 -1.0179 -1.0038
    8TMC3    H213930   0.987   3.793  13.180 -1.8548  2.0029 -2.8303
    8TMC3    C713931   0.824   3.680  12.988 -0.2365  0.0884 -0.7090
    8TMC3    C813932   0.920   3.887  13.402  0.2376  0.1285  0.2248
    8TMC3    O113933   0.713   3.687  12.932 -0.1046 -0.3840 -0.5220
    8TMC3    O213934   1.033   3.904  13.359 -0.0415 -0.4050 -0.1111
    9TMC3    C113935   0.571   4.153  12.269 -0.1474  0.0991  0.2490
    9TMC3    C213936   0.693   4.097  12.284 -0.3090  0.1419  0.7181
    9TMC3    C313937   0.726   4.074  12.415 -0.0366  0.2480 -0.1728
    9TMC3    C413938   0.482   4.180  12.373 -0.0579  0.0767  0.0720
    9TMC3    C513939   0.522   4.146  12.498  0.0531 -0.5671  0.7352
    9TMC3    C613940   0.645   4.089  12.521  0.0844 -0.3043  0.1041
    9TMC3     C13941   0.514   4.130  12.140 -0.2321 -0.2019 -0.1189
    9TMC3     O13942   0.581   4.058  12.070 -0.2638 -0.1540  0.1402
    9TMC3     H13943   0.756   4.073  12.199  0.9221  1.5990  1.2218
    9TMC3    H113944   0.383   4.221  12.358  0.1855  1.2109  1.4944
    9TMC3    H213945   0.680   4.082  12.623  1.9269 -0.9523 -0.5783
    9TMC3    C713946   0.422   4.147  12.606 -0.2358  0.1104  0.3284
    9TMC3    C813947   0.854   4.012  12.444  0.0107  0.3017  0.4982
    9TMC3    O113948   0.319   4.212  12.594  0.0631 -0.1568 -0.3368
    9TMC3    O213949   0.940   4.067  12.379 -0.5553  0.1935  0.0648
   10MPD2     C13950   1.127   3.787  12.821  0.3760 -0.3863 -1.0400
   10MPD2    C113951   0.991   3.757  12.834  0.3635  0.2401  0.3473
   10MPD2    C213952   0.900   3.799  12.740  0.5277  0.2487 -0.4414
   10MPD2    C313953   0.939   3.864  12.628  0.0844 -0.4835 -0.9156
   10MPD2    C413954   1.071   3.891  12.607  0.3913  0.4293  1.0083
   10MPD2    C513955   1.165   3.846  12.706 -0.4180 -0.9305 -0.1160
   10MPD2     H13956   0.793   3.777  12.738  0.4941  0.2574  1.3297
   10MPD2    H113957   1.111   3.958  12.532  1.5029 -3.4192 -1.7935
   10MPD2    H213958   1.196   3.750  12.895  1.9234  0.4564 -2.0615
   10MPD2    H313959   1.271   3.860  12.684 -1.0677  4.6572  0.3812
   10MPD2     N13960   0.837   3.923  12.552  0.4360 -0.2886 -0.6703
   10MPD2    H513961   0.745   3.884  12.568  1.6784 -2.8347  0.3505
   10MPD2    N113962   0.956   3.695  12.954  0.3458  0.8257 -0.7402
   10MPD2    H713963   1.029   3.681  13.022  3.0969 -0.7247 -3.9946
   11MPD2     C13964   2.168   3.839  14.073  0.3033  0.2211 -0.0774
   11MPD2    C113965   2.036   3.785  14.086  0.0068  0.1249  0.0736
   11MPD2    C213966   1.934   3.843  14.020 -0.0188 -0.1763 -0.6986
   11MPD2    C313967   1.958   3.959  13.942  0.4546 -0.0648  0.3197
   11MPD2    C413968   2.091   4.004  13.928  0.3431  0.7519  0.8603
   11MPD2    C513969   2.197   3.945  13.987 -0.2923 -0.5822 -0.6535
   11MPD2     H13970   1.837   3.805  14.049  1.7931 -2.5986  2.2219
   11MPD2    H113971   2.108   4.091  13.866  0.7592  0.3587  0.4121
   11MPD2    H213972   2.253   3.800  14.129  1.0538  0.5382 -0.9833
   11MPD2    H313973   2.297   3.987  13.991 -0.6639  0.3195 -0.8733
   11MPD2     N13974   1.862   4.037  13.869  0.0161  0.5479 -0.0942
   11MPD2    H513975   1.892   4.103  13.798 -1.4382 -0.3390 -1.5278
   11MPD2    N113976   2.016   3.697  14.194  0.0924 -0.7614  0.2866
   11MPD2    H713977   2.088   3.683  14.264  2.1899 -1.3998 -2.0111
    1MPD1     C13978   4.322   0.433  17.365  0.6194 -0.7820 -0.1891
    1MPD1    C113979   4.457   0.405  17.390 -0.0469 -0.0411 -0.0232
    1MPD1    C213980   4.534   0.360  17.286  0.5844 -0.2498  0.4750
    1MPD1    C313981   4.478   0.362  17.152 -0.7375 -0.0195  0.1800
    1MPD1    C413982   4.345   0.395  17.133  0.1278  0.3630  0.3971
    1MPD1    C513983   4.271   0.437  17.237  0.2614  0.2711 -0.2020
    1MPD1     H13984   4.634   0.321  17.303 -0.0738 -1.8466  0.7071
    1MPD1    H113985   4.299   0.401  17.036  1.8838  2.2608 -0.3195
    1MPD1    H213986   4.253   0.447  17.448  0.0418  3.3667 -1.3551
    1MPD1    H313987   4.167   0.466  17.222 -0.3143 -0.6578  1.9422
    1MPD1     N13988   4.542   0.322  17.033  0.3489  0.0073 -0.0496
    1MPD1    H513989   4.484   0.304  16.952  1.0150  0.7949 -0.7032
    1MPD1    N113990   4.486   0.387  17.527  0.3833  0.6240  0.0687
    1MPD1    H613991   4.585   0.385  17.548  0.2325 -0.0135  0.7238
    1MPD1    H713992   4.447   0.463  17.582  0.5858  0.5434  0.3188
    2MPD1     C13993   0.791   0.325  16.634 -0.0791  0.0608  0.2461
    2MPD1    C113994   0.715   0.386  16.535  0.2194 -0.3807 -0.0591
    2MPD1    C213995   0.584   0.358  16.541  0.5284 -0.3441  0.2957
    2MPD1    C313996   0.524   0.279  16.635 -0.3815  0.2475  0.4906
    2MPD1    C413997   0.596   0.234  16.743  0.6977 -1.0214 -0.0981
    2MPD1    C513998   0.730   0.246  16.733 -0.0668 -0.3336 -0.1395
    2MPD1     H13999   0.516   0.397  16.465  1.6315 -0.6624 -0.8528
    2MPD1    H114000   0.551   0.182  16.827 -0.0241  0.7646  0.6338
    2MPD1    H214001   0.900   0.330  16.639 -0.2519  2.7353  1.3294
    2MPD1    H314002   0.790   0.201  16.812  1.8670  2.0567 -0.2455
    2MPD1     N14003   0.386   0.269  16.633 -0.5907  0.0975 -0.0326
    2MPD1    H514004   0.348   0.319  16.553  0.6100 -0.9922 -1.2843
    2MPD1    N114005   0.778   0.451  16.429  0.3120 -0.4125  0.1778
    2MPD1    H614006   0.879   0.462  16.440 -0.1759  1.3946  2.9189
    2MPD1    H714007   0.737   0.541  16.404  2.8281  0.7922  0.3484
    3TMC3    C114008   0.179   0.272  16.737 -0.4531  0.5546 -0.3197
    3TMC3    C214009   0.114   0.339  16.636  0.0268  0.4400 -0.3963
    3TMC3    C314010   4.711   0.364  16.667 -0.0882 -0.8837 -0.3810
    3TMC3    C414011   0.125   0.263  16.858  0.0871  0.1575  0.3011
    3TMC3    C514012   4.722   0.292  16.884  0.1042  0.2422 -0.5006
    3TMC3    C614013   4.642   0.343  16.783  0.7673  0.4234  0.1677
    3TMC3     C14014   0.311   0.216  16.725 -0.4104  0.0530  0.0741
    3TMC3     O14015   0.332   0.135  16.813 -0.1321  0.0787  0.1193
    3TMC3     H14016   0.171   0.366  16.547  1.0315  1.6207  0.5883
    3TMC3    H114017   0.181   0.236  16.947 -0.9878 -0.8690  0.6749
    3TMC3    H214018   4.547   0.390  16.804  0.6459  0.6921 -0.9813
    3TMC3    C714019   4.681   0.314  17.021 -0.1220 -0.0414  0.5038
    3TMC3    C814020   4.634   0.395  16.547 -0.3994  0.4023  0.1407
    3TMC3    O114021   0.034   0.335  17.114  0.3668  0.0292 -0.0704
    3TMC3    O214022   4.704   0.406  16.442  0.5337 -0.0611 -0.1981
    4MPD1     C14023   4.188   0.439  16.286  0.3811  0.2725  0.6674
    4MPD1    C114024   4.161   0.425  16.417  0.3737 -0.7132  0.1178
    4MPD1    C214025   4.263   0.422  16.510  0.2483 -0.0075  0.7604
    4MPD1    C314026   4.393   0.418  16.467 -0.4725 -0.5707  0.5231
    4MPD1    C414027   4.421   0.416  16.334  0.1360 -0.4109 -0.6798
    4MPD1    C514028   4.318   0.420  16.250  0.3628  0.9215 -0.2472
    4MPD1     H14029   4.253   0.408  16.617 -1.8687  1.1097  0.7084
    4MPD1    H114030   4.523   0.421  16.297  0.3651 -0.2634 -0.0380
    4MPD1    H214031   4.113   0.449  16.208 -0.6353  1.1369  1.7680
    4MPD1    H314032   4.330   0.419  16.142  2.6624 -2.0766  0.0278
    4MPD1     N14033   4.496   0.405  16.565 -0.2405 -0.6070 -1.0074
    4MPD1    H514034   4.454   0.395  16.657  2.5047 -0.6625  0.2404
    4MPD1    N114035   4.032   0.448  16.460 -0.0123 -0.2267  0.2295
    4MPD1    H614036   3.950   0.429  16.402  0.1863  0.7700 -0.3943
    4MPD1    H714037   4.012   0.419  16.555 -1.3052  1.9157  0.6131
    1TCq1    O114038   0.693   3.930  11.832 -0.4259  0.5472  0.4834
    1TCq1    C114039   0.674   4.015  11.736 -0.0975 -0.6563 -0.1913
    1TCq1    O214040   0.578   4.018  11.656  0.3084 -0.1594 -0.2278
    1TCq1    C214041   0.708   4.136  11.808  0.3096  0.1930  0.5860
    1TCq1    C314042   0.838   4.157  11.849  0.1123 -0.3485 -0.5472
    1TCq1    C414043   0.883   4.284  11.872  0.8091 -0.0847 -0.7946
    1TCq1    C514044   0.805   4.390  11.838 -0.2539 -0.1593  0.6972
    1TCq1    C614045   0.675   4.367  11.807 -0.2850  0.1889 -0.5923
    1TCq1    C714046   0.621   4.240  11.796 -0.1165 -0.0510 -0.0688
    1TCq1    C814047   0.600   4.478  11.744 -0.0575  0.2379  0.3399
    1TCq1    O414048   0.652   4.586  11.728  0.5846 -0.2485  0.0068
    1TCq1    C914049   1.023   4.305  11.864 -0.3552  0.5832 -0.4893
    1TCq1    O514050   1.070   4.409  11.918  0.1804 -0.6138  0.2267
    1TCq1    O614051   1.094   4.234  11.789 -0.3280 -0.1270 -0.8945
    1TCq1    H114052   0.753   3.964  11.902  1.0699  1.6635 -1.3362
    1TCq1    H214053   0.910   4.076  11.844 -1.0458 -1.4130 -0.0942
    1TCq1    H314054   0.851   4.489  11.837  0.1696 -0.3431  2.0971
    1TCq1    H414055   0.519   4.222  11.765  0.7322 -1.8906 -1.7969
    2MPD1     C14056   0.235   4.671  11.454  0.0922 -0.1886  0.3638
    2MPD1    C114057   0.170   4.585  11.548  0.0451  0.2087 -0.0242
    2MPD1    C214058   0.251   4.504  11.631 -0.7346 -0.5887  0.1106
    2MPD1    C314059   0.390   4.522  11.628  0.3758  0.7401 -0.4546
    2MPD1    C414060   0.447   4.595  11.529  0.5734  0.3371  0.9866
    2MPD1    C514061   0.370   4.675  11.445  0.4271  0.1926 -0.4468
    2MPD1     H14062   0.199   4.433  11.694 -1.2156  0.0053  0.3852
    2MPD1    H114063   0.553   4.598  11.510  0.0896 -0.6022 -1.8381
    2MPD1    H214064   0.179   0.010  11.386 -2.4735 -2.3510  0.4480
    2MPD1    H314065   0.418   0.009  11.367 -1.0045  0.7468 -0.9059
    2MPD1     N14066   0.466   4.453  11.723 -0.4575  0.3262  0.2483
    2MPD1    H514067   0.411   4.382  11.770 -0.4627 -0.1862 -0.5279
    2MPD1    N114068   0.033   4.561  11.535 -0.2099 -0.3584  0.0793
    2MPD1    H614069   4.714   4.641  11.489  1.5902 -0.4308 -1.7371
    2MPD1    H714070   4.717   4.545  11.627  1.1380 -2.0999  0.3624
    1TCq1    O114071   0.810   4.100   1.391  0.1834 -0.1099  0.1661
    1TCq1    C114072   0.705   4.115   1.470 -0.3795  0.1778 -0.6519
    1TCq1    O214073   0.588   4.106   1.437  0.0415 -0.3358 -0.1687
    1TCq1    C214074   0.744   4.206   1.575  0.0751  0.5812 -0.8075
    1TCq1    C314075   0.855   4.182   1.644 -0.4182  0.9760 -0.3683
    1TCq1    C414076   0.872   4.239   1.769 -0.4452  0.1092  0.5268
    1TCq1    C514077   0.760   4.292   1.832  0.5380 -1.0436 -0.3159
    1TCq1    C614078   0.650   4.326   1.758 -0.3353  0.0087  0.1941
    1TCq1    C714079   0.651   4.293   1.626 -0.7580  0.6347 -0.2900
    1TCq1    C814080   0.536   4.414   1.804 -0.4801 -0.5000 -0.0348
    1TCq1    O414081   0.468   4.465   1.717 -0.4175  0.0864  0.8327
    1TCq1    C914082   0.981   4.185   1.854 -1.0604  0.4447 -0.3860
    1TCq1    O514083   1.037   4.077   1.813  0.3666 -0.1083 -0.6849
    1TCq1    O614084   0.985   4.224   1.975  0.5183  0.5235  0.4496
    1TCq1    H114085   0.877   4.171   1.402  1.5016 -1.2906 -0.1986
    1TCq1    H214086   0.911   4.092   1.625 -0.0757  0.9115  0.9641
    1TCq1    H314087   0.772   4.309   1.939 -0.0371 -0.8942 -0.2726
    1TCq1    H414088   0.559   4.303   1.569 -1.6758  1.2297  1.2889
    2MPD1     C14089   0.332   4.688   2.169  0.4373  0.4638  0.2849
    2MPD1    C114090   0.423   4.605   2.230  0.7781 -0.1616 -0.0296
    2MPD1    C214091   0.493   4.520   2.146  1.3448  0.1046 -0.0400
    2MPD1    C314092   0.462   4.516   2.009 -0.5574 -0.3587 -0.2636
    2MPD1    C414093   0.359   4.591   1.958 -0.1208 -0.4670 -0.1091
    2MPD1    C514094   0.295   4.679   2.034  0.4893 -0.4842 -0.2480
    2MPD1     H14095   0.581   4.472   2.185  1.2300 -0.7760 -0.8503
    2MPD1    H114096   0.345   4.593   1.851  1.7863 -0.7806 -0.3655
    2MPD1    H214097   0.283   0.043   2.224  0.3841 -0.2494  1.2709
    2MPD1    H314098   0.223   0.027   2.000  1.1180 -0.0692 -0.7048
    2MPD1     N14099   0.541   4.438   1.935 -0.1904 -0.5790 -0.1231
    2MPD1    H514100   0.617   4.394   1.985 -0.7444 -1.8222 -0.3691
    2MPD1    N114101   0.463   4.623   2.362  0.8167  0.4300 -0.4211
    2MPD1    H614102   0.478   4.531   2.403 -0.6233  0.6478  0.6166
    2MPD1    H714103   0.390   4.660   2.423 -0.5101  0.6039 -2.0977
    1MPD1     C14104   1.291   4.623  11.795  0.6757  0.1151 -0.3448
    1MPD1    C114105   1.366   4.616  11.917  0.2110  0.0039  0.7049
    1MPD1    C214106   1.469   4.711  11.934 -0.1196 -0.5364  0.3267
    1MPD1    C314107   1.508   0.071  11.833  0.5126 -0.2321 -0.0618
    1MPD1    C414108   1.433   0.080  11.717 -0.4208 -0.4047 -0.4689
    1MPD1    C514109   1.325   4.722  11.699  0.0955 -0.2070 -0.2383
    1MPD1     H14110   1.525   4.713  12.027 -0.6202 -0.4031  0.6314
    1MPD1    H114111   1.459   0.130  11.625 -0.9362  0.6969 -0.0065
    1MPD1    H214112   1.217   4.548  11.768  0.0792 -0.6056  3.2339
    1MPD1    H314113   1.267   0.006  11.607 -0.6819  0.1363  0.2901
    1MPD1     N14114   1.628   0.146  11.860  0.0820 -0.1753  0.4468
    1MPD1    H514115   1.678   0.116  11.943 -1.5118  2.8069  2.4603
    1MPD1    N114116   1.331   4.525  12.016 -0.6175  0.2898  0.5205
    1MPD1    H614117   1.405   4.494  12.078 -0.4262 -0.2707  0.0151
    1MPD1    H714118   1.270   4.454  11.976  3.3565 -1.9786 -1.4330
    2MPD1     C14119   2.521   0.565   9.833 -0.7621 -0.0107  0.1746
    2MPD1    C114120   2.555   0.576   9.966 -0.1387  0.1787  0.7363
    2MPD1    C214121   2.547   0.462  10.045  0.4740  0.3120  0.2766
    2MPD1    C314122   2.492   0.344   9.998 -0.0651 -0.3607  0.4467
    2MPD1    C414123   2.454   0.339   9.867  0.4093  0.1767 -0.8894
    2MPD1    C514124   2.476   0.443   9.781  0.1410  0.1277  0.2009
    2MPD1     H14125   2.578   0.461  10.149  2.2752 -0.9547 -0.2748
    2MPD1    H114126   2.408   0.247   9.833 -0.9561  0.6043 -0.1562
    2MPD1    H214127   2.516   0.647   9.763 -0.3667 -1.5861 -1.6997
    2MPD1    H314128   2.438   0.444   9.680 -0.4389  0.2818  0.4150
    2MPD1     N14129   2.470   0.221  10.077 -0.2306  0.0155 -0.4858
    2MPD1    H514130   2.425   0.144  10.030 -1.4287  0.4796 -0.0921
    2MPD1    N114131   2.613   0.689  10.011  0.1184 -0.3069 -0.1843
    2MPD1    H614132   2.571   0.766   9.959  1.0575  1.0823  1.1221
    2MPD1    H714133   2.599   0.707  10.110 -1.6889 -1.3245 -0.2530
    3MPD1     C14134   2.289   4.211   9.758 -0.3877 -0.4826  0.3090
    3MPD1    C114135   2.281   4.347   9.739  0.1271 -0.8350 -0.8505
    3MPD1    C214136   2.314   4.433   9.839  0.8877  0.8998  0.2254
    3MPD1    C314137   2.353   4.385   9.962 -0.3195  0.1239  0.6259
    3MPD1    C414138   2.352   4.252   9.987 -0.8834 -0.2009  0.5408
    3MPD1    C514139   2.335   4.164   9.882  0.1735 -0.5177 -0.1265
    3MPD1     H14140   2.327   4.540   9.827  1.1042  1.0174  1.4833
    3MPD1    H114141   2.388   4.208  10.080 -1.3093 -1.0645  0.2991
    3MPD1    H214142   2.265   4.133   9.687  1.2172 -0.3507 -0.3752
    3MPD1    H314143   2.333   4.056   9.893 -0.2539 -0.5002 -0.0493
    3MPD1     N14144   2.398   4.481  10.052  0.2756  0.7234 -0.1422
    3MPD1    H514145   2.391   4.580  10.030 -0.9691  0.6911  0.1057
    3MPD1    N114146   2.285   4.388   9.607 -0.4476 -0.4124  0.3713
    3MPD1    H614147   2.231   4.336   9.538 -1.4377  0.8031  0.2224
    3MPD1    H714148   2.247   4.483   9.613 -1.9117 -1.0375  1.0221
    4MPD2     C14149   2.131   0.697  11.498  0.3962  0.3712 -0.5988
    4MPD2    C114150   2.154   0.590  11.576 -0.5937 -0.1631 -0.2911
    4MPD2    C214151   2.255   0.498  11.543 -0.3474  0.5185  0.4081
    4MPD2    C314152   2.329   0.519  11.424  0.5161 -0.0764 -0.0388
    4MPD2    C414153   2.309   0.638  11.357  0.6529 -0.2832  0.3101
    4MPD2    C514154   2.209   0.724  11.395 -0.0913 -0.2660 -0.5273
    4MPD2     H14155   2.260   0.406  11.599  1.2727  1.1518  1.2937
    4MPD2    H114156   2.367   0.656  11.266 -0.2052 -0.3004 -0.2361
    4MPD2    H214157   2.043   0.758  11.521 -0.3798 -0.4102 -1.5039
    4MPD2    H314158   2.188   0.814  11.340  2.1371  1.4907  1.4635
    4MPD2     N14159   2.439   0.439  11.386 -0.1160  0.1688 -0.0249
    4MPD2    H514160   2.476   0.447  11.292  0.4771  0.2677  0.2194
    4MPD2    N114161   2.081   0.562  11.695  0.4662 -0.1790 -0.3649
    4MPD2    H714162   2.107   0.483  11.754  0.6546 -0.3831 -0.7274
    5TMC3    C114163   1.901   0.520  11.824 -0.8732  0.3313 -0.5326
    5TMC3    C214164   1.803   0.439  11.781  0.5112 -0.1876  0.1110
    5TMC3    C314165   1.793   0.311  11.826  0.0518  0.3423 -0.1915
    5TMC3    C414166   1.999   0.461  11.900  0.1790  0.2904  0.4324
    5TMC3    C514167   1.997   0.332  11.931  0.1786 -0.3447 -0.4956
    5TMC3    C614168   1.898   0.249  11.892  0.1641  0.2576  0.2944
    5TMC3     C14169   1.955   0.605  11.721  0.1633 -0.2288 -0.2160
    5TMC3     O14170   1.878   0.678  11.653  0.0359 -0.1084  0.1461
    5TMC3     H14171   1.728   0.487  11.720  1.8263  0.3078 -1.1005
    5TMC3    H114172   2.078   0.523  11.942 -0.8649  1.1660  1.1057
    5TMC3    H214173   1.891   0.144  11.919  1.2599  0.1082 -0.0117
    5TMC3    C714174   2.127   0.266  11.908  0.4818 -0.6597  0.0657
    5TMC3    C814175   1.680   0.235  11.773  0.4023  0.3385 -0.2291
    5TMC3    O114176   2.195   0.337  11.837  0.8624  0.6039 -0.4904
    5TMC3    O214177   1.627   0.273  11.672 -0.0138 -0.7922  0.3108
    6TMC3    C114178   2.481   0.074  10.269  0.1384  0.8649 -0.3302
    6TMC3    C214179   2.482   4.689  10.190  0.2075 -0.0327  0.1395
    6TMC3    C314180   2.478   4.568  10.250  0.7951 -0.1200  0.4853
    6TMC3    C414181   2.474   0.067  10.404 -0.3417  0.3664 -0.9675
    6TMC3    C514182   2.468   4.664  10.464  0.1379  0.6855  0.0045
    6TMC3    C614183   2.475   4.550  10.389 -0.3957 -0.4847 -0.0758
    6TMC3     C14184   2.501   0.206  10.212  0.2094 -1.3593  0.1071
    6TMC3     O14185   2.542   0.291  10.290 -0.1076 -0.6580 -0.3077
    6TMC3     H14186   2.513   4.697  10.086  0.1066 -1.5382  0.0012
    6TMC3    H114187   2.468   0.156  10.466  2.8615 -1.6706  2.3347
    6TMC3    H214188   2.452   4.451  10.426  0.3203 -0.7646 -0.3829
    6TMC3    C714189   2.461   4.643  10.609  0.1487 -0.1503 -0.4974
    6TMC3    C814190   2.460   4.452  10.169 -0.0603  0.0726 -0.0537
    6TMC3    O114191   2.407   0.007  10.672 -0.2317 -0.7175  0.3977
    6TMC3    O214192   2.483   4.339  10.219  0.2994  0.1730  0.3961
    7MPD2     C14193   2.496   4.620  11.839 -0.0722 -0.0808 -0.2479
    7MPD2    C114194   2.464   0.018  11.780  0.2399  0.3165  0.2487
    7MPD2    C214195   2.362   0.097  11.818  0.2883  0.4246 -0.3267
    7MPD2    C314196   2.280   0.066  11.925  0.8957 -0.2218  0.3009
    7MPD2    C414197   2.314   4.670  11.992  0.1168 -0.1960 -0.3472
    7MPD2    C514198   2.420   4.590  11.948  0.2133 -0.6207  0.3195
    7MPD2     H14199   2.350   0.187  11.759 -0.2395  0.1545 -0.6255
    7MPD2    H114200   2.258   4.631  12.076  0.0862 -1.0808 -0.7808
    7MPD2    H214201   2.573   4.549  11.811 -0.2363 -0.0299 -0.8141
    7MPD2    H314202   2.443   4.498  12.001  0.4668 -0.3370  0.7041
    7MPD2     N14203   2.167   0.145  11.967  1.0051 -0.0567  0.4761
    7MPD2    H514204   2.100   0.091  12.022  0.5259 -0.7120 -0.7629
    7MPD2    N114205   2.526   0.061  11.660 -0.2009 -0.3706  0.1264
    7MPD2    H714206   2.516   0.159  11.636  0.2366 -0.4029 -0.1962
    8TMC3    C114207   2.664   0.059  11.479 -0.1050 -0.4061  0.1942
    8TMC3    C214208   2.623   0.005  11.361  1.1393 -0.6407  0.5206
    8TMC3    C314209   2.583   0.087  11.262 -0.1398  0.1114 -0.2366
    8TMC3    C414210   2.660   0.194  11.497  0.3509 -0.6943 -0.6672
    8TMC3    C514211   2.596   0.274  11.405  0.4141  0.3750 -0.6997
    8TMC3    C614212   2.570   0.221  11.282  0.6874 -0.0287 -0.1808
    8TMC3     C14213   2.612   4.710  11.585 -0.0651 -0.2129  0.2966
    8TMC3     O14214   2.618   4.591  11.575  0.4654  0.0675  0.5745
    8TMC3     H14215   2.609   4.622  11.350  0.4172 -0.4723 -0.1573
    8TMC3    H114216   2.685   0.234  11.594  0.5643 -1.6556 -0.3232
    8TMC3    H214217   2.528   0.283  11.204 -0.1307 -0.1939  0.1285
    8TMC3    C714218   2.501   0.353  11.474 -0.1904  0.5900 -0.4288
    8TMC3    C814219   2.546   0.034  11.132 -0.7956  0.6397 -0.6167
    8TMC3    O114220   2.490   0.334  11.594 -0.5080  0.0949  0.2668
    8TMC3    O214221   2.509   0.112  11.042 -0.0904 -0.0870  0.1548
    9MPD2     C14222   2.529   4.399  11.057 -0.9920 -0.7464  0.2429
    9MPD2    C114223   2.509   4.533  11.031  0.5488 -0.2752  0.2224
    9MPD2    C214224   2.499   4.577  10.903  0.1800 -0.3870 -0.6121
    9MPD2    C314225   2.505   4.484  10.795  0.1228  0.3482  0.2205
    9MPD2    C414226   2.516   4.347  10.823 -0.4099 -0.4433 -0.0629
    9MPD2    C514227   2.510   4.314  10.951 -0.2410  0.2124 -0.1465
    9MPD2     H14228   2.506   4.682  10.879  2.1520 -0.1552  0.9917
    9MPD2    H114229   2.506   4.267  10.751 -1.0789  0.1925 -0.6805
    9MPD2    H214230   2.533   4.365  11.160 -1.5364 -2.2410 -0.2309
    9MPD2    H314231   2.518   4.208  10.974 -1.1876  0.6451  2.1687
    9MPD2     N14232   2.491   4.517  10.658  0.1483 -1.1522 -0.0884
    9MPD2    H514233   2.531   4.455  10.588 -0.8012 -0.7144 -1.0061
    9MPD2    N114234   2.545   4.624  11.135 -0.4110 -0.5299  0.3817
    9MPD2    H714235   2.577   4.582  11.222  1.5170 -2.7927 -1.4001
    1MPD1     C14236   2.953   3.396  16.773 -1.0896 -0.0040  0.0932
    1MPD1    C114237   2.872   3.460  16.681  0.0325 -0.5740 -0.1596
    1MPD1    C214238   2.779   3.551  16.724  0.3257 -0.6539  0.3438
    1MPD1    C314239   2.755   3.574  16.858 -0.2483  0.0734 -0.0982
    1MPD1    C414240   2.838   3.512  16.942  0.3684  0.1279 -1.0455
    1MPD1    C514241   2.933   3.420  16.904  0.5238  0.1531 -0.3264
    1MPD1     H14242   2.720   3.597  16.645 -0.4941  0.5631  1.6725
    1MPD1    H114243   2.821   3.524  17.048 -0.9757  1.1634 -1.3709
    1MPD1    H214244   3.032   3.327  16.744 -0.7419  0.2469  0.4508
    1MPD1    H314245   2.995   3.364  16.973 -0.3468 -0.6166 -0.1679
    1MPD1     N14246   2.641   3.645  16.901  0.5807  0.6626 -0.5501
    1MPD1    H514247   2.638   3.659  17.002 -1.3939  0.1810 -0.5575
    1MPD1    N114248   2.912   3.452  16.545 -0.2566 -0.2912  0.2446
    1MPD1    H614249   2.829   3.465  16.487 -0.2867 -0.8744  0.1544
    1MPD1    H714250   2.972   3.377  16.510 -1.5581 -1.6628  0.9582
    2MPD1     C14251   1.972   4.410  16.490  0.4295  0.1957  0.1869
    2MPD1    C114252   2.090   4.462  16.542 -0.1792 -0.1861  0.7556
    2MPD1    C214253   2.171   4.372  16.614 -0.2534 -0.5707 -0.2776
    2MPD1    C314254   2.133   4.246  16.642  0.5548 -0.2344  0.4014
    2MPD1    C414255   2.008   4.197  16.589 -0.2545 -1.1214  0.6355
    2MPD1    C514256   1.925   4.289  16.525  0.3374 -0.3378  0.2787
    2MPD1     H14257   2.265   4.401  16.660 -0.2814 -0.3981 -0.3282
    2MPD1    H114258   1.971   4.096  16.605 -0.5513 -0.9010  1.3282
    2MPD1    H214259   1.909   4.480  16.437  0.9196  0.8725  0.4880
    2MPD1    H314260   1.820   4.265  16.519 -0.0251  0.5751  3.2223
    2MPD1     N14261   2.216   4.161  16.727 -0.1295 -0.6979 -0.5372
    2MPD1    H514262   2.293   4.210  16.772  0.4773 -0.1603 -2.1385
    2MPD1    N114263   2.150   4.584  16.498  0.2401 -0.5501 -0.1937
    2MPD1    H614264   2.082   4.650  16.462  0.6461 -1.1939 -2.1641
    2MPD1    H714265   2.211   4.621  16.570 -1.1608 -0.5352  0.9994
    3TCq2    C114266   2.206   4.025  16.752 -0.0158 -0.9798  0.5860
    3TCq2    O214267   2.128   3.944  16.696  0.1688 -0.1530 -0.3689
    3TCq2    C214268   2.308   3.972  16.841 -0.7145 -0.1600 -0.6197
    3TCq2    C314269   2.357   4.050  16.942  0.1585 -0.4624  0.2182
    3TCq2    C414270   2.471   4.010  17.004 -0.5195 -0.0108  0.2266
    3TCq2    C514271   2.532   3.887  16.971  0.3786 -0.8408  0.6675
    3TCq2    C614272   2.466   3.809  16.882 -0.2373  0.3860  0.1988
    3TCq2    C714273   2.360   3.853  16.808  0.5682 -0.3215 -0.1824
    3TCq2    C814274   2.540   3.693  16.821 -0.7654 -0.2986  0.6476
    3TCq2    O414275   2.507   3.677  16.705  0.1198  0.2904  0.1317
    3TCq2    C914276   2.545   4.099  17.097  0.2542 -0.9278 -0.2621
    3TCq2    O514277   2.484   4.195  17.152 -0.5118  0.3354  0.5119
    3TCq2    O614278   2.666   4.067  17.123  0.4005  0.3699 -0.0340
    3TCq2    H214279   2.311   4.146  16.959 -2.0408 -1.0164 -2.6601
    3TCq2    H314280   2.623   3.860  17.023 -0.5488 -0.5042  2.4406
    3TCq2    H414281   2.318   3.802  16.722 -1.9186 -0.6430  1.2055
    1TCq1    O114282   4.690   2.701  13.178  0.2555 -0.0762 -0.3249
    1TCq1    C114283   4.685   2.715  13.046 -0.5400  0.7212  0.3379
    1TCq1    O214284   4.581   2.693  12.987  0.3808  0.4855  0.1285
    1TCq1    C214285   0.053   2.820  13.003  0.4549 -0.1787 -0.6724
    1TCq1    C314286   4.714   2.930  12.952  0.6322 -0.7924  0.6232
    1TCq1    C414287   0.046   3.050  12.963 -0.1241 -0.2927  0.2016
    1TCq1    C514288   0.167   3.061  13.018  1.1976 -0.0986  0.3741
    1TCq1    C614289   0.224   2.959  13.078 -0.5084 -0.6889 -0.3018
    1TCq1    C714290   0.169   2.835  13.075  0.2554  0.2810 -0.9014
    1TCq1    C814291   0.350   2.982  13.146 -0.0811  0.1836 -0.3870
    1TCq1    O414292   0.385   3.098  13.169  0.2455 -0.4185  0.4261
    1TCq1    C914293   4.688   3.163  12.924  0.0376  0.6622 -0.0202
    1TCq1    O514294   4.722   3.279  12.967 -0.0553 -0.1836 -0.3620
    1TCq1    O614295   4.575   3.138  12.866  0.0754  0.4569  0.0019
    1TCq1    H114296   0.045   2.737  13.223 -0.4989  2.2808 -0.8434
    1TCq1    H214297   4.608   2.930  12.932  1.1425  0.7383 -2.1027
    1TCq1    H314298   0.209   3.160  13.033  1.7850 -0.2069 -0.5333
    1TCq1    H414299   0.205   2.749  13.129 -2.4415 -0.7991 -0.8354
    2MPD2     C14300   0.616   2.961  13.285 -0.2799 -0.7693 -0.0507
    2MPD2    C114301   0.552   2.857  13.224 -0.6316  0.4098  0.0395
    2MPD2    C214302   0.621   2.736  13.216  0.2130  0.5270 -0.3756
    2MPD2    C314303   0.750   2.722  13.255  0.4996  0.3135  0.5091
    2MPD2    C414304   0.816   2.833  13.306 -0.6266  0.2974  0.1344
    2MPD2    C514305   0.748   2.952  13.316 -0.1348  0.0753 -0.0635
    2MPD2     H14306   0.567   2.654  13.171 -0.4641  2.0221 -2.2549
    2MPD2    H114307   0.913   2.821  13.352 -0.8729 -2.3863 -0.0833
    2MPD2    H214308   0.554   3.049  13.297  1.5966  0.6991 -1.2322
    2MPD2    H314309   0.796   3.040  13.358  0.4649  0.2109 -1.0122
    2MPD2     N14310   0.796   2.588  13.270  0.8849 -0.2018 -0.4441
    2MPD2    H514311   0.731   2.517  13.239 -0.4103 -0.1471  2.1355
    2MPD2    N114312   0.422   2.866  13.173 -0.3872  0.2692  0.4467
    2MPD2    H714313   0.379   2.780  13.141  0.1168  0.1350  0.1362
    3TCq1    O114314   1.209   2.188  13.515  0.1398  0.1459  0.5177
    3TCq1    C114315   1.203   2.173  13.380  0.2880 -0.7504 -0.0254
    3TCq1    O214316   1.270   2.085  13.323  0.5763 -0.4698 -0.1149
    3TCq1    C214317   1.087   2.236  13.317  0.3306  0.7387  0.2627
    3TCq1    C314318   1.031   2.161  13.220 -0.1768  0.3577 -0.1773
    3TCq1    C414319   0.926   2.216  13.145 -0.0918 -0.1396  0.2706
    3TCq1    C514320   0.881   2.339  13.187 -0.2850  0.4023 -0.4403
    3TCq1    C614321   0.955   2.417  13.277  0.1579 -0.0044 -0.8639
    3TCq1    C714322   1.057   2.368  13.349 -0.0006  0.3794  0.0356
    3TCq1    C814323   0.922   2.549  13.315  0.4600  0.3454 -0.8084
    3TCq1    O414324   1.015   2.617  13.358  0.0119  0.0480 -0.0505
    3TCq1    C914325   0.886   2.159  13.027  0.5563 -0.6244 -0.6698
    3TCq1    O514326   0.951   2.054  12.995 -0.3031  0.0307  0.0113
    3TCq1    O614327   0.779   2.205  12.983 -0.3639 -0.2611  0.3441
    3TCq1    H114328   1.127   2.231  13.548  0.5742  2.2151 -1.1350
    3TCq1    H214329   1.059   2.059  13.197 -0.7851  0.5510 -1.8142
    3TCq1    H314330   0.797   2.383  13.134 -2.0639 -2.4331  0.0497
    3TCq1    H414331   1.106   2.422  13.430  0.1238 -1.6115  1.3028
    1MPD2     C14332   0.124   3.796  15.079 -0.6834 -0.8836 -0.0761
    1MPD2    C114333   4.712   3.796  15.054 -0.0585 -0.5990  0.9390
    1MPD2    C214334   4.659   3.682  14.991 -1.2245  0.5767  0.1477
    1MPD2    C314335   0.008   3.571  14.952  0.5423 -0.5725 -0.4523
    1MPD2    C414336   0.138   3.571  14.994 -0.6047  0.4803  0.6660
    1MPD2    C514337   0.195   3.688  15.043  0.1975  0.0678  0.2739
    1MPD2     H14338   4.556   3.683  14.956 -1.6883  0.6024  1.5210
    1MPD2    H114339   0.204   3.487  14.976 -0.9163  0.3879 -0.0324
    1MPD2    H214340   0.186   3.868  15.130 -1.3717 -0.0400 -0.4317
    1MPD2    H314341   0.298   3.693  15.074  0.3018 -1.6336  0.1919
    1MPD2     N14342   4.675   3.456  14.879 -0.4720 -0.5806  0.3034
    1MPD2    H514343   0.005   3.371  14.873  0.4752  0.1123 -0.6254
    1MPD2    N114344   4.630   3.911  15.085 -0.1507  0.1908  0.0093
    1MPD2    H714345   4.683   3.992  15.117 -1.3930  1.2845 -0.6965
    2TMC3    C114346   4.439   4.052  15.101  0.8302  0.1058 -0.7540
    2TMC3    C214347   4.309   4.032  15.144 -0.1455 -0.0139 -0.1746
    2TMC3    C314348   4.212   4.101  15.081  0.0704  0.1012  0.3175
    2TMC3    C414349   4.467   4.154  15.018  0.4420 -0.0291  0.7649
    2TMC3    C514350   4.364   4.232  14.967  0.4200 -0.6328 -0.4365
    2TMC3    C614351   4.236   4.207  14.994 -0.0030 -0.3448 -0.1787
    2TMC3     C14352   4.496   3.916  15.076 -0.2917 -0.3167  0.3845
    2TMC3     O14353   4.417   3.822  15.067 -0.1014 -0.5626  0.3917
    2TMC3     H14354   4.269   3.947  15.198  2.6167  0.4526  2.5982
    2TMC3    H114355   4.561   4.156  14.965  0.5656 -0.0280  0.9844
    2TMC3    H214356   4.150   4.243  14.940 -1.6350  0.8352  3.2667
    2TMC3    C714357   4.388   4.336  14.864 -0.8855  0.4614 -0.5571
    2TMC3    C814358   4.101   4.019  15.026 -0.6696  0.0209  0.3829
    2TMC3    O114359   4.291   4.381  14.804  0.3431  0.0725  0.5800
    2TMC3    O214360   3.992   4.068  15.010 -0.0096 -0.5375  0.2719
    3TCq1    O114361   0.726   0.082  14.396  0.4305  0.0611 -0.4616
    3TCq1    C114362   0.688   0.153  14.501 -0.4402 -0.0311  0.0402
    3TCq1    O214363   0.757   0.236  14.557  0.3030 -0.4039 -0.0302
    3TCq1    C214364   0.598   0.066  14.578  0.0202 -0.4690 -0.4606
    3TCq1    C314365   0.648   0.003  14.688  0.2672  0.2412  0.6608
    3TCq1    C414366   0.575   4.639  14.764 -0.1329 -0.5881  0.0376
    3TCq1    C514367   0.450   4.608  14.726  0.1676  0.0542 -0.2598
    3TCq1    C614368   0.394   4.675  14.622 -0.3379 -0.6272  0.0516
    3TCq1    C714369   0.465   0.048  14.550  0.6938  0.0620 -0.4111
    3TCq1    C814370   0.251   4.681  14.592  0.7035 -0.4563 -0.0208
    3TCq1    O414371   0.217   0.020  14.491 -0.2656 -0.3727  0.7017
    3TCq1    C914372   0.634   4.581  14.876 -0.2466  0.3732  0.1046
    3TCq1    O514373   0.561   4.492  14.929 -0.0187  0.1432 -0.9987
    3TCq1    O614374   0.761   4.590  14.885  0.1458  0.4278  0.4197
    3TCq1    H114375   0.672   0.004  14.374  1.5815 -0.7567 -0.4032
    3TCq1    H214376   0.750   0.022  14.718  0.7620  0.2382 -0.9996
    3TCq1    H314377   0.395   4.528  14.774 -0.4562  0.3584 -0.4555
    3TCq1    H414378   0.417   0.081  14.458  1.4480  0.8040 -0.5363
    4MPD2     C14379   4.683   4.652  14.592  0.3345  0.0662  1.1121
    4MPD2    C114380   0.041   4.583  14.678  0.0542  0.3430 -0.3420
    4MPD2    C214381   4.712   4.488  14.759 -0.0308 -0.5661 -0.5323
    4MPD2    C314382   4.574   4.463  14.759  0.1290 -0.4771 -0.8507
    4MPD2    C414383   4.498   4.523  14.662 -0.3504  0.3429 -0.0337
    4MPD2    C514384   4.553   4.619  14.583  0.6640  0.3266 -0.3160
    4MPD2     H14385   0.050   4.433  14.828 -0.2978  1.9971  1.7473
    4MPD2    H114386   4.391   4.508  14.648 -0.2245 -0.3912 -0.2121
    4MPD2    H214387   4.717   0.008  14.528 -0.3618  1.1836  2.1354
    4MPD2    H314388   4.483   4.662  14.511 -0.6781 -0.7038  0.3783
    4MPD2     N14389   4.519   4.372  14.852 -0.3439 -0.0293  0.5182
    4MPD2    H514390   4.582   4.327  14.918  0.8544  1.6681  0.5152
    4MPD2    N114391   0.181   4.597  14.674  0.1765 -0.8095  0.1889
    4MPD2    H714392   0.223   4.530  14.738  0.2857 -0.3484  0.6016
    5TMC2    C114393   4.299   3.296  14.679  0.1922 -0.2392  0.3034
    5TMC2    C214394   4.291   3.193  14.765  0.4048  0.1723 -0.3054
    5TMC2    C314395   4.403   3.158  14.828 -0.0578  0.4714  0.2247
    5TMC2    C414396   4.410   3.366  14.663  0.3542  0.3926  0.7749
    5TMC2    C514397   4.515   3.347  14.743  0.0929  0.2433 -0.8156
    5TMC2    C614398   4.516   3.233  14.822  0.1565  0.5687  0.7412
    5TMC2     C14399   4.178   3.375  14.682 -0.0733  0.1642 -0.1482
    5TMC2     O14400   4.073   3.314  14.699  0.6863  0.0569  0.1392
    5TMC2     H14401   4.200   3.137  14.780  2.3356 -3.1947 -0.9910
    5TMC2    H114402   4.415   3.450  14.594 -0.4229  0.0406  0.2973
    5TMC2    H214403   4.598   3.226  14.892  2.0235  1.9186 -1.2854
    5TMC2    C714404   4.559   3.468  14.803  0.2931 -0.6119 -0.7885
    5TMC2    C814405   4.380   3.096  14.956 -0.5189  0.7179 -0.2899
    5TMC2    O114406   4.494   3.568  14.776 -0.0884  0.2122  0.3629
    5TMC2    O214407   4.273   3.108  15.017 -0.6037 -0.1067  0.0641
    5TMC2    O514408   4.451   2.980  14.964  0.3279 -0.0236 -0.0101
    5TMC2    H514409   4.525   2.980  14.900  0.6199 -1.4391  0.3259
    6MPD2     C14410   3.954   3.791  14.904 -0.7933  0.1283 -0.3348
    6MPD2    C114411   4.091   3.796  14.912 -0.2530 -0.3343  0.1704
    6MPD2    C214412   4.172   3.695  14.861  0.3526  0.5384  0.4787
    6MPD2    C314413   4.117   3.590  14.785  0.1902 -0.5550  0.3148
    6MPD2    C414414   3.983   3.577  14.786  0.2199 -0.2009 -0.0865
    6MPD2    C514415   3.906   3.682  14.830 -0.3639 -0.1087 -0.0847
    6MPD2     H14416   4.280   3.690  14.861  0.3494  0.4665  0.8209
    6MPD2    H114417   3.931   3.493  14.742  1.4655 -1.6490  1.2132
    6MPD2    H214418   3.886   3.873  14.926 -1.1324 -0.1269 -0.4202
    6MPD2    H314419   3.800   3.661  14.823 -0.7557  2.1388 -1.1533
    6MPD2     N14420   4.209   3.498  14.725  0.4534  0.7345  0.0897
    6MPD2    H514421   4.303   3.526  14.749  0.5956  0.1324  0.2271
    6MPD2    N114422   4.155   3.902  14.977 -0.0158  0.2458 -0.0029
    6MPD2    H714423   4.256   3.898  14.973 -0.1948 -1.4500 -2.5498
  945NH4     N114424   1.828   0.535   2.968 -0.0645 -0.1687 -0.4764
  945NH4     H214425   1.878   0.593   2.897  0.8570 -0.5045 -0.1043
  945NH4     H314426   1.781   0.460   2.912  0.2218  0.1081 -1.0833
  945NH4     H414427   1.754   0.588   3.019  2.1987  1.4341  1.1112
  945NH4     H514428   1.898   0.498   3.036 -0.6306  0.9706  0.7153
  946SOD     NA14429   1.203   2.983  14.475 -0.8260 -0.3633 -0.4644
  947SOD     NA14430   0.702   3.587  15.441 -0.8375 -0.0344 -0.2770
  948SOD     NA14431   1.704   3.166  15.008 -0.2234  0.3223  0.3759
  949SOD     NA14432   1.214   3.575  14.172  0.2424  0.3652  0.7583
  950SOD     NA14433   2.858   2.574   0.431 -0.0105 -0.1458 -0.0945
  951SOD     NA14434   0.976   1.314  16.820  0.4776  0.4593  0.2291
  952SOD     NA14435   2.667   2.596   0.711 -0.0831  0.4573  0.0485
  953SOD     NA14436   0.276   2.780  11.698  0.4235 -0.2675 -0.0170
  954SOD     NA14437   2.351   4.098  15.150 -0.2286 -0.1244  0.2552
  955SOD     NA14438   4.324   2.244   5.243  0.2051  0.4539 -0.0125
  956SOD     NA14439   1.346   1.485  12.079  0.1300 -0.1673 -0.6199
  957SOD     NA14440   0.110   0.695   3.355 -0.2964 -0.1980 -0.1737
  958SOD     NA14441   4.121   0.660  15.932 -0.3493 -0.0551 -0.3174
  959SOD     NA14442   3.477   2.113  13.096 -0.2236 -0.1965 -0.0487
  960SOD     NA14443   3.822   3.970  12.748  0.0416  0.7832  0.1033
  961SOD     NA14444   4.517   2.682   9.884 -0.3561  0.5173  0.2432
  962SOD     NA14445   3.682   2.477  10.383  0.0255 -0.1118  0.1724
  963SOD     NA14446   1.308   1.157  11.084  0.0568  0.0117  0.2333
  964SOD     NA14447   3.249   4.431  11.025 -0.2789  0.1749 -0.3963
  965SOD     NA14448   3.874   2.095  10.112 -0.5072  0.7494  0.4624
  966SOD     NA14449   2.892   0.861   2.528  0.0872  0.3401  0.1596
  967SOD     NA14450   3.076   2.841  10.806  0.0614  0.2353  0.0028
  968SOD     NA14451   0.736   4.649   2.803  0.4964 -0.3552  0.0292
  969SOD     NA14452   1.887   0.507  13.094  0.1881 -0.2060  0.3511
  970SOD     NA14453   3.714   3.900  10.453 -0.2557 -0.3412 -0.2046
  971SOD     NA14454   0.313   0.559   7.866 -0.0159  0.4793 -0.2439
  972SOD     NA14455   1.255   1.485  16.807 -0.1763  0.0983  0.0574
  973SOD     NA14456   0.056   2.073   9.915 -0.1505 -0.0347  0.2549
  974SOD     NA14457   2.442   4.177   8.847 -0.4146  0.3371  0.7879
  975SOD     NA14458   3.004   1.299  10.855  0.1149  0.2527  0.0018
  976SOD     NA14459   0.447   2.808  13.718 -0.1695 -0.0323  0.1564
  977SOD     NA14460   1.289   4.170  13.086 -0.0107 -0.0907  0.4933
  978SOD     NA14461   2.323   2.722   7.582  0.2464 -0.1810 -0.0408
  979SOD     NA14462   4.199   4.615   7.438 -0.2178 -0.0056 -0.1697
  980SOD     NA14463   1.367   0.321   1.007  0.4695  0.1723  0.0397
  981SOD     NA14464   2.858   2.223   0.419 -0.0805 -0.3235  0.4801
  982SOD     NA14465   4.130   2.397   9.263 -0.1334 -0.1624  0.4073
  983SOD     NA14466   4.618   2.188  10.694 -0.1943 -0.0839  0.4774
  984SOD     NA14467   3.053   2.015  11.141  0.5736 -0.2677 -0.7355
  985SOD     NA14468   3.444   2.704  10.368  0.1597  0.0637  0.4407
  986SOD     NA14469   3.223   2.720  13.976  0.0356  0.4632 -0.1438
  987SOD     NA14470   0.784   0.772  12.173  0.0313  0.1808 -0.1665
  988SOD     NA14471   2.345   3.668  13.647 -0.3245  0.1713  0.0762
  989SOD     NA14472   1.300   1.979   1.513  0.3630 -0.3058 -0.1303
  990SOD     NA14473   3.129   0.143   9.477  0.3158 -0.2405  0.0917
  991SOD     NA14474   4.556   3.150   0.767 -0.3484  0.1686 -0.1790
  992SOD     NA14475   2.654   1.210  15.202  0.1273  0.2478  0.1929
  993SOD     NA14476   0.774   4.435  16.691  0.4910 -0.2302 -0.1320
  994SOD     NA14477   4.499   2.904  11.450  0.3917 -0.3434 -0.1600
  995SOD     NA14478   4.116   3.543   2.297  0.2157  0.0777 -0.1379
  996SOD     NA14479   1.783   2.211  13.899 -0.1626  0.4827 -0.5889
  997SOD     NA14480   0.795   0.572   7.349  0.0183 -0.7051  0.1393
  998SOD     NA14481   0.613   2.108  12.885  0.3908  0.4235 -0.3631
  999SOD     NA14482   3.364   3.324  10.810  0.2607 -0.1875  0.1906
 1000SOD     NA14483   0.172   3.085  11.733  0.3193  0.3028 -0.6879
 1001SOD     NA14484   0.726   4.260  14.585 -0.2861 -0.0568  0.2412
 1002SOD     NA14485   4.003   0.165   1.138 -0.3421 -0.8757  0.1843
 1003SOD     NA14486   4.306   1.922   1.643  0.1687 -0.3371 -0.3640
 1004SOD     NA14487   0.462   3.293  13.228 -0.4675  0.6278  0.3525
 1005SOD     NA14488   2.188   3.059  14.871  0.2855  0.2564  0.1617
 1006SOD     NA14489   1.452   1.959  13.369 -0.2061  0.0800 -0.0592
 1007SOD     NA14490   3.196   1.244   3.312  0.3837 -0.1069  0.2837
 1008SOD     NA14491   4.526   0.234  10.185  0.3555  0.0791 -0.1043
 1009SOD     NA14492   4.403   2.398  12.439 -0.4033  0.2061  0.1546
 1010SOD     NA14493   1.287   3.292   2.140  0.0618 -0.2396  0.2552
 1011SOL     OW14494   2.537   3.994  15.753 -0.3563 -0.2360  0.3714
 1011SOL    HW114495   2.543   3.901  15.775 -4.2716 -0.4788  0.4692
 1011SOL    HW214496   2.445   4.009  15.774  0.3533 -0.8189  3.8759
 1012SOL     OW14497   1.973   1.486   5.353 -0.2435  0.0532 -0.5031
 1012SOL    HW114498   2.017   1.402   5.338  2.2845  1.0276  1.4428
 1012SOL    HW214499   1.954   1.487   5.447 -2.4268  0.7177 -0.9582
 1013SOL     OW14500   2.210   1.720   5.449  0.6703 -0.1035  0.0278
 1013SOL    HW114501   2.124   1.726   5.490  1.1147 -0.1468  0.9779
 1013SOL    HW214502   2.256   1.791   5.494  1.9184 -1.2256  0.5021
 1014SOL     OW14503   2.347   3.968   6.385 -0.1442  0.3252  0.3020
 1014SOL    HW114504   2.399   3.897   6.422  1.4993  1.7024  0.5833
 1014SOL    HW214505   2.306   3.928   6.308  0.0963 -2.4562  1.6244
 1015SOL     OW14506   4.306   2.411   5.408 -0.0723 -0.1354  0.0016
 1015SOL    HW114507   4.228   2.427   5.460  1.7142  2.8206  1.7282
 1015SOL    HW214508   4.364   2.378   5.477  1.2178 -1.5741 -1.7803
 1016SOL     OW14509   4.454   0.446   3.849 -0.1057 -0.1232 -0.1150
 1016SOL    HW114510   4.488   0.535   3.853  1.1766 -0.7350  3.0614
 1016SOL    HW214511   4.384   0.460   3.785  1.4742 -2.5151 -2.3603
 1017SOL     OW14512   3.405   3.828   3.726 -0.0892 -0.8295 -0.4377
 1017SOL    HW114513   3.451   3.855   3.646 -0.5246  1.7590  0.1562
 1017SOL    HW214514   3.359   3.909   3.749 -0.2550 -0.9013 -0.5149
 1018SOL     OW14515   3.066   1.606   4.472 -0.3486 -0.0510 -0.4955
 1018SOL    HW114516   3.144   1.600   4.527  1.0811 -0.0328 -2.5023
 1018SOL    HW214517   3.047   1.514   4.454 -0.1567  0.0930 -1.4611
 1019SOL     OW14518   1.275   4.200  17.330  0.4056  0.0595  0.1632
 1019SOL    HW114519   1.182   4.177  17.325  0.1233  1.3505 -0.3375
 1019SOL    HW214520   1.297   4.149  17.408 -1.0627 -2.0658 -0.8009
 1020SOL     OW14521   2.373   2.121   5.091  0.7136  0.3573 -0.3879
 1020SOL    HW114522   2.467   2.105   5.089  0.4789 -0.9344 -1.2303
 1020SOL    HW214523   2.340   2.045   5.042  0.8927 -0.3999  0.6504
 1021SOL     OW14524   2.018   2.281   8.053  0.6751 -0.3449 -0.5202
 1021SOL    HW114525   1.991   2.309   8.140  1.8819 -0.0696 -0.2396
 1021SOL    HW214526   2.027   2.186   8.056 -0.6136 -0.3568  2.9158
 1022SOL     OW14527   1.306   4.090  10.974 -0.0025  0.3506 -0.4266
 1022SOL    HW114528   1.316   4.091  10.879  0.5859  0.2092 -0.3656
 1022SOL    HW214529   1.211   4.092  10.974  0.0143  1.8016  1.9019
 1023SOL     OW14530   4.262   4.219   2.460 -0.6165  0.4963  0.0793
 1023SOL    HW114531   4.231   4.283   2.525 -0.1999  0.1551  0.6043
 1023SOL    HW214532   4.249   4.141   2.514 -1.0899 -0.9550 -2.1397
 1024SOL     OW14533   0.304   3.301   3.917 -0.6051  0.1551  0.0421
 1024SOL    HW114534   0.232   3.359   3.890 -0.4610  0.4003  0.1846
 1024SOL    HW214535   0.267   3.242   3.982  1.7603 -0.9518  0.3854
 1025SOL     OW14536   1.628   0.702   2.440 -0.4348 -0.1812  0.1966
 1025SOL    HW114537   1.611   0.757   2.516  0.5853 -1.3803  1.2952
 1025SOL    HW214538   1.683   0.755   2.382 -0.0576  1.1373  1.7624
 1026SOL     OW14539   2.720   4.453  13.562 -0.5753  0.4667  0.1513
 1026SOL    HW114540   2.647   4.496  13.519 -1.7900 -0.7912  0.9594
 1026SOL    HW214541   2.671   4.418  13.636 -1.4676  0.7093 -0.3319
 1027SOL     OW14542   1.853   3.583   6.695 -0.1759  0.4816 -0.8532
 1027SOL    HW114543   1.774   3.618   6.653 -0.4617 -0.7773 -1.3702
 1027SOL    HW214544   1.841   3.492   6.669  0.1676 -0.1344  1.2305
 1028SOL     OW14545   1.293   3.039   2.071  0.4598  0.0026  0.0393
 1028SOL    HW114546   1.353   2.968   2.093 -1.7110 -1.4805  1.2364
 1028SOL    HW214547   1.221   2.988   2.033 -0.3106 -0.3010  1.9105
 1029SOL     OW14548   2.135   4.286  14.096  0.3666 -0.4730 -0.2952
 1029SOL    HW114549   2.055   4.260  14.141 -0.4237  2.3906 -0.0359
 1029SOL    HW214550   2.116   4.257  14.007 -1.1531  0.8627 -0.4176
 1030SOL     OW14551   2.152   3.571  16.388 -0.2763  0.1670  0.4027
 1030SOL    HW114552   2.235   3.540  16.425 -0.7899 -1.9997 -0.2251
 1030SOL    HW214553   2.155   3.666  16.401  0.6672  0.2542 -0.4557
 1031SOL     OW14554   2.974   4.248   5.165 -0.0250 -0.4990  0.0573
 1031SOL    HW114555   2.969   4.154   5.180 -2.0384 -0.6231 -1.3581
 1031SOL    HW214556   2.889   4.273   5.128  0.2633 -1.1979 -1.0958
 1032SOL     OW14557   0.152   3.984   5.016 -0.1130  0.2760 -0.1620
 1032SOL    HW114558   0.153   3.963   4.923 -0.8332  0.9926 -0.3359
 1032SOL    HW214559   0.065   4.023   5.024 -0.3019 -0.1291 -0.2687
 1033SOL     OW14560   2.680   2.235   3.341  0.2897 -0.4484  0.5108
 1033SOL    HW114561   2.761   2.219   3.390  0.9644 -2.1041 -1.1239
 1033SOL    HW214562   2.680   2.154   3.288  0.5210 -1.3541  1.9005
 1034SOL     OW14563   3.059   1.146  17.536 -0.5597 -0.9427 -0.0589
 1034SOL    HW114564   3.087   1.128  17.626  2.0784  2.7463 -0.1399
 1034SOL    HW214565   3.014   1.062  17.530 -0.2104 -1.0479 -1.1715
 1035SOL     OW14566   4.347   1.446   7.765  0.1955  0.1308 -0.5305
 1035SOL    HW114567   4.324   1.369   7.817 -0.7335 -0.3585 -1.6474
 1035SOL    HW214568   4.267   1.497   7.761 -0.4038 -0.6050  2.0547
 1036SOL     OW14569   1.811   2.792   2.595 -0.0215 -0.0515  0.6392
 1036SOL    HW114570   1.892   2.751   2.626 -0.0061  0.0869  0.7842
 1036SOL    HW214571   1.814   2.873   2.646  1.0734 -0.0950  0.6507
 1037SOL     OW14572   4.474   2.483   0.987 -0.2695 -0.2525 -0.2083
 1037SOL    HW114573   4.521   2.405   0.957  0.3905  0.1873 -0.3198
 1037SOL    HW214574   4.387   2.451   1.010  0.2523 -2.1496 -0.8522
 1038SOL     OW14575   0.377   0.812   5.732 -0.2243  0.2409  0.0494
 1038SOL    HW114576   0.447   0.799   5.668  0.4927  1.3660  0.6190
 1038SOL    HW214577   0.394   0.904   5.752 -0.0607 -0.1621  1.7859
 1039SOL     OW14578   0.831   0.132  13.065 -0.1258 -0.2877 -0.3684
 1039SOL    HW114579   0.923   0.106  13.055  0.1816  0.4379  0.5887
 1039SOL    HW214580   0.803   0.085  13.143 -0.0458 -0.2565 -0.3206
 1040SOL     OW14581   1.115   3.107  15.956 -0.3101 -0.5317  0.3607
 1040SOL    HW114582   1.148   3.093  15.867 -0.3248 -0.0057  0.2683
 1040SOL    HW214583   1.168   3.044  16.004  0.6191  0.3997  0.5552
 1041SOL     OW14584   0.642   0.381   6.950  0.1043 -0.2571  0.1174
 1041SOL    HW114585   0.624   0.472   6.926  1.2293  0.2023  0.9917
 1041SOL    HW214586   0.728   0.395   6.992  1.0938 -2.7484 -1.0964
 1042SOL     OW14587   0.349   1.830   2.012  0.6175 -0.2141 -0.1215
 1042SOL    HW114588   0.387   1.887   2.080  2.2992 -2.5085  0.8572
 1042SOL    HW214589   0.293   1.897   1.973  0.5345 -0.4586 -0.4190
 1043SOL     OW14590   0.829   4.402  15.102  0.1187  0.4397 -0.1410
 1043SOL    HW114591   0.844   4.316  15.063 -0.1158 -0.3998  1.6456
 1043SOL    HW214592   0.803   4.448  15.022  1.3698  1.7917  0.2221
 1044SOL     OW14593   1.288   3.959   6.934 -0.3628  0.4354 -0.4483
 1044SOL    HW114594   1.219   3.915   6.885  0.5995 -1.6276  0.0259
 1044SOL    HW214595   1.278   4.044   6.892  1.2129  1.6250  1.5563
 1045SOL     OW14596   2.339   2.529   6.001  0.4278  0.4101  0.4960
 1045SOL    HW114597   2.386   2.484   6.072  0.5316  0.4733  0.4668
 1045SOL    HW214598   2.341   2.621   6.028  1.6147  0.1285  1.3599
 1046SOL     OW14599   2.090   2.887   9.017 -0.5798  0.2110 -0.1731
 1046SOL    HW114600   2.117   2.948   9.085  0.1950 -0.4843  0.1471
 1046SOL    HW214601   2.101   2.943   8.940  0.7972  2.4857  1.6730
 1047SOL     OW14602   0.523   3.437   1.096 -0.0440  0.5109  0.6127
 1047SOL    HW114603   0.452   3.500   1.089 -1.3578 -1.0911 -0.5623
 1047SOL    HW214604   0.472   3.358   1.077  2.8095 -0.5876 -2.5347
 1048SOL     OW14605   2.535   2.604   6.375 -0.1394  0.2328  0.2311
 1048SOL    HW114606   2.458   2.620   6.320  0.4286 -1.2997 -1.0238
 1048SOL    HW214607   2.579   2.687   6.359 -1.3261  0.7253 -0.4573
 1049SOL     OW14608   4.155   1.981   1.788 -0.3440 -0.6128  0.5084
 1049SOL    HW114609   4.074   1.995   1.738  0.5468 -1.8463 -1.2946
 1049SOL    HW214610   4.119   1.962   1.874  0.8825 -0.0734  1.1431
 1050SOL     OW14611   3.847   2.534   5.385  0.6911 -0.3505 -0.2439
 1050SOL    HW114612   3.809   2.446   5.373 -0.3256 -0.3216  2.7683
 1050SOL    HW214613   3.780   2.592   5.348  2.5732 -0.0352 -3.1642
 1051SOL     OW14614   4.697   1.937   8.634  0.3119 -0.0656  0.8856
 1051SOL    HW114615   4.644   1.886   8.696  1.9811  0.0287  2.3843
 1051SOL    HW214616   4.673   2.024   8.664  0.0936  0.9507 -2.2736
 1052SOL     OW14617   0.996   0.198   7.177  0.0505  0.2954  0.2241
 1052SOL    HW114618   1.022   0.203   7.086  0.5759  1.8537  0.4606
 1052SOL    HW214619   1.003   0.286   7.214  0.0080 -0.8613  2.9872
 1053SOL     OW14620   1.929   2.670   4.081  0.2426 -0.1460 -1.2195
 1053SOL    HW114621   1.868   2.738   4.053 -1.5661 -1.2236  0.0421
 1053SOL    HW214622   1.906   2.650   4.172 -1.8034  2.0133 -1.2619
 1054SOL     OW14623   3.680   1.822   5.570 -0.6425  0.0285 -0.2733
 1054SOL    HW114624   3.588   1.808   5.547 -0.0244 -1.4499 -1.8245
 1054SOL    HW214625   3.674   1.872   5.652 -0.9182  0.4065 -0.5246
 1055SOL     OW14626   3.525   1.588   3.022 -0.1203  0.1793 -0.1266
 1055SOL    HW114627   3.440   1.567   3.060  0.9092 -1.2400  1.4269
 1055SOL    HW214628   3.575   1.626   3.094 -1.5391  0.1468  0.8716
 1056SOL     OW14629   2.769   1.336   1.362 -0.6070  0.0873  0.1569
 1056SOL    HW114630   2.788   1.242   1.363 -1.8097 -0.1568 -0.4701
 1056SOL    HW214631   2.762   1.350   1.267  0.8980  1.5537  0.2491
 1057SOL     OW14632   1.464   2.693   4.252  0.3794  0.0359  0.1179
 1057SOL    HW114633   1.442   2.652   4.169 -1.9100  1.5993 -0.0631
 1057SOL    HW214634   1.401   2.652   4.312  0.2034 -1.2268 -0.9322
 1058SOL     OW14635   1.231   0.971   0.719 -0.4844 -0.0221 -0.4289
 1058SOL    HW114636   1.170   1.044   0.727  0.3251  0.9675 -3.4384
 1058SOL    HW214637   1.255   0.950   0.809  0.6893  0.9151 -0.5258
 1059SOL     OW14638   1.373   1.597   1.925  0.4443  0.5058  0.2235
 1059SOL    HW114639   1.383   1.576   1.832  1.9749  2.0702  0.0261
 1059SOL    HW214640   1.465   1.589   1.953  1.0889  0.4315 -1.8675
 1060SOL     OW14641   3.450   1.936   4.434 -1.0169 -0.0568  0.9268
 1060SOL    HW114642   3.534   1.947   4.479  0.5243 -3.5998 -1.0639
 1060SOL    HW214643   3.414   2.014   4.478  1.3592  1.4683  0.1779
 1061SOL     OW14644   0.255   3.362   4.720 -0.0103 -0.0590 -0.0056
 1061SOL    HW114645   0.208   3.279   4.731 -1.9824  1.0214 -0.2786
 1061SOL    HW214646   0.182   3.424   4.720  0.5539  0.5803 -2.4249
 1062SOL     OW14647   0.324   2.861   7.124 -0.2783  0.3514  0.4915
 1062SOL    HW114648   0.330   2.871   7.029  0.7774 -1.0806  0.3966
 1062SOL    HW214649   0.231   2.840   7.131  0.5547 -3.8205 -0.9197
 1063SOL     OW14650   2.660   2.367   0.791 -0.0989  0.5063 -0.1335
 1063SOL    HW114651   2.740   2.315   0.798 -1.7717 -1.5260  4.0690
 1063SOL    HW214652   2.595   2.311   0.748  0.0595 -1.9869  2.9247
 1064SOL     OW14653   2.744   0.270   5.971 -0.1436  0.0488  0.3319
 1064SOL    HW114654   2.834   0.250   5.998 -0.0063  1.6026  1.0163
 1064SOL    HW214655   2.715   0.183   5.944 -0.7257  0.9017 -1.7791
 1065SOL     OW14656   1.210   4.089  16.109  0.2772  0.4203 -0.0133
 1065SOL    HW114657   1.180   4.000  16.127 -0.1159  0.4132 -0.7113
 1065SOL    HW214658   1.303   4.095  16.131  0.8338  1.2863 -2.5709
 1066SOL     OW14659   2.511   0.451   9.398  0.2031 -0.5668  0.0838
 1066SOL    HW114660   2.434   0.501   9.424  0.4735  0.2609 -0.7317
 1066SOL    HW214661   2.493   0.447   9.305 -0.3749  0.4193  0.1564
 1067SOL     OW14662   2.024   1.445   6.202 -0.1585 -0.5344  0.0216
 1067SOL    HW114663   2.092   1.389   6.164 -1.6140 -1.8623 -0.6396
 1067SOL    HW214664   2.072   1.526   6.216 -3.0698  1.2198 -0.0943
 1068SOL     OW14665   4.364   1.886   2.921 -0.0806  0.0108  0.1316
 1068SOL    HW114666   4.436   1.855   2.866 -1.6099 -0.8001 -1.4110
 1068SOL    HW214667   4.283   1.869   2.873 -0.3486 -1.1406  0.9938
 1069SOL     OW14668   0.662   3.815  14.391 -0.6007 -0.2381  0.0854
 1069SOL    HW114669   0.711   3.767  14.457 -0.6050 -0.6318 -0.1955
 1069SOL    HW214670   0.582   3.763  14.398 -0.3687 -0.3177  1.9721
 1070SOL     OW14671   3.398   2.687  10.156 -0.2145  0.0689  0.2247
 1070SOL    HW114672   3.395   2.624  10.083  1.4056 -1.1248  1.1795
 1070SOL    HW214673   3.356   2.759  10.109 -0.2171 -0.3901 -0.4838
 1071SOL     OW14674   0.921   1.068   5.379 -0.5183 -0.3571 -0.8464
 1071SOL    HW114675   1.011   1.098   5.390 -0.4705 -1.4305  1.8481
 1071SOL    HW214676   0.914   1.063   5.284  1.7553  0.9743 -1.0745
 1072SOL     OW14677   2.793   1.972   2.045  0.2959 -0.1323  0.2687
 1072SOL    HW114678   2.739   2.011   1.976 -0.3204 -0.7129  0.4263
 1072SOL    HW214679   2.727   1.953   2.112 -1.2836 -0.6003 -1.4354
 1073SOL     OW14680   2.100   4.151   5.217  0.7768  0.4555  0.1636
 1073SOL    HW114681   2.125   4.224   5.274  0.8284  0.0144  0.7120
 1073SOL    HW214682   2.005   4.159   5.214  0.7937  0.3399 -0.6803
 1074SOL     OW14683   1.885   0.879   6.010 -0.2449  0.2346 -0.1904
 1074SOL    HW114684   1.853   0.790   5.994  0.7279  0.0658 -1.2537
 1074SOL    HW214685   1.884   0.918   5.922  1.5244  0.1044 -0.2729
 1075SOL     OW14686   1.666   3.152   5.447 -0.2364  0.5478 -0.9980
 1075SOL    HW114687   1.640   3.101   5.370  1.3449 -0.6562 -0.7454
 1075SOL    HW214688   1.582   3.148   5.493  0.9789  0.6222  1.2211
 1076SOL     OW14689   2.075   1.600   7.385 -0.1221  0.1682  0.2193
 1076SOL    HW114690   2.022   1.590   7.464 -0.6451  2.3897  0.1380
 1076SOL    HW214691   2.007   1.578   7.321 -1.2515  0.6095  1.2686
 1077SOL     OW14692   2.504   3.607   6.881  0.3183  0.0318  0.3834
 1077SOL    HW114693   2.517   3.603   6.787  2.8823  0.5024  0.7305
 1077SOL    HW214694   2.560   3.537   6.914  0.4725  0.3031  0.7049
 1078SOL     OW14695   2.326   0.221   2.669  0.8927  0.1361 -0.6183
 1078SOL    HW114696   2.334   0.201   2.576  1.3099 -2.2076 -0.0786
 1078SOL    HW214697   2.306   0.137   2.709  2.2762  0.6620  1.2312
 1079SOL     OW14698   3.207   0.029   8.017 -0.0333 -0.2492  0.1907
 1079SOL    HW114699   3.122   0.071   8.000  0.7254  0.0320 -2.8725
 1079SOL    HW214700   3.215   0.026   8.113 -2.1618 -0.3579  0.3597
 1080SOL     OW14701   0.979   1.309   6.604  0.3140  0.4251 -0.4409
 1080SOL    HW114702   0.933   1.333   6.523 -0.1489  1.2180  0.0665
 1080SOL    HW214703   0.913   1.254   6.646  1.9482 -0.3328  1.1320
 1081SOL     OW14704   2.066   3.034   4.128  0.0335 -0.2561 -0.6270
 1081SOL    HW114705   2.133   3.049   4.195 -0.8983  1.3247 -0.0683
 1081SOL    HW214706   2.003   2.984   4.179 -0.5273  0.0397 -1.0350
 1082SOL     OW14707   0.139   0.764   3.967  0.2578  0.0675 -0.2038
 1082SOL    HW114708   0.224   0.722   3.983 -1.4453 -3.2197  0.0757
 1082SOL    HW214709   0.088   0.742   4.044  0.4224  2.9954  0.7190
 1083SOL     OW14710   1.079   4.317  16.928 -0.6389 -0.4415  0.4490
 1083SOL    HW114711   1.149   4.261  16.961  0.8210  1.0663 -0.0587
 1083SOL    HW214712   1.029   4.334  17.008  0.8649 -0.8605  1.4752
 1084SOL     OW14713   2.880   0.923   9.447 -0.2306 -0.1556 -0.5254
 1084SOL    HW114714   2.866   0.895   9.537 -0.6818 -3.9629 -1.7599
 1084SOL    HW214715   2.971   0.892   9.444 -0.3229 -0.6418  1.7492
 1085SOL     OW14716   2.193   3.186   5.039 -0.1927  0.2448  0.7742
 1085SOL    HW114717   2.208   3.097   5.006  0.6990  0.0378  1.7441
 1085SOL    HW214718   2.286   3.209   5.044 -0.8293  3.1355 -0.6273
 1086SOL     OW14719   2.715   0.620   9.477  0.7357  0.3178  0.6563
 1086SOL    HW114720   2.658   0.555   9.436 -0.9631  0.6278  2.5097
 1086SOL    HW214721   2.673   0.701   9.446  1.8734  0.8826  0.5897
 1087SOL     OW14722   4.067   1.950   9.648  0.2768 -0.6060 -0.3969
 1087SOL    HW114723   4.080   1.870   9.596  3.4112  1.0397 -2.1300
 1087SOL    HW214724   3.972   1.956   9.640  0.1581  1.5013  2.8749
 1088SOL     OW14725   2.393   1.817   3.510 -0.0747  0.1874 -0.2843
 1088SOL    HW114726   2.308   1.852   3.483 -1.0536 -0.9805  1.3361
 1088SOL    HW214727   2.444   1.896   3.496  2.6652 -1.2788  1.4549
 1089SOL     OW14728   1.528   2.914   4.096 -0.2862 -0.7676  0.1678
 1089SOL    HW114729   1.500   2.838   4.148  0.9614 -2.0466 -1.0398
 1089SOL    HW214730   1.574   2.876   4.021 -0.4134 -1.6198  0.5297
 1090SOL     OW14731   2.348   4.627   2.555 -0.0720 -0.1148 -0.8116
 1090SOL    HW114732   2.335   4.533   2.569  0.0713  0.2129  1.5727
 1090SOL    HW214733   2.304   4.638   2.471 -0.4302 -1.9349 -0.8667
 1091SOL     OW14734   3.478   3.888  15.104  0.4265 -0.6138 -0.2921
 1091SOL    HW114735   3.564   3.873  15.144 -0.0451 -0.2371  0.8662
 1091SOL    HW214736   3.469   3.803  15.062  1.3932  0.1952 -2.1178
 1092SOL     OW14737   3.212   2.299   1.523  0.0235  0.1359 -0.0828
 1092SOL    HW114738   3.186   2.209   1.544  0.7037 -0.0092  0.1478
 1092SOL    HW214739   3.159   2.305   1.444  0.3631 -1.1147 -0.4092
 1093SOL     OW14740   2.490   1.344  13.119 -0.1683 -0.2129 -0.3165
 1093SOL    HW114741   2.419   1.295  13.161  0.0359  0.7930  1.2102
 1093SOL    HW214742   2.513   1.404  13.190  1.8414 -1.7770  0.3428
 1094SOL     OW14743   1.077   1.022   5.741 -0.4469  0.7884  0.4412
 1094SOL    HW114744   1.113   1.033   5.829 -2.6109 -2.2528  1.7113
 1094SOL    HW214745   1.081   1.110   5.705  0.5967  1.0877  1.2960
 1095SOL     OW14746   2.012   4.438  12.443  0.0690 -0.0254 -0.3129
 1095SOL    HW114747   1.932   4.487  12.460  0.5830  0.5299  0.4540
 1095SOL    HW214748   2.005   4.371  12.511 -0.8845 -0.1839 -0.5709
 1096SOL     OW14749   1.950   0.192  14.792  0.1639  0.1544  0.1010
 1096SOL    HW114750   1.930   0.111  14.746  0.6527  0.0617  0.0486
 1096SOL    HW214751   2.027   0.226  14.746 -0.5031  1.8376  0.2643
 1097SOL     OW14752   3.747   0.928   0.325 -0.2607  0.4458  0.2529
 1097SOL    HW114753   3.760   1.018   0.353 -0.1234  0.3597  0.4696
 1097SOL    HW214754   3.741   0.944   0.231  2.0503 -1.3029 -0.2147
 1098SOL     OW14755   1.111   3.784   2.505 -0.5898 -0.1319 -0.3401
 1098SOL    HW114756   1.152   3.868   2.526 -0.8448 -0.3759  1.1475
 1098SOL    HW214757   1.163   3.725   2.559 -0.0134  0.8298  0.1641
 1099SOL     OW14758   3.627   3.378   6.596 -0.4910  0.4283  0.0379
 1099SOL    HW114759   3.610   3.440   6.667 -1.3421  1.2966 -0.9323
 1099SOL    HW214760   3.635   3.294   6.641 -1.2354  0.1084 -0.4363
 1100SOL     OW14761   0.428   2.423   9.919 -0.4518  0.1814  0.4948
 1100SOL    HW114762   0.393   2.337   9.942  1.0495 -0.9715 -1.5844
 1100SOL    HW214763   0.500   2.433   9.981  0.0352 -0.3675  0.0101
 1101SOL     OW14764   4.560   3.236   6.399 -0.0346  0.2587 -0.6383
 1101SOL    HW114765   4.590   3.222   6.488  0.1093  4.5962 -0.0121
 1101SOL    HW214766   4.641   3.229   6.348 -0.7687 -1.8685 -1.5291
 1102SOL     OW14767   1.774   2.506   3.295 -0.3023  0.2685 -0.1432
 1102SOL    HW114768   1.787   2.417   3.328 -0.4578 -0.1807 -1.2926
 1102SOL    HW214769   1.817   2.558   3.363  0.5852 -2.2110  1.2065
 1103SOL     OW14770   3.969   0.182   0.096  0.0252  0.1234  0.9477
 1103SOL    HW114771   4.003   0.128   0.167  0.3391 -0.6120  0.2395
 1103SOL    HW214772   3.933   0.103   0.056 -1.4857  2.6622 -2.6398
 1104SOL     OW14773   4.352   1.422   7.505 -0.2495  0.0215  0.4727
 1104SOL    HW114774   4.342   1.472   7.586 -2.3671  0.7256 -0.2510
 1104SOL    HW214775   4.436   1.454   7.472 -0.7235  1.5286  0.7492
 1105SOL     OW14776   4.006   2.442   7.030  0.3567 -0.3790  0.5654
 1105SOL    HW114777   4.058   2.401   6.960 -1.8674 -0.1697 -1.2145
 1105SOL    HW214778   3.925   2.393   7.017 -0.7006  1.7234 -0.7662
 1106SOL     OW14779   4.094   1.526   2.358 -0.2674 -0.4061 -0.1715
 1106SOL    HW114780   4.094   1.594   2.290  0.5494  0.8411  1.0902
 1106SOL    HW214781   4.053   1.577   2.427  0.6320  0.8638 -0.5681
 1107SOL     OW14782   2.208   1.503  15.967  0.1162 -0.6486  0.3956
 1107SOL    HW114783   2.221   1.414  15.934  1.6121 -0.5258  0.6710
 1107SOL    HW214784   2.248   1.559  15.901  0.3883 -0.7454  0.4809
 1108SOL     OW14785   3.641   1.567   8.194 -0.3171  0.0970 -0.1769
 1108SOL    HW114786   3.679   1.586   8.280 -1.4306 -1.7147  0.7234
 1108SOL    HW214787   3.632   1.472   8.195  0.1118  0.0715  0.9782
 1109SOL     OW14788   2.790   1.400   4.926 -0.3688 -0.0992 -0.5260
 1109SOL    HW114789   2.869   1.355   4.896  1.9038  1.8513  2.4654
 1109SOL    HW214790   2.788   1.478   4.871  0.7611  0.2837 -0.0363
 1110SOL     OW14791   1.717   1.034   6.178  0.2365 -0.1847  0.1955
 1110SOL    HW114792   1.679   1.097   6.116  0.8976 -0.0515 -0.0686
 1110SOL    HW214793   1.755   0.973   6.114 -1.2887  1.3963 -2.2472
 1111SOL     OW14794   1.986   1.869  15.353  0.0728 -0.5945 -0.2889
 1111SOL    HW114795   1.996   1.809  15.279  1.5721  0.5880 -1.0543
 1111SOL    HW214796   1.989   1.807  15.426  0.4884  0.1276  0.3020
 1112SOL     OW14797   2.007   1.986   8.931 -0.1777 -0.5777 -0.0529
 1112SOL    HW114798   1.979   2.010   8.843 -2.1872  0.3463  0.8626
 1112SOL    HW214799   2.075   2.053   8.942 -2.2960  1.4488  0.6061
 1113SOL     OW14800   2.740   2.878   0.915 -0.3274  0.0885  0.1683
 1113SOL    HW114801   2.741   2.846   1.005  1.4893  0.9649  0.4748
 1113SOL    HW214802   2.780   2.803   0.870 -0.0623  1.2190 -1.4885
 1114SOL     OW14803   2.556   0.370   2.260  0.0985  0.0028 -0.3921
 1114SOL    HW114804   2.617   0.394   2.330 -0.5914  0.4421  0.0647
 1114SOL    HW214805   2.546   0.280   2.291 -0.0318  0.2315  0.2465
 1115SOL     OW14806   1.987   2.054   5.586  0.1854  0.7940 -0.1435
 1115SOL    HW114807   2.078   2.029   5.601  0.5178  2.2030  0.2217
 1115SOL    HW214808   1.977   2.045   5.491 -1.1264  0.0810  0.0576
 1116SOL     OW14809   4.219   0.741  16.120 -0.9528 -0.7342  0.2529
 1116SOL    HW114810   4.247   0.682  16.190  0.7489  1.1979  1.2078
 1116SOL    HW214811   4.262   0.822  16.148 -1.3078 -0.4631  0.0144
 1117SOL     OW14812   1.664   3.986   0.433  0.3724  0.3959 -0.1733
 1117SOL    HW114813   1.702   4.049   0.373  1.1562  0.2803  0.2012
 1117SOL    HW214814   1.576   3.962   0.403  0.7384 -0.3095 -0.6798
 1118SOL     OW14815   0.699   0.159   7.922  0.0138  0.2622 -0.1092
 1118SOL    HW114816   0.696   0.090   7.988  0.0329 -1.4258 -1.8717
 1118SOL    HW214817   0.774   0.131   7.871 -0.0789  0.6193 -0.4413
 1119SOL     OW14818   4.288   4.497   3.358  0.5402 -1.0385 -0.4857
 1119SOL    HW114819   4.289   4.449   3.275 -1.9048 -0.7630 -0.6806
 1119SOL    HW214820   4.288   4.589   3.331 -0.2043 -1.2171 -1.1230
 1120SOL     OW14821   1.637   3.574   7.207  0.3576  0.2115  0.2258
 1120SOL    HW114822   1.560   3.626   7.184  1.0286 -0.0646 -2.6155
 1120SOL    HW214823   1.683   3.653   7.235 -1.2753  0.1757  3.0262
 1121SOL     OW14824   0.777   3.565  17.160  0.3249 -0.5473 -0.0625
 1121SOL    HW114825   0.706   3.587  17.219  0.2704 -0.1201 -0.2871
 1121SOL    HW214826   0.817   3.490  17.204  0.2593 -0.3104  0.3903
 1122SOL     OW14827   0.050   3.686   5.038 -0.3129 -0.4894 -0.4379
 1122SOL    HW114828   4.709   3.755   5.030 -0.4482 -0.7312 -1.4076
 1122SOL    HW214829   0.091   3.712   5.121 -0.9599  0.5947 -0.4618
 1123SOL     OW14830   1.573   3.449   1.924 -0.0320  0.0145 -0.1417
 1123SOL    HW114831   1.507   3.507   1.886 -0.7335  0.1693  1.3449
 1123SOL    HW214832   1.577   3.387   1.851 -0.1057  1.5792 -1.4811
 1124SOL     OW14833   2.874   3.504  12.409  0.3997 -0.2051  0.1025
 1124SOL    HW114834   2.786   3.514  12.374  0.8561 -2.0190 -1.5932
 1124SOL    HW214835   2.926   3.563  12.353  1.5364 -0.6692  0.6559
 1125SOL     OW14836   3.705   2.964   4.370  0.6561  0.2478 -0.2545
 1125SOL    HW114837   3.701   2.962   4.275  2.6436 -3.1960 -0.2395
 1125SOL    HW214838   3.771   3.034   4.380 -0.2473  1.0806 -0.1287
 1126SOL     OW14839   2.391   2.669   3.621 -0.3467  0.2008 -0.2683
 1126SOL    HW114840   2.422   2.603   3.559 -0.5919 -0.0083 -0.1670
 1126SOL    HW214841   2.467   2.726   3.611 -0.2825  0.2678  0.6552
 1127SOL     OW14842   0.094   3.221  14.750 -0.2501 -0.0313 -0.0172
 1127SOL    HW114843   0.183   3.228  14.784 -1.2458 -0.4399  2.6582
 1127SOL    HW214844   0.104   3.281  14.676  0.1565 -0.9924 -0.7394
 1128SOL     OW14845   3.841   1.820   6.132 -0.0537 -0.3858  0.5183
 1128SOL    HW114846   3.822   1.765   6.056  0.5656  1.7993 -1.2120
 1128SOL    HW214847   3.923   1.778   6.158 -2.5127 -2.9118  4.2755
 1129SOL     OW14848   2.622   4.287   6.153 -0.4729  0.0969  0.8136
 1129SOL    HW114849   2.683   4.224   6.191  1.0010 -0.6719 -2.8038
 1129SOL    HW214850   2.653   4.282   6.062 -0.1476 -0.4561  0.9556
 1130SOL     OW14851   1.266   4.704   1.571  0.0850 -0.6611 -0.1627
 1130SOL    HW114852   1.223   4.675   1.491 -1.2185 -0.7215  0.5542
 1130SOL    HW214853   1.231   4.655   1.646  0.3115 -0.5102  0.0418
 1131SOL     OW14854   2.973   2.327   0.589  0.1037  0.0352 -0.2931
 1131SOL    HW114855   2.945   2.415   0.612  0.8444  0.2892 -0.3593
 1131SOL    HW214856   2.946   2.273   0.663  0.7551 -3.1464 -2.3376
 1132SOL     OW14857   0.231   0.198   0.223 -0.0837  0.0823 -0.4842
 1132SOL    HW114858   0.145   0.231   0.248 -0.6388 -0.6658 -1.4301
 1132SOL    HW214859   0.213   0.108   0.197  0.1784 -0.6602  1.8772
 1133SOL     OW14860   0.536   3.357  13.442  0.1265  0.0702 -0.0712
 1133SOL    HW114861   0.458   3.394  13.483 -0.2359 -0.4220 -0.3205
 1133SOL    HW214862   0.597   3.341  13.515 -0.4622  0.2629  0.4652
 1134SOL     OW14863   4.299   2.312   9.397  0.0341  0.0674  0.5807
 1134SOL    HW114864   4.393   2.323   9.411 -0.3519  1.8215  1.7774
 1134SOL    HW214865   4.275   2.268   9.479  0.6708 -1.2149  0.0877
 1135SOL     OW14866   3.931   2.988   7.365  0.4235  0.2731 -0.1009
 1135SOL    HW114867   3.996   3.058   7.352  1.1743 -0.7429 -1.9242
 1135SOL    HW214868   3.849   3.037   7.366  0.9604  1.1412  1.0067
 1136SOL     OW14869   3.684   1.740  13.635 -0.1630 -0.0078  0.1617
 1136SOL    HW114870   3.728   1.797  13.571 -2.0828  1.5344  0.2121
 1136SOL    HW214871   3.592   1.733  13.607 -0.7757 -1.9167  2.6699
 1137SOL     OW14872   1.617   0.980   7.651  0.1462  0.4609  0.4417
 1137SOL    HW114873   1.560   0.913   7.688  1.0944 -0.5861 -0.0000
 1137SOL    HW214874   1.701   0.934   7.663 -1.2079 -1.3831  2.7147
 1138SOL     OW14875   4.516   2.679  13.474  0.1272 -0.2631  0.2006
 1138SOL    HW114876   4.533   2.614  13.542 -0.7616 -1.0243 -0.2874
 1138SOL    HW214877   4.583   2.671  13.406  1.0310 -0.4368  1.1206
 1139SOL     OW14878   2.517   2.809   5.990  0.2237  0.2781 -0.1948
 1139SOL    HW114879   2.522   2.898   6.023  2.0031  0.4521 -0.8954
 1139SOL    HW214880   2.423   2.800   5.979  0.2173  1.4348 -1.0830
 1140SOL     OW14881   1.523   3.437   6.013 -0.3775  0.0859 -0.4474
 1140SOL    HW114882   1.537   3.348   5.980 -1.1860  0.4938 -1.9121
 1140SOL    HW214883   1.560   3.490   5.942 -2.0647  1.3374 -0.3953
 1141SOL     OW14884   4.673   3.985   2.971 -0.0506 -0.4545 -0.0745
 1141SOL    HW114885   0.016   3.984   2.904  1.6609  1.4920  1.6149
 1141SOL    HW214886   4.709   4.061   3.017 -1.6478  0.5177 -0.4511
 1142SOL     OW14887   0.264   3.021   4.143 -0.1471 -0.1642 -0.1426
 1142SOL    HW114888   0.251   2.987   4.232 -0.9172  1.6962  0.4600
 1142SOL    HW214889   0.181   2.990   4.106 -0.5358  0.0279  0.5666
 1143SOL     OW14890   2.451   3.289   6.382  0.5529 -0.2125 -0.2686
 1143SOL    HW114891   2.399   3.240   6.318 -2.2206 -1.0549  2.6401
 1143SOL    HW214892   2.420   3.378   6.363  0.5767 -0.3086 -0.7566
 1144SOL     OW14893   3.236   2.884   3.457  0.0138 -0.2762 -0.4934
 1144SOL    HW114894   3.224   2.862   3.365  3.2723  3.1955 -1.7797
 1144SOL    HW214895   3.311   2.944   3.450  0.8338 -1.0040  2.1521
 1145SOL     OW14896   2.134   4.437   5.265 -0.2195  0.0756  0.3845
 1145SOL    HW114897   2.194   4.504   5.298  0.5831 -0.9242  0.9762
 1145SOL    HW214898   2.050   4.467   5.300 -0.2331 -1.5583  1.7244
 1146SOL     OW14899   3.096   2.450   8.016  0.0494 -0.3547  0.2998
 1146SOL    HW114900   3.049   2.389   8.074 -0.2326 -0.8475 -0.4444
 1146SOL    HW214901   3.097   2.395   7.938 -2.9315  2.1858 -1.4910
 1147SOL     OW14902   2.330   1.485   7.060  0.2468 -0.3971  0.3469
 1147SOL    HW114903   2.415   1.441   7.052  0.0959 -0.7947  0.8851
 1147SOL    HW214904   2.291   1.422   7.121  1.4964 -0.4221  1.1224
 1148SOL     OW14905   1.289   2.484   2.718 -0.3189  0.3948 -0.1168
 1148SOL    HW114906   1.213   2.499   2.773 -0.3226  0.9814 -0.2865
 1148SOL    HW214907   1.275   2.404   2.668 -0.6231 -1.1385  2.4212
 1149SOL     OW14908   0.796   0.497   6.515  0.4718 -0.2698 -0.8061
 1149SOL    HW114909   0.796   0.588   6.486 -1.4274  0.0468  0.1906
 1149SOL    HW214910   0.727   0.468   6.455  0.7972 -1.4476 -0.6120
 1150SOL     OW14911   0.101   0.158  11.155  0.6402 -0.5245  0.0163
 1150SOL    HW114912   0.121   0.250  11.136 -1.9758  0.0612  0.1535
 1150SOL    HW214913   0.066   0.157  11.244 -0.4311 -0.8050 -0.4175
 1151SOL     OW14914   3.837   3.389   3.742 -0.4057 -0.6725 -0.3021
 1151SOL    HW114915   3.783   3.453   3.697  1.0185 -0.2037 -1.3772
 1151SOL    HW214916   3.784   3.363   3.817  3.8819 -2.9736  1.9638
 1152SOL     OW14917   1.902   4.211   2.065 -0.4090  0.1247 -0.4348
 1152SOL    HW114918   1.869   4.122   2.078 -0.5514  0.0161 -1.4984
 1152SOL    HW214919   1.827   4.252   2.022  0.9352  1.3414 -1.6435
 1153SOL     OW14920   4.688   1.835   6.639 -0.4526  0.1450 -0.4850
 1153SOL    HW114921   4.707   1.754   6.686  1.3788  0.4737 -0.6827
 1153SOL    HW214922   4.602   1.818   6.601 -1.6150  1.6194  1.4534
 1154SOL     OW14923   2.301   0.610   8.274 -0.3563 -0.6984  0.1617
 1154SOL    HW114924   2.364   0.602   8.202 -0.1453 -2.4110  0.5446
 1154SOL    HW214925   2.329   0.693   8.313 -0.9443  0.3258 -1.5969
 1155SOL     OW14926   4.654   2.627   8.499  0.2455  0.2654 -0.1435
 1155SOL    HW114927   4.686   2.568   8.431 -0.6115 -0.2223 -0.1265
 1155SOL    HW214928   4.614   2.696   8.445  1.2263  0.6646 -0.3660
 1156SOL     OW14929   0.632   1.197   4.805 -0.1187  0.0819 -0.6395
 1156SOL    HW114930   0.547   1.154   4.792  0.9270 -2.9873  2.4675
 1156SOL    HW214931   0.687   1.138   4.754  1.1849 -0.8268  1.8252
 1157SOL     OW14932   3.911   0.174   5.203  0.4390  0.1924  0.7196
 1157SOL    HW114933   3.829   0.132   5.229  0.1526  0.7427  0.7067
 1157SOL    HW214934   3.955   0.090   5.193  0.6467  0.7172 -2.6537
 1158SOL     OW14935   3.060   0.478   7.839  0.2957  0.1882 -0.1768
 1158SOL    HW114936   2.973   0.516   7.848  1.8171  3.8560 -0.9210
 1158SOL    HW214937   3.116   0.554   7.854  2.1652 -1.0118 -0.9548
 1159SOL     OW14938   0.105   2.772   4.373 -0.1184  0.0349 -0.7548
 1159SOL    HW114939   0.083   2.715   4.447 -1.8533  0.6147 -0.8155
 1159SOL    HW214940   0.195   2.796   4.392 -0.5898  0.8817  0.4016
 1160SOL     OW14941   1.700   3.359   7.939 -0.5461 -0.5497 -0.3681
 1160SOL    HW114942   1.632   3.402   7.887 -0.6716 -0.0099  0.2365
 1160SOL    HW214943   1.763   3.325   7.876  1.0804  0.4302  0.7360
 1161SOL     OW14944   1.740   0.743   8.154  0.1959 -0.3925 -0.6347
 1161SOL    HW114945   1.772   0.810   8.095  3.7985 -0.5643  1.1160
 1161SOL    HW214946   1.749   0.792   8.236  0.2143  0.7890 -1.3465
 1162SOL     OW14947   2.803   4.688  12.196  0.2219 -0.1393  0.0866
 1162SOL    HW114948   2.781   4.651  12.282  2.0477  0.9658  1.0257
 1162SOL    HW214949   2.837   0.044  12.234  0.5795  0.1767 -0.9217
 1163SOL     OW14950   4.041   2.001   3.312 -0.5332  0.2752  0.3482
 1163SOL    HW114951   3.953   2.029   3.336 -0.3403  0.5029  0.8123
 1163SOL    HW214952   4.052   2.036   3.224  1.3522 -0.3877  0.3191
 1164SOL     OW14953   4.370   1.765   1.267  0.2254 -0.1087 -0.0355
 1164SOL    HW114954   4.317   1.802   1.337  0.2410 -1.0172  0.4652
 1164SOL    HW214955   4.325   1.808   1.194 -0.2409 -0.5020  0.0235
 1165SOL     OW14956   2.286   0.119   7.242  0.0270 -0.1238 -0.2947
 1165SOL    HW114957   2.233   0.079   7.173  2.2484 -2.7666 -0.4688
 1165SOL    HW214958   2.351   0.179   7.205 -1.2233  0.7329 -1.0753
 1166SOL     OW14959   1.312   4.626   9.405 -0.1925 -0.1141  0.4383
 1166SOL    HW114960   1.324   4.632   9.499  1.1648  0.4119  0.2406
 1166SOL    HW214961   1.234   4.572   9.398 -2.1108  2.6633  0.5859
 1167SOL     OW14962   1.920   3.672   4.419  0.0326 -0.4673  0.0990
 1167SOL    HW114963   1.938   3.701   4.508 -2.1650  0.8018  0.1257
 1167SOL    HW214964   1.959   3.745   4.369 -2.6805  0.9802  0.0987
 1168SOL     OW14965   2.320   0.404   4.450  0.4821  0.2291  0.0937
 1168SOL    HW114966   2.367   0.393   4.533  0.4544  0.3058  0.1205
 1168SOL    HW214967   2.362   0.483   4.416 -1.1244  0.9377 -0.2562
 1169SOL     OW14968   2.102   1.298   5.191  0.2219  0.7226  0.1410
 1169SOL    HW114969   2.171   1.232   5.177  0.3559  0.9672 -0.3526
 1169SOL    HW214970   2.148   1.381   5.200 -0.5117  1.0653  0.6877
 1170SOL     OW14971   2.499   3.164   5.237  0.2272  0.1556  0.0643
 1170SOL    HW114972   2.553   3.102   5.187  0.2095  0.7700 -0.7171
 1170SOL    HW214973   2.543   3.165   5.322  0.8040  2.3328 -0.2488
 1171SOL     OW14974   3.699   0.312   4.610  0.1976  0.1248 -0.2555
 1171SOL    HW114975   3.658   0.358   4.683  0.4409  0.0002 -0.0411
 1171SOL    HW214976   3.666   0.373   4.544  1.5842  0.3827 -0.7113
 1172SOL     OW14977   0.946   0.432   6.916 -0.3328  0.1786 -0.5275
 1172SOL    HW114978   0.997   0.492   6.862  0.4608 -0.9330 -1.0008
 1172SOL    HW214979   0.942   0.362   6.851 -0.5220 -1.4535  1.2529
 1173SOL     OW14980   0.946   4.419   1.107  0.1774  0.4300  0.1726
 1173SOL    HW114981   0.960   4.366   1.186 -1.3160 -1.8306 -1.0962
 1173SOL    HW214982   1.018   4.482   1.110  1.9060 -1.6138  1.0938
 1174SOL     OW14983   2.975   0.678   6.523 -0.3878  0.5434 -0.2070
 1174SOL    HW114984   2.922   0.755   6.543 -1.3858 -0.4905  1.1634
 1174SOL    HW214985   2.932   0.599   6.557 -1.3395  0.9225 -0.5425
 1175SOL     OW14986   3.803   3.726   1.046 -0.2418  0.5507 -0.2256
 1175SOL    HW114987   3.834   3.808   1.006  2.2099  1.0265  2.6777
 1175SOL    HW214988   3.835   3.663   0.982  0.8067  0.6111  0.2505
 1176SOL     OW14989   1.751   1.925   4.042 -0.1648  0.5918  0.2764
 1176SOL    HW114990   1.674   1.963   4.084 -1.2961  0.2250 -1.4160
 1176SOL    HW214991   1.735   1.832   4.061 -0.2413  0.6421  0.4525
 1177SOL     OW14992   3.221   1.228   6.550  0.6093  0.1489  0.2992
 1177SOL    HW114993   3.201   1.261   6.637 -1.4829 -1.3450  0.3806
 1177SOL    HW214994   3.256   1.312   6.520 -1.7861  0.8521 -0.5671
 1178SOL     OW14995   1.163   1.376   4.976  0.0212 -0.2589  0.2224
 1178SOL    HW114996   1.142   1.325   4.898  1.5012  0.3025 -0.5600
 1178SOL    HW214997   1.246   1.408   4.939  0.9550 -2.1873  0.6891
 1179SOL     OW14998   1.117   3.863   8.035 -0.1000  0.3072  0.5034
 1179SOL    HW114999   1.181   3.886   8.103  0.7719 -1.8124  0.4063
 1179SOL    HW215000   1.070   3.946   8.032  1.2007  1.0337  0.0328
 1180SOL     OW15001   2.869   3.773   3.917  0.0354 -0.1319  1.1192
 1180SOL    HW115002   2.917   3.852   3.894 -1.5443 -0.2458 -2.6010
 1180SOL    HW215003   2.877   3.718   3.839  1.2008  0.5480  0.7616
 1181SOL     OW15004   4.181   2.761  17.287  0.7576  0.5975 -0.1035
 1181SOL    HW115005   4.193   2.827  17.219  1.4502  0.3189 -0.2458
 1181SOL    HW215006   4.273   2.745  17.305  1.0098  1.0874 -0.9632
 1182SOL     OW15007   3.857   1.964  14.766  0.3813 -0.4961  0.0664
 1182SOL    HW115008   3.822   1.878  14.789 -2.6383  0.6102 -0.3709
 1182SOL    HW215009   3.780   2.007  14.728  0.9487  1.4391  1.0889
 1183SOL     OW15010   1.105   4.239   9.024 -0.2511 -0.0922  0.1623
 1183SOL    HW115011   1.118   4.303   9.094 -0.3221 -1.4628  1.4306
 1183SOL    HW215012   1.012   4.222   9.036  0.1439 -1.4597  1.2516
 1184SOL     OW15013   0.902   2.996  10.914  0.0855 -0.3576  0.1077
 1184SOL    HW115014   0.823   3.045  10.891  1.4038  0.6985 -2.1581
 1184SOL    HW215015   0.872   2.906  10.897  0.8745 -0.0342 -2.9928
 1185SOL     OW15016   3.566   3.123   0.610  0.2973  0.6619 -0.3164
 1185SOL    HW115017   3.657   3.140   0.633  0.6132  0.7407 -1.6034
 1185SOL    HW215018   3.573   3.036   0.571  0.2646  0.1878  0.7508
 1186SOL     OW15019   0.178   0.013   6.615  0.1167  0.8054  0.1259
 1186SOL    HW115020   0.228   0.067   6.677  2.1034 -1.0164  0.1249
 1186SOL    HW215021   0.249   4.674   6.605 -1.6758 -1.2470  0.5607
 1187SOL     OW15022   2.162   0.905  11.858 -0.5497 -0.2829  0.2925
 1187SOL    HW115023   2.191   0.950  11.938  0.6809  0.2170 -0.4258
 1187SOL    HW215024   2.242   0.859  11.833  0.6463  0.0816  3.3914
 1188SOL     OW15025   0.323   4.037   3.126  0.5282  0.5204 -0.2433
 1188SOL    HW115026   0.407   4.084   3.135 -1.2606  3.6221  0.2955
 1188SOL    HW215027   0.329   4.026   3.032 -0.7889 -0.5883 -0.1805
 1189SOL     OW15028   0.150   1.150   7.588 -0.3487  0.8442  0.1205
 1189SOL    HW115029   0.062   1.188   7.583 -0.4691  0.7747  1.6321
 1189SOL    HW215030   0.199   1.230   7.570  1.5020 -0.1057  0.9553
 1190SOL     OW15031   4.362   0.898   4.069 -0.2089  0.2173 -0.4697
 1190SOL    HW115032   4.381   0.881   3.977 -1.0076 -2.1591 -0.2054
 1190SOL    HW215033   4.432   0.958   4.095  0.5901 -0.8380 -0.1925
 1191SOL     OW15034   1.428   0.683   4.052 -0.0244  0.1833  0.1798
 1191SOL    HW115035   1.379   0.626   4.111  0.3510 -0.4239 -0.0939
 1191SOL    HW215036   1.466   0.624   3.987 -1.5766 -0.3819 -0.2112
 1192SOL     OW15037   0.346   0.113   7.047 -0.0856  0.0925 -0.1426
 1192SOL    HW115038   0.286   0.118   7.120 -0.8000 -1.5997 -0.6099
 1192SOL    HW215039   0.331   0.022   7.024  0.3599  0.5980 -2.4381
 1193SOL     OW15040   2.717   4.699   6.512  0.0571  0.2588  0.0155
 1193SOL    HW115041   2.638   0.017   6.544  1.1013  2.6806 -0.6756
 1193SOL    HW215042   2.734   4.648   6.591  1.4324  1.1943  0.3101
 1194SOL     OW15043   4.601   1.388  15.832  0.0236 -0.2425 -0.9922
 1194SOL    HW115044   4.627   1.421  15.746  0.3933  0.9482 -0.4161
 1194SOL    HW215045   4.566   1.468  15.871  0.5144 -0.8892  0.7857
 1195SOL     OW15046   4.671   0.853   6.558  0.1908 -0.0329 -0.3693
 1195SOL    HW115047   0.012   0.891   6.499 -0.0833  1.9820  0.6058
 1195SOL    HW215048   4.687   0.759   6.555  2.4626  0.3312  0.6205
 1196SOL     OW15049   0.414   0.842   6.331  0.2930  0.0861 -0.4347
 1196SOL    HW115050   0.417   0.932   6.299  0.4818  0.9994  2.1202
 1196SOL    HW215051   0.463   0.788   6.270 -1.9513 -0.6541 -1.5595
 1197SOL     OW15052   4.577   3.350  15.144  0.1514 -0.5531  0.5310
 1197SOL    HW115053   4.612   3.376  15.229 -1.0382  0.9031  0.5734
 1197SOL    HW215054   4.503   3.409  15.129  1.1569  0.4443 -0.4979
 1198SOL     OW15055   2.561   1.204   2.211 -0.1014  0.3538  0.2504
 1198SOL    HW115056   2.551   1.114   2.241  0.3457  0.2840  0.1942
 1198SOL    HW215057   2.517   1.197   2.127 -0.6156  0.1593  0.5346
 1199SOL     OW15058   1.671   1.865   2.608  0.3383 -0.2243 -0.9426
 1199SOL    HW115059   1.757   1.829   2.630  0.2362  0.3598  0.4076
 1199SOL    HW215060   1.684   1.956   2.637  1.7842 -1.7464  3.1471
 1200SOL     OW15061   0.893   0.737   5.872  0.0454 -0.0965  0.1488
 1200SOL    HW115062   0.859   0.706   5.956 -1.8498 -1.3711 -1.0798
 1200SOL    HW215063   0.914   0.826   5.902 -1.5282  0.6623 -1.0194
 1201SOL     OW15064   4.435   0.528   1.291  0.4848  0.2433 -0.0175
 1201SOL    HW115065   4.350   0.572   1.299  0.2966 -0.1092 -0.0941
 1201SOL    HW215066   4.426   0.445   1.337 -0.2626  0.8617  0.9669
 1202SOL     OW15067   1.504   2.374   6.560 -0.2440  0.0571  0.0987
 1202SOL    HW115068   1.513   2.403   6.651  0.0943  1.4873 -0.3862
 1202SOL    HW215069   1.563   2.436   6.517 -0.1237 -0.6706 -0.7985
 1203SOL     OW15070   0.451   3.738   7.010 -0.2635 -0.6982 -0.1045
 1203SOL    HW115071   0.372   3.710   7.056  0.5985  0.7413  2.2333
 1203SOL    HW215072   0.423   3.722   6.919 -0.2950  0.9166 -0.3809
 1204SOL     OW15073   0.399   2.922  15.043  0.7524  0.1103 -0.6336
 1204SOL    HW115074   0.306   2.946  15.035  0.6440  0.0436  0.3945
 1204SOL    HW215075   0.399   2.840  14.994  1.4023 -1.1329  1.4815
 1205SOL     OW15076   3.823   3.294  13.368 -0.3762 -0.3809 -0.0086
 1205SOL    HW115077   3.756   3.284  13.435 -2.8481 -0.2675 -2.4401
 1205SOL    HW215078   3.901   3.314  13.419 -0.1366 -1.6682  0.1115
 1206SOL     OW15079   2.646   1.640   2.128  0.3369  0.3712  0.0119
 1206SOL    HW115080   2.687   1.566   2.172 -0.3386 -0.6404 -1.0757
 1206SOL    HW215081   2.659   1.612   2.038 -2.8984 -0.3614 -0.2065
 1207SOL     OW15082   1.676   1.539   9.304  0.1319  0.6295 -0.3248
 1207SOL    HW115083   1.721   1.471   9.355 -1.0966  0.0735  0.0119
 1207SOL    HW215084   1.659   1.595   9.379 -2.3070 -1.1307  0.4503
 1208SOL     OW15085   0.883   2.922  17.351  0.4492  0.0126  0.1038
 1208SOL    HW115086   0.950   2.900  17.286 -1.1164  0.0238 -1.4967
 1208SOL    HW215087   0.927   2.993  17.398 -1.2494  0.1595  1.4651
 1209SOL     OW15088   4.368   0.776   9.190  0.5271  0.5579  0.5718
 1209SOL    HW115089   4.372   0.722   9.269  0.6123  0.0156  0.2030
 1209SOL    HW215090   4.413   0.723   9.124 -1.0380 -0.8413  0.6010
 1210SOL     OW15091   4.694   1.101   6.305  0.4825 -0.6295 -0.2459
 1210SOL    HW115092   4.685   1.008   6.325 -1.1404 -0.8895 -2.2268
 1210SOL    HW215093   0.056   1.118   6.342 -0.3457  1.1348  0.8860
 1211SOL     OW15094   0.457   2.796   9.551 -0.5082  0.1499  0.2728
 1211SOL    HW115095   0.433   2.772   9.462 -0.4153 -0.2212  0.3479
 1211SOL    HW215096   0.465   2.891   9.546 -0.8509  0.2204  1.0827
 1212SOL     OW15097   1.948   1.858   7.191 -0.3639 -0.0112 -0.6487
 1212SOL    HW115098   1.926   1.930   7.131 -0.9520  0.7266  0.4578
 1212SOL    HW215099   1.977   1.793   7.127  0.6930  0.9747 -1.1816
 1213SOL     OW15100   1.770   3.361  10.048  0.1100  0.0502 -0.3838
 1213SOL    HW115101   1.830   3.308  10.099 -0.8720 -1.5056 -0.8473
 1213SOL    HW215102   1.701   3.375  10.113  1.6830 -1.1254  1.5147
 1214SOL     OW15103   3.365   2.644   7.539 -0.3092 -0.2370 -0.2859
 1214SOL    HW115104   3.320   2.681   7.614  0.0115 -0.2161 -0.1009
 1214SOL    HW215105   3.326   2.696   7.469  0.6441  0.8064 -0.0536
 1215SOL     OW15106   0.831   3.634   2.816 -0.0404 -0.1893 -0.4789
 1215SOL    HW115107   0.788   3.651   2.733  0.6725  0.5703 -0.6913
 1215SOL    HW215108   0.880   3.553   2.800  0.1139  0.2588 -2.2596
 1216SOL     OW15109   0.087   4.689   4.670  0.9855 -0.0894  0.3020
 1216SOL    HW115110   0.116   4.674   4.580 -0.4561  0.3963 -0.2368
 1216SOL    HW215111   0.002   4.647   4.672 -0.4107  2.6690 -1.0154
 1217SOL     OW15112   3.902   1.980   9.349  0.1144 -0.5384 -0.1335
 1217SOL    HW115113   3.880   1.956   9.439  1.5515  2.3772  0.9921
 1217SOL    HW215114   3.817   1.973   9.304  0.5160 -0.9309 -0.8275
 1218SOL     OW15115   0.161   2.545   5.773  0.5624 -0.1767  0.1229
 1218SOL    HW115116   0.067   2.549   5.755  0.5021  0.3343  0.5716
 1218SOL    HW215117   0.183   2.536   5.680  0.9009  3.1816 -0.1261
 1219SOL     OW15118   2.045   4.558   9.970 -0.2414  0.1832  0.3815
 1219SOL    HW115119   1.989   4.488   9.935 -0.5585 -0.4069  2.0659
 1219SOL    HW215120   2.072   4.520  10.053 -1.1166 -0.2095  0.4831
 1220SOL     OW15121   3.424   2.044  13.638 -0.1815 -0.2388  0.0032
 1220SOL    HW115122   3.380   2.018  13.557 -0.5210  0.7780 -0.1477
 1220SOL    HW215123   3.361   2.008  13.701  2.7742 -1.9339  1.9944
 1221SOL     OW15124   4.046   0.448   3.962 -0.4229 -0.1319 -0.0382
 1221SOL    HW115125   4.062   0.365   3.916 -1.2271 -1.3865  1.9362
 1221SOL    HW215126   3.967   0.474   3.913 -1.4422 -2.5532  0.3247
 1222SOL     OW15127   3.964   1.978   6.503 -0.1044  0.2575  0.0711
 1222SOL    HW115128   3.890   1.964   6.444 -0.7101  3.6503  0.0135
 1222SOL    HW215129   4.014   2.036   6.446 -0.1165  0.4945  0.3037
 1223SOL     OW15130   0.899   2.329  11.493  0.3595  0.2599 -0.5102
 1223SOL    HW115131   0.832   2.352  11.557  0.1073  1.2949 -1.1414
 1223SOL    HW215132   0.911   2.235  11.503 -3.9840 -0.3947 -1.5305
 1224SOL     OW15133   3.106   3.128   2.864 -0.5509 -0.0892 -0.9934
 1224SOL    HW115134   3.135   3.095   2.778  0.3917 -1.9951  0.0611
 1224SOL    HW215135   3.061   3.050   2.896 -2.5113  1.6838  0.5618
 1225SOL     OW15136   2.951   0.919   3.832 -0.3412  0.5635 -0.2701
 1225SOL    HW115137   2.974   1.004   3.792  1.3733  0.0407 -0.4104
 1225SOL    HW215138   3.039   0.882   3.836 -0.5671  0.2830  1.8153
 1226SOL     OW15139   0.703   1.021   2.242  0.1329 -0.3834 -0.0294
 1226SOL    HW115140   0.689   1.091   2.177 -0.0101 -1.1183 -0.7956
 1226SOL    HW215141   0.785   0.984   2.211  0.7032 -1.8922  3.2845
 1227SOL     OW15142   2.508   3.498   7.361 -0.5658  0.1445  0.2485
 1227SOL    HW115143   2.580   3.560   7.355  1.0799 -1.8749 -0.9774
 1227SOL    HW215144   2.433   3.549   7.332 -0.1013  0.2489 -0.7530
 1228SOL     OW15145   2.674   2.164   8.338 -0.8113  0.2784  0.3244
 1228SOL    HW115146   2.653   2.238   8.281  1.4878 -0.3211 -1.2929
 1228SOL    HW215147   2.729   2.213   8.399  1.2922 -0.9785 -0.5703
 1229SOL     OW15148   3.950   0.615   8.139  0.2056 -0.0841  0.5556
 1229SOL    HW115149   3.892   0.544   8.112 -0.2729  0.6491 -0.3423
 1229SOL    HW215150   4.006   0.632   8.063 -0.5913  1.4849  0.3221
 1230SOL     OW15151   1.979   3.209   8.422  0.7309 -0.0600  0.2585
 1230SOL    HW115152   1.901   3.154   8.426 -0.8467  2.1779  0.2669
 1230SOL    HW215153   1.962   3.275   8.489 -1.7648 -3.1904  2.7272
 1231SOL     OW15154   2.952   3.364   5.115  0.5711 -0.3489 -0.3821
 1231SOL    HW115155   2.952   3.295   5.182 -0.9239  0.3892  0.3823
 1231SOL    HW215156   3.042   3.395   5.123  0.3990 -0.3192  1.4357
 1232SOL     OW15157   0.410   2.590   4.840  0.2111  0.5524 -0.0348
 1232SOL    HW115158   0.403   2.653   4.768  2.1683  1.1534  0.2900
 1232SOL    HW215159   0.320   2.581   4.869  0.8460 -0.3487  1.6088
 1233SOL     OW15160   0.616   3.225   0.945  0.0534  0.2163  0.0236
 1233SOL    HW115161   0.587   3.296   0.888 -2.3965 -0.9293 -0.1304
 1233SOL    HW215162   0.682   3.277   0.991 -0.7219  0.0240  1.3594
 1234SOL     OW15163   1.927   2.214  11.711 -0.4575 -0.3414 -0.0720
 1234SOL    HW115164   1.965   2.158  11.779  3.1869  1.3593 -0.6890
 1234SOL    HW215165   1.879   2.276  11.766 -0.4075 -2.1665  2.0334
 1235SOL     OW15166   3.082   0.755   4.307 -0.4585  0.2957 -0.5137
 1235SOL    HW115167   3.058   0.692   4.375  0.8458 -1.4702 -1.6755
 1235SOL    HW215168   3.054   0.837   4.347 -0.0772  1.0458 -1.7740
 1236SOL     OW15169   2.271   3.867   6.138 -0.1313 -0.2433  0.3755
 1236SOL    HW115170   2.286   3.942   6.082 -1.2588 -1.0795 -1.0579
 1236SOL    HW215171   2.251   3.795   6.078 -0.5646 -0.3126  0.5981
 1237SOL     OW15172   1.082   0.332  13.243  0.2078  0.3175  0.0866
 1237SOL    HW115173   1.125   0.314  13.160  0.1056  0.6197 -0.0323
 1237SOL    HW215174   1.077   0.244  13.279 -3.0910  0.9779  1.2279
 1238SOL     OW15175   1.184   3.700   1.787 -0.0382  0.0357 -0.2184
 1238SOL    HW115176   1.142   3.628   1.835  1.3078 -1.1013 -0.7533
 1238SOL    HW215177   1.154   3.783   1.823  0.8339  1.0683 -1.9069
 1239SOL     OW15178   2.776   2.627   8.839  0.5474  0.0137  0.3209
 1239SOL    HW115179   2.826   2.692   8.791 -1.2280  1.3434  0.2778
 1239SOL    HW215180   2.861   2.596   8.872  0.3220 -2.0554 -1.0132
 1240SOL     OW15181   1.651   1.515   5.951  0.4810  0.9514  0.0978
 1240SOL    HW115182   1.576   1.557   5.909  1.4662  1.8942 -0.7009
 1240SOL    HW215183   1.620   1.521   6.041 -1.2457  0.6788 -0.4691
 1241SOL     OW15184   2.222   1.254  15.846  0.3230  0.6827 -0.0067
 1241SOL    HW115185   2.295   1.203  15.882  1.1168  1.5038 -0.4552
 1241SOL    HW215186   2.196   1.199  15.772 -0.6264  2.0482 -0.6941
 1242SOL     OW15187   2.986   2.004   4.187  0.3798  0.3918  0.1518
 1242SOL    HW115188   3.032   2.005   4.271  1.2620 -0.8988 -0.3286
 1242SOL    HW215189   2.996   1.913   4.161 -0.6374  0.5209 -0.7063
 1243SOL     OW15190   3.007   3.133   5.984 -0.3143  0.5102 -1.0788
 1243SOL    HW115191   3.093   3.109   6.020 -0.6324 -0.9697 -1.2880
 1243SOL    HW215192   3.029   3.117   5.892 -1.1602  2.0736 -1.5461
 1244SOL     OW15193   1.212   2.575   4.971  0.4810 -0.5407  0.3272
 1244SOL    HW115194   1.119   2.560   4.954  0.3951 -1.8872  1.9634
 1244SOL    HW215195   1.257   2.490   4.967  0.4940 -0.5621  0.9057
 1245SOL     OW15196   0.206   2.599   2.891 -0.3951 -0.2811  0.6178
 1245SOL    HW115197   0.120   2.617   2.928 -1.7350 -4.7288 -0.2896
 1245SOL    HW215198   0.204   2.616   2.797 -0.6988 -1.5928  0.3849
 1246SOL     OW15199   3.768   3.039   7.057  0.1302  0.0223  0.1975
 1246SOL    HW115200   3.764   3.134   7.058  1.3913  0.0899 -0.8569
 1246SOL    HW215201   3.680   3.002   7.067 -0.4238  1.0191 -1.0328
 1247SOL     OW15202   4.566   1.120   2.917  0.3511 -0.3741 -0.5903
 1247SOL    HW115203   4.538   1.130   3.008 -2.3402  3.3622 -1.8335
 1247SOL    HW215204   4.559   1.025   2.907 -0.5395 -0.2121 -1.4548
 1248SOL     OW15205   1.651   2.655   9.963  0.4260  0.3955  0.1014
 1248SOL    HW115206   1.692   2.572   9.989 -0.4561 -0.5810 -1.6464
 1248SOL    HW215207   1.687   2.714  10.030 -0.1377 -1.8083  2.3235
 1249SOL     OW15208   1.471   3.205  17.170 -0.4045  0.6041  0.1294
 1249SOL    HW115209   1.559   3.243  17.166 -1.0529  2.0811  0.0718
 1249SOL    HW215210   1.443   3.256  17.094  0.0445  0.3923 -0.1813
 1250SOL     OW15211   1.107   1.988  17.513 -0.3178 -0.9354  0.3240
 1250SOL    HW115212   1.020   2.028  17.510  0.9000  1.6393 -0.0099
 1250SOL    HW215213   1.088   1.908  17.562  0.0181 -0.1950  1.6602
 1251SOL     OW15214   1.162   3.766   0.109  0.6207 -0.1309 -0.4705
 1251SOL    HW115215   1.204   3.682   0.125  0.4159  0.1209  1.4490
 1251SOL    HW215216   1.076   3.727   0.099 -0.3687  1.7611  0.6280
 1252SOL     OW15217   2.702   2.804   4.469 -0.5350 -0.2484  0.1815
 1252SOL    HW115218   2.701   2.896   4.441  1.6947 -0.3670 -0.3029
 1252SOL    HW215219   2.612   2.785   4.445 -0.4371 -0.8715  0.2972
 1253SOL     OW15220   3.231   0.359   4.769  0.3601  0.0358 -0.2301
 1253SOL    HW115221   3.314   0.366   4.817  0.6763 -3.6164 -0.2713
 1253SOL    HW215222   3.263   0.296   4.705 -0.1609 -0.4797  0.0192
 1254SOL     OW15223   4.023   0.967  16.246 -0.2700 -0.0984  0.0144
 1254SOL    HW115224   4.014   0.892  16.305 -2.4087  0.3314  0.2419
 1254SOL    HW215225   4.000   0.927  16.162  1.1978 -0.8256 -0.0290
 1255SOL     OW15226   1.176   2.251   1.011  0.6097 -0.4208  1.0307
 1255SOL    HW115227   1.098   2.300   1.037  1.0455  0.5999  0.3997
 1255SOL    HW215228   1.244   2.315   1.031  1.0415 -1.1643  1.9522
 1256SOL     OW15229   1.666   1.630  10.621  0.1522  0.1263  0.5729
 1256SOL    HW115230   1.620   1.648  10.703 -0.9027  0.1736 -0.0276
 1256SOL    HW215231   1.650   1.706  10.566 -2.2193 -1.7642 -1.3948
 1257SOL     OW15232   3.222   3.536  16.230 -0.2307  0.5152  0.1996
 1257SOL    HW115233   3.194   3.513  16.141 -1.7764 -1.1778  1.1186
 1257SOL    HW215234   3.305   3.489  16.235 -0.9903 -0.6241  1.8849
 1258SOL     OW15235   1.948   2.282  13.747  0.3299  0.4081 -0.5458
 1258SOL    HW115236   2.020   2.332  13.786  0.2187 -0.7225  1.1335
 1258SOL    HW215237   1.917   2.349  13.685  1.8271  0.1730 -1.5492
 1259SOL     OW15238   3.363   0.711   9.673  0.1449 -0.1292  0.0738
 1259SOL    HW115239   3.413   0.637   9.708  3.5148  2.3538  0.4187
 1259SOL    HW215240   3.274   0.682   9.695  0.3211 -1.6293 -1.1477
 1260SOL     OW15241   4.421   1.020   3.605  0.1933 -0.1777 -0.4344
 1260SOL    HW115242   4.362   1.094   3.619  1.9418  1.2687 -0.8199
 1260SOL    HW215243   4.505   1.058   3.580  1.6666 -3.0269  0.1842
 1261SOL     OW15244   2.744   0.383   0.018  0.2603  0.1122  0.0773
 1261SOL    HW115245   2.827   0.430   0.018  0.2597  0.1120 -0.2989
 1261SOL    HW215246   2.725   0.377   0.112 -2.0018  1.3043 -0.2880
 1262SOL     OW15247   3.700   3.035  14.392  0.4819  0.1980  0.7123
 1262SOL    HW115248   3.674   3.093  14.464  0.5073  0.6924  0.3263
 1262SOL    HW215249   3.613   3.024  14.354  0.3014  1.7723  0.6672
 1263SOL     OW15250   1.595   0.196  17.321 -0.1539 -0.2594  0.0635
 1263SOL    HW115251   1.643   0.244  17.388 -0.5365  1.3328 -0.7900
 1263SOL    HW215252   1.508   0.182  17.358 -0.3027  0.4518 -0.0110
 1264SOL     OW15253   3.476   3.500   9.069 -0.0509  0.3795  0.0236
 1264SOL    HW115254   3.532   3.516   8.993 -1.3007 -0.7314 -1.1474
 1264SOL    HW215255   3.474   3.582   9.119 -0.1816 -0.3854  1.2809
 1265SOL     OW15256   1.739   0.710  10.132 -0.1134  0.0545 -0.3838
 1265SOL    HW115257   1.655   0.753  10.114 -0.7798 -0.4312  1.6021
 1265SOL    HW215258   1.726   0.617  10.113 -1.0598  0.2196 -0.5433
 1266SOL     OW15259   4.389   2.407  11.409 -0.6447 -0.3245 -0.1267
 1266SOL    HW115260   4.297   2.419  11.430 -0.2338 -0.1289  1.5202
 1266SOL    HW215261   4.385   2.366  11.323  0.3381  1.1183 -0.8813
 1267SOL     OW15262   0.529   1.189   0.479  0.0035 -0.3868 -0.4660
 1267SOL    HW115263   0.477   1.173   0.399 -1.0415 -0.0365  0.1430
 1267SOL    HW215264   0.489   1.272   0.506 -1.0400 -1.2141  0.5656
 1268SOL     OW15265   0.500   0.949  14.079  0.1508  0.5252  0.6140
 1268SOL    HW115266   0.424   0.976  14.131 -0.1188 -0.7173  0.8577
 1268SOL    HW215267   0.470   0.987  13.996  0.1478  0.3292  0.5270
 1269SOL     OW15268   4.584   1.039  11.587 -0.7814 -0.3770 -0.3772
 1269SOL    HW115269   4.641   1.070  11.517 -1.2499  1.0662 -0.1088
 1269SOL    HW215270   4.513   0.992  11.542 -0.4615  0.2126 -1.4820
 1270SOL     OW15271   1.956   0.138   8.983 -0.5893 -0.2512  0.3217
 1270SOL    HW115272   1.950   0.089   9.065 -0.1935  1.1818  1.2124
 1270SOL    HW215273   2.005   0.215   9.012  0.6094 -1.3915  1.3346
 1271SOL     OW15274   0.845   0.743   2.989 -0.6444  0.2257  0.4225
 1271SOL    HW115275   0.825   0.649   2.993 -0.1237  0.1291  0.6766
 1271SOL    HW215276   0.783   0.785   2.929 -2.4336 -2.1572  0.6062
 1272SOL     OW15277   0.014   0.331  16.159 -0.2542 -0.0841 -0.1372
 1272SOL    HW115278   0.037   0.347  16.251  2.3618 -1.1739 -0.6092
 1272SOL    HW215279   4.651   0.293  16.164  0.2418 -1.4945 -2.2125
 1273SOL     OW15280   3.398   3.519   2.811 -0.2785 -0.6136 -0.4266
 1273SOL    HW115281   3.463   3.449   2.819 -1.1511 -1.2999  0.5926
 1273SOL    HW215282   3.328   3.482   2.864  0.0189  2.0451  1.8159
 1274SOL     OW15283   4.602   1.207   7.253 -0.4893 -0.0404  0.2256
 1274SOL    HW115284   4.548   1.173   7.324  0.4764  1.1836  1.5521
 1274SOL    HW215285   4.655   1.128   7.239 -0.2279  0.0507  0.7015
 1275SOL     OW15286   4.198   2.596   4.880  0.5304  0.7956  0.0913
 1275SOL    HW115287   4.258   2.650   4.931  0.8129  0.5228  0.0494
 1275SOL    HW215288   4.116   2.623   4.920 -0.4199 -0.0156 -1.3104
 1276SOL     OW15289   4.164   4.305   9.183 -0.0662 -0.0530 -0.0984
 1276SOL    HW115290   4.118   4.356   9.116 -1.4231  0.2193  1.0383
 1276SOL    HW215291   4.096   4.279   9.246  0.1280 -0.1928  0.0524
 1277SOL     OW15292   4.443   0.270   1.414  0.2528  0.0915  0.1916
 1277SOL    HW115293   4.387   0.232   1.482  0.9136 -1.6773 -0.2638
 1277SOL    HW215294   4.528   0.291   1.453 -0.1804  0.1437  1.1084
 1278SOL     OW15295   4.008   2.503   4.724 -0.2642 -1.0661  0.3008
 1278SOL    HW115296   3.988   2.576   4.665  1.5721 -2.7976 -2.4477
 1278SOL    HW215297   4.096   2.524   4.757  0.0037 -1.9268  0.1388
 1279SOL     OW15298   2.636   0.223   3.231  0.1842  0.1198 -0.2289
 1279SOL    HW115299   2.661   0.130   3.234 -4.7470 -1.1662  0.8717
 1279SOL    HW215300   2.590   0.236   3.149  2.2879 -1.3566 -1.6464
 1280SOL     OW15301   0.536   1.277  12.428 -0.0541 -0.1496  0.6350
 1280SOL    HW115302   0.604   1.342  12.411  1.8268 -2.3906 -0.5294
 1280SOL    HW215303   0.491   1.311  12.505 -0.4430 -0.9238  0.7440
 1281SOL     OW15304   2.322   1.197   6.862  0.1314 -0.1222  0.1894
 1281SOL    HW115305   2.352   1.114   6.825 -0.8544 -0.2477 -0.3316
 1281SOL    HW215306   2.290   1.165   6.947 -0.4080  0.5891  0.2548
 1282SOL     OW15307   1.716   1.954   5.570 -0.4518 -0.5444  0.2285
 1282SOL    HW115308   1.791   2.001   5.607  0.4031 -0.6754 -1.3474
 1282SOL    HW215309   1.723   1.869   5.614  1.7855  0.7446  2.3381
 1283SOL     OW15310   0.652   0.543   9.157  0.1577  0.0741 -0.4637
 1283SOL    HW115311   0.693   0.550   9.243  0.3411 -2.0462 -0.3702
 1283SOL    HW215312   0.576   0.488   9.178  0.5855  0.4738  2.0401
 1284SOL     OW15313   4.265   1.324   5.428 -0.3502 -0.8737  0.1020
 1284SOL    HW115314   4.250   1.256   5.362 -2.1327 -0.3032 -0.0966
 1284SOL    HW215315   4.195   1.308   5.492 -0.1134  0.7245  0.7428
 1285SOL     OW15316   4.305   1.498   7.193 -0.0189  0.4886 -0.4827
 1285SOL    HW115317   4.337   1.581   7.158 -1.1929  0.6064 -1.2723
 1285SOL    HW215318   4.246   1.524   7.264  0.1383 -2.6480  0.7488
 1286SOL     OW15319   2.549   2.327   6.783  0.3817 -0.6614 -0.0458
 1286SOL    HW115320   2.633   2.290   6.757 -0.2639 -1.6483 -0.7102
 1286SOL    HW215321   2.511   2.350   6.698 -0.4555  1.8279  0.9812
 1287SOL     OW15322   4.634   0.251   4.213 -0.1175  0.5305  0.0091
 1287SOL    HW115323   4.671   0.245   4.124 -0.2903 -0.3315 -0.0082
 1287SOL    HW215324   4.566   0.317   4.204  0.6456  1.0663 -1.7947
 1288SOL     OW15325   4.455   0.241  14.731  0.1923  0.2006 -0.5146
 1288SOL    HW115326   4.391   0.225  14.802 -0.1856 -2.9879 -1.5648
 1288SOL    HW215327   4.522   0.298  14.767 -1.1627  0.1443  2.1270
 1289SOL     OW15328   1.421   4.582   3.225 -0.0751  0.3265  0.2861
 1289SOL    HW115329   1.387   4.617   3.142 -1.4213  0.0040  0.6986
 1289SOL    HW215330   1.427   4.488   3.208 -0.3311  0.5234 -0.8712
 1290SOL     OW15331   3.609   0.146   4.943 -0.3309  0.3343 -0.2394
 1290SOL    HW115332   3.692   0.189   4.924  0.9930 -1.2066  2.2122
 1290SOL    HW215333   3.602   0.098   4.860  1.7701 -0.7798  0.2602
 1291SOL     OW15334   2.167   0.530   7.634 -0.0944 -0.5799 -0.1613
 1291SOL    HW115335   2.188   0.614   7.674  1.7734 -1.4469  0.6633
 1291SOL    HW215336   2.180   0.558   7.543 -0.2152 -1.1814 -0.3652
 1292SOL     OW15337   2.668   1.416   3.984  0.2791  0.3847 -0.0244
 1292SOL    HW115338   2.621   1.351   4.036 -1.5263 -1.0428 -3.3985
 1292SOL    HW215339   2.595   1.475   3.966 -1.0145 -1.1726  0.0811
 1293SOL     OW15340   2.751   0.743   3.799  0.0763 -0.1819  0.2048
 1293SOL    HW115341   2.805   0.688   3.742  1.5841 -0.6240  2.0966
 1293SOL    HW215342   2.820   0.809   3.811  0.3970 -0.3998 -0.3954
 1294SOL     OW15343   1.397   0.050   9.872 -0.1398 -0.2976 -0.2046
 1294SOL    HW115344   1.462   0.088   9.813  0.4737 -0.0374  0.6380
 1294SOL    HW215345   1.417   0.080   9.961  0.8312  1.3857 -0.9938
 1295SOL     OW15346   4.266   2.800   1.595  0.0955 -0.0896  0.1839
 1295SOL    HW115347   4.297   2.739   1.528  1.1701  0.0790  0.5303
 1295SOL    HW215348   4.197   2.839   1.541  0.5165 -2.1771 -1.8884
 1296SOL     OW15349   2.471   0.359   6.092 -0.2807 -0.0940 -0.0977
 1296SOL    HW115350   2.527   0.386   6.019 -0.2583  0.3750  0.0867
 1296SOL    HW215351   2.536   0.357   6.162 -1.4149  1.3275  1.0134
 1297SOL     OW15352   3.822   3.057   2.560  0.2018 -0.2778  0.1172
 1297SOL    HW115353   3.863   3.124   2.615  0.3151 -0.0297 -0.2717
 1297SOL    HW215354   3.880   3.055   2.485 -0.0573  0.5458 -0.1111
 1298SOL     OW15355   3.029   1.371  17.402 -0.4779  0.7566  0.1728
 1298SOL    HW115356   3.033   1.291  17.454 -2.6101  0.6529  0.2043
 1298SOL    HW215357   2.934   1.388  17.405 -0.7153 -0.2080 -2.1983
 1299SOL     OW15358   0.211   0.792  13.955  0.0989  0.4406  0.0742
 1299SOL    HW115359   0.183   0.881  13.932 -1.5444 -0.1305 -0.1178
 1299SOL    HW215360   0.256   0.817  14.036  0.2066 -0.5085  0.3061
 1300SOL     OW15361   0.402   0.968   8.807  0.8566 -0.4023 -0.0943
 1300SOL    HW115362   0.328   1.015   8.769  1.5153  1.2267  0.6386
 1300SOL    HW215363   0.375   0.955   8.897 -2.2952 -1.3130 -1.1540
 1301SOL     OW15364   1.875   4.523   7.947  0.0515  0.0335  0.5708
 1301SOL    HW115365   1.868   4.548   7.855 -0.5040 -1.5565  0.1834
 1301SOL    HW215366   1.848   4.606   7.987 -1.4010 -1.6785  3.1626
 1302SOL     OW15367   3.360   2.816  14.130  0.1089 -0.4102  0.1247
 1302SOL    HW115368   3.364   2.878  14.203 -1.0257  1.0404 -1.0170
 1302SOL    HW215369   3.409   2.861  14.061  0.1929 -0.7584 -0.0399
 1303SOL     OW15370   2.194   4.670  11.116 -0.0323 -0.1045 -0.7110
 1303SOL    HW115371   2.209   4.656  11.022 -2.5342 -1.1161 -0.9824
 1303SOL    HW215372   2.216   4.585  11.154 -1.4757 -1.0030 -1.8531
 1304SOL     OW15373   0.601   2.516  17.629  0.0938 -0.1951  0.7410
 1304SOL    HW115374   0.616   2.549   0.018  0.5886  4.1194 -0.9207
 1304SOL    HW215375   0.655   2.574  17.575 -0.4358 -0.8780 -0.4997
 1305SOL     OW15376   1.223   2.376   6.752  0.0655  0.2444  0.5241
 1305SOL    HW115377   1.164   2.435   6.800 -0.2039 -1.2142  1.9654
 1305SOL    HW215378   1.273   2.448   6.714 -1.4903  1.0681 -0.0029
 1306SOL     OW15379   1.004   4.610   5.431 -0.0779 -0.3403 -0.0746
 1306SOL    HW115380   0.992   4.598   5.336  0.5481 -0.0278 -0.1935
 1306SOL    HW215381   0.940   4.668   5.471 -2.3705 -3.1107  0.3372
 1307SOL     OW15382   1.126   2.980   2.400  0.1693 -0.2044 -0.3062
 1307SOL    HW115383   1.038   2.952   2.376 -1.5811  2.8485  2.4801
 1307SOL    HW215384   1.181   2.903   2.386 -1.0735 -1.1361 -0.0465
 1308SOL     OW15385   3.295   1.278   4.893 -0.6782 -0.9205  0.5742
 1308SOL    HW115386   3.240   1.356   4.889 -0.1282 -0.7249 -2.6837
 1308SOL    HW215387   3.316   1.268   4.986  1.4447  2.1179  0.4460
 1309SOL     OW15388   0.411   2.425   4.500 -0.3892 -0.3302 -0.0345
 1309SOL    HW115389   0.446   2.514   4.504 -2.1665  0.3341  0.7915
 1309SOL    HW215390   0.497   2.383   4.495  0.2412  1.0047 -0.1766
 1310SOL     OW15391   0.773   0.104  16.091  0.4850 -0.1369  0.1871
 1310SOL    HW115392   0.709   0.034  16.087 -1.9094  2.0313  0.5586
 1310SOL    HW215393   0.717   0.176  16.062  0.3263  0.2024  1.3731
 1311SOL     OW15394   4.675   1.693   2.149  0.0898  0.3154 -0.1039
 1311SOL    HW115395   4.702   1.780   2.177  2.7884  0.0285 -1.8438
 1311SOL    HW215396   0.013   1.636   2.193  2.4616  2.2994 -0.9279
 1312SOL     OW15397   3.094   3.328   5.439  0.4294 -0.0652 -0.8639
 1312SOL    HW115398   3.127   3.259   5.381 -1.3416 -1.3704 -0.2939
 1312SOL    HW215399   3.155   3.334   5.513  0.5198 -1.6295 -0.8110
 1313SOL     OW15400   4.537   4.625   3.792 -0.1772 -0.2624 -0.0830
 1313SOL    HW115401   4.470   4.600   3.855 -0.9040  1.4837 -0.1601
 1313SOL    HW215402   4.519   4.716   3.769  0.1593 -0.2461 -0.2904
 1314SOL     OW15403   0.428   4.045  11.204  0.2155  0.2131 -0.0182
 1314SOL    HW115404   0.345   4.006  11.174  0.3147 -0.0186  0.0112
 1314SOL    HW215405   0.457   3.978  11.266  1.7388  0.4605 -0.4656
 1315SOL     OW15406   0.953   3.376   7.391 -0.3777 -0.3784 -0.1227
 1315SOL    HW115407   1.005   3.303   7.424  1.1755  2.2242  3.1143
 1315SOL    HW215408   0.908   3.404   7.470  0.3016  0.3748 -0.0046
 1316SOL     OW15409   0.685   3.715   7.565  0.2417 -0.2063 -0.2998
 1316SOL    HW115410   0.692   3.758   7.651 -1.6317  0.0191 -0.2589
 1316SOL    HW215411   0.665   3.789   7.508 -0.1988  0.1157  0.2724
 1317SOL     OW15412   3.224   4.311   3.240 -0.1269  0.3203 -0.5333
 1317SOL    HW115413   3.309   4.353   3.229  0.2219 -0.2700 -0.0593
 1317SOL    HW215414   3.222   4.278   3.150 -1.9917 -2.3117  0.4823
 1318SOL     OW15415   3.455   1.116   4.207 -0.8912  0.4291 -0.0152
 1318SOL    HW115416   3.477   1.060   4.133 -0.1424  0.0964  0.4564
 1318SOL    HW215417   3.505   1.079   4.280 -2.4344 -0.5097  0.5671
 1319SOL     OW15418   2.026   4.149  15.368 -0.2771 -0.4434 -0.0190
 1319SOL    HW115419   2.087   4.077  15.387 -0.4144 -0.9399 -1.4642
 1319SOL    HW215420   1.945   4.101  15.382 -0.3024  0.0572  1.5553
 1320SOL     OW15421   3.339   2.057   3.675  0.1738 -0.1092  0.4552
 1320SOL    HW115422   3.427   2.027   3.656  0.5169  2.0573 -1.4002
 1320SOL    HW215423   3.354   2.114   3.750  2.1699 -0.7463  0.5221
 1321SOL     OW15424   0.744   2.860   1.682  0.3284  0.1795 -0.3827
 1321SOL    HW115425   0.787   2.775   1.692  0.1010  0.0778 -0.2740
 1321SOL    HW215426   0.820   2.914   1.701  1.4015 -1.0249 -1.2356
 1322SOL     OW15427   0.380   3.452   4.184  0.3490 -0.2247 -0.2849
 1322SOL    HW115428   0.407   3.377   4.132 -0.0858 -0.3735 -0.2973
 1322SOL    HW215429   0.429   3.516   4.132 -0.6747 -0.6321 -1.7563
 1323SOL     OW15430   0.924   2.947   4.367  0.0369 -0.6577 -0.1329
 1323SOL    HW115431   0.879   2.954   4.283 -2.4894  2.2354  1.4488
 1323SOL    HW215432   1.008   2.911   4.339  0.0453  0.4075 -1.4497
 1324SOL     OW15433   4.248   1.562  12.832  0.5054  0.4779  0.2005
 1324SOL    HW115434   4.219   1.533  12.746  0.5903  0.5234  0.1561
 1324SOL    HW215435   4.303   1.490  12.862 -0.0046 -1.1752 -2.8134
 1325SOL     OW15436   2.346   2.173  12.184 -0.3722  0.0312  0.0801
 1325SOL    HW115437   2.381   2.257  12.154  0.1624 -0.9825 -2.1258
 1325SOL    HW215438   2.264   2.209  12.218 -0.6305  0.0247 -0.5360
 1326SOL     OW15439   1.267   2.311   9.617 -0.0104  0.3618  0.6619
 1326SOL    HW115440   1.197   2.377   9.610 -0.6863 -0.4577 -0.2022
 1326SOL    HW215441   1.328   2.354   9.677  0.9466 -0.7579  0.4895
 1327SOL     OW15442   3.054   1.812  11.651  0.4807 -0.3197 -0.0168
 1327SOL    HW115443   3.108   1.891  11.647 -0.5902  0.3790 -0.8740
 1327SOL    HW215444   3.002   1.830  11.572 -0.9376 -0.5034  0.8725
 1328SOL     OW15445   2.553   0.958  15.306 -0.2520 -0.5985 -0.6416
 1328SOL    HW115446   2.645   0.984  15.305 -0.4445  0.0366 -1.3935
 1328SOL    HW215447   2.553   0.935  15.213  1.1438 -0.2348 -0.7327
 1329SOL     OW15448   3.935   3.179   3.070 -0.0335  0.4451  0.8207
 1329SOL    HW115449   3.849   3.188   3.111 -0.0003 -1.8835  1.4284
 1329SOL    HW215450   3.946   3.258   3.017  0.6967  1.5415  2.6213
 1330SOL     OW15451   1.642   0.460   8.573 -0.3797  0.4297 -0.0897
 1330SOL    HW115452   1.612   0.533   8.520 -1.6085  1.0080  1.4185
 1330SOL    HW215453   1.728   0.490   8.601 -0.5169 -0.4434  1.2636
 1331SOL     OW15454   1.988   0.430   3.174 -0.3115  0.2417  0.1478
 1331SOL    HW115455   2.066   0.480   3.198 -0.1439  0.2973 -0.4878
 1331SOL    HW215456   2.010   0.337   3.180 -1.8007 -0.1389 -0.3638
 1332SOL     OW15457   1.778   3.290   4.613 -0.1162  0.4727  0.7833
 1332SOL    HW115458   1.734   3.373   4.593  0.2424  0.4196 -0.2202
 1332SOL    HW215459   1.858   3.329   4.648  2.1813 -1.6429 -2.1073
 1333SOL     OW15460   1.509   3.678   2.841  0.4509 -0.2101  0.0284
 1333SOL    HW115461   1.492   3.647   2.930 -2.7115  1.0039 -0.1606
 1333SOL    HW215462   1.520   3.770   2.864 -0.7454  0.3024 -1.4733
 1334SOL     OW15463   0.219   1.731  10.029  0.0165  0.4365 -0.4900
 1334SOL    HW115464   0.272   1.706   9.954 -0.4583 -1.9735  0.0019
 1334SOL    HW215465   0.136   1.758   9.989  0.9242  0.3106 -2.4674
 1335SOL     OW15466   1.000   2.782   1.164  0.2596 -0.4002  0.4914
 1335SOL    HW115467   1.060   2.853   1.143  0.4412 -0.3733  1.0726
 1335SOL    HW215468   0.928   2.803   1.106  0.9136 -0.6536 -0.4113
 1336SOL     OW15469   1.680   1.902  12.375 -0.2125  0.3298 -0.4333
 1336SOL    HW115470   1.752   1.841  12.386  1.6837  2.9111  1.6379
 1336SOL    HW215471   1.613   1.866  12.433  0.5668 -1.0811 -0.4172
 1337SOL     OW15472   1.844   0.996  14.814  0.1684  0.0818  0.2261
 1337SOL    HW115473   1.778   0.930  14.833  1.2294 -0.2183  2.8552
 1337SOL    HW215474   1.809   1.077  14.849  1.1509 -0.7555  3.1636
 1338SOL     OW15475   2.046   1.858   6.897 -0.3863  0.2866  0.3846
 1338SOL    HW115476   2.066   1.779   6.947 -1.8158 -0.0874  0.3446
 1338SOL    HW215477   1.982   1.821   6.837  0.0407 -0.0306  0.1234
 1339SOL     OW15478   0.562   2.881   8.106  0.6302  0.5300  0.7991
 1339SOL    HW115479   0.531   2.795   8.079  0.1585  0.5175  1.3730
 1339SOL    HW215480   0.653   2.853   8.098  0.0784 -0.4953 -2.0471
 1340SOL     OW15481   0.826   1.172  15.537 -0.7847 -0.5962  0.0080
 1340SOL    HW115482   0.774   1.094  15.520  1.7529 -2.6641  1.7778
 1340SOL    HW215483   0.821   1.177  15.632 -1.3088 -0.2006 -0.0381
 1341SOL     OW15484   0.495   1.567   2.187  0.2052 -0.5475 -0.2173
 1341SOL    HW115485   0.529   1.614   2.111  0.6008 -0.5791 -0.0654
 1341SOL    HW215486   0.436   1.632   2.226 -1.1406 -0.8070 -1.8267
 1342SOL     OW15487   1.410   1.435   7.233 -0.5870  0.0992  0.4218
 1342SOL    HW115488   1.424   1.488   7.312  0.9269 -0.8478  0.7863
 1342SOL    HW215489   1.315   1.426   7.237 -0.4209 -1.9993 -0.6304
 1343SOL     OW15490   2.828   4.314   7.820 -0.4969  0.1128  0.1318
 1343SOL    HW115491   2.814   4.405   7.794 -0.8178  0.0540  0.1055
 1343SOL    HW215492   2.923   4.309   7.807 -0.3786  1.7573  0.3358
 1344SOL     OW15493   1.558   4.103   5.042  0.1047 -0.3281  0.7780
 1344SOL    HW115494   1.611   4.085   4.964 -0.8795 -0.8916  0.2414
 1344SOL    HW215495   1.502   4.172   5.008  0.9445  0.4955  1.0671
 1345SOL     OW15496   2.467   1.292   6.264 -0.3408 -0.3921  0.1688
 1345SOL    HW115497   2.380   1.284   6.224  0.4238  1.2513 -1.8188
 1345SOL    HW215498   2.525   1.261   6.195 -1.6489  2.4323 -2.2189
 1346SOL     OW15499   0.506   2.321   3.327 -0.1408  0.3131  0.2722
 1346SOL    HW115500   0.443   2.248   3.326 -2.6208  2.4586  0.7571
 1346SOL    HW215501   0.519   2.346   3.235  0.9376  0.1738  0.3821
 1347SOL     OW15502   0.282   0.273   8.406  0.4699 -0.2302  0.1918
 1347SOL    HW115503   0.283   0.244   8.498 -0.4930  1.1626  0.6445
 1347SOL    HW215504   0.273   0.368   8.410 -2.0095 -0.3365 -3.0854
 1348SOL     OW15505   2.051   1.717   9.377  0.2169 -0.3788 -0.1638
 1348SOL    HW115506   2.133   1.757   9.348 -0.4567  1.1833  0.0537
 1348SOL    HW215507   1.978   1.774   9.352 -0.6460 -1.1674  0.5723
 1349SOL     OW15508   1.761   4.685  10.151 -0.1501  0.3282  0.0121
 1349SOL    HW115509   1.673   4.646  10.149  1.5267 -3.4395 -0.1027
 1349SOL    HW215510   1.810   4.605  10.170  0.5357  1.3876  2.6418
 1350SOL     OW15511   0.399   4.319   1.263  0.5371  0.0523 -0.3206
 1350SOL    HW115512   0.403   4.359   1.350 -0.0809 -0.8043  0.1015
 1350SOL    HW215513   0.335   4.378   1.223  0.4495 -0.5458 -1.0642
 1351SOL     OW15514   2.468   3.710   4.754 -0.7063 -0.0139  0.2691
 1351SOL    HW115515   2.403   3.722   4.685  0.8633  1.5542 -0.9160
 1351SOL    HW215516   2.467   3.800   4.785  0.4863  0.3874 -0.8643
 1352SOL     OW15517   1.313   3.814   0.395  0.2529  0.0646  0.3306
 1352SOL    HW115518   1.223   3.838   0.371  0.1629 -1.6037 -0.9703
 1352SOL    HW215519   1.302   3.759   0.472 -1.2860  2.2390  1.6434
 1353SOL     OW15520   4.456   0.473   4.226  0.3654  0.1143  0.0212
 1353SOL    HW115521   4.384   0.509   4.174 -0.3646 -0.6403  0.4849
 1353SOL    HW215522   4.407   0.461   4.308  1.5045  0.1280  0.7023
 1354SOL     OW15523   2.435   0.479  11.837  0.2757 -0.3913  0.4457
 1354SOL    HW115524   2.451   0.431  11.756 -2.9150  1.0814 -1.0397
 1354SOL    HW215525   2.377   0.421  11.886 -1.6405 -0.1444 -1.5641
 1355SOL     OW15526   3.839   4.281   4.408  0.0286 -0.3758 -0.0973
 1355SOL    HW115527   3.763   4.232   4.375  0.3773  0.6085 -2.3354
 1355SOL    HW215528   3.912   4.225   4.381 -0.6193  0.1599 -2.9739
 1356SOL     OW15529   1.408   0.488   1.983 -0.0721  0.6343 -0.1846
 1356SOL    HW115530   1.485   0.432   1.989 -0.8483 -0.2741  1.0402
 1356SOL    HW215531   1.382   0.492   1.891 -0.6393 -2.3121 -0.1253
 1357SOL     OW15532   0.543   3.608   5.924  0.6081  0.4146 -0.3041
 1357SOL    HW115533   0.530   3.645   6.012 -0.0408  1.1131 -0.6965
 1357SOL    HW215534   0.514   3.679   5.867  0.5530 -0.4612 -1.3610
 1358SOL     OW15535   4.637   3.821   8.116  0.0825  0.5313 -0.5727
 1358SOL    HW115536   4.721   3.797   8.077 -0.0748 -0.0500 -0.5582
 1358SOL    HW215537   4.628   3.751   8.181  1.0191  1.5394  0.6445
 1359SOL     OW15538   2.312   0.654   4.781 -0.1801 -0.4759 -0.6840
 1359SOL    HW115539   2.273   0.733   4.744 -0.6263 -0.2352  0.3008
 1359SOL    HW215540   2.291   0.676   4.872 -2.3213 -0.5064 -1.1732
 1360SOL     OW15541   0.829   2.214   9.260  0.8092  0.1729  0.2225
 1360SOL    HW115542   0.832   2.168   9.176  1.2857 -0.4034  0.5534
 1360SOL    HW215543   0.858   2.153   9.328  0.8746  1.5401  1.4325
 1361SOL     OW15544   1.204   3.408   1.961  0.0915 -0.4149  0.6157
 1361SOL    HW115545   1.111   3.429   1.959  0.1603  0.0203  2.1479
 1361SOL    HW215546   1.218   3.406   1.866  0.2184  2.0128  0.5715
 1362SOL     OW15547   3.488   4.662   7.770  0.2263  0.0098 -0.1580
 1362SOL    HW115548   3.534   4.580   7.750 -0.7232 -0.1575 -1.6149
 1362SOL    HW215549   3.396   4.634   7.777  0.0478  1.1717  2.1327
 1363SOL     OW15550   0.464   0.741   2.290 -0.1590 -0.5836  0.1397
 1363SOL    HW115551   0.390   0.727   2.349 -0.8845  0.4262 -0.5251
 1363SOL    HW215552   0.471   0.836   2.301  1.0168 -1.0678  3.4577
 1364SOL     OW15553   1.086   4.442   9.304 -0.2097 -0.1137 -0.1474
 1364SOL    HW115554   1.003   4.444   9.351 -0.2558  2.5264 -0.3620
 1364SOL    HW215555   1.145   4.409   9.371 -1.2069 -1.2251  0.1975
 1365SOL     OW15556   2.604   0.902   9.370  0.1600 -0.0252  0.4022
 1365SOL    HW115557   2.579   0.991   9.345  0.5405  0.6614  2.4605
 1365SOL    HW215558   2.699   0.912   9.359  0.2155  1.4251  2.1578
 1366SOL     OW15559   2.034   1.000   3.729 -0.3284  0.1787  0.1985
 1366SOL    HW115560   2.007   1.089   3.703  3.0034  1.2200  0.2965
 1366SOL    HW215561   2.030   0.958   3.643  1.1577  0.3776  0.0259
 1367SOL     OW15562   1.953   0.119   5.741 -0.0783  0.0393 -0.7787
 1367SOL    HW115563   1.986   0.107   5.651 -1.9526  1.8929 -1.6990
 1367SOL    HW215564   2.040   0.135   5.777  0.4660 -1.7006 -1.2941
 1368SOL     OW15565   2.780   1.148   3.027  0.3569 -0.2276 -0.2312
 1368SOL    HW115566   2.765   1.119   3.117  0.4981  1.2552  0.2681
 1368SOL    HW215567   2.711   1.214   3.023  1.3389  0.8470  0.4736
 1369SOL     OW15568   2.055   2.861   6.484 -0.1545 -0.0138 -0.1879
 1369SOL    HW115569   2.133   2.860   6.540 -0.4182 -1.3683  0.1351
 1369SOL    HW215570   2.089   2.883   6.397 -1.5204 -1.0781 -0.9913
 1370SOL     OW15571   4.477   0.123   4.886  0.4240 -0.0021 -0.3465
 1370SOL    HW115572   4.546   0.169   4.934  0.5753 -1.3576  0.7018
 1370SOL    HW215573   4.439   0.054   4.940  2.1952  1.2203  2.4563
 1371SOL     OW15574   3.605   1.626   5.315  0.2203 -0.0171  0.2098
 1371SOL    HW115575   3.684   1.573   5.323 -1.1205 -1.9471  0.5959
 1371SOL    HW215576   3.625   1.700   5.257  1.3285 -1.8788 -1.7844
 1372SOL     OW15577   0.656   2.114  11.027  0.0675  0.3402 -0.3610
 1372SOL    HW115578   0.569   2.075  11.019 -0.7927  1.5942  2.7884
 1372SOL    HW215579   0.680   2.106  11.119  0.7798  3.7465 -0.2508
 1373SOL     OW15580   2.638   1.098  12.037 -0.4212  0.5224 -0.1346
 1373SOL    HW115581   2.598   1.011  12.040 -1.1724  0.8768  0.0223
 1373SOL    HW215582   2.728   1.076  12.014 -0.7565 -0.7755 -0.1959
 1374SOL     OW15583   3.528   2.504   5.561  0.1631  0.5307 -0.1716
 1374SOL    HW115584   3.479   2.430   5.526  1.1721 -0.9424  1.5379
 1374SOL    HW215585   3.478   2.532   5.637  1.2455 -2.9135  1.8055
 1375SOL     OW15586   0.637   2.142   2.106 -0.3134  0.4474 -0.0861
 1375SOL    HW115587   0.574   2.209   2.132 -0.8084  0.1037 -0.3865
 1375SOL    HW215588   0.630   2.156   2.012  3.0402 -0.1117 -0.4357
 1376SOL     OW15589   0.725   3.335   5.348 -1.2160  0.2535 -0.1275
 1376SOL    HW115590   0.725   3.259   5.407 -0.8928 -0.5248 -1.1221
 1376SOL    HW215591   0.633   3.336   5.324 -1.0640 -0.0271 -0.7181
 1377SOL     OW15592   1.481   4.100  15.447  0.1625 -0.2712  0.6127
 1377SOL    HW115593   1.399   4.114  15.400 -1.7428 -1.1160  3.6839
 1377SOL    HW215594   1.549   4.152  15.406 -2.3954  1.4753 -1.3801
 1378SOL     OW15595   2.344   3.342  17.472 -0.2848 -0.3177  0.2319
 1378SOL    HW115596   2.330   3.256  17.512 -0.6198  0.7517  2.4148
 1378SOL    HW215597   2.259   3.385  17.462 -0.0922 -0.6748 -2.8349
 1379SOL     OW15598   3.284   3.293   2.979  0.0269  0.4007  0.0228
 1379SOL    HW115599   3.314   3.209   3.012 -1.6569 -0.0461  0.4359
 1379SOL    HW215600   3.222   3.271   2.909  0.5728 -0.3051 -0.2347
 1380SOL     OW15601   0.255   4.401   9.159 -0.9789  0.2419  0.0354
 1380SOL    HW115602   0.170   4.442   9.146 -1.4948 -1.2752 -1.4113
 1380SOL    HW215603   0.307   4.481   9.166  0.2883 -0.4496 -1.4223
 1381SOL     OW15604   3.879   3.574   8.354 -0.1442 -0.1187  0.1435
 1381SOL    HW115605   3.874   3.601   8.262  0.0741  0.6187  0.3419
 1381SOL    HW215606   3.789   3.578   8.387  0.3128  1.0162  1.2644
 1382SOL     OW15607   0.831   3.177   4.505  0.0056 -0.2028 -0.6320
 1382SOL    HW115608   0.888   3.120   4.453 -1.0530 -0.1296 -1.8834
 1382SOL    HW215609   0.879   3.195   4.586  0.5168  0.0637 -0.9990
 1383SOL     OW15610   0.566   2.190   3.000 -0.6898  0.3929 -0.2135
 1383SOL    HW115611   0.592   2.162   3.087 -1.3596  1.3835  0.2981
 1383SOL    HW215612   0.517   2.117   2.960  0.6577  0.4330 -1.9735
 1384SOL     OW15613   4.026   0.592   6.718 -0.2407 -0.0891 -0.1145
 1384SOL    HW115614   3.950   0.642   6.747 -0.1372  0.3596 -0.6279
 1384SOL    HW215615   4.087   0.660   6.690 -2.2660  1.4516 -0.7551
 1385SOL     OW15616   4.628   0.827   1.452  0.3623  0.6254 -0.2762
 1385SOL    HW115617   4.604   0.735   1.439  1.8441  0.3080 -0.8711
 1385SOL    HW215618   4.645   0.841   1.545 -2.6097 -0.6298  0.4561
 1386SOL     OW15619   3.915   4.562  11.551 -0.5260 -0.8634 -0.4245
 1386SOL    HW115620   3.878   4.554  11.463 -1.1178 -0.0887 -0.2510
 1386SOL    HW215621   3.837   4.520  11.585  0.5745 -1.8913  0.8451
 1387SOL     OW15622   0.864   3.258   8.816  0.4261  0.0531 -0.2698
 1387SOL    HW115623   0.819   3.201   8.753 -0.2862  1.1803 -0.7819
 1387SOL    HW215624   0.927   3.305   8.761  0.3532 -2.1245 -2.2165
 1388SOL     OW15625   0.916   1.601   7.946  0.5179  0.3653 -0.6842
 1388SOL    HW115626   0.919   1.508   7.923  4.2106  0.8560 -2.2035
 1388SOL    HW215627   1.000   1.636   7.916  2.5785 -2.4209  1.8851
 1389SOL     OW15628   1.769   3.250  11.959 -0.5181 -0.1125  0.5619
 1389SOL    HW115629   1.784   3.160  11.932  0.3260  0.5610 -1.2651
 1389SOL    HW215630   1.697   3.266  11.899 -0.2711  0.3381  0.3784
 1390SOL     OW15631   0.098   3.670   2.237  0.3272  0.2803 -0.0287
 1390SOL    HW115632   0.168   3.729   2.208  1.8519 -2.9282 -2.8976
 1390SOL    HW215633   0.083   3.615   2.160  1.2134  0.1970 -0.1412
 1391SOL     OW15634   0.179   0.497   9.223  0.1657 -0.2676 -0.0777
 1391SOL    HW115635   0.102   0.542   9.258 -1.5562 -2.9619 -0.4193
 1391SOL    HW215636   0.151   0.408   9.245  2.4433 -1.3341 -1.4495
 1392SOL     OW15637   3.128   2.840  11.677  0.1188  0.0117  0.0484
 1392SOL    HW115638   3.205   2.891  11.701  0.0800  0.7135 -1.2984
 1392SOL    HW215639   3.100   2.878  11.593 -0.2796 -1.0418 -0.2919
 1393SOL     OW15640   0.941   1.223   2.601  0.1358 -0.3615  0.0305
 1393SOL    HW115641   0.989   1.286   2.547  1.0238 -0.9713  0.1033
 1393SOL    HW215642   0.931   1.145   2.547 -2.5139  0.2121 -0.2864
 1394SOL     OW15643   1.372   4.612   7.347  0.2995 -0.2080 -0.1394
 1394SOL    HW115644   1.383   4.633   7.254 -0.8246 -1.9471 -0.6494
 1394SOL    HW215645   1.352   4.520   7.333  2.0102 -0.7942  1.2304
 1395SOL     OW15646   2.045   3.018  15.336 -0.2028  0.3158 -0.4174
 1395SOL    HW115647   2.096   3.076  15.280 -1.3527  0.3033 -1.4868
 1395SOL    HW215648   2.105   2.944  15.340  1.6715  1.8218 -0.7530
 1396SOL     OW15649   3.191   0.092   3.773  0.0198  0.3074 -0.2893
 1396SOL    HW115650   3.232   0.156   3.831 -0.6219  0.8329 -0.4117
 1396SOL    HW215651   3.216   0.016   3.826 -0.7334 -0.0736 -0.4780
 1397SOL     OW15652   1.589   3.981  12.814 -0.1409 -0.6169 -0.1160
 1397SOL    HW115653   1.528   3.988  12.888  0.5967 -2.3539  0.6428
 1397SOL    HW215654   1.641   3.907  12.844  0.4707  0.5144  1.6313
 1398SOL     OW15655   0.282   1.283   4.237 -0.2989 -0.1636 -0.2459
 1398SOL    HW115656   0.373   1.264   4.260  0.4736  0.9664 -2.4084
 1398SOL    HW215657   0.292   1.323   4.151 -1.5637  0.8506  0.0798
 1399SOL     OW15658   0.938   1.139   8.618 -0.4807  0.3113  0.1065
 1399SOL    HW115659   0.947   1.116   8.711 -2.6587 -0.5219  0.1170
 1399SOL    HW215660   1.024   1.174   8.594  0.5342 -1.6150  0.9660
 1400SOL     OW15661   1.103   2.555  15.346  0.2767  0.3914  0.2203
 1400SOL    HW115662   1.054   2.604  15.412 -0.7796  0.0770 -0.3284
 1400SOL    HW215663   1.042   2.493  15.308  3.1621 -1.3781 -1.5467
 1401SOL     OW15664   0.136   3.085  11.956 -0.2314  0.1090  0.5678
 1401SOL    HW115665   0.097   3.164  11.994  1.0275  1.2657 -0.5563
 1401SOL    HW215666   0.151   3.032  12.034 -1.9381  1.1751  1.6401
 1402SOL     OW15667   0.997   3.494   0.884 -0.1075 -0.1616 -0.4353
 1402SOL    HW115668   0.989   3.447   0.801  1.6291  1.9331 -1.8086
 1402SOL    HW215669   0.929   3.459   0.941 -0.3889 -2.0834 -1.9425
 1403SOL     OW15670   2.261   3.700   0.578 -0.1985  0.0388  0.1113
 1403SOL    HW115671   2.250   3.731   0.488  0.8614  0.0615 -0.0115
 1403SOL    HW215672   2.210   3.619   0.583 -1.7268  0.9919 -0.2477
 1404SOL     OW15673   0.756   1.421   4.355 -0.5719 -0.1218 -0.3764
 1404SOL    HW115674   0.760   1.483   4.429  0.9612  0.4844 -0.9860
 1404SOL    HW215675   0.847   1.402   4.337 -0.1986  1.4492 -0.2040
 1405SOL     OW15676   3.929   3.669   4.141 -0.6453  0.0842  0.5350
 1405SOL    HW115677   3.931   3.749   4.193  3.4348  0.3784 -0.0653
 1405SOL    HW215678   3.843   3.630   4.158 -0.9055  1.3657  2.1095
 1406SOL     OW15679   1.302   4.625  14.521 -0.6325  0.1929  0.4943
 1406SOL    HW115680   1.377   4.596  14.469 -0.7303 -0.4854  0.7300
 1406SOL    HW215681   1.338   4.708  14.552 -0.2246 -0.1033  0.8024
 1407SOL     OW15682   0.277   2.514  15.972  0.2841  0.1000  0.1489
 1407SOL    HW115683   0.193   2.468  15.973  0.7688 -0.8236 -1.2290
 1407SOL    HW215684   0.301   2.541  15.883  2.5490 -0.1027  0.7188
 1408SOL     OW15685   4.434   0.274   7.488  0.1692  0.1459  0.2695
 1408SOL    HW115686   4.508   0.227   7.527 -0.5815 -2.6574 -1.7328
 1408SOL    HW215687   4.469   0.361   7.470  1.9200 -1.1069 -2.4071
 1409SOL     OW15688   4.337   2.103  15.636  0.4689 -0.1781  0.7459
 1409SOL    HW115689   4.299   2.191  15.636  0.1818 -0.3020  0.9287
 1409SOL    HW215690   4.392   2.110  15.558  0.3042 -0.7977  0.5679
 1410SOL     OW15691   3.880   3.268  16.734  0.3025  0.4488  0.4598
 1410SOL    HW115692   3.852   3.177  16.747 -2.5347  1.0808 -1.1032
 1410SOL    HW215693   3.802   3.320  16.749  1.6019  1.7168  2.7333
 1411SOL     OW15694   2.099   1.260   8.061 -0.1710  0.1720  0.0547
 1411SOL    HW115695   2.057   1.241   8.144  0.0711 -0.3438  0.0629
 1411SOL    HW215696   2.039   1.313   8.009 -0.1125 -1.2407 -1.4784
 1412SOL     OW15697   2.249   0.615   6.200 -0.1593 -0.0834  0.2493
 1412SOL    HW115698   2.181   0.558   6.163  0.5416 -0.4780 -0.4202
 1412SOL    HW215699   2.198   0.644   6.275 -0.6459  0.1401 -0.1608
 1413SOL     OW15700   2.141   1.066  17.452 -0.5274  0.1182 -0.0237
 1413SOL    HW115701   2.127   1.043  17.544  1.9831  0.5716  0.4785
 1413SOL    HW215702   2.069   1.127  17.434  0.3482  2.3358  3.8969
 1414SOL     OW15703   2.160   0.762  16.669 -0.6587 -0.1865  0.4211
 1414SOL    HW115704   2.115   0.695  16.617 -1.4195  1.3615 -0.9370
 1414SOL    HW215705   2.106   0.748  16.746 -1.5894  0.4631 -0.1082
 1415SOL     OW15706   4.722   3.668   9.491 -0.0718 -0.1654 -0.3525
 1415SOL    HW115707   4.693   3.577   9.505 -0.0223 -0.1535 -0.1767
 1415SOL    HW215708   0.014   3.662   9.397 -1.7443 -1.1923 -0.5910
 1416SOL     OW15709   1.535   3.740   6.131 -0.0644 -0.5007  0.1373
 1416SOL    HW115710   1.480   3.676   6.178  0.5527 -1.2684 -0.1814
 1416SOL    HW215711   1.500   3.740   6.042 -3.4198 -1.2553  1.4480
 1417SOL     OW15712   3.097   3.693   8.431  0.4079 -0.4268 -0.1289
 1417SOL    HW115713   3.038   3.742   8.374  1.4970  3.8296  2.3502
 1417SOL    HW215714   3.181   3.695   8.385  0.0483  2.4898 -0.6661
 1418SOL     OW15715   4.575   4.163   4.511  0.3927 -0.1507  0.1561
 1418SOL    HW115716   4.589   4.090   4.451  0.9319  1.6598 -1.9039
 1418SOL    HW215717   4.667   4.179   4.535 -0.0088 -1.0023  2.2993
 1419SOL     OW15718   2.336   2.872  11.720  0.4394 -0.7153  0.7276
 1419SOL    HW115719   2.334   2.783  11.754  0.9558 -1.5932 -1.5059
 1419SOL    HW215720   2.427   2.898  11.732  0.2267  1.9195 -3.2263
 1420SOL     OW15721   2.786   3.922   5.404  0.2992 -0.4789  0.6028
 1420SOL    HW115722   2.762   3.829   5.404 -1.3767 -0.0336 -0.4861
 1420SOL    HW215723   2.703   3.953   5.440  1.0210 -0.0307  1.8720
 1421SOL     OW15724   4.397   3.960   1.545  0.3645 -0.1232  0.3185
 1421SOL    HW115725   4.462   3.954   1.615 -0.5381  1.8209  1.3185
 1421SOL    HW215726   4.322   3.993   1.594 -0.4939  1.1812 -1.8987
 1422SOL     OW15727   1.558   2.961   5.258 -0.1220  0.3741 -0.8650
 1422SOL    HW115728   1.509   3.026   5.208 -0.0031  0.7690 -0.4694
 1422SOL    HW215729   1.488   2.920   5.310  1.7062 -0.5273  0.8990
 1423SOL     OW15730   0.562   3.761   0.383 -0.3141  0.2551 -0.4388
 1423SOL    HW115731   0.511   3.839   0.359  1.0723  1.7276  1.4700
 1423SOL    HW215732   0.604   3.783   0.465 -0.6231  1.2129 -0.5386
 1424SOL     OW15733   2.631   0.672   2.987 -0.1635  0.0887 -0.9381
 1424SOL    HW115734   2.696   0.643   2.922  1.5319  1.6680  0.0392
 1424SOL    HW215735   2.568   0.696   2.919 -1.3532 -1.1900 -0.2732
 1425SOL     OW15736   2.024   3.525  14.974  0.0555 -0.0086 -0.4978
 1425SOL    HW115737   1.987   3.585  15.038 -1.2617 -0.5603 -0.7373
 1425SOL    HW215738   2.111   3.560  14.956  0.6911 -1.2050  0.2462
 1426SOL     OW15739   1.910   1.615   2.109 -0.2014  0.9471  0.3704
 1426SOL    HW115740   1.837   1.673   2.086 -0.2432  0.2896 -1.1251
 1426SOL    HW215741   1.898   1.554   2.037  1.7977 -1.6343  2.2042
 1427SOL     OW15742   3.119   1.529   9.178 -0.4459 -0.2555 -0.2084
 1427SOL    HW115743   3.161   1.586   9.114 -2.1624  0.9789 -0.2659
 1427SOL    HW215744   3.195   1.510   9.233 -0.5480 -2.9522 -1.0233
 1428SOL     OW15745   1.925   2.304   2.523  0.0312 -0.6612 -0.2057
 1428SOL    HW115746   1.888   2.374   2.577 -0.4903 -1.1655  0.0852
 1428SOL    HW215747   1.955   2.357   2.449 -1.1163 -1.6012 -1.3459
 1429SOL     OW15748   3.317   0.381   1.734 -0.0856  0.5922  0.6909
 1429SOL    HW115749   3.267   0.342   1.662 -0.2039  2.0428 -0.0149
 1429SOL    HW215750   3.246   0.383   1.799 -0.6533  0.5334  0.0771
 1430SOL     OW15751   0.884   0.530   0.138 -0.2363  0.0402 -0.4854
 1430SOL    HW115752   0.957   0.559   0.193 -1.1341 -1.0285  1.2544
 1430SOL    HW215753   0.812   0.551   0.197 -0.0336 -0.1393 -0.1789
 1431SOL     OW15754   4.140   2.612  16.641  0.4773  0.1220 -0.3748
 1431SOL    HW115755   4.159   2.699  16.677  0.2142 -0.4055  1.0196
 1431SOL    HW215756   4.145   2.633  16.548 -2.8079 -1.4727 -0.9145
 1432SOL     OW15757   1.186   3.716   3.842 -0.0282 -0.2759 -0.3556
 1432SOL    HW115758   1.274   3.714   3.806 -0.9840  0.5611 -2.7622
 1432SOL    HW215759   1.191   3.629   3.881 -0.8933 -0.0496  0.2652
 1433SOL     OW15760   0.300   2.988   7.919 -0.0089 -0.2325 -0.1915
 1433SOL    HW115761   0.262   3.074   7.900 -0.4435 -0.3149  0.3348
 1433SOL    HW215762   0.376   3.022   7.967  0.5908 -1.6304 -0.1540
 1434SOL     OW15763   1.601   3.638   1.562  0.0756  0.0001  0.7085
 1434SOL    HW115764   1.540   3.686   1.507 -0.2538 -0.4386  0.6859
 1434SOL    HW215765   1.547   3.638   1.642 -0.3627  0.4558  0.4094
 1435SOL     OW15766   0.730   3.754   7.845  0.4298 -0.2616 -0.4768
 1435SOL    HW115767   0.663   3.693   7.876 -0.5307  2.5467  2.9001
 1435SOL    HW215768   0.702   3.836   7.887 -0.5919 -0.3393 -0.9996
 1436SOL     OW15769   0.527   2.051  10.437  0.0963  0.3005  0.6915
 1436SOL    HW115770   0.576   2.021  10.360 -0.1028  2.8518 -0.4308
 1436SOL    HW215771   0.583   2.108  10.489  0.8939 -0.3944  0.5837
 1437SOL     OW15772   0.967   4.311   1.377  0.0782 -0.2333  0.8946
 1437SOL    HW115773   0.946   4.404   1.382  2.1970  0.3283 -0.4307
 1437SOL    HW215774   1.060   4.311   1.399  0.4280 -1.4035 -0.5583
 1438SOL     OW15775   4.065   1.278   2.956 -0.2686 -0.2095  0.1815
 1438SOL    HW115776   3.983   1.297   2.910 -0.3319 -1.5264 -0.2324
 1438SOL    HW215777   4.088   1.185   2.956 -1.5835 -0.5377  2.8238
 1439SOL     OW15778   2.750   3.941  12.479  1.0722  0.2624  0.2826
 1439SOL    HW115779   2.694   3.952  12.401  0.3057  0.6504  0.8900
 1439SOL    HW215780   2.690   3.972  12.546  0.5666 -0.5730  0.2219
 1440SOL     OW15781   4.373   3.742   3.106 -0.3033  0.2235  0.5367
 1440SOL    HW115782   4.399   3.790   3.028 -2.2163  0.3480 -0.0001
 1440SOL    HW215783   4.430   3.665   3.092 -1.4476 -0.3806 -0.7791
 1441SOL     OW15784   1.361   2.518  12.418  0.5100 -0.3304  0.4494
 1441SOL    HW115785   1.442   2.471  12.440  0.5139 -0.2426  0.6249
 1441SOL    HW215786   1.298   2.448  12.435  1.5824 -1.3791  0.1775
 1442SOL     OW15787   2.579   1.323   7.865 -0.0438  0.0950 -0.4153
 1442SOL    HW115788   2.502   1.267   7.863  0.5050 -0.6765 -0.1811
 1442SOL    HW215789   2.541   1.404   7.899 -0.3113 -0.0535 -0.3542
 1443SOL     OW15790   4.671   1.228   4.548  0.0980  0.2972  0.2191
 1443SOL    HW115791   4.587   1.258   4.515  0.6454  0.0868 -1.3685
 1443SOL    HW215792   4.656   1.240   4.642 -0.2934  2.8072 -0.1756
 1444SOL     OW15793   4.219   2.211   9.632  0.0719  0.3677  0.3854
 1444SOL    HW115794   4.181   2.126   9.653 -0.6431  0.4510 -0.5943
 1444SOL    HW215795   4.146   2.269   9.611  1.1876  2.0614  1.1809
 1445SOL     OW15796   1.863   2.627  10.433 -0.5679 -0.7567 -0.0556
 1445SOL    HW115797   1.889   2.536  10.451 -0.1290 -0.4804  0.6747
 1445SOL    HW215798   1.829   2.648  10.519 -0.4345  2.7394 -0.8656
 1446SOL     OW15799   4.217   2.837  16.746 -0.6376  0.4931  0.4783
 1446SOL    HW115800   4.302   2.845  16.702  0.0288  0.0907  1.7101
 1446SOL    HW215801   4.191   2.929  16.753 -1.4806  0.4929 -2.2505
 1447SOL     OW15802   1.281   0.411   8.062 -0.0148 -0.3551 -0.2549
 1447SOL    HW115803   1.344   0.483   8.069 -0.0374 -0.4984  1.3698
 1447SOL    HW215804   1.297   0.381   8.151 -1.1637  1.3717  0.5529
 1448SOL     OW15805   2.086   0.006   2.970 -0.7301  0.3109  0.1263
 1448SOL    HW115806   2.031   4.664   3.011 -0.1765 -0.0884  0.2081
 1448SOL    HW215807   2.027   0.079   2.949 -2.1268 -1.9634 -3.6842
 1449SOL     OW15808   3.529   0.831   3.551  0.0953 -0.1169 -0.2909
 1449SOL    HW115809   3.465   0.761   3.537 -0.6945  0.0552  2.5592
 1449SOL    HW215810   3.604   0.772   3.558  1.0057  0.9129 -1.1639
 1450SOL     OW15811   3.093   1.941   3.676  0.2495 -0.2245 -0.4636
 1450SOL    HW115812   3.108   1.899   3.760  0.9315 -1.6926 -1.3183
 1450SOL    HW215813   3.170   1.997   3.665  1.8666 -2.2648  0.7566
 1451SOL     OW15814   3.317   3.587  14.000  0.2864  0.0800  0.5046
 1451SOL    HW115815   3.376   3.643  13.949 -0.0409  1.0182  1.1575
 1451SOL    HW215816   3.309   3.628  14.086  0.0817 -1.3112  1.1496
 1452SOL     OW15817   1.290   4.379   6.023 -0.5788 -0.0758 -0.4452
 1452SOL    HW115818   1.291   4.395   5.929  3.6420  1.4742 -0.1145
 1452SOL    HW215819   1.343   4.451   6.056 -0.5200  0.0669 -0.8513
 1453SOL     OW15820   3.493   1.124   0.455 -0.4072 -0.1608 -0.2278
 1453SOL    HW115821   3.586   1.145   0.453 -0.2553 -0.7502  0.4965
 1453SOL    HW215822   3.445   1.189   0.506  1.0000 -0.0506  0.9671
 1454SOL     OW15823   2.988   2.595   3.595 -0.2369  0.0473 -0.1488
 1454SOL    HW115824   2.975   2.603   3.690 -1.4988 -1.4783 -0.2001
 1454SOL    HW215825   2.911   2.544   3.573  1.6334 -2.1374 -1.6168
 1455SOL     OW15826   4.094   4.653   8.064  0.4304  0.2748 -0.3616
 1455SOL    HW115827   4.078   4.561   8.047  2.0889 -0.4886  2.2642
 1455SOL    HW215828   4.187   4.661   8.083  0.3793  0.4834 -0.1937
 1456SOL     OW15829   0.662   0.242   3.120 -0.0811 -0.5246 -0.0081
 1456SOL    HW115830   0.748   0.273   3.149  0.1106 -1.2157  0.1546
 1456SOL    HW215831   0.598   0.296   3.167  0.5603 -0.2993  0.6039
 1457SOL     OW15832   2.391   4.485  16.389 -0.6465 -0.6844  0.2115
 1457SOL    HW115833   2.321   4.520  16.443 -0.7147  0.7968 -0.8222
 1457SOL    HW215834   2.429   4.567  16.358 -1.4913 -1.1972 -2.2372
 1458SOL     OW15835   0.083   0.330   3.616 -0.5183  0.3081 -0.4688
 1458SOL    HW115836   0.083   0.247   3.569 -1.0965 -1.1839  2.1671
 1458SOL    HW215837   0.168   0.324   3.661  0.2794 -0.0228 -2.0000
 1459SOL     OW15838   2.423   3.066  11.062 -0.1775 -0.0588 -0.0182
 1459SOL    HW115839   2.382   3.005  11.001 -0.6668 -0.3312  0.5963
 1459SOL    HW215840   2.507   3.021  11.060 -0.9266 -1.4442 -0.1301
 1460SOL     OW15841   2.496   3.866   2.362  0.1152 -0.1245 -0.0625
 1460SOL    HW115842   2.584   3.837   2.340  0.1602  1.4489 -1.9461
 1460SOL    HW215843   2.443   3.837   2.288 -0.1263 -0.0166  0.0688
 1461SOL     OW15844   1.654   4.712  10.705  0.7743  0.1091 -0.2001
 1461SOL    HW115845   1.661   4.623  10.670 -0.4785  0.4786 -1.3873
 1461SOL    HW215846   1.563   0.010  10.683  0.6861 -1.4512 -1.4268
 1462SOL     OW15847   3.345   3.446   4.194 -0.4773  0.8199 -0.0720
 1462SOL    HW115848   3.266   3.393   4.196 -0.0723  0.2224  0.1840
 1462SOL    HW215849   3.342   3.451   4.098 -1.4982  1.6079  0.0062
 1463SOL     OW15850   3.823   1.382  10.768  0.8522 -0.1104  0.1569
 1463SOL    HW115851   3.895   1.338  10.724 -0.8822 -3.4745  0.7326
 1463SOL    HW215852   3.872   1.443  10.823  0.4027 -0.2697  0.7385
 1464SOL     OW15853   2.764   2.695   6.143  0.2281  0.4945  0.4880
 1464SOL    HW115854   2.687   2.689   6.200  1.7154 -3.0621  2.1292
 1464SOL    HW215855   2.718   2.663   6.065  2.5182 -2.3416  0.3219
 1465SOL     OW15856   3.402   4.361  11.202  0.2619  0.1432 -0.4909
 1465SOL    HW115857   3.484   4.383  11.247  0.4359 -1.0048 -0.2401
 1465SOL    HW215858   3.356   4.306  11.266 -1.2595  1.1470 -0.7194
 1466SOL     OW15859   0.643   0.640   6.868  0.3252 -0.0085  0.2014
 1466SOL    HW115860   0.706   0.682   6.926  0.1442 -0.5075  0.7556
 1466SOL    HW215861   0.643   0.696   6.791 -1.6045  0.2084  0.3593
 1467SOL     OW15862   4.235   0.495   4.976  0.3628 -0.1117 -0.1096
 1467SOL    HW115863   4.194   0.419   4.934 -0.9590 -0.0233  1.0463
 1467SOL    HW215864   4.316   0.459   5.013  2.0469  1.6665 -2.0506
 1468SOL     OW15865   1.836   3.032   3.200  0.6233 -0.5863  0.5487
 1468SOL    HW115866   1.882   2.948   3.197 -1.7593 -1.8007 -1.8170
 1468SOL    HW215867   1.795   3.051   3.116 -0.6523 -2.2577  0.7946
 1469SOL     OW15868   0.926   2.240   6.051 -0.1355 -0.5096 -0.0999
 1469SOL    HW115869   0.935   2.281   6.137 -1.1098 -1.6611  0.5515
 1469SOL    HW215870   0.951   2.311   5.991  0.6197  0.6561  1.5947
 1470SOL     OW15871   3.679   0.384   9.912  0.2514 -0.5486  0.2609
 1470SOL    HW115872   3.621   0.313   9.939 -1.1892  0.3828 -0.3924
 1470SOL    HW215873   3.737   0.399   9.987 -0.6751 -2.2792  1.3356
 1471SOL     OW15874   4.683   0.683   4.171 -0.4102  0.4744 -0.2568
 1471SOL    HW115875   4.647   0.742   4.238  0.0145  0.1699  0.2379
 1471SOL    HW215876   4.610   0.621   4.172  0.4036 -0.4881 -1.2242
 1472SOL     OW15877   3.401   0.852   6.316 -0.2574  0.1725 -0.1381
 1472SOL    HW115878   3.396   0.824   6.407 -0.8835  0.2250 -0.1572
 1472SOL    HW215879   3.379   0.940   6.346 -0.1556 -0.2512  1.2122
 1473SOL     OW15880   2.746   4.289   2.863 -0.6633  0.3098 -0.1889
 1473SOL    HW115881   2.687   4.361   2.842  0.9455  1.8550  0.6944
 1473SOL    HW215882   2.768   4.300   2.956 -1.7121 -1.9707  0.3416
 1474SOL     OW15883   2.867   1.004   2.322  0.3870  0.4278  0.4272
 1474SOL    HW115884   2.888   0.949   2.246  1.0103 -1.0382  1.6654
 1474SOL    HW215885   2.928   1.074   2.298  1.2096 -0.6028 -0.4826
 1475SOL     OW15886   4.422   0.358   3.055  0.4649 -0.0424  0.6726
 1475SOL    HW115887   4.483   0.375   3.126 -0.5492  0.1483  1.4887
 1475SOL    HW215888   4.437   0.266   3.036 -0.0761  0.6762 -3.2743
 1476SOL     OW15889   2.354   4.635   4.899 -0.1529 -0.2205  0.3134
 1476SOL    HW115890   2.309   4.714   4.930  0.6981  0.0867  0.7924
 1476SOL    HW215891   2.445   4.646   4.927 -0.8937 -0.4459  2.8088
 1477SOL     OW15892   1.660   3.383   2.326 -0.4356 -0.0271 -0.2666
 1477SOL    HW115893   1.609   3.363   2.248  0.8245  0.8672 -1.3001
 1477SOL    HW215894   1.631   3.470   2.354  0.2510 -0.3165  1.3675
 1478SOL     OW15895   0.695   1.095  13.375 -0.0013  0.3723 -0.1459
 1478SOL    HW115896   0.720   1.187  13.382 -0.4536  0.4606  0.2957
 1478SOL    HW215897   0.776   1.053  13.346 -1.2356 -1.2156 -1.3333
 1479SOL     OW15898   1.610   3.550  13.957  0.1373 -0.2269  0.5575
 1479SOL    HW115899   1.658   3.519  13.880  1.0437  0.7164  0.7315
 1479SOL    HW215900   1.671   3.531  14.028 -1.2710 -0.8211  1.6043
 1480SOL     OW15901   3.787   1.068   7.252  0.1997  0.2216  0.6474
 1480SOL    HW115902   3.752   1.000   7.194  1.4761  2.0004 -2.2112
 1480SOL    HW215903   3.721   1.068   7.321 -0.2289  2.0247  0.2325
 1481SOL     OW15904   2.919   4.608   5.128  0.0975  0.0740 -0.3823
 1481SOL    HW115905   2.897   4.664   5.054 -0.4053 -0.1407 -0.3948
 1481SOL    HW215906   2.990   4.560   5.084  2.1394  1.9657  0.8466
 1482SOL     OW15907   2.283   2.362   3.469  0.0866  0.2168  0.6968
 1482SOL    HW115908   2.348   2.343   3.536  2.0092  1.4425 -0.7842
 1482SOL    HW215909   2.325   2.434   3.420 -0.3766 -0.3417 -0.5241
 1483SOL     OW15910   2.943   3.680   7.989 -0.1718  0.7502 -0.3103
 1483SOL    HW115911   2.963   3.596   7.949  0.5467 -0.5553  2.8250
 1483SOL    HW215912   2.866   3.652   8.038 -0.1711  1.6321  0.1957
 1484SOL     OW15913   2.493   3.215   2.518 -0.7268  0.4229  0.1435
 1484SOL    HW115914   2.426   3.203   2.585 -2.8505  0.3876 -1.9846
 1484SOL    HW215915   2.450   3.272   2.453  2.8260  1.9221 -0.8614
 1485SOL     OW15916   2.060   1.152   7.342  0.2279 -0.1363 -0.3699
 1485SOL    HW115917   2.076   1.154   7.436 -1.0467 -1.7690 -0.1169
 1485SOL    HW215918   1.966   1.139   7.338 -0.0383  1.2833  1.3191
 1486SOL     OW15919   2.520   0.758  17.627 -0.6272  0.1329  0.4127
 1486SOL    HW115920   2.542   0.835  17.574  1.7352 -2.2084 -1.9756
 1486SOL    HW215921   2.428   0.750  17.600 -0.9435 -1.3072  1.8929
 1487SOL     OW15922   0.268   3.063   7.315  0.1205  0.8020 -0.1285
 1487SOL    HW115923   0.362   3.046   7.316  0.1516  0.9391 -0.6781
 1487SOL    HW215924   0.232   3.001   7.252 -1.7064  0.5991  1.1049
 1488SOL     OW15925   1.448   1.551   6.473  0.4033  0.1180 -0.2948
 1488SOL    HW115926   1.506   1.532   6.546  0.6240 -1.2082 -0.8226
 1488SOL    HW215927   1.408   1.633   6.504 -0.3448  0.7859 -2.9457
 1489SOL     OW15928   2.845   0.212   6.467  0.0215 -0.5525 -0.3606
 1489SOL    HW115929   2.933   0.186   6.439  0.4322 -0.9707  1.3225
 1489SOL    HW215930   2.795   0.132   6.483  2.8526 -2.4237 -0.9882
 1490SOL     OW15931   4.523   0.543   7.455  0.2413  0.1243  0.0834
 1490SOL    HW115932   4.554   0.615   7.510  1.2892  0.2730 -0.7070
 1490SOL    HW215933   4.517   0.599   7.377  0.0797  1.7619  1.2730
 1491SOL     OW15934   0.369   4.364   7.502  0.5518 -1.0375 -0.5923
 1491SOL    HW115935   0.339   4.288   7.553 -1.8479 -0.2420 -0.8044
 1491SOL    HW215936   0.407   4.308   7.434  0.2735 -2.1455  0.1633
 1492SOL     OW15937   0.122   2.091   6.764 -0.6543 -0.0168 -0.1334
 1492SOL    HW115938   0.063   2.044   6.823 -0.0952  1.4037  1.5714
 1492SOL    HW215939   0.131   2.029   6.693 -0.2185 -0.5809  0.4138
 1493SOL     OW15940   1.785   4.425   8.504 -0.3478 -0.3709 -0.4276
 1493SOL    HW115941   1.875   4.450   8.485 -0.5983  2.0102  1.5369
 1493SOL    HW215942   1.731   4.483   8.451  0.9994  0.4079 -0.9435
 1494SOL     OW15943   0.608   3.795   3.861 -0.6072 -0.2239 -0.2025
 1494SOL    HW115944   0.603   3.881   3.901 -0.5216  0.0686 -0.8226
 1494SOL    HW215945   0.608   3.822   3.770  1.1410 -2.1546 -0.7905
 1495SOL     OW15946   3.583   0.581  17.413  0.7044  0.4163 -0.5898
 1495SOL    HW115947   3.621   0.594  17.499 -0.1502 -0.7651 -0.0356
 1495SOL    HW215948   3.588   0.486  17.414 -0.2328  0.4083  1.9227
 1496SOL     OW15949   3.903   3.221  14.508  0.0067 -0.1969 -0.2366
 1496SOL    HW115950   3.864   3.143  14.547 -1.8019  1.3092  0.9835
 1496SOL    HW215951   3.955   3.255  14.581 -1.2397  1.7025 -0.2253
 1497SOL     OW15952   1.540   0.439   2.564  1.1203 -0.3233  0.6633
 1497SOL    HW115953   1.589   0.521   2.558 -0.9298  0.5196 -4.3322
 1497SOL    HW215954   1.563   0.409   2.476  1.1069 -1.5060  1.0682
 1498SOL     OW15955   2.226   4.181   8.315  0.2522 -0.5550 -0.1426
 1498SOL    HW115956   2.310   4.170   8.271  1.0180  1.6321  0.8036
 1498SOL    HW215957   2.234   4.258   8.371  0.7960 -1.0630  0.4902
 1499SOL     OW15958   3.394   1.809   6.019  0.1876 -0.4255 -0.2197
 1499SOL    HW115959   3.438   1.737   5.975 -0.9522 -1.7347  0.7812
 1499SOL    HW215960   3.402   1.876   5.951  0.6719 -1.1797 -0.9011
 1500SOL     OW15961   3.441   0.907   5.343 -0.1140 -0.0201  0.5339
 1500SOL    HW115962   3.382   0.833   5.328 -1.1157  1.0025 -0.5320
 1500SOL    HW215963   3.403   0.942   5.423 -0.7541 -2.8065  1.4177
 1501SOL     OW15964   0.546   2.832   2.153 -0.1367  0.3211  0.0364
 1501SOL    HW115965   0.576   2.812   2.242 -0.5933 -0.6890 -0.0264
 1501SOL    HW215966   0.529   2.926   2.151  0.9223  0.5206  0.5053
 1502SOL     OW15967   4.363   4.246   8.091  0.5893  0.2873  0.0691
 1502SOL    HW115968   4.458   4.255   8.078  0.2734  2.1390 -1.0040
 1502SOL    HW215969   4.359   4.230   8.185  1.7116 -2.6216 -0.3870
 1503SOL     OW15970   1.405   3.721  15.991 -0.3800  0.2049 -0.0886
 1503SOL    HW115971   1.395   3.755  15.903 -1.9631 -1.3982 -0.5246
 1503SOL    HW215972   1.316   3.734  16.024 -0.9092 -0.3322 -1.3367
 1504SOL     OW15973   3.339   1.768   7.059 -0.0525 -0.2705 -0.5140
 1504SOL    HW115974   3.278   1.776   7.132  0.6577 -3.1282  0.3952
 1504SOL    HW215975   3.377   1.681   7.075 -4.3595 -2.6342 -2.9002
 1505SOL     OW15976   3.464   4.681   1.131  0.6735  0.1029 -0.1551
 1505SOL    HW115977   3.542   4.659   1.080  0.0775 -1.4602 -0.3730
 1505SOL    HW215978   3.419   4.597   1.138  0.0397  0.5345  1.1481
 1506SOL     OW15979   1.452   1.188   5.139  0.1365 -0.5249 -0.6616
 1506SOL    HW115980   1.479   1.098   5.121  1.0700 -0.4283  0.2213
 1506SOL    HW215981   1.366   1.200   5.099 -1.1564 -1.1539  1.9048
 1507SOL     OW15982   2.644   0.188   6.958  0.6688 -0.1204  0.1565
 1507SOL    HW115983   2.663   0.095   6.971  1.8186  0.1196  0.2364
 1507SOL    HW215984   2.613   0.210   7.045 -1.1441  0.2537 -0.5854
 1508SOL     OW15985   3.206   2.374  14.192  0.0699 -0.2130 -0.4332
 1508SOL    HW115986   3.220   2.413  14.279  2.3416 -3.8083  0.8248
 1508SOL    HW215987   3.212   2.282  14.219 -3.6815 -0.2076  0.3847
 1509SOL     OW15988   4.292   2.202   8.856  1.0630  0.1129  0.2024
 1509SOL    HW115989   4.313   2.128   8.913 -0.1675  0.3811  1.0045
 1509SOL    HW215990   4.379   2.223   8.821  0.3093 -1.1054 -2.3962
 1510SOL     OW15991   2.839   1.497  17.100 -0.0434  0.6263 -0.3165
 1510SOL    HW115992   2.837   1.426  17.163 -0.0654  1.2268  0.3574
 1510SOL    HW215993   2.925   1.477  17.062  0.5247  0.8157  0.8823
 1511SOL     OW15994   3.251   3.872  11.422  0.2348 -0.3961 -0.5651
 1511SOL    HW115995   3.194   3.817  11.368  0.6363  0.9422 -2.3706
 1511SOL    HW215996   3.330   3.848  11.374  0.4490  1.5130 -1.1677
 1512SOL     OW15997   0.918   3.111   1.166  0.6950 -0.8402  0.2362
 1512SOL    HW115998   1.001   3.097   1.211  1.4091 -3.0128 -1.8295
 1512SOL    HW215999   0.928   3.206   1.160  0.0844 -0.7740  0.1966
 1513SOL     OW16000   1.953   2.101  17.612 -0.5740  0.1795  0.2323
 1513SOL    HW116001   1.952   2.103  17.516  0.4194  0.9013  0.2380
 1513SOL    HW216002   1.857   2.102  17.615 -0.6469  0.0680 -2.2747
 1514SOL     OW16003   0.989   4.300   5.768  0.3705 -0.3260  0.0084
 1514SOL    HW116004   1.067   4.328   5.721  0.8142 -1.8557 -0.1854
 1514SOL    HW216005   0.961   4.383   5.806 -1.9458 -0.1627 -2.0441
 1515SOL     OW16006   1.798   1.508   4.206  0.7554  0.8089  0.2166
 1515SOL    HW116007   1.883   1.531   4.167  0.4266 -0.2328 -1.1384
 1515SOL    HW216008   1.739   1.548   4.142  2.7273  1.6193 -1.1091
 1516SOL     OW16009   1.301   0.269  10.177 -0.0899 -0.1740 -0.7974
 1516SOL    HW116010   1.287   0.315  10.260 -1.1905  0.0346 -1.1002
 1516SOL    HW216011   1.352   0.194  10.210  1.6436  1.0594 -0.6423
 1517SOL     OW16012   2.337   1.576   5.847  0.1929  0.1190  0.4905
 1517SOL    HW116013   2.333   1.565   5.942  1.0400 -0.1087  0.4999
 1517SOL    HW216014   2.288   1.499   5.819  0.5898  0.1165 -0.2012
 1518SOL     OW16015   3.582   2.536   3.653 -0.5378  0.2933  0.2237
 1518SOL    HW116016   3.509   2.485   3.689  1.3728 -2.1065  0.6768
 1518SOL    HW216017   3.608   2.580   3.734 -2.2060  0.5703  0.6081
 1519SOL     OW16018   0.144   4.179   4.604 -0.1612 -0.1434  0.3275
 1519SOL    HW116019   0.136   4.243   4.675  0.6681  3.6638 -3.0052
 1519SOL    HW216020   0.182   4.101   4.642  0.2043  0.3966  1.0727
 1520SOL     OW16021   4.626   0.212  11.350  0.1120  0.1517 -0.1753
 1520SOL    HW116022   4.591   0.283  11.296 -1.1565  1.3289  2.1411
 1520SOL    HW216023   4.551   0.211  11.410 -0.1498 -0.9182 -0.5306
 1521SOL     OW16024   3.034   2.490   6.582 -0.0193  0.0156 -0.1588
 1521SOL    HW116025   3.097   2.464   6.515  1.1564  0.3247  0.8107
 1521SOL    HW216026   2.951   2.505   6.538 -0.6885 -1.0420  0.7242
 1522SOL     OW16027   3.204   3.428   5.067  0.0041  0.1228  0.1692
 1522SOL    HW116028   3.261   3.473   5.004  0.9467 -0.2365  0.7746
 1522SOL    HW216029   3.272   3.392   5.123  1.0293  2.1127  0.2249
 1523SOL     OW16030   4.724   0.034   7.011  0.4244  0.0221  0.3686
 1523SOL    HW116031   4.667   0.018   7.086  0.5845  1.6865  0.8381
 1523SOL    HW216032   4.691   4.683   6.962 -0.0314 -0.0636  0.8130
 1524SOL     OW16033   3.832   1.070  11.529 -0.6134 -0.5092 -0.3795
 1524SOL    HW116034   3.846   0.976  11.541  0.4335 -0.5996 -2.3490
 1524SOL    HW216035   3.904   1.089  11.469  1.0606 -0.1654  1.7545
 1525SOL     OW16036   2.851   1.777   4.560  0.4655 -0.2174  0.1387
 1525SOL    HW116037   2.924   1.834   4.581  0.9301  0.0896 -2.2953
 1525SOL    HW216038   2.909   1.714   4.516 -1.6943 -0.5439 -2.2352
 1526SOL     OW16039   4.142   0.506   6.013  0.2605  0.3022 -0.2649
 1526SOL    HW116040   4.139   0.572   5.944  2.0225  0.0153 -0.6085
 1526SOL    HW216041   4.229   0.468   6.000 -1.2317 -1.9837 -3.7585
 1527SOL     OW16042   4.544   0.398   8.616 -0.2240  0.0577  0.1634
 1527SOL    HW116043   4.566   0.425   8.705  0.0900 -1.9389  0.7135
 1527SOL    HW216044   4.451   0.408   8.634 -0.2482  1.9913 -1.0821
 1528SOL     OW16045   2.137   1.927  12.727 -0.1886  0.2403  0.1961
 1528SOL    HW116046   2.174   1.892  12.646 -0.3327 -0.6046  0.4859
 1528SOL    HW216047   2.188   1.877  12.790  2.1556  1.6909 -0.5883
 1529SOL     OW16048   1.617   0.192   6.266 -0.0571 -0.4740 -0.3449
 1529SOL    HW116049   1.698   0.193   6.317 -1.3233 -2.0000  1.7111
 1529SOL    HW216050   1.628   0.109   6.220  1.2448 -0.7770  0.5094
 1530SOL     OW16051   1.447   1.350   1.673  0.2340 -0.1842  0.0147
 1530SOL    HW116052   1.431   1.444   1.665  0.1378 -0.0010  2.2004
 1530SOL    HW216053   1.413   1.332   1.761 -1.3452 -0.4781 -0.6585
 1531SOL     OW16054   1.499   3.014  11.501 -0.6460 -0.3649 -0.7825
 1531SOL    HW116055   1.446   2.937  11.478 -0.4240 -0.7975  0.1395
 1531SOL    HW216056   1.534   2.986  11.586  1.0373 -2.1826 -2.1033
 1532SOL     OW16057   4.369   0.909   8.794  0.0718  0.0817 -0.3377
 1532SOL    HW116058   4.355   0.929   8.702  1.5098  1.3355 -0.2766
 1532SOL    HW216059   4.460   0.935   8.809  0.0828  0.1112 -0.4576
 1533SOL     OW16060   4.120   0.054   0.523 -0.3120 -0.4392  0.1661
 1533SOL    HW116061   4.203   0.072   0.567 -0.6138  1.8907 -0.1789
 1533SOL    HW216062   4.060   0.041   0.596 -1.5353 -1.1472 -0.9660
 1534SOL     OW16063   2.448   1.743  12.572 -0.5669 -0.4943 -0.6297
 1534SOL    HW116064   2.537   1.761  12.540 -0.3034  0.3956  0.6003
 1534SOL    HW216065   2.455   1.784  12.658  1.8995  1.3623 -1.7010
 1535SOL     OW16066   0.713   4.477   9.284 -0.1852 -0.6484  0.0164
 1535SOL    HW116067   0.660   4.438   9.353 -2.2263 -1.1128 -1.8315
 1535SOL    HW216068   0.768   4.539   9.332 -1.0906 -0.5781  0.9625
 1536SOL     OW16069   2.315   1.724  13.740  0.1644  0.8163 -0.2355
 1536SOL    HW116070   2.286   1.789  13.676  1.9631  0.1001 -1.7722
 1536SOL    HW216071   2.336   1.788  13.808  2.1857  1.9655 -1.9313
 1537SOL     OW16072   0.227   4.140   6.364 -0.1654  0.0759  0.0153
 1537SOL    HW116073   0.223   4.217   6.307  1.2399  1.0124  1.2069
 1537SOL    HW216074   0.191   4.069   6.310  1.3381 -1.1458  0.6387
 1538SOL     OW16075   4.692   0.730   4.725  0.3529 -0.2333  0.0734
 1538SOL    HW116076   4.720   0.813   4.686 -2.1138  1.2192  1.3819
 1538SOL    HW216077   0.049   0.688   4.751 -0.3415 -1.4195  0.3110
 1539SOL     OW16078   3.366   0.598  13.141  0.0502  0.2882  0.1896
 1539SOL    HW116079   3.400   0.527  13.197 -0.0956 -1.8509 -2.4549
 1539SOL    HW216080   3.304   0.553  13.084 -0.5956 -0.1982  1.2834
 1540SOL     OW16081   0.458   0.490   6.695 -0.4242 -0.0849  0.7773
 1540SOL    HW116082   0.510   0.460   6.620 -2.1704 -0.8135 -0.1485
 1540SOL    HW216083   0.506   0.566   6.727  0.2132 -0.6013  1.0424
 1541SOL     OW16084   1.800   0.945   1.975 -0.4807 -0.8791 -0.2644
 1541SOL    HW116085   1.889   0.955   2.010 -0.7145 -0.1109  0.0883
 1541SOL    HW216086   1.806   0.857   1.938 -1.3072  0.3499 -3.2770
 1542SOL     OW16087   0.936   4.671   2.901  0.2010 -0.2923 -0.0116
 1542SOL    HW116088   1.020   4.704   2.935 -0.6570  1.0482  0.8395
 1542SOL    HW216089   0.965   4.586   2.869 -1.3555 -0.0867 -1.8939
 1543SOL     OW16090   2.371   0.741   5.794  0.4443 -0.2356  0.0052
 1543SOL    HW116091   2.324   0.658   5.781  0.5302 -0.4178  0.8095
 1543SOL    HW216092   2.368   0.750   5.890  1.0633  2.1692 -0.2014
 1544SOL     OW16093   1.164   2.886  16.995 -0.0778  0.0297  0.2435
 1544SOL    HW116094   1.076   2.868  16.962  0.4912  0.4270 -1.4791
 1544SOL    HW216095   1.185   2.957  16.933  0.0527 -1.3856 -1.3403
 1545SOL     OW16096   2.253   2.187  16.654 -0.1782 -0.1980  0.3277
 1545SOL    HW116097   2.256   2.243  16.576  0.3910  0.9185  1.1422
 1545SOL    HW216098   2.344   2.159  16.653  0.6916  2.6487 -0.1748
 1546SOL     OW16099   0.804   2.309   4.052 -0.0002 -0.3501  0.1584
 1546SOL    HW116100   0.799   2.351   4.138 -1.9016 -1.8980  0.8021
 1546SOL    HW216101   0.898   2.298   4.041  0.2746 -1.0309  3.0124
 1547SOL     OW16102   4.082   2.535   5.173  0.0010  0.2543  0.5386
 1547SOL    HW116103   4.013   2.478   5.208 -1.1411  0.5709 -1.2275
 1547SOL    HW216104   4.159   2.497   5.216  0.6342  1.1302  0.1529
 1548SOL     OW16105   1.150   1.827   7.221  0.4230 -0.1820 -0.8549
 1548SOL    HW116106   1.166   1.913   7.261 -2.0654  0.0948 -0.4211
 1548SOL    HW216107   1.231   1.826   7.170 -0.7660  1.1310 -2.7694
 1549SOL     OW16108   4.106   3.827   2.757  0.6091 -0.9646 -0.2006
 1549SOL    HW116109   4.033   3.828   2.695 -0.0298 -0.2251  0.5664
 1549SOL    HW216110   4.172   3.881   2.714 -1.0616  1.1496 -0.0906
 1550SOL     OW16111   3.465   4.064  11.097 -0.1883  0.2625  0.0778
 1550SOL    HW116112   3.382   4.037  11.057 -0.1169 -0.3474  0.3433
 1550SOL    HW216113   3.497   4.123  11.028  0.8737 -1.6929 -1.1216
 1551SOL     OW16114   0.579   3.000   3.467  0.0603  0.1525 -0.3696
 1551SOL    HW116115   0.498   2.987   3.418  0.3109 -1.7076 -0.3180
 1551SOL    HW216116   0.567   3.094   3.481 -2.0382 -0.1970  0.2236
 1552SOL     OW16117   3.352   2.016   8.838  0.2976  0.0767 -0.5320
 1552SOL    HW116118   3.313   2.091   8.883  1.0962  1.3762 -2.0043
 1552SOL    HW216119   3.293   1.952   8.876  0.1506 -0.4986 -1.7411
 1553SOL     OW16120   1.101   1.090   4.825  0.6062 -0.2991  0.6515
 1553SOL    HW116121   1.075   1.015   4.771 -1.4801 -0.3268  1.7099
 1553SOL    HW216122   1.078   1.172   4.782 -1.1723 -1.4111 -0.4865
 1554SOL     OW16123   4.153   1.907   0.362 -0.3459  0.4907  0.1361
 1554SOL    HW116124   4.092   1.938   0.429 -1.0974  1.2034 -0.8763
 1554SOL    HW216125   4.212   1.982   0.353  2.7615 -2.0573 -0.6704
 1555SOL     OW16126   1.340   1.716  10.589  0.0835 -0.1205  0.1473
 1555SOL    HW116127   1.272   1.687  10.529 -1.1473  0.2214  1.3652
 1555SOL    HW216128   1.371   1.796  10.547  0.3304 -0.1839  0.2090
 1556SOL     OW16129   2.032   1.333   4.304  0.4093 -0.1478 -0.1871
 1556SOL    HW116130   2.016   1.417   4.260 -2.9266 -0.7239 -0.0421
 1556SOL    HW216131   2.025   1.374   4.390 -0.1441  0.3504 -0.4708
 1557SOL     OW16132   0.849   2.819   7.702 -0.5697  0.3230  0.3760
 1557SOL    HW116133   0.896   2.736   7.710  1.2006  1.1671 -1.3759
 1557SOL    HW216134   0.904   2.862   7.637  1.2830  1.9744  3.0391
 1558SOL     OW16135   1.078   3.226   2.202  0.4324  0.0642 -0.3515
 1558SOL    HW116136   1.003   3.207   2.146 -0.5156 -0.9732  1.2587
 1558SOL    HW216137   1.087   3.154   2.265  2.8401  0.1262 -0.6342
 1559SOL     OW16138   3.634   4.509  10.226  0.3917  0.1283 -0.3098
 1559SOL    HW116139   3.688   4.439  10.188  1.8793  0.6051  0.8999
 1559SOL    HW216140   3.677   4.522  10.311 -0.5424  3.5452 -0.3697
 1560SOL     OW16141   0.461   4.359   3.975  0.3550  0.1784  0.7407
 1560SOL    HW116142   0.497   4.430   4.027  2.7752 -1.9128  1.9726
 1560SOL    HW216143   0.485   4.282   4.028  0.0135 -0.1026  0.4852
 1561SOL     OW16144   3.991   1.309   7.940 -0.8471  0.4003  0.3045
 1561SOL    HW116145   3.904   1.281   7.911 -1.2200 -0.2231  2.0151
 1561SOL    HW216146   3.990   1.401   7.965  1.1392  0.2552  0.8607
 1562SOL     OW16147   2.431   1.577   6.143 -0.0513 -0.3145  0.5661
 1562SOL    HW116148   2.433   1.673   6.141  0.7963 -0.3597 -0.9806
 1562SOL    HW216149   2.501   1.571   6.207  1.4985 -1.0880 -1.1974
 1563SOL     OW16150   2.240   2.355  11.842 -0.5113 -0.2945 -0.1990
 1563SOL    HW116151   2.226   2.355  11.747 -1.7130  2.2462 -0.0220
 1563SOL    HW216152   2.275   2.267  11.854 -2.7047 -1.3347 -1.4424
 1564SOL     OW16153   1.656   4.612   5.628 -0.2888 -0.5296  0.2736
 1564SOL    HW116154   1.667   4.706   5.611 -0.7500 -0.5390 -0.1082
 1564SOL    HW216155   1.586   4.586   5.567  0.5230 -2.2199  0.0661
 1565SOL     OW16156   2.928   4.018   2.176  0.1721  0.1367 -0.2220
 1565SOL    HW116157   2.885   4.036   2.092  1.8598  1.8265 -0.7274
 1565SOL    HW216158   2.957   4.102   2.211  0.2337  0.3604 -0.7954
 1566SOL     OW16159   4.433   0.696   1.635  0.3279  0.3490 -0.2681
 1566SOL    HW116160   4.520   0.729   1.659  0.5093  0.2819 -0.8209
 1566SOL    HW216161   4.384   0.778   1.635  0.1281  0.2186  0.9201
 1567SOL     OW16162   2.264   0.809  17.578  0.0533  0.1706 -0.2687
 1567SOL    HW116163   2.189   0.750  17.578 -0.6591  1.0919  1.3583
 1567SOL    HW216164   2.211   0.888  17.573  0.9208  0.8058  0.3645
 1568SOL     OW16165   0.877   4.438   4.545 -0.1649  0.1913  0.0411
 1568SOL    HW116166   0.796   4.482   4.521  0.3119  0.6101 -0.7920
 1568SOL    HW216167   0.852   4.363   4.599  0.4494  0.2746  0.4449
 1569SOL     OW16168   2.037   3.712   0.848  0.0037  0.0863  0.2594
 1569SOL    HW116169   2.030   3.793   0.798 -0.1463 -1.2391 -1.8715
 1569SOL    HW216170   2.123   3.724   0.889  0.0843 -1.4220  0.5461
 1570SOL     OW16171   1.365   2.370  11.937  0.1654 -0.5610 -0.3334
 1570SOL    HW116172   1.415   2.352  12.017 -2.4889  0.8331  1.6659
 1570SOL    HW216173   1.385   2.463  11.943 -1.2094 -0.3979  1.8225
 1571SOL     OW16174   0.913   4.259   3.493  0.0301  0.3317 -0.9211
 1571SOL    HW116175   0.895   4.216   3.577 -3.3776 -0.1466 -1.8612
 1571SOL    HW216176   0.991   4.301   3.527 -1.1963  1.1796  0.8258
 1572SOL     OW16177   4.454   1.291   3.622  0.1388 -0.4144  1.1820
 1572SOL    HW116178   4.482   1.369   3.575 -0.1987  0.2307  2.0614
 1572SOL    HW216179   4.538   1.244   3.628  1.1028  1.1036 -0.4301
 1573SOL     OW16180   3.698   4.709   6.237  0.0445  0.6845  0.1683
 1573SOL    HW116181   3.645   4.632   6.215  0.1362 -0.3338  3.4138
 1573SOL    HW216182   3.652   0.057   6.196  0.3337  0.3228 -0.7958
 1574SOL     OW16183   2.629   1.123  16.565  0.6922 -0.0616 -0.2651
 1574SOL    HW116184   2.664   1.053  16.510 -0.6627  1.4547 -3.0632
 1574SOL    HW216185   2.543   1.133  16.523  0.5448  0.1849  0.0968
 1575SOL     OW16186   4.305   3.492   5.886  0.2010  0.5591 -0.1476
 1575SOL    HW116187   4.252   3.571   5.887  2.3385  1.9591  1.3432
 1575SOL    HW216188   4.354   3.505   5.804 -0.3138  0.1069 -0.5310
 1576SOL     OW16189   1.487   1.704   7.370  0.1580  0.1700 -0.2785
 1576SOL    HW116190   1.526   1.749   7.295 -0.2906  0.7291 -0.1809
 1576SOL    HW216191   1.572   1.684   7.410 -0.8205 -3.3225  0.0689
 1577SOL     OW16192   2.583   2.415   4.967  0.0382 -0.0754 -0.4794
 1577SOL    HW116193   2.499   2.369   4.973  0.4175 -0.3624  2.4785
 1577SOL    HW216194   2.579   2.450   5.056 -1.4323 -0.3612 -0.4326
 1578SOL     OW16195   2.797   0.101   4.408  0.3856 -0.2253 -0.1127
 1578SOL    HW116196   2.873   0.042   4.405 -0.3457 -1.2317  0.8136
 1578SOL    HW216197   2.728   0.039   4.385 -0.6993  0.8471  0.2718
 1579SOL     OW16198   4.223   3.723   2.223  0.5118  0.2013 -0.3446
 1579SOL    HW116199   4.317   3.714   2.237  0.3855 -2.7314 -1.3743
 1579SOL    HW216200   4.214   3.816   2.243 -0.8894 -0.4176  1.9304
 1580SOL     OW16201   0.511   2.944   8.408  0.2171 -0.5325 -0.1846
 1580SOL    HW116202   0.521   2.897   8.325  0.3123  0.2351 -0.6160
 1580SOL    HW216203   0.502   3.035   8.380 -0.5359  0.1659  2.3212
 1581SOL     OW16204   2.540   2.493   2.198 -0.4559 -0.4643  0.0988
 1581SOL    HW116205   2.602   2.494   2.125 -0.7811 -0.0311 -0.1744
 1581SOL    HW216206   2.469   2.555   2.178  1.4004  1.4287 -0.5573
 1582SOL     OW16207   3.349   1.273   9.806  0.4603 -0.3074 -0.0494
 1582SOL    HW116208   3.310   1.360   9.797 -1.5869 -0.9347  2.3709
 1582SOL    HW216209   3.442   1.295   9.805 -0.1223  2.0415 -3.6583
 1583SOL     OW16210   1.347   1.012   1.267  0.1986 -0.1487  0.0397
 1583SOL    HW116211   1.304   0.994   1.184 -1.8826  1.1435  0.8359
 1583SOL    HW216212   1.441   1.009   1.246  0.2096  2.4783 -0.2432
 1584SOL     OW16213   4.335   3.593   5.641  0.1131  0.6343 -0.5242
 1584SOL    HW116214   4.285   3.552   5.571 -0.5080  0.6839 -0.1098
 1584SOL    HW216215   4.306   3.684   5.636 -0.9553  0.3000 -0.3155
 1585SOL     OW16216   1.688   2.781   3.080 -0.0677  0.0580  0.7663
 1585SOL    HW116217   1.652   2.733   3.005 -0.1348  0.0050  0.8321
 1585SOL    HW216218   1.681   2.869   3.044  3.2555 -0.8976 -2.1772
 1586SOL     OW16219   2.460   2.466   5.232 -0.2002  0.1893 -0.5635
 1586SOL    HW116220   2.502   2.517   5.302  2.6816 -3.2194  0.2113
 1586SOL    HW216221   2.418   2.535   5.181 -1.0714  0.0172 -0.0924
 1587SOL     OW16222   2.557   0.418   8.795  0.3327 -0.4853  0.1203
 1587SOL    HW116223   2.602   0.411   8.879 -1.2386 -1.1368  0.8939
 1587SOL    HW216224   2.619   0.365   8.744  0.8341  1.2357 -1.0622
 1588SOL     OW16225   2.510   1.393  15.144  0.0523 -0.2283  0.1958
 1588SOL    HW116226   2.496   1.386  15.049 -0.8419 -2.8420  0.5276
 1588SOL    HW216227   2.427   1.434  15.170 -1.0567 -2.2259 -0.1784
 1589SOL     OW16228   1.261   3.926   9.862 -0.0517  0.0353 -0.3017
 1589SOL    HW116229   1.170   3.939   9.837  0.4778  0.2873 -2.1163
 1589SOL    HW216230   1.280   3.834   9.846 -1.3852 -0.7143  2.5473
 1590SOL     OW16231   0.605   0.733   6.154 -0.2185 -0.8895  0.0347
 1590SOL    HW116232   0.607   0.816   6.106 -1.3168  0.1589  1.7768
 1590SOL    HW216233   0.540   0.673   6.117 -2.7996  2.5896 -1.0923
 1591SOL     OW16234   1.060   4.511   7.286  0.1097 -0.6214 -0.0492
 1591SOL    HW116235   0.970   4.520   7.256  0.0072  0.5062  0.5878
 1591SOL    HW216236   1.107   4.544   7.209 -0.4375  1.5696  0.5615
 1592SOL     OW16237   3.037   0.735   2.348  0.4123 -0.2357 -0.6556
 1592SOL    HW116238   3.043   0.640   2.336  0.5518 -0.2457 -0.5120
 1592SOL    HW216239   3.009   0.756   2.259 -0.3226 -0.6413 -0.5248
 1593SOL     OW16240   4.502   2.636  12.438  0.4891  0.2783 -0.0675
 1593SOL    HW116241   4.518   2.646  12.532 -0.5813 -1.2422  0.2736
 1593SOL    HW216242   4.472   2.725  12.417 -1.7085 -0.4189  0.0443
 1594SOL     OW16243   2.692   0.865   4.300 -0.0983  0.3635  0.0207
 1594SOL    HW116244   2.654   0.777   4.300  1.2962 -0.2250  0.6138
 1594SOL    HW216245   2.765   0.859   4.239  0.9754  0.9338  1.2502
 1595SOL     OW16246   4.588   2.346   9.393 -0.1945  0.1095  0.1701
 1595SOL    HW116247   4.657   2.386   9.445  0.7228 -2.9453  1.3313
 1595SOL    HW216248   4.614   2.378   9.307 -0.3449  0.6691  0.3368
 1596SOL     OW16249   2.120   1.020   7.911  0.2814  0.1729  0.2225
 1596SOL    HW116250   2.202   1.020   7.861  0.1090  1.3917 -0.0651
 1596SOL    HW216251   2.136   1.095   7.968 -2.4590  1.8622 -1.2301
 1597SOL     OW16252   0.978   1.530   2.596 -0.2442  0.1289  0.0789
 1597SOL    HW116253   1.045   1.578   2.644  1.0278 -1.6771  0.0995
 1597SOL    HW216254   1.028   1.503   2.520 -1.4187  1.0337 -1.0073
 1598SOL     OW16255   3.964   4.616  17.428  0.3815 -0.0929 -0.0694
 1598SOL    HW116256   4.013   4.537  17.449  1.1163  0.3476 -0.1505
 1598SOL    HW216257   3.930   4.632  17.516 -2.4628  0.5774 -1.2862
 1599SOL     OW16258   1.419   2.047  16.010 -0.1263 -0.4027  0.5757
 1599SOL    HW116259   1.507   2.009  16.013 -0.4642 -1.1564  0.9105
 1599SOL    HW216260   1.408   2.032  16.104 -0.8337 -2.4228  0.1696
 1600SOL     OW16261   0.205   1.680   9.151  0.4404 -0.3111 -0.2630
 1600SOL    HW116262   0.192   1.724   9.067  0.2919  1.7648  0.8510
 1600SOL    HW216263   0.157   1.598   9.139  0.2202 -0.3872  1.0943
 1601SOL     OW16264   4.569   4.252   7.782 -0.0370  1.0449 -0.4200
 1601SOL    HW116265   4.590   4.304   7.859  2.2602 -0.9812  0.3320
 1601SOL    HW216266   4.611   4.302   7.712  0.5989  0.0739 -0.7415
 1602SOL     OW16267   3.464   0.170   6.737  0.4872 -0.1759 -0.3891
 1602SOL    HW116268   3.428   0.258   6.727  0.5809 -0.1404 -0.4134
 1602SOL    HW216269   3.538   0.178   6.797  0.7732  2.4473 -1.1218
 1603SOL     OW16270   4.238   0.614   7.428  0.5321  0.0954  0.7366
 1603SOL    HW116271   4.285   0.677   7.481  1.5762  0.1396 -0.2393
 1603SOL    HW216272   4.195   0.554   7.489 -0.7658  1.6744  1.3881
 1604SOL     OW16273   3.537   1.313   5.334  0.0392  0.1284 -0.1129
 1604SOL    HW116274   3.580   1.349   5.256  3.6810  1.1335  2.3587
 1604SOL    HW216275   3.569   1.223   5.323  1.1110  0.2155  2.3142
 1605SOL     OW16276   3.627   2.305   9.134  0.0364  0.0020  0.2239
 1605SOL    HW116277   3.607   2.284   9.225  2.3954 -0.1807  0.6953
 1605SOL    HW216278   3.547   2.347   9.101 -0.3925  0.0645  1.3641
 1606SOL     OW16279   2.053   3.851   6.495 -0.0119  0.2978  0.2812
 1606SOL    HW116280   1.977   3.883   6.545 -1.0257  0.5259 -1.4128
 1606SOL    HW216281   2.093   3.792   6.559  0.7451 -0.1663 -0.6358
 1607SOL     OW16282   0.375   2.220  15.253  0.6615  0.0588  0.5366
 1607SOL    HW116283   0.469   2.205  15.263  1.0349  0.3111 -2.4765
 1607SOL    HW216284   0.340   2.143  15.299  1.9705 -1.1438 -0.4714
 1608SOL     OW16285   2.412   1.205   1.987 -0.0503 -0.6675  0.1477
 1608SOL    HW116286   2.339   1.176   1.933  0.9734  1.8060 -2.5713
 1608SOL    HW216287   2.381   1.280   2.036 -1.2849 -0.5814 -0.7788
 1609SOL     OW16288   0.589   3.987   7.931  0.3056  0.0640  0.4593
 1609SOL    HW116289   0.572   4.081   7.929 -2.1427 -0.4187 -1.3845
 1609SOL    HW216290   0.506   3.950   7.962  1.3217 -1.3413  1.4766
 1610SOL     OW16291   1.728   2.095  13.698 -0.1821  0.0959 -0.1962
 1610SOL    HW116292   1.771   2.129  13.619 -0.7280 -1.1364 -1.0181
 1610SOL    HW216293   1.650   2.051  13.665  0.2642 -0.5735 -0.3672
 1611SOL     OW16294   3.836   2.501   8.229 -0.0860 -0.7583  0.0889
 1611SOL    HW116295   3.898   2.528   8.297  0.2231  4.5163 -2.2770
 1611SOL    HW216296   3.872   2.534   8.147  0.1287 -1.3866 -0.0705
 1612SOL     OW16297   1.466   1.583   3.296  0.8667  0.4591  0.3577
 1612SOL    HW116298   1.397   1.555   3.356 -0.8181 -0.7703 -2.1419
 1612SOL    HW216299   1.527   1.509   3.302  1.5121  1.1859  2.5565
 1613SOL     OW16300   4.158   2.654   8.214  0.3535 -0.1117  0.3774
 1613SOL    HW116301   4.125   2.609   8.292  2.4480 -0.6418  0.9577
 1613SOL    HW216302   4.167   2.743   8.249 -0.5711  0.9785 -2.1753
 1614SOL     OW16303   1.043   2.923   4.897  0.1221  0.3681  0.1917
 1614SOL    HW116304   0.954   2.949   4.921  0.4638  0.8852  0.9077
 1614SOL    HW216305   1.033   2.882   4.811  1.7161  0.8125 -0.2097
 1615SOL     OW16306   0.298   2.058  11.906 -0.1048 -0.5217  0.1056
 1615SOL    HW116307   0.374   2.105  11.873  1.0062 -2.1384  0.3515
 1615SOL    HW216308   0.230   2.081  11.843 -1.0353  0.6589  1.5529
 1616SOL     OW16309   0.009   3.053   3.779  0.0631 -0.3747  0.0106
 1616SOL    HW116310   0.083   3.063   3.719 -0.5035 -1.6858 -0.9195
 1616SOL    HW216311   4.655   3.074   3.728  1.1438 -1.9578 -2.3018
 1617SOL     OW16312   3.138   1.680   6.288 -0.3321  0.5862  0.7642
 1617SOL    HW116313   3.153   1.718   6.375 -1.7257  2.1899  0.3109
 1617SOL    HW216314   3.173   1.746   6.228 -1.1960  1.1294  0.8548
 1618SOL     OW16315   4.418   1.223   8.843 -0.1737 -0.1379 -0.1484
 1618SOL    HW116316   4.494   1.266   8.882 -1.2775 -0.1181  2.0005
 1618SOL    HW216317   4.400   1.152   8.905 -0.6836  0.7066  0.6596
 1619SOL     OW16318   2.890   2.869   4.107  0.4956 -0.1003 -0.1397
 1619SOL    HW116319   2.904   2.781   4.072  1.7549  0.2222 -0.4465
 1619SOL    HW216320   2.929   2.864   4.195  1.9011 -1.7384 -0.8460
 1620SOL     OW16321   4.267   1.583   3.111 -0.0380  0.0478 -0.4930
 1620SOL    HW116322   4.179   1.598   3.076 -0.7076 -0.5146  0.9551
 1620SOL    HW216323   4.287   1.663   3.160 -2.1402  0.6317 -0.5628
 1621SOL     OW16324   2.883   1.249   2.747 -0.3442  0.3295  0.1795
 1621SOL    HW116325   2.929   1.255   2.830 -1.2783 -0.8119  0.7743
 1621SOL    HW216326   2.797   1.281   2.773 -0.4886  1.0104 -1.1397
 1622SOL     OW16327   4.205   1.577   8.041 -0.0806 -0.0329 -0.6404
 1622SOL    HW116328   4.112   1.567   8.020  0.4122  0.1817 -2.8542
 1622SOL    HW216329   4.206   1.504   8.103 -0.2005  0.3315 -0.2128
 1623SOL     OW16330   0.939   0.901  17.101  0.2009  0.0951 -0.4336
 1623SOL    HW116331   0.881   0.827  17.118  0.0913 -0.2845 -2.4742
 1623SOL    HW216332   1.005   0.857  17.048  0.4107 -1.2340  0.9201
 1624SOL     OW16333   4.358   1.833  15.590  0.3403  0.0678  0.1437
 1624SOL    HW116334   4.367   1.927  15.604 -0.8532  0.7595 -3.5041
 1624SOL    HW216335   4.402   1.820  15.506 -0.4039 -1.8067  0.0453
 1625SOL     OW16336   2.879   2.066   7.218 -0.1036  0.4210 -0.3425
 1625SOL    HW116337   2.865   2.010   7.142 -1.4080  0.8250 -0.4024
 1625SOL    HW216338   2.970   2.042   7.234 -1.2201 -3.9145 -0.4267
 1626SOL     OW16339   3.940   1.025   1.516 -0.0055 -0.0860  0.3623
 1626SOL    HW116340   3.962   1.013   1.424  0.4672  3.3454  0.0407
 1626SOL    HW216341   3.928   1.120   1.523 -0.1904  0.0839 -2.5724
 1627SOL     OW16342   3.018   3.101   5.705 -0.5470  0.0645  0.2671
 1627SOL    HW116343   2.970   3.152   5.640 -2.0676 -0.3420  1.0746
 1627SOL    HW216344   3.100   3.150   5.697  0.0428 -0.9602 -0.0421
 1628SOL     OW16345   2.314   2.630   6.762  0.4978 -0.3688  0.2803
 1628SOL    HW116346   2.263   2.601   6.838 -1.1213  0.4565 -0.4954
 1628SOL    HW216347   2.345   2.554   6.714  1.3726 -0.3436  0.8028
 1629SOL     OW16348   2.816   4.341   2.583  0.9343  0.6515 -0.0875
 1629SOL    HW116349   2.911   4.351   2.582  1.1025 -0.9905  0.0488
 1629SOL    HW216350   2.807   4.317   2.675 -0.2898  0.8798 -0.1460
 1630SOL     OW16351   1.329   0.640   8.838  0.6388 -0.1244  0.8958
 1630SOL    HW116352   1.244   0.609   8.868  0.2256  0.8601  0.7448
 1630SOL    HW216353   1.382   0.597   8.905  1.4483 -1.1725 -0.4140
 1631SOL     OW16354   1.678   2.434   8.636  0.5263  0.5373 -0.0264
 1631SOL    HW116355   1.649   2.375   8.567 -0.6795 -0.0815  1.0039
 1631SOL    HW216356   1.727   2.377   8.695 -1.0327 -0.0877  0.6684
 1632SOL     OW16357   1.609   4.530   4.588  0.1872  0.4547  0.2286
 1632SOL    HW116358   1.609   4.614   4.541  1.4980 -0.3519 -1.1846
 1632SOL    HW216359   1.521   4.535   4.626 -0.3232  0.4893 -0.9348
 1633SOL     OW16360   3.902   1.536  12.595 -0.1890  0.5612  0.0516
 1633SOL    HW116361   3.876   1.627  12.583  0.6012  0.9336  1.1416
 1633SOL    HW216362   3.822   1.485  12.586  0.7037 -1.2640  2.3571
 1634SOL     OW16363   3.888   0.086   9.363 -0.3433 -0.1630  0.4441
 1634SOL    HW116364   3.913   0.050   9.278  0.8768 -0.9989  1.1607
 1634SOL    HW216365   3.938   0.035   9.426  0.1804 -1.9789 -1.4520
 1635SOL     OW16366   1.141   3.988  13.126  0.1029 -0.5503 -0.0777
 1635SOL    HW116367   1.220   3.935  13.116  0.4417 -0.6340  2.9644
 1635SOL    HW216368   1.105   3.956  13.209  0.9198 -1.4673 -0.0724
 1636SOL     OW16369   1.628   0.521   5.688  0.3604  0.1204 -0.1751
 1636SOL    HW116370   1.648   0.564   5.771  2.0981  0.0498 -0.5518
 1636SOL    HW216371   1.540   0.487   5.702  1.1887 -1.6570  0.7471
 1637SOL     OW16372   0.879   3.633   6.306  0.1517 -0.0722 -0.0329
 1637SOL    HW116373   0.852   3.706   6.251 -0.7054 -1.0692 -0.9194
 1637SOL    HW216374   0.973   3.641   6.289  0.2103  0.4860  0.5887
 1638SOL     OW16375   0.621   2.538   5.328  0.2097 -1.0597 -0.4830
 1638SOL    HW116376   0.652   2.574   5.411  1.7415  1.5502 -2.1872
 1638SOL    HW216377   0.618   2.619   5.277 -0.4281 -0.6595  0.1894
 1639SOL     OW16378   4.028   1.231   4.445 -0.4521  0.2758 -0.1266
 1639SOL    HW116379   4.076   1.311   4.469  0.5497 -0.4920  0.4523
 1639SOL    HW216380   3.940   1.267   4.435 -1.7416 -2.9343 -0.0846
 1640SOL     OW16381   0.908   3.680   3.376 -0.1764 -0.2116 -0.1763
 1640SOL    HW116382   0.895   3.639   3.290  1.9941 -0.4151 -0.3993
 1640SOL    HW216383   0.895   3.606   3.435 -2.3994 -1.2865 -2.0013
 1641SOL     OW16384   4.427   2.956   0.702 -0.1528  0.0756 -0.1999
 1641SOL    HW116385   4.453   2.905   0.625  0.7087 -1.1767  0.9251
 1641SOL    HW216386   4.332   2.949   0.707 -0.1396 -0.2567 -0.4147
 1642SOL     OW16387   3.103   1.679  13.862 -0.2075 -0.1546 -0.1301
 1642SOL    HW116388   3.088   1.676  13.957  1.7230  1.5063  0.2207
 1642SOL    HW216389   3.014   1.673  13.826 -0.3494  0.2019  0.1626
 1643SOL     OW16390   2.168   1.542   1.645  0.2967 -0.0059  0.0895
 1643SOL    HW116391   2.105   1.531   1.574  0.2927  0.0115  0.0905
 1643SOL    HW216392   2.219   1.616   1.613 -0.2798  1.5910  2.9153
 1644SOL     OW16393   3.766   3.736   6.489 -0.6573 -0.4371 -0.2144
 1644SOL    HW116394   3.798   3.647   6.503  0.9221  0.1402 -0.1644
 1644SOL    HW216395   3.811   3.782   6.560 -0.8290  0.2450 -0.5445
 1645SOL     OW16396   2.964   0.200   6.128 -0.4066 -0.5861 -0.2056
 1645SOL    HW116397   2.982   0.146   6.205  0.5527 -0.8136 -0.5900
 1645SOL    HW216398   3.000   0.287   6.147  0.4244 -0.6198 -1.6705
 1646SOL     OW16399   2.380   2.740   7.364 -0.3076 -0.7575 -0.3250
 1646SOL    HW116400   2.417   2.673   7.306  0.4972 -0.9097  0.3563
 1646SOL    HW216401   2.430   2.820   7.350 -1.0892 -0.1641  0.2962
 1647SOL     OW16402   1.495   2.502   6.810  0.0853 -0.0536 -0.1021
 1647SOL    HW116403   1.465   2.469   6.895 -1.3211  1.8611  0.1523
 1647SOL    HW216404   1.579   2.538   6.836  0.2653 -0.8605  0.4448
 1648SOL     OW16405   3.765   0.424   1.684  0.2426 -0.3330 -0.3786
 1648SOL    HW116406   3.831   0.447   1.618  1.0929  1.3417  1.0788
 1648SOL    HW216407   3.758   0.329   1.676  0.7098 -0.4834  0.9953
 1649SOL     OW16408   3.829   0.119  12.191 -0.1339 -0.1841  0.1418
 1649SOL    HW116409   3.808   0.183  12.123  2.9535  0.8177  0.1066
 1649SOL    HW216410   3.922   0.103  12.177 -0.3167 -0.7848 -0.3827
 1650SOL     OW16411   3.722   1.837  15.193  0.3063 -0.1806  0.5098
 1650SOL    HW116412   3.734   1.930  15.176 -1.6809 -0.0892 -0.3677
 1650SOL    HW216413   3.635   1.828  15.153 -0.3057  0.4302  1.6892
 1651SOL     OW16414   2.948   2.364  10.006  0.3183  0.5165 -0.2760
 1651SOL    HW116415   3.043   2.364  10.017  0.4005  0.4783 -1.0012
 1651SOL    HW216416   2.916   2.452   9.988  0.7622  0.7892  0.2783
 1652SOL     OW16417   3.313   2.548   3.228 -0.1807  0.6384  0.3164
 1652SOL    HW116418   3.236   2.588   3.269  0.6407  2.5878 -0.0188
 1652SOL    HW216419   3.317   2.605   3.151  4.1520  1.1280  0.8962
 1653SOL     OW16420   0.393   3.672   2.815  0.1990 -0.0215  0.1347
 1653SOL    HW116421   0.402   3.691   2.722 -0.6091 -0.6410 -0.0726
 1653SOL    HW216422   0.304   3.638   2.825  0.4722 -1.0263 -0.8461
 1654SOL     OW16423   0.902   4.308  14.450  0.2670  0.0466 -0.3496
 1654SOL    HW116424   0.950   4.378  14.494 -0.2371  0.1559  0.0188
 1654SOL    HW216425   0.964   4.292  14.378  2.7598 -0.2787  1.8909
 1655SOL     OW16426   2.451   2.072   5.560 -0.5992  0.3930 -0.3439
 1655SOL    HW116427   2.482   1.988   5.525 -2.0112 -1.0588  1.8062
 1655SOL    HW216428   2.410   2.113   5.485 -0.2323 -0.5730 -1.0728
 1656SOL     OW16429   0.184   4.640   8.717 -0.0857  0.3095 -0.3163
 1656SOL    HW116430   0.258   4.681   8.762 -0.8048  0.3092  0.8905
 1656SOL    HW216431   0.124   4.713   8.701  1.5931  1.6717 -0.3747
 1657SOL     OW16432   4.150   4.001   7.572 -1.1466 -0.1962 -0.3852
 1657SOL    HW116433   4.105   4.086   7.574  0.9447  0.8837  1.3843
 1657SOL    HW216434   4.241   4.029   7.586 -1.2076 -0.1967  0.0128
 1658SOL     OW16435   3.927   4.664  15.392  0.4899 -0.7585  0.2794
 1658SOL    HW116436   3.932   4.578  15.434 -0.0709  0.6638  3.2273
 1658SOL    HW216437   3.995   4.648  15.326  1.7434 -1.9628  1.8681
 1659SOL     OW16438   2.143   3.837   8.569 -0.0613  0.2157 -0.3444
 1659SOL    HW116439   2.165   3.747   8.594 -0.0262 -0.2063 -1.8881
 1659SOL    HW216440   2.058   3.838   8.612 -0.2942 -1.2333 -0.7634
 1660SOL     OW16441   1.133   3.674   2.231 -0.3871  0.0551 -0.0903
 1660SOL    HW116442   1.055   3.722   2.201 -0.8696 -0.1317  0.8881
 1660SOL    HW216443   1.130   3.706   2.321 -0.2513  0.3930 -0.2057
 1661SOL     OW16444   3.523   0.420  15.088 -0.5782 -0.2885 -0.0327
 1661SOL    HW116445   3.452   0.480  15.065 -0.3355  0.5195  1.3214
 1661SOL    HW216446   3.553   0.392  15.001 -1.1287  1.8396 -0.9158
 1662SOL     OW16447   2.545   3.011   7.845 -0.2634  0.5982  0.4126
 1662SOL    HW116448   2.528   2.927   7.802 -0.6416  0.3948  0.9635
 1662SOL    HW216449   2.595   3.057   7.777  2.9861 -0.7572  1.9050
 1663SOL     OW16450   3.047   3.990  11.175 -0.0390  0.0993  0.0409
 1663SOL    HW116451   3.123   3.932  11.165 -0.4635 -0.3566 -0.5579
 1663SOL    HW216452   3.007   3.974  11.260 -2.2029  1.6688 -0.6798
 1664SOL     OW16453   0.104   1.266   1.540  0.1913  0.4603  0.2091
 1664SOL    HW116454   0.064   1.212   1.472 -1.9902  2.0680  0.2205
 1664SOL    HW216455   0.186   1.302   1.505 -0.8279  3.2899  0.7531
 1665SOL     OW16456   0.787   2.476   7.046  0.1561 -0.5647 -0.2829
 1665SOL    HW116457   0.733   2.527   7.105 -0.0827 -2.1633  0.8890
 1665SOL    HW216458   0.722   2.476   6.976 -1.2993 -0.2985  1.0857
 1666SOL     OW16459   2.230   4.311  10.452  0.1294 -0.0905  0.6157
 1666SOL    HW116460   2.207   4.230  10.497 -1.8968  0.3698  0.4089
 1666SOL    HW216461   2.210   4.371  10.524  2.0936 -1.5387  2.3966
 1667SOL     OW16462   3.562   4.550   3.680 -0.1575 -1.0016 -0.5314
 1667SOL    HW116463   3.638   4.570   3.625 -2.0809 -1.9723 -3.5479
 1667SOL    HW216464   3.508   4.627   3.666 -0.9378 -1.5484 -0.5646
 1668SOL     OW16465   2.200   0.159   4.816 -0.0250 -0.2914 -0.7142
 1668SOL    HW116466   2.273   0.215   4.845 -1.3437  1.6099 -1.0486
 1668SOL    HW216467   2.121   0.211   4.830  1.1653  0.6182  2.4377
 1669SOL     OW16468   3.381   2.801  13.802  0.2660 -0.0350  0.0694
 1669SOL    HW116469   3.367   2.806  13.707 -1.2892  0.9127  0.3429
 1669SOL    HW216470   3.471   2.770  13.799  0.3432 -0.1300  3.4271
 1670SOL     OW16471   2.484   0.949   4.146 -0.6606 -0.2817  0.4977
 1670SOL    HW116472   2.555   0.985   4.093 -1.9440  0.5120 -0.7046
 1670SOL    HW216473   2.508   0.988   4.230  1.6255 -0.5344 -0.0368
 1671SOL     OW16474   4.435   4.085  17.103 -0.2708 -0.0821  0.1638
 1671SOL    HW116475   4.416   3.993  17.085 -1.0847  0.1906 -0.3660
 1671SOL    HW216476   4.530   4.089  17.117 -0.2008 -0.3063 -0.2520
 1672SOL     OW16477   1.301   1.930   6.251  0.3660 -0.6470 -0.1380
 1672SOL    HW116478   1.251   1.854   6.280 -1.5595  0.7660  0.3096
 1672SOL    HW216479   1.317   1.978   6.332 -1.0364  0.4429 -0.5072
 1673SOL     OW16480   0.882   3.186   8.281 -0.1365  0.4879 -0.1923
 1673SOL    HW116481   0.852   3.276   8.292 -1.0552  0.3018 -1.2066
 1673SOL    HW216482   0.809   3.138   8.242  0.7905  2.3712 -4.1406
 1674SOL     OW16483   3.581   1.926   2.509 -0.4376  0.0196 -0.5129
 1674SOL    HW116484   3.520   1.918   2.436  0.3193  1.4206 -1.3074
 1674SOL    HW216485   3.659   1.960   2.465 -0.4201  1.5997  0.7178
 1675SOL     OW16486   0.283   1.474   6.869 -0.7923  0.2536 -0.4043
 1675SOL    HW116487   0.221   1.416   6.914 -1.9892  2.0338  0.2459
 1675SOL    HW216488   0.234   1.492   6.789 -1.6169 -0.8758 -0.1693
 1676SOL     OW16489   2.023   1.008   6.979 -0.3060 -0.0569 -0.1723
 1676SOL    HW116490   2.041   0.989   6.886  0.8953 -0.2326  0.0931
 1676SOL    HW216491   1.943   1.061   6.975  1.5538  2.8181  0.6909
 1677SOL     OW16492   4.120   0.130   5.452 -0.4593  0.2012  0.5055
 1677SOL    HW116493   4.183   0.061   5.474 -0.7107  0.0819  0.8554
 1677SOL    HW216494   4.166   0.165   5.375  2.6233 -3.7052  0.5067
 1678SOL     OW16495   0.403   0.406   7.721  1.0031  0.5688 -0.5588
 1678SOL    HW116496   0.493   0.375   7.726  0.2902 -1.3687  0.0593
 1678SOL    HW216497   0.369   0.345   7.655 -0.6331 -0.2578  1.0420
 1679SOL     OW16498   1.790   3.787   6.030  0.8727  0.1109  0.1783
 1679SOL    HW116499   1.836   3.769   6.113 -0.6911  0.7976  1.1951
 1679SOL    HW216500   1.697   3.774   6.050  0.8843 -1.5730 -0.9629
 1680SOL     OW16501   2.269   3.971   3.228  0.4035  0.3226 -0.2041
 1680SOL    HW116502   2.204   4.031   3.192  0.3313  0.6565  0.4646
 1680SOL    HW216503   2.214   3.926   3.292  0.5967 -0.6972 -0.7624
 1681SOL     OW16504   0.342   2.173  17.227 -0.2760 -0.3080 -0.0912
 1681SOL    HW116505   0.376   2.153  17.314  1.0479  1.0558 -0.2944
 1681SOL    HW216506   0.295   2.092  17.210  0.9700 -1.0134 -0.1468
 1682SOL     OW16507   1.689   0.970   8.338  0.1610  0.3769 -0.0581
 1682SOL    HW116508   1.746   1.045   8.318  1.3581 -0.1245  1.4985
 1682SOL    HW216509   1.637   0.998   8.412  2.2939  0.6383  1.3496
 1683SOL     OW16510   4.424   4.260   2.132 -0.1968  0.1403 -0.2958
 1683SOL    HW116511   4.362   4.312   2.184  0.0886  2.1993 -2.0112
 1683SOL    HW216512   4.359   4.221   2.073 -0.5022  2.5569 -1.5547
 1684SOL     OW16513   2.365   4.094  10.633  0.0275  0.4566 -0.1274
 1684SOL    HW116514   2.270   4.103  10.618  0.4526  1.1999 -2.4482
 1684SOL    HW216515   2.404   4.111  10.547  2.9528 -0.8240  0.9589
 1685SOL     OW16516   2.144   4.086   7.209  0.6014  0.2197  0.1767
 1685SOL    HW116517   2.156   4.166   7.260 -2.1483  1.8841 -1.7403
 1685SOL    HW216518   2.226   4.095   7.160 -1.2006 -1.9726 -3.2656
 1686SOL     OW16519   2.384   1.903   7.920 -0.2997  0.0907  0.3638
 1686SOL    HW116520   2.412   1.947   8.001  1.1039  0.3317 -0.2436
 1686SOL    HW216521   2.300   1.867   7.950  0.0116 -0.6669  0.3338
 1687SOL     OW16522   1.034   4.707  16.048  0.0283  0.0274 -0.3308
 1687SOL    HW116523   0.974   0.051  16.020  1.6494  1.3331 -0.6173
 1687SOL    HW216524   0.976   4.632  16.063 -0.2134  0.2351 -0.2212
 1688SOL     OW16525   3.462   0.859   3.128  0.1057 -0.3302  0.1391
 1688SOL    HW116526   3.423   0.791   3.073  1.1050 -1.5059  0.8951
 1688SOL    HW216527   3.545   0.818   3.153  1.6159  2.3006 -0.5577
 1689SOL     OW16528   2.153   3.226   8.016  0.2162 -0.5219  0.3297
 1689SOL    HW116529   2.174   3.233   8.109  0.2073 -0.7285  0.3481
 1689SOL    HW216530   2.227   3.275   7.981  0.0878  0.0084  0.7987
 1690SOL     OW16531   3.728   3.151   9.500  0.4669  0.4289  0.4295
 1690SOL    HW116532   3.713   3.217   9.431  0.8155  1.3835  1.2588
 1690SOL    HW216533   3.670   3.078   9.480  0.8028  0.1274  0.5666
 1691SOL     OW16534   1.200   4.206  16.568  0.4211  0.8018 -0.1226
 1691SOL    HW116535   1.283   4.221  16.524  0.0094  1.1724 -0.7613
 1691SOL    HW216536   1.229   4.161  16.648  0.9866  1.4928  0.0502
 1692SOL     OW16537   3.134   3.644   6.072  0.1505 -0.1654 -0.2656
 1692SOL    HW116538   3.135   3.581   6.144  1.3487  0.1039 -0.0442
 1692SOL    HW216539   3.133   3.574   6.007  0.3586  1.0326 -1.5547
 1693SOL     OW16540   0.728   2.275  10.239  0.5002  0.1034  1.0614
 1693SOL    HW116541   0.679   2.193  10.239  0.5897  0.0431 -2.5815
 1693SOL    HW216542   0.815   2.251  10.273  1.2775 -1.8556 -2.3347
 1694SOL     OW16543   3.953   1.606   7.761 -0.6777  0.1706 -0.4347
 1694SOL    HW116544   3.882   1.570   7.814 -1.3756  2.4868  0.2149
 1694SOL    HW216545   3.973   1.529   7.708 -0.6908  0.6671 -1.1661
 1695SOL     OW16546   4.330   0.707   7.842 -0.4733 -0.1117 -0.4328
 1695SOL    HW116547   4.270   0.633   7.831  1.0395 -1.5614  0.9296
 1695SOL    HW216548   4.346   0.694   7.936  1.4926  1.7598 -0.5014
 1696SOL     OW16549   3.304   3.392   0.127 -0.5068 -0.4243  0.2185
 1696SOL    HW116550   3.213   3.418   0.142 -0.6885 -0.1662 -1.3537
 1696SOL    HW216551   3.299   3.362   0.036  2.0544  0.1448 -0.0910
 1697SOL     OW16552   2.618   3.012  15.069  0.5650  0.4555  0.4483
 1697SOL    HW116553   2.560   2.944  15.104 -1.2319  0.7463 -1.9478
 1697SOL    HW216554   2.659   3.047  15.148  1.4672  0.3413  0.0227
 1698SOL     OW16555   1.281   4.335   8.214 -0.2638 -0.3503  0.5297
 1698SOL    HW116556   1.283   4.266   8.281  1.4929  0.9522  1.8195
 1698SOL    HW216557   1.188   4.331   8.192 -0.5388  1.4492  1.3593
 1699SOL     OW16558   1.920   4.317   1.736 -0.7056 -0.1209  0.5119
 1699SOL    HW116559   2.005   4.276   1.721  0.0501  1.3148  0.8477
 1699SOL    HW216560   1.856   4.261   1.692 -1.5634  1.1977  0.0841
 1700SOL     OW16561   0.833   3.501  16.453  0.1678  0.1865  0.2674
 1700SOL    HW116562   0.907   3.457  16.495  0.3896 -0.6049 -0.9739
 1700SOL    HW216563   0.792   3.537  16.532  0.7265  0.2070  0.5528
 1701SOL     OW16564   1.621   0.112   3.739 -0.0361  0.1493 -0.0582
 1701SOL    HW116565   1.632   0.204   3.763  0.3333 -0.1709  0.9804
 1701SOL    HW216566   1.707   0.073   3.751  0.5419  1.8736  1.4212
 1702SOL     OW16567   3.848   1.932   7.023 -0.0244 -0.0808 -0.2786
 1702SOL    HW116568   3.760   1.899   7.002  0.3278 -1.0569 -0.2399
 1702SOL    HW216569   3.892   1.848   7.010 -0.5180 -0.3111 -0.4478
 1703SOL     OW16570   1.948   2.780   3.161  0.1755 -0.4952  0.1827
 1703SOL    HW116571   1.992   2.699   3.188  0.8133 -0.0907  0.3645
 1703SOL    HW216572   1.857   2.759   3.142  0.0844 -0.2600  0.3653
 1704SOL     OW16573   0.670   1.518   7.149  0.6425  0.1786  0.3626
 1704SOL    HW116574   0.695   1.573   7.224  0.1587  0.7177  0.1271
 1704SOL    HW216575   0.625   1.569   7.082 -0.8771 -1.1539  0.3923
 1705SOL     OW16576   3.671   3.919   4.054 -0.0429  0.1653 -0.1261
 1705SOL    HW116577   3.725   3.919   4.133 -0.7180 -0.1675  0.3305
 1705SOL    HW216578   3.737   3.891   3.990 -1.1422 -0.5927 -0.9152
 1706SOL     OW16579   0.553   3.417   0.752  0.3247  0.1881 -0.4769
 1706SOL    HW116580   0.559   3.452   0.663 -1.2412  1.5514 -0.0259
 1706SOL    HW216581   0.595   3.488   0.800  0.7532 -1.8079  2.0718
 1707SOL     OW16582   3.026   1.313   8.685  0.1909  0.0110  0.1095
 1707SOL    HW116583   2.954   1.315   8.622  0.0688  1.8059  0.3303
 1707SOL    HW216584   2.988   1.319   8.773 -1.5240 -0.0749 -0.6342
 1708SOL     OW16585   3.975   3.451   3.205 -0.1184 -0.1476 -0.0510
 1708SOL    HW116586   3.887   3.424   3.234 -0.9798  0.5867 -2.0067
 1708SOL    HW216587   3.963   3.538   3.243  1.1128  0.9182 -2.1372
 1709SOL     OW16588   1.648   4.711   9.632  0.1887  0.0329  0.5360
 1709SOL    HW116589   1.699   4.707   9.552  0.9866  1.1327  0.9808
 1709SOL    HW216590   1.698   0.048   9.686  2.4569 -2.4175  1.2009
 1710SOL     OW16591   2.862   2.137   6.312  0.4598  0.1668 -0.1488
 1710SOL    HW116592   2.875   2.149   6.218  1.5132 -0.4806 -0.0793
 1710SOL    HW216593   2.948   2.136   6.354 -0.5024  0.5160  1.8343
 1711SOL     OW16594   3.824   0.636   6.391 -0.1844 -0.5697  0.0707
 1711SOL    HW116595   3.859   0.553   6.358  0.4348 -0.8319  1.3565
 1711SOL    HW216596   3.775   0.651   6.311  0.2232 -1.5118 -0.3556
 1712SOL     OW16597   0.285   2.673  13.623 -0.3286 -0.0057  0.7271
 1712SOL    HW116598   0.239   2.626  13.693  0.8471  0.9936  2.1629
 1712SOL    HW216599   0.337   2.606  13.579 -0.8794 -0.0007  0.0639
 1713SOL     OW16600   0.909   4.267   7.015  0.2576 -0.3550  0.3480
 1713SOL    HW116601   0.969   4.252   7.089  0.5594  0.1808  0.2127
 1713SOL    HW216602   0.946   4.209   6.949  1.6755  0.5387  0.3673
 1714SOL     OW16603   3.014   3.797   1.486 -0.0453  0.2725  0.1886
 1714SOL    HW116604   2.959   3.874   1.471 -0.7112 -0.1662  0.3801
 1714SOL    HW216605   2.966   3.749   1.553  3.8094  0.8348  3.3668
 1715SOL     OW16606   1.783   0.312  10.113 -0.0950 -0.5444  0.3395
 1715SOL    HW116607   1.701   0.358  10.131 -0.0236 -0.3799  0.2470
 1715SOL    HW216608   1.809   0.358  10.033  0.2933 -0.7372  0.3554
 1716SOL     OW16609   1.540   0.312   8.289 -0.5950  0.1146 -0.1066
 1716SOL    HW116610   1.605   0.382   8.288 -1.2728  0.7625  0.9714
 1716SOL    HW216611   1.567   0.260   8.365  0.1721 -2.1831 -1.9541
 1717SOL     OW16612   3.009   2.491   1.969 -0.0956  0.0014  0.5362
 1717SOL    HW116613   2.999   2.397   1.950 -1.1323 -0.1955  2.0107
 1717SOL    HW216614   3.068   2.513   1.898  0.6866  1.4710  1.6333
 1718SOL     OW16615   3.938   1.692   9.822  0.2526 -0.3724  0.2733
 1718SOL    HW116616   3.865   1.632   9.810  1.0988 -1.4344  0.4641
 1718SOL    HW216617   4.006   1.652   9.769  0.7985  1.0649 -0.0952
 1719SOL     OW16618   1.602   2.089   6.845  0.2857 -0.3135  0.4436
 1719SOL    HW116619   1.581   1.998   6.867 -3.8108  0.8853  1.6649
 1719SOL    HW216620   1.511   2.110   6.821  0.4019  0.4252  0.6603
 1720SOL     OW16621   0.912   4.704   8.673  0.6891  0.3729  0.3897
 1720SOL    HW116622   0.838   0.030   8.640  0.5860 -0.0648 -0.0661
 1720SOL    HW216623   0.975   4.721   8.604 -0.8448 -1.2051 -1.4287
 1721SOL     OW16624   4.213   0.052  11.030  0.2279  0.2221 -0.2288
 1721SOL    HW116625   4.154   0.057  10.955 -0.2675  0.3797  0.1731
 1721SOL    HW216626   4.257   4.694  11.011 -0.2947  0.3527 -2.0000
 1722SOL     OW16627   1.018   1.188   9.856  0.6825  0.3751  0.1483
 1722SOL    HW116628   1.068   1.225   9.784  0.0565 -1.5758 -1.3003
 1722SOL    HW216629   0.981   1.109   9.816  1.7392 -0.0448 -0.0152
 1723SOL     OW16630   2.387   4.550  13.006 -0.0804  0.6252  0.0621
 1723SOL    HW116631   2.311   4.524  12.954 -0.7004  0.7666  0.9036
 1723SOL    HW216632   2.358   4.537  13.096  1.2348  1.5085  0.6279
 1724SOL     OW16633   2.785   0.348   4.087  0.3732 -0.0794  0.5587
 1724SOL    HW116634   2.742   0.403   4.021 -1.8534  1.0674  2.9690
 1724SOL    HW216635   2.834   0.294   4.025  2.3265  2.5965 -0.2038
 1725SOL     OW16636   0.550   2.531   9.556 -0.3234  0.4619 -0.2884
 1725SOL    HW116637   0.498   2.532   9.476 -0.7898  0.1012  0.0150
 1725SOL    HW216638   0.559   2.623   9.581  2.1379 -0.0556  0.7905
 1726SOL     OW16639   3.166   3.899   2.075  0.3080 -0.4031  0.0055
 1726SOL    HW116640   3.187   3.895   2.169  0.8956  0.1571 -0.1023
 1726SOL    HW216641   3.084   3.947   2.085 -0.1339 -1.2974  0.7226
 1727SOL     OW16642   0.131   1.284   9.933  0.8832  0.0687  0.5518
 1727SOL    HW116643   0.079   1.356   9.897  0.8774  0.2313  0.8849
 1727SOL    HW216644   0.159   1.321  10.017 -0.3408  3.1360 -0.3852
 1728SOL     OW16645   2.883   1.920   8.781 -0.2459 -0.3632 -0.1546
 1728SOL    HW116646   2.858   1.840   8.828 -1.2740 -0.7780 -1.4081
 1728SOL    HW216647   2.918   1.883   8.700  3.2965 -1.5879  1.9152
 1729SOL     OW16648   3.590   4.708   7.107  0.4677 -0.2698  0.3378
 1729SOL    HW116649   3.517   4.712   7.045  1.0829  2.5710 -0.1911
 1729SOL    HW216650   3.638   4.638   7.062  2.2740  0.7286  0.7225
 1730SOL     OW16651   3.446   4.218   4.926  0.6340  0.2053  0.4715
 1730SOL    HW116652   3.372   4.215   4.865  1.2357  1.0642 -0.2988
 1730SOL    HW216653   3.401   4.186   5.004  0.4430  2.4090  1.2650
 1731SOL     OW16654   1.877   3.300  15.899 -0.5956  0.4601  0.0750
 1731SOL    HW116655   1.830   3.374  15.862 -2.1215 -0.3538  0.4196
 1731SOL    HW216656   1.958   3.300  15.848 -0.5656 -0.0971  0.1258
 1732SOL     OW16657   4.057   0.139   4.476 -0.1666  0.5749 -0.6265
 1732SOL    HW116658   4.152   0.152   4.471  0.1774 -1.2779  0.9890
 1732SOL    HW216659   4.024   0.169   4.392  0.8139  0.6926 -0.9738
 1733SOL     OW16660   1.604   3.251   1.703 -1.4135 -0.3611 -0.5278
 1733SOL    HW116661   1.672   3.184   1.708 -0.9157 -0.0732 -3.2794
 1733SOL    HW216662   1.528   3.193   1.700 -2.2886  0.7236  0.6262
 1734SOL     OW16663   4.451   1.846   5.866 -0.1676 -0.5765 -0.3882
 1734SOL    HW116664   4.378   1.842   5.927  1.3867 -0.1348  1.5093
 1734SOL    HW216665   4.420   1.915   5.807 -0.6670  1.0881  1.8262
 1735SOL     OW16666   3.225   2.431   6.387  0.5490 -0.3115  0.3212
 1735SOL    HW116667   3.231   2.486   6.309 -0.5260  0.7592  0.9970
 1735SOL    HW216668   3.169   2.360   6.357 -0.5718  0.1793  1.2423
 1736SOL     OW16669   0.703   1.554  13.830 -0.0301  0.3220 -0.0603
 1736SOL    HW116670   0.664   1.475  13.866 -0.2379 -0.2310 -1.4875
 1736SOL    HW216671   0.637   1.578  13.764 -0.4568 -0.4179  0.0972
 1737SOL     OW16672   2.185   3.338   1.787 -0.0423  0.2864  0.1642
 1737SOL    HW116673   2.254   3.279   1.757  1.2476  2.2904 -0.7762
 1737SOL    HW216674   2.169   3.392   1.709 -0.5242  0.0397  0.0923
 1738SOL     OW16675   0.409   2.236   9.576 -0.5701  0.1707 -0.0995
 1738SOL    HW116676   0.349   2.162   9.579 -0.1539 -0.2240 -1.5641
 1738SOL    HW216677   0.351   2.308   9.602  0.4200 -0.2251  3.2399
 1739SOL     OW16678   2.693   1.215  11.215 -0.1276 -0.0017 -0.2647
 1739SOL    HW116679   2.775   1.257  11.239 -0.3054  0.9243 -1.3175
 1739SOL    HW216680   2.732   1.186  11.133  1.2386  2.3399 -0.4289
 1740SOL     OW16681   4.606   3.704   2.721 -0.9994 -0.1500  0.7398
 1740SOL    HW116682   4.648   3.685   2.637 -0.4496  0.7430  0.8256
 1740SOL    HW216683   4.523   3.655   2.716 -0.3062 -1.4170  1.7076
 1741SOL     OW16684   3.462   2.853   6.034 -0.5984  0.5661  0.2773
 1741SOL    HW116685   3.459   2.773   6.086 -1.2540  1.0978  1.0555
 1741SOL    HW216686   3.497   2.815   5.953 -0.2448 -0.4587  0.9144
 1742SOL     OW16687   4.066   1.027   1.271  0.1316 -0.5479 -0.2580
 1742SOL    HW116688   4.071   1.008   1.177  0.0770 -0.2403 -0.3228
 1742SOL    HW216689   4.118   1.107   1.270 -0.1814 -0.3452  2.4887
 1743SOL     OW16690   2.633   3.661  14.772 -0.0815 -0.9271  0.0614
 1743SOL    HW116691   2.546   3.699  14.758 -0.3882 -1.6256  0.0472
 1743SOL    HW216692   2.657   3.697  14.858  0.4504 -0.8942 -0.1047
 1744SOL     OW16693   4.426   3.300   9.275  0.4218 -0.1767  0.2768
 1744SOL    HW116694   4.332   3.314   9.264 -0.8189 -3.6329  5.9622
 1744SOL    HW216695   4.465   3.383   9.251  1.6656 -0.7052  0.4652
 1745SOL     OW16696   2.872   2.598   6.373  0.0444  0.4172  0.3927
 1745SOL    HW116697   2.956   2.635   6.400  0.0599 -0.2784  1.2855
 1745SOL    HW216698   2.855   2.645   6.291  1.1076 -2.1712 -1.3416
 1746SOL     OW16699   1.326   4.205   6.829 -1.0474  0.1080 -0.1678
 1746SOL    HW116700   1.403   4.261   6.842 -1.6428  0.9717 -0.3697
 1746SOL    HW216701   1.297   4.246   6.747 -1.7802  1.8768  0.9642
 1747SOL     OW16702   2.968   1.243   7.541  0.4170  0.1579 -0.7201
 1747SOL    HW116703   2.924   1.301   7.479 -1.9967 -0.7013  0.2066
 1747SOL    HW216704   2.894   1.223   7.598 -0.2700  0.8951 -1.3437
 1748SOL     OW16705   2.702   2.959  16.013 -0.8875 -0.0893 -0.4189
 1748SOL    HW116706   2.768   3.028  16.005  1.1717 -1.9404  0.7790
 1748SOL    HW216707   2.722   2.918  15.929  2.4794 -3.1065  1.8484
 1749SOL     OW16708   3.909   1.075   5.125  0.1475 -0.3367 -0.4490
 1749SOL    HW116709   3.902   1.129   5.046  1.3962 -1.0321 -1.0371
 1749SOL    HW216710   3.865   1.130   5.190  0.7110  0.8675 -1.1026
 1750SOL     OW16711   0.470   4.025  16.198  0.5325  0.2804  0.0450
 1750SOL    HW116712   0.554   3.980  16.204  0.6515  0.5437  0.3557
 1750SOL    HW216713   0.477   4.095  16.263 -1.7099  1.5753 -1.1146
 1751SOL     OW16714   0.355   2.059   5.255 -0.0967 -0.3447  0.3622
 1751SOL    HW116715   0.264   2.084   5.238  0.9009  1.2106 -2.8897
 1751SOL    HW216716   0.354   1.985   5.314  2.4648 -0.1619  0.6305
 1752SOL     OW16717   1.268   3.082   6.356  0.3880 -0.3726 -0.1920
 1752SOL    HW116718   1.332   3.043   6.297  2.1497 -2.0859  2.8612
 1752SOL    HW216719   1.191   3.049   6.308 -1.5845 -0.7314  3.2131
 1753SOL     OW16720   2.313   4.694  14.001 -0.2178 -0.1391 -0.1972
 1753SOL    HW116721   2.369   4.616  14.001  0.8969  0.6472  0.5176
 1753SOL    HW216722   2.373   0.031  14.043  0.3803 -2.2325  2.0524
 1754SOL     OW16723   1.887   0.017   3.807  0.7414  0.5597 -0.0448
 1754SOL    HW116724   1.950   4.724   3.738  1.5675  2.6809  0.1534
 1754SOL    HW216725   1.937   0.071   3.868 -0.2194  1.6080 -0.1846
 1755SOL     OW16726   2.625   2.663   5.321 -0.0103  0.0264 -0.1177
 1755SOL    HW116727   2.674   2.721   5.262  1.0962 -1.2313 -0.4420
 1755SOL    HW216728   2.640   2.697   5.409  1.0076 -0.4062 -0.1240
 1756SOL     OW16729   4.124   3.358   9.228  0.2682 -0.1432 -0.2362
 1756SOL    HW116730   4.086   3.293   9.287  1.2364 -0.6424 -0.1553
 1756SOL    HW216731   4.048   3.382   9.176  2.5773  0.7821 -3.2047
 1757SOL     OW16732   0.935   3.331   3.887  0.0755  0.3725 -0.0504
 1757SOL    HW116733   0.871   3.387   3.930  0.5471  1.8539 -1.2738
 1757SOL    HW216734   0.894   3.245   3.878  0.5957  0.2573 -1.4723
 1758SOL     OW16735   0.741   3.433   5.062  0.2346 -0.5866  0.2583
 1758SOL    HW116736   0.729   3.409   5.154  1.5320 -0.4300  0.4734
 1758SOL    HW216737   0.666   3.391   5.020  3.0657 -2.5119 -2.8659
 1759SOL     OW16738   3.049   2.655   7.190 -0.3887  0.5733 -0.5091
 1759SOL    HW116739   3.049   2.658   7.286  0.0019 -1.1649 -0.4461
 1759SOL    HW216740   3.121   2.718   7.182 -0.0574  0.3818  0.9287
 1760SOL     OW16741   4.113   2.196   5.181 -0.1811 -0.0685  0.5024
 1760SOL    HW116742   4.048   2.245   5.130  0.6521 -0.8764 -1.3606
 1760SOL    HW216743   4.056   2.121   5.196  0.2927  0.2145  3.6127
 1761SOL     OW16744   2.495   2.970  16.377 -0.5326 -0.5048 -0.1980
 1761SOL    HW116745   2.414   3.017  16.396 -0.2471 -0.1045  0.0230
 1761SOL    HW216746   2.478   2.888  16.423  0.5369 -1.4501 -1.5000
 1762SOL     OW16747   1.198   3.892  15.506  0.3331 -0.2945  0.4507
 1762SOL    HW116748   1.138   3.966  15.494  1.3152  0.8408  2.5366
 1762SOL    HW216749   1.193   3.855  15.418 -0.1133  0.0248  0.3397
 1763SOL     OW16750   3.569   0.274  16.524  0.3540  0.3872  0.2117
 1763SOL    HW116751   3.523   0.333  16.465  0.6869  1.5499  1.1024
 1763SOL    HW216752   3.561   0.191  16.476  0.3610 -0.7135  2.1025
 1764SOL     OW16753   0.376   4.169   0.683 -0.6027 -0.1273 -0.0536
 1764SOL    HW116754   0.358   4.175   0.589 -1.7075  2.7797  0.3574
 1764SOL    HW216755   0.467   4.142   0.694 -1.0612 -1.8442 -0.4731
 1765SOL     OW16756   3.888   4.210   3.156  0.2639  0.5372 -0.2754
 1765SOL    HW116757   3.916   4.144   3.093 -1.5615  1.0549 -1.6366
 1765SOL    HW216758   3.957   4.273   3.134 -0.2282  0.5871 -1.6743
 1766SOL     OW16759   3.608   3.657   1.623  0.1532 -0.3796  0.7923
 1766SOL    HW116760   3.602   3.737   1.676  1.2727 -1.3676  2.4059
 1766SOL    HW216761   3.694   3.619   1.640 -0.0692 -1.7609 -1.1554
 1767SOL     OW16762   4.463   0.150   6.618 -0.2216 -0.0494 -0.0739
 1767SOL    HW116763   4.396   0.218   6.620  3.1748  3.2665 -0.2559
 1767SOL    HW216764   4.451   0.117   6.708 -0.8940  0.7559  0.1280
 1768SOL     OW16765   0.825   0.041   3.479 -0.2337  0.1219 -0.0672
 1768SOL    HW116766   0.836   4.696   3.544 -0.0028  0.1436 -0.0819
 1768SOL    HW216767   0.912   0.043   3.439 -0.4349 -2.4384 -0.5961
 1769SOL     OW16768   3.690   2.844  11.679 -0.4551  0.1100 -0.2977
 1769SOL    HW116769   3.782   2.851  11.704 -0.1277  1.4818 -1.8564
 1769SOL    HW216770   3.702   2.809  11.591 -1.5858  0.5287 -0.6203
 1770SOL     OW16771   2.621   0.681  13.475  0.8427  0.1643  0.0060
 1770SOL    HW116772   2.634   0.591  13.503 -0.3378  0.0563  0.2345
 1770SOL    HW216773   2.526   0.674  13.462  0.7150  1.9072  0.0275
 1771SOL     OW16774   0.441   1.001   2.290  0.2246  0.3937 -0.4525
 1771SOL    HW116775   0.534   1.019   2.281  0.0927  1.5744  0.6046
 1771SOL    HW216776   0.400   1.053   2.359  0.3979  1.0083 -0.8204
 1772SOL     OW16777   3.874   3.394   1.986  0.0505  1.5045  0.3998
 1772SOL    HW116778   3.865   3.318   2.043  0.0330  0.7932 -0.5403
 1772SOL    HW216779   3.927   3.358   1.915 -0.0027 -1.0768  1.6601
 1773SOL     OW16780   0.879   1.971  14.681 -0.1178 -0.0160 -0.0534
 1773SOL    HW116781   0.874   2.021  14.763 -2.1278  0.8630 -0.7158
 1773SOL    HW216782   0.820   1.899  14.706 -1.4863  0.6629 -1.3057
 1774SOL     OW16783   3.084   0.936   3.033 -0.0296  1.1581 -0.3017
 1774SOL    HW116784   3.149   0.937   2.964  0.5761 -1.5823  0.2309
 1774SOL    HW216785   3.017   0.876   3.000  1.3456 -0.5887  0.0776
 1775SOL     OW16786   1.253   2.676   5.333 -0.0554 -0.0708 -0.2821
 1775SOL    HW116787   1.285   2.765   5.351 -0.1471 -0.2940  0.9881
 1775SOL    HW216788   1.314   2.619   5.380 -0.4254  1.3015  1.8798
 1776SOL     OW16789   1.897   3.895   2.902 -0.8345  0.0855 -0.7706
 1776SOL    HW116790   1.982   3.903   2.946 -1.5649  2.8242  0.1239
 1776SOL    HW216791   1.918   3.955   2.830  1.2562  1.3704  0.9121
 1777SOL     OW16792   1.687   0.415   6.106  0.3788 -0.3774  0.3890
 1777SOL    HW116793   1.637   0.464   6.172 -3.1895 -1.8320 -1.2170
 1777SOL    HW216794   1.653   0.329   6.127  0.5614 -0.4509  0.3772
 1778SOL     OW16795   0.179   1.557   6.615  0.2463  0.1686 -0.2413
 1778SOL    HW116796   0.232   1.550   6.535  1.6158 -1.1276  0.7906
 1778SOL    HW216797   0.090   1.575   6.585 -0.2848 -1.2420  0.4962
 1779SOL     OW16798   3.560   1.633  11.386 -0.7017 -0.1702 -0.2183
 1779SOL    HW116799   3.628   1.643  11.320 -0.5690 -0.3956 -0.1169
 1779SOL    HW216800   3.581   1.705  11.446 -0.1431  0.5359 -1.2561
 1780SOL     OW16801   3.297   1.237   8.105  0.0051  0.0907  0.6707
 1780SOL    HW116802   3.326   1.327   8.093 -3.1799  0.9900 -0.4023
 1780SOL    HW216803   3.301   1.223   8.200  1.1105  1.2689  0.7976
 1781SOL     OW16804   1.929   0.923   9.082  0.4007 -0.0759 -0.1679
 1781SOL    HW116805   1.876   0.856   9.126  0.9742 -2.2613 -2.8049
 1781SOL    HW216806   1.862   0.979   9.044  0.5950 -0.8955 -1.7330
 1782SOL     OW16807   3.994   0.892   8.439 -0.0941  0.0676  0.0288
 1782SOL    HW116808   4.039   0.959   8.490 -1.4219  0.8028  0.2007
 1782SOL    HW216809   3.967   0.832   8.509 -0.0115  0.8654  0.7386
 1783SOL     OW16810   3.202   0.699   6.035 -0.5797  0.2188 -0.5756
 1783SOL    HW116811   3.283   0.656   6.065  0.0080 -0.1972 -2.7411
 1783SOL    HW216812   3.150   0.696   6.115  0.8812 -0.4159  0.3522
 1784SOL     OW16813   0.435   0.264   2.809  0.2021 -0.4231  0.3159
 1784SOL    HW116814   0.362   0.246   2.868 -0.6644  1.6388 -0.1395
 1784SOL    HW216815   0.372   0.254   2.737  1.5089 -0.7949 -0.7851
 1785SOL     OW16816   3.510   1.367   7.847  0.0755 -0.3885  0.0581
 1785SOL    HW116817   3.439   1.392   7.905 -1.9162  0.6269 -2.7943
 1785SOL    HW216818   3.470   1.283   7.823 -0.9833 -0.3291  1.6456
 1786SOL     OW16819   0.246   1.697   4.548  0.2302  0.5253 -0.6627
 1786SOL    HW116820   0.327   1.657   4.578 -0.3067 -0.4388 -0.4966
 1786SOL    HW216821   0.271   1.735   4.464 -1.8209  1.2751 -0.9312
 1787SOL     OW16822   0.151   0.231   4.378 -0.3005 -0.4251 -0.1826
 1787SOL    HW116823   0.067   0.220   4.333 -0.3923 -0.8585  0.0956
 1787SOL    HW216824   0.135   0.281   4.458  0.1202 -0.3729 -0.1297
 1788SOL     OW16825   3.631   4.048   4.424  0.2551 -0.4796 -0.0927
 1788SOL    HW116826   3.653   3.974   4.367  0.1991  0.8230 -1.7942
 1788SOL    HW216827   3.621   4.004   4.509  0.4654  0.3436  0.3631
 1789SOL     OW16828   1.203   3.464   6.004 -0.2057 -0.3000  0.1574
 1789SOL    HW116829   1.120   3.429   5.974 -0.9087 -0.2553  2.0602
 1789SOL    HW216830   1.266   3.395   5.984 -0.9024  0.0628 -3.1637
 1790SOL     OW16831   1.189   0.983   9.065  0.2278 -0.3419  0.2451
 1790SOL    HW116832   1.272   1.017   9.030 -0.8535  1.9948 -0.0402
 1790SOL    HW216833   1.223   0.956   9.150 -1.6356 -0.1120  1.0530
 1791SOL     OW16834   2.724   3.833   5.734 -0.0456  0.0261 -0.0627
 1791SOL    HW116835   2.802   3.872   5.772 -1.1504  2.0305  0.1640
 1791SOL    HW216836   2.758   3.753   5.695  0.3278 -0.0573  0.4394
 1792SOL     OW16837   2.582   1.407   7.132 -0.0852 -0.1856 -0.4922
 1792SOL    HW116838   2.583   1.424   7.226 -0.5653  1.5336 -0.7951
 1792SOL    HW216839   2.563   1.313   7.126  0.4773 -0.2650 -1.1101
 1793SOL     OW16840   1.820   3.725   9.891 -0.4051 -0.3558 -0.4096
 1793SOL    HW116841   1.832   3.704   9.983  0.1525  3.2137  0.3073
 1793SOL    HW216842   1.724   3.734   9.892 -0.5696 -1.8863 -1.4764
 1794SOL     OW16843   3.882   4.191   9.316 -0.3033  0.1119 -0.5771
 1794SOL    HW116844   3.878   4.113   9.371 -2.9284  0.5740 -0.1012
 1794SOL    HW216845   3.929   4.242   9.382 -0.6657  0.0492 -0.2738
 1795SOL     OW16846   3.652   1.032   4.448  0.2955  0.2137  0.3596
 1795SOL    HW116847   3.637   0.941   4.474  0.5048 -0.0977 -0.5958
 1795SOL    HW216848   3.605   1.079   4.517  0.5132  1.9184 -0.6608
 1796SOL     OW16849   3.781   1.677  15.413  0.6937  0.1970  0.0502
 1796SOL    HW116850   3.871   1.691  15.384  1.2461 -0.4545  1.4636
 1796SOL    HW216851   3.736   1.732  15.348 -1.4030 -0.6009  0.8281
 1797SOL     OW16852   1.132   3.465   7.694  0.3967 -0.4952  0.1250
 1797SOL    HW116853   1.131   3.558   7.715  0.7450 -0.4473 -0.0671
 1797SOL    HW216854   1.146   3.467   7.599 -1.8515  0.1387 -0.1788
 1798SOL     OW16855   4.507   4.442   3.518  0.1232 -0.1614 -1.0796
 1798SOL    HW116856   4.464   4.446   3.603 -1.6122  1.4614 -2.0124
 1798SOL    HW216857   4.431   4.483   3.475  0.5589 -0.4823 -2.1649
 1799SOL     OW16858   0.882   3.984   5.405 -0.1574 -0.6891  0.2939
 1799SOL    HW116859   0.843   4.044   5.468 -0.8256 -0.8610  0.0381
 1799SOL    HW216860   0.954   3.961   5.464 -0.9318 -2.2434  0.6252
 1800SOL     OW16861   3.593   3.325   7.932 -0.0196 -0.5319 -0.0422
 1800SOL    HW116862   3.532   3.395   7.953  0.4323 -0.0237 -0.4190
 1800SOL    HW216863   3.635   3.307   8.017  4.5972 -0.5258 -2.3014
 1801SOL     OW16864   2.181   2.647   9.080 -0.2172  0.5818  0.0850
 1801SOL    HW116865   2.145   2.723   9.035 -3.3116 -1.3036 -0.6225
 1801SOL    HW216866   2.147   2.647   9.169  1.0433 -1.7178  0.5536
 1802SOL     OW16867   4.122   1.620   3.413  0.2505  0.3359  0.2781
 1802SOL    HW116868   4.106   1.695   3.356  1.4921 -0.3999 -1.0318
 1802SOL    HW216869   4.073   1.549   3.371  0.1206  0.5730  0.0308
 1803SOL     OW16870   1.445   2.834  15.169  0.7475 -0.1290 -0.3246
 1803SOL    HW116871   1.514   2.785  15.123  1.4898  0.6478 -0.0433
 1803SOL    HW216872   1.404   2.872  15.091  0.2886 -1.1081 -0.5561
 1804SOL     OW16873   2.842   1.456   1.699  0.0566  0.0429  0.3104
 1804SOL    HW116874   2.774   1.468   1.632 -2.0468 -1.0868  2.2402
 1804SOL    HW216875   2.840   1.361   1.691  1.6572 -0.0329  0.9959
 1805SOL     OW16876   1.996   2.115   6.838 -0.1920  0.1866  0.3879
 1805SOL    HW116877   2.029   2.026   6.850 -2.3460 -0.5625  0.7975
 1805SOL    HW216878   2.060   2.167   6.887  0.3354  0.1749 -0.2877
 1806SOL     OW16879   3.460   0.440   2.345  0.5380  0.9005 -0.1590
 1806SOL    HW116880   3.397   0.417   2.413  0.0374 -1.2535 -1.3611
 1806SOL    HW216881   3.409   0.471   2.270 -1.0486  0.3201  0.6874
 1807SOL     OW16882   3.609   0.581   4.210  0.1070  0.3839 -0.7557
 1807SOL    HW116883   3.622   0.514   4.142  1.7795 -0.4590  0.3866
 1807SOL    HW216884   3.662   0.650   4.170 -0.7238  0.8370 -1.0661
 1808SOL     OW16885   3.284   2.976  16.901 -0.3352  0.0567  0.3495
 1808SOL    HW116886   3.359   2.957  16.845 -0.7700 -1.3274  0.2560
 1808SOL    HW216887   3.228   2.919  16.849 -0.5482 -1.7625  2.5524
 1809SOL     OW16888   3.884   1.480  12.894  0.0778  0.1675 -0.6344
 1809SOL    HW116889   3.919   1.569  12.900  1.8581 -0.4973 -1.1579
 1809SOL    HW216890   3.880   1.471  12.799 -0.9952  2.8589 -0.8450
 1810SOL     OW16891   1.970   2.057   5.037  0.0834 -0.3807 -0.0733
 1810SOL    HW116892   1.984   1.967   5.007  0.4224 -0.7112  1.0848
 1810SOL    HW216893   1.900   2.082   4.976  0.9278 -1.8432 -1.6390
 1811SOL     OW16894   4.585   1.627  15.645 -0.1022  0.1698  1.1523
 1811SOL    HW116895   4.607   1.610  15.554 -1.7406 -0.9155  0.9689
 1811SOL    HW216896   4.501   1.672  15.636  1.1104  2.1183 -0.4787
 1812SOL     OW16897   2.900   1.069  11.972 -0.0146 -0.0191  0.4100
 1812SOL    HW116898   2.906   1.084  11.878  0.1541 -0.3964  0.3588
 1812SOL    HW216899   2.990   1.092  11.996 -0.0051  1.2713 -0.8962
 1813SOL     OW16900   3.697   2.257  10.333 -0.3526 -0.1943  0.2843
 1813SOL    HW116901   3.787   2.223  10.328  0.4057  1.8591 -0.3177
 1813SOL    HW216902   3.644   2.203  10.275 -0.3247 -0.5455  0.5903
 1814SOL     OW16903   3.454   1.834  11.079 -0.6764 -0.0248 -0.2729
 1814SOL    HW116904   3.489   1.896  11.143  0.8974 -0.0544 -1.1142
 1814SOL    HW216905   3.526   1.826  11.017 -1.7418 -1.0316 -1.3864
 1815SOL     OW16906   0.515   4.399   5.061  0.3602  0.3297 -0.4390
 1815SOL    HW116907   0.493   4.376   5.151 -1.3249  2.5014 -0.3166
 1815SOL    HW216908   0.606   4.367   5.059 -0.3539 -1.6805 -1.7147
 1816SOL     OW16909   2.608   0.625   3.986 -0.3178  0.3279  0.6062
 1816SOL    HW116910   2.516   0.649   3.988 -0.5938 -0.9235  2.7410
 1816SOL    HW216911   2.655   0.687   3.930  1.0749  0.6714  2.1527
 1817SOL     OW16912   3.197   1.385   0.398  0.8985 -0.0909  0.0055
 1817SOL    HW116913   3.256   1.445   0.352 -0.5236 -0.6399 -2.4745
 1817SOL    HW216914   3.239   1.363   0.482  0.5250  1.5552  0.6250
 1818SOL     OW16915   0.131   2.167  10.096 -0.4375 -0.0482  0.3970
 1818SOL    HW116916   0.223   2.177  10.120 -0.5400  1.3639  0.1990
 1818SOL    HW216917   0.101   2.217  10.172 -1.2911  0.1856 -0.0941
 1819SOL     OW16918   4.241   3.558   7.725  0.0150 -0.3807  0.2637
 1819SOL    HW116919   4.309   3.493   7.741 -0.8148 -0.8524  1.8258
 1819SOL    HW216920   4.201   3.583   7.808  0.5091 -2.9752  1.2682
 1820SOL     OW16921   2.486   4.134   3.094  0.0650 -0.1591  0.2738
 1820SOL    HW116922   2.529   4.212   3.130  0.3699 -0.2868  0.1833
 1820SOL    HW216923   2.434   4.112   3.172  0.3569 -3.5096 -0.4837
 1821SOL     OW16924   1.269   3.735   9.534 -0.3342 -0.1150 -0.0728
 1821SOL    HW116925   1.243   3.715   9.444  1.5659  2.3767 -1.1904
 1821SOL    HW216926   1.327   3.809   9.514 -0.2910  0.4551  2.1409
 1822SOL     OW16927   4.540   3.832  12.437  0.2081 -0.0714 -0.2736
 1822SOL    HW116928   4.531   3.824  12.342  4.5873 -0.3607 -0.6772
 1822SOL    HW216929   4.608   3.764  12.440 -2.4756 -2.8766 -2.3177
 1823SOL     OW16930   0.844   3.924   3.481  0.0671  0.0501 -0.0520
 1823SOL    HW116931   0.872   3.844   3.436  1.0388 -0.1613  0.9176
 1823SOL    HW216932   0.917   3.952   3.536 -0.6750  1.2695  0.3028
 1824SOL     OW16933   4.290   4.072  13.478  0.0764  0.4405  0.4273
 1824SOL    HW116934   4.211   4.068  13.425 -0.0210 -0.6835  0.6532
 1824SOL    HW216935   4.344   4.057  13.401  1.6112 -1.9702  1.9661
 1825SOL     OW16936   2.735   0.235   8.685  0.0153  0.1167  0.2878
 1825SOL    HW116937   2.738   0.166   8.619 -0.0762 -2.3412  2.8260
 1825SOL    HW216938   2.810   0.227   8.745  0.4962  1.6664 -0.1038
 1826SOL     OW16939   3.889   3.188   1.281 -0.5981 -0.0600 -0.7082
 1826SOL    HW116940   3.837   3.242   1.222  0.9581  0.2038 -1.8197
 1826SOL    HW216941   3.870   3.099   1.251 -0.7775  0.0078 -0.7941
 1827SOL     OW16942   2.051   0.912   2.934 -0.5511 -0.3681 -0.2100
 1827SOL    HW116943   2.094   0.921   2.849  1.3452  0.4728  0.8419
 1827SOL    HW216944   2.105   0.850   2.982 -0.6810 -0.0395  0.3746
 1828SOL     OW16945   0.316   3.169   3.623 -0.1023 -0.3784  0.8214
 1828SOL    HW116946   0.408   3.193   3.637 -0.3448  0.0844  1.6385
 1828SOL    HW216947   0.273   3.254   3.633  1.0323  0.7660 -3.9054
 1829SOL     OW16948   2.808   2.095   0.594 -0.4645 -0.3415  0.3727
 1829SOL    HW116949   2.825   2.141   0.676 -1.5513 -3.8277  2.5063
 1829SOL    HW216950   2.785   2.004   0.610 -1.5650  0.2101  1.8655
 1830SOL     OW16951   4.362   1.051   9.241  0.6418 -0.2606 -0.6701
 1830SOL    HW116952   4.371   0.965   9.199 -0.8471 -0.0549 -1.4049
 1830SOL    HW216953   4.296   1.031   9.306  0.8793 -0.1610 -0.3973
 1831SOL     OW16954   0.155   2.635   3.955 -0.4941  0.0190 -0.3244
 1831SOL    HW116955   0.197   2.609   3.872 -1.9339 -0.1842 -0.9966
 1831SOL    HW216956   0.219   2.604   4.019 -0.2145  0.9789 -0.1507
 1832SOL     OW16957   4.146   0.579   1.292  0.5984 -0.4514 -0.0362
 1832SOL    HW116958   4.186   0.561   1.377  1.0294  0.0407 -0.1308
 1832SOL    HW216959   4.064   0.611   1.328  0.3929 -2.2970  1.1543
 1833SOL     OW16960   1.772   4.271   9.379  0.1146 -0.0996 -0.0671
 1833SOL    HW116961   1.690   4.247   9.336  1.0373 -0.3826 -1.6651
 1833SOL    HW216962   1.822   4.196   9.345  1.5523  0.1518  1.4736
 1834SOL     OW16963   3.571   2.243  13.537  1.0208  0.1424  0.1001
 1834SOL    HW116964   3.655   2.218  13.574 -0.3345 -1.0877  2.3400
 1834SOL    HW216965   3.525   2.166  13.571  0.1151  0.4520 -0.4046
 1835SOL     OW16966   4.354   3.834   7.753  0.2270 -0.3113 -0.3530
 1835SOL    HW116967   4.361   3.850   7.847 -0.3794 -1.9661 -0.0253
 1835SOL    HW216968   4.391   3.745   7.752  0.9193 -0.0168 -0.8630
 1836SOL     OW16969   2.512   2.057  16.727  0.5809 -0.4302 -0.4379
 1836SOL    HW116970   2.529   1.982  16.784  1.4024 -0.8908 -1.2963
 1836SOL    HW216971   2.521   2.011  16.644 -0.6032 -0.6087 -0.4689
 1837SOL     OW16972   1.694   4.282   3.531 -0.4735  0.4030 -0.1756
 1837SOL    HW116973   1.655   4.349   3.587 -0.4793  0.5929 -0.4049
 1837SOL    HW216974   1.673   4.201   3.577  0.3641 -0.0207 -0.5379
 1838SOL     OW16975   3.657   4.392  11.307  0.3833 -0.1087  0.4902
 1838SOL    HW116976   3.679   4.312  11.260 -0.9053 -1.4297  2.1326
 1838SOL    HW216977   3.734   4.444  11.283  0.8658  0.7079  3.8098
 1839SOL     OW16978   0.319   2.484  14.040  0.7092  0.0361  0.1722
 1839SOL    HW116979   0.345   2.545  14.109 -1.3488  0.5606  0.4886
 1839SOL    HW216980   0.225   2.496  14.056  0.4078 -0.8848 -0.9922
 1840SOL     OW16981   2.700   2.319   1.836 -0.0766 -0.0527  0.2766
 1840SOL    HW116982   2.682   2.406   1.873 -1.2941  0.2457 -1.0014
 1840SOL    HW216983   2.793   2.323   1.814 -0.0094 -1.6608  0.3258
 1841SOL     OW16984   0.814   0.800   2.704 -0.2134 -0.5643  0.1792
 1841SOL    HW116985   0.775   0.716   2.678 -3.4908  0.7595  0.9598
 1841SOL    HW216986   0.771   0.858   2.641  1.3464 -0.5050 -0.8495
 1842SOL     OW16987   0.014   3.356   2.852 -0.3929 -0.3419 -0.1471
 1842SOL    HW116988   0.036   3.449   2.859 -0.4704 -0.5565  2.9969
 1842SOL    HW216989   0.092   3.329   2.804  0.7457  1.2773  0.7820
 1843SOL     OW16990   0.776   1.926   5.900  0.6205  0.2117  0.3298
 1843SOL    HW116991   0.800   1.920   5.993 -0.1154  0.3269  0.5281
 1843SOL    HW216992   0.696   1.978   5.895  0.2361 -0.7875 -3.4172
 1844SOL     OW16993   3.267   1.754  14.295  0.3725  0.5800 -0.1416
 1844SOL    HW116994   3.311   1.789  14.372  0.1560 -0.5914  0.5261
 1844SOL    HW216995   3.335   1.735  14.231  0.4142  0.4894 -0.0699
 1845SOL     OW16996   4.375   4.491   7.337  0.2384  0.2225 -0.0230
 1845SOL    HW116997   4.403   4.446   7.416  0.0888  0.6835  0.2916
 1845SOL    HW216998   4.457   4.490   7.288  0.4815 -0.0729  0.3924
 1846SOL     OW16999   2.827   1.370   6.351 -0.4316  0.3323 -0.5543
 1846SOL    HW117000   2.910   1.389   6.306  0.9452  0.6176  2.0749
 1846SOL    HW217001   2.852   1.293   6.402 -0.4094  1.1749  0.7046
 1847SOL     OW17002   1.062   1.459   4.294 -0.0661 -0.5416  0.0104
 1847SOL    HW117003   1.044   1.553   4.284  0.8330 -0.3554  0.0685
 1847SOL    HW217004   1.153   1.446   4.323 -0.2850 -0.8010  0.5691
 1848SOL     OW17005   0.652   1.431   2.961 -0.0037 -0.4013  0.3050
 1848SOL    HW117006   0.658   1.404   2.870 -0.3184  1.3026 -0.2152
 1848SOL    HW217007   0.712   1.504   2.947  1.4274 -1.5798  0.2681
 1849SOL     OW17008   4.564   0.705   7.217 -0.4290  0.3354  0.4949
 1849SOL    HW117009   4.490   0.742   7.170 -0.8891 -0.1490  0.8250
 1849SOL    HW217010   4.633   0.698   7.151  0.0426  1.6577  0.8542
 1850SOL     OW17011   3.132   3.388   4.544 -0.1868 -0.8351 -0.4522
 1850SOL    HW117012   3.217   3.375   4.501  1.3155 -0.0637  2.2403
 1850SOL    HW217013   3.070   3.405   4.474 -0.7312 -0.4277  0.1292
 1851SOL     OW17014   1.996   2.924   4.653  0.1300 -0.3362 -0.1077
 1851SOL    HW117015   2.027   3.013   4.637 -1.6544  0.6324  1.8731
 1851SOL    HW217016   1.998   2.869   4.574 -1.3970 -1.8553  0.9134
 1852SOL     OW17017   2.064   0.343   1.605 -0.3986  0.1845 -0.0763
 1852SOL    HW117018   2.124   0.319   1.675 -0.9077 -1.2727 -0.1371
 1852SOL    HW217019   2.075   0.269   1.547 -0.4640 -2.5170  3.3389
 1853SOL     OW17020   0.818   2.040   6.547 -0.6798  0.1399  0.3017
 1853SOL    HW117021   0.844   2.107   6.611  0.6196  0.6601 -0.7787
 1853SOL    HW217022   0.749   2.086   6.499 -0.2264  2.9855  2.3408
 1854SOL     OW17023   1.221   3.763   5.029  0.4766  0.8674 -0.2207
 1854SOL    HW117024   1.264   3.809   4.956 -0.3478  2.8204  0.5262
 1854SOL    HW217025   1.176   3.700   4.972  0.4623  1.8133 -1.2652
 1855SOL     OW17026   0.800   3.840  14.150  0.0230 -0.4484  0.0141
 1855SOL    HW117027   0.779   3.825  14.242 -0.4058 -2.5241 -0.4255
 1855SOL    HW217028   0.753   3.771  14.103  0.9167 -0.0320 -1.5018
 1856SOL     OW17029   1.021   3.736   5.295 -0.3518 -0.2160 -0.3006
 1856SOL    HW117030   0.962   3.747   5.221 -2.0016 -0.3297  0.9893
 1856SOL    HW217031   0.998   3.645   5.315  2.8591 -1.2434 -1.2045
 1857SOL     OW17032   0.725   3.327   1.984  0.1669  0.1381 -0.5575
 1857SOL    HW117033   0.707   3.381   1.907  0.5641  3.2428  1.5204
 1857SOL    HW217034   0.784   3.388   2.028  1.2711 -1.4883  0.2119
 1858SOL     OW17035   1.518   1.715   0.505  0.8168  0.1949 -0.1832
 1858SOL    HW117036   1.499   1.665   0.585  0.6773 -0.4774 -0.6423
 1858SOL    HW217037   1.539   1.641   0.448  2.4203  1.8305 -1.7090
 1859SOL     OW17038   0.127   4.403  16.460 -0.6345 -0.2671 -0.0060
 1859SOL    HW117039   0.150   4.468  16.526  0.1384 -0.0274 -0.5128
 1859SOL    HW217040   0.094   4.458  16.389 -0.2690  1.5085  1.2347
 1860SOL     OW17041   2.320   4.341   2.629  0.5642  0.2400 -0.2389
 1860SOL    HW117042   2.256   4.271   2.641  0.2407  0.0709 -2.8638
 1860SOL    HW217043   2.366   4.294   2.559 -0.2131 -3.0754  1.4767
 1861SOL     OW17044   3.514   2.626   4.031 -0.3133  0.9070  0.1174
 1861SOL    HW117045   3.520   2.691   4.101  0.4033  0.4379  0.5052
 1861SOL    HW217046   3.420   2.612   4.021  0.0860 -1.5431 -0.3639
 1862SOL     OW17047   0.967   2.169  15.438  0.0268  0.6041  0.2223
 1862SOL    HW117048   0.942   2.240  15.378  0.7620 -0.3110 -1.1725
 1862SOL    HW217049   0.886   2.119  15.425  0.9567 -0.9742  0.6285
 1863SOL     OW17050   4.516   1.095  12.070 -0.5013 -0.1953  0.0953
 1863SOL    HW117051   4.503   1.098  11.975  0.9846 -2.7745 -0.1803
 1863SOL    HW217052   4.505   1.001  12.084  1.7754 -0.4537  0.1131
 1864SOL     OW17053   2.464   1.653   6.596  0.2665 -0.0704  0.0121
 1864SOL    HW117054   2.474   1.569   6.641 -0.2939 -0.1036  0.0844
 1864SOL    HW217055   2.500   1.627   6.511  0.5570 -1.6873  0.6378
 1865SOL     OW17056   1.649   1.022  12.495 -0.2847 -0.1010 -0.3054
 1865SOL    HW117057   1.687   0.938  12.472 -0.8851 -0.7562  1.1812
 1865SOL    HW217058   1.673   1.021  12.587 -1.6507  0.8111  0.0660
 1866SOL     OW17059   2.817   0.885   8.493  0.5999 -0.4365  0.1543
 1866SOL    HW117060   2.810   0.866   8.586 -0.0579  1.8764  0.5918
 1866SOL    HW217061   2.867   0.808   8.467 -0.3526 -0.3882 -1.8295
 1867SOL     OW17062   3.030   1.220   3.503 -0.3247  0.0162  0.0783
 1867SOL    HW117063   2.942   1.247   3.474 -0.3157 -0.6564 -0.5469
 1867SOL    HW217064   3.010   1.202   3.595 -1.5600  0.0380 -0.1764
 1868SOL     OW17065   2.402   2.149   4.329 -0.1639 -0.0390 -0.5250
 1868SOL    HW117066   2.488   2.147   4.370 -1.0730  0.4764  1.3951
 1868SOL    HW217067   2.382   2.057   4.315  2.5066 -0.6141 -0.4514
 1869SOL     OW17068   2.558   2.232   2.830 -0.2357  0.6952  0.3152
 1869SOL    HW117069   2.628   2.295   2.813  1.2338 -1.2281 -0.7414
 1869SOL    HW217070   2.485   2.288   2.804  1.0354  2.8680  1.4265
 1870SOL     OW17071   4.438   2.524   6.493 -0.2664 -0.0297  0.2883
 1870SOL    HW117072   4.496   2.538   6.418 -1.4533 -1.8058 -0.9584
 1870SOL    HW217073   4.414   2.616   6.505 -0.2892  0.2612 -2.0743
 1871SOL     OW17074   2.566   0.969  17.460 -0.2861  0.2876 -0.2441
 1871SOL    HW117075   2.534   1.053  17.425 -1.3555 -1.1520 -2.7502
 1871SOL    HW217076   2.654   0.976  17.422  0.0939 -2.6433  0.1350
 1872SOL     OW17077   3.600   1.080   7.479 -0.7562  0.1604 -0.4358
 1872SOL    HW117078   3.625   1.012   7.541 -1.5400  0.3876  0.1288
 1872SOL    HW217079   3.506   1.082   7.498 -0.9411 -1.8957 -1.0689
 1873SOL     OW17080   4.616   3.490   2.059  0.3233 -0.0808 -0.0310
 1873SOL    HW117081   4.618   3.562   1.996  1.1477  1.9394  2.3018
 1873SOL    HW217082   4.586   3.431   1.990  1.5994 -2.4179  1.4151
 1874SOL     OW17083   0.429   0.363   3.553  0.2263 -0.3109  0.2496
 1874SOL    HW117084   0.400   0.296   3.614  2.4709 -3.0394 -1.7247
 1874SOL    HW217085   0.519   0.342   3.530  0.7708  0.8575  1.2579
 1875SOL     OW17086   4.074   0.361   2.919 -0.7026  0.0737 -0.0640
 1875SOL    HW117087   4.119   0.283   2.886 -1.3882 -0.3528 -0.0015
 1875SOL    HW217088   4.133   0.384   2.991 -0.2495  0.3300 -0.5142
 1876SOL     OW17089   2.408   1.634  10.510 -0.2346 -0.2632 -0.0805
 1876SOL    HW117090   2.334   1.592  10.466  0.3387 -0.5885 -0.7443
 1876SOL    HW217091   2.373   1.714  10.548  0.8570 -0.0875  0.5693
 1877SOL     OW17092   2.773   0.323   4.588  0.1874  0.2538  0.0625
 1877SOL    HW117093   2.833   0.284   4.653  0.7263  0.9972  0.0161
 1877SOL    HW217094   2.768   0.256   4.519  0.7618  1.5296 -1.2121
 1878SOL     OW17095   0.696   4.103  14.129 -0.4315  0.3897  0.2785
 1878SOL    HW117096   0.620   4.070  14.178 -1.8775 -0.9269 -2.8945
 1878SOL    HW217097   0.734   4.020  14.102 -3.1717 -0.8471  0.1535
 1879SOL     OW17098   1.469   2.623   8.638 -0.1160  0.7647 -0.5538
 1879SOL    HW117099   1.538   2.557   8.629 -0.0315  0.8684 -0.6589
 1879SOL    HW217100   1.479   2.663   8.725  2.5293 -0.5789 -0.2223
 1880SOL     OW17101   2.117   2.361   6.015 -1.1135  0.0854 -0.1095
 1880SOL    HW117102   2.185   2.424   5.992 -0.8446  0.1644  0.8972
 1880SOL    HW217103   2.049   2.371   5.950 -0.1295  0.9970 -0.9927
 1881SOL     OW17104   0.398   4.355   5.320 -0.2398  0.2056 -0.1094
 1881SOL    HW117105   0.334   4.427   5.326 -1.2175 -0.6618 -0.0822
 1881SOL    HW217106   0.453   4.380   5.393 -0.0489  0.1039 -0.2181
 1882SOL     OW17107   3.956   1.435   3.289  0.1762 -0.3257 -0.5098
 1882SOL    HW117108   3.955   1.355   3.342  0.7329  0.3382  0.5023
 1882SOL    HW217109   3.881   1.418   3.232 -2.1235  0.2268  2.3106
 1883SOL     OW17110   1.759   4.115   1.626 -0.1567  0.9427 -0.1125
 1883SOL    HW117111   1.682   4.094   1.678 -1.7510  1.9311 -2.1061
 1883SOL    HW217112   1.764   4.033   1.577  0.3339  0.1604  1.2458
 1884SOL     OW17113   0.186   0.761   2.364 -0.1983  0.3873  0.0237
 1884SOL    HW117114   0.094   0.778   2.382 -0.8932 -2.9058 -0.3306
 1884SOL    HW217115   0.193   0.669   2.389  2.2291  0.6621  0.4214
 1885SOL     OW17116   0.728   3.465   1.751  0.6231 -0.3812  0.5412
 1885SOL    HW117117   0.695   3.418   1.675 -0.1264 -1.3128  1.4274
 1885SOL    HW217118   0.663   3.531   1.774  0.2865 -0.5112 -0.0486
 1886SOL     OW17119   1.158   1.435   9.994 -0.1740  0.1343  0.2536
 1886SOL    HW117120   1.103   1.365   9.958 -0.7193  0.2604  0.8406
 1886SOL    HW217121   1.126   1.508   9.941 -0.2395 -0.5791 -0.6937
 1887SOL     OW17122   0.865   3.201   9.302 -0.0959  0.0009 -0.1440
 1887SOL    HW117123   0.927   3.132   9.327  0.7949  0.8965  0.1329
 1887SOL    HW217124   0.788   3.145   9.295  0.0657 -0.1911 -0.3833
 1888SOL     OW17125   2.990   1.207   9.777 -0.6164 -0.4417 -0.1260
 1888SOL    HW117126   2.987   1.296   9.744 -0.8980  1.0338  3.8580
 1888SOL    HW217127   3.042   1.160   9.711 -0.2109 -0.9797  0.5712
 1889SOL     OW17128   2.980   1.290   0.953  0.2537  0.1121  0.2847
 1889SOL    HW117129   2.968   1.196   0.962 -1.4945  0.3230  0.0558
 1889SOL    HW217130   2.899   1.320   0.994 -0.0280  0.5034 -0.5590
 1890SOL     OW17131   2.043   2.381  10.097 -0.7891  0.2506 -0.0354
 1890SOL    HW117132   2.098   2.392  10.174  1.0172  0.2086 -1.3042
 1890SOL    HW217133   2.005   2.294  10.105 -0.4242  0.2648  1.7646
 1891SOL     OW17134   2.010   2.065   1.801  0.1413  0.3155  0.4759
 1891SOL    HW117135   1.968   1.989   1.761 -0.4867 -0.1522  2.0141
 1891SOL    HW217136   1.998   2.141   1.745  0.0680 -0.4976 -0.6158
 1892SOL     OW17137   0.951   3.401   1.280  0.3652  0.6677  0.2465
 1892SOL    HW117138   1.033   3.447   1.259  1.8354 -2.2486 -0.3874
 1892SOL    HW217139   0.956   3.407   1.376 -0.0024 -1.7029  0.3954
 1893SOL     OW17140   0.483   3.396   8.688  0.0553 -0.0204 -0.2374
 1893SOL    HW117141   0.517   3.393   8.778  2.8870  1.1898 -1.2538
 1893SOL    HW217142   0.392   3.377   8.709 -0.0313 -0.6182 -1.1642
 1894SOL     OW17143   0.654   0.112   2.884  0.1312  0.5217 -0.0420
 1894SOL    HW117144   0.579   0.153   2.840 -0.1291 -0.4520 -0.5097
 1894SOL    HW217145   0.651   0.168   2.962 -0.5499 -1.4991  1.3800
 1895SOL     OW17146   2.245   2.935   4.951  0.1751  0.3244 -0.3209
 1895SOL    HW117147   2.276   2.900   4.868 -0.3420  1.8965 -1.1784
 1895SOL    HW217148   2.171   2.880   4.974  0.9335 -0.0771  1.1797
 1896SOL     OW17149   4.034   0.355   0.444  0.2393  0.3395 -0.4322
 1896SOL    HW117150   4.125   0.385   0.443 -0.6105  2.8936  2.4192
 1896SOL    HW217151   4.050   0.262   0.463 -3.2649  0.3213  2.3340
 1897SOL     OW17152   4.660   0.134   7.557  0.0922 -0.3183  0.0067
 1897SOL    HW117153   4.710   0.212   7.581  2.3069 -1.1703 -1.8252
 1897SOL    HW217154   0.002   0.066   7.542 -1.1665 -1.8246  1.2907
 1898SOL     OW17155   3.212   4.116   4.218  0.1330  0.0522  0.0774
 1898SOL    HW117156   3.239   4.203   4.188  2.2082 -0.4756  0.4203
 1898SOL    HW217157   3.231   4.063   4.141  1.4164 -0.6018  0.8408
 1899SOL     OW17158   0.696   3.973   8.935  0.6503 -0.8634  0.2729
 1899SOL    HW117159   0.703   3.882   8.962 -0.3664 -0.6960  1.1269
 1899SOL    HW217160   0.767   3.977   8.870 -0.7427 -1.9973 -1.3289
 1900SOL     OW17161   3.624   1.492   3.684 -0.0174 -0.5436  0.0076
 1900SOL    HW117162   3.603   1.479   3.777  1.3291 -0.8659  0.2782
 1900SOL    HW217163   3.715   1.462   3.684 -0.1757 -1.0298  0.2559
 1901SOL     OW17164   4.510   3.987   2.467  0.3025 -0.0154 -0.6656
 1901SOL    HW117165   4.595   3.945   2.480  0.3225 -0.2812 -1.6550
 1901SOL    HW217166   4.529   4.073   2.504 -1.3009  0.2145 -0.3757
 1902SOL     OW17167   2.342   3.563  13.859  0.2389  0.1737 -0.0256
 1902SOL    HW117168   2.337   3.468  13.842  2.0366 -0.3789  2.7044
 1902SOL    HW217169   2.269   3.582  13.918  0.4028  0.2462  0.1516
 1903SOL     OW17170   0.081   3.794  10.199  0.8860 -0.2288 -0.3487
 1903SOL    HW117171   0.171   3.769  10.178  0.7540 -0.1646 -0.9987
 1903SOL    HW217172   0.069   3.870  10.141  2.0582  0.0434 -0.2248
 1904SOL     OW17173   1.737   3.726   3.988  0.2012  0.1879  0.1939
 1904SOL    HW117174   1.811   3.746   3.931  2.7560 -0.2239  3.3688
 1904SOL    HW217175   1.744   3.798   4.050 -0.4834  0.2342  0.2170
 1905SOL     OW17176   0.481   3.904   2.338  0.2872 -0.5850 -0.2683
 1905SOL    HW117177   0.431   3.885   2.259 -1.3755  1.4215  0.3036
 1905SOL    HW217178   0.549   3.963   2.304 -1.3843  3.1441  2.8494
 1906SOL     OW17179   3.598   1.373   7.338 -0.4011  0.0456 -0.1331
 1906SOL    HW117180   3.582   1.285   7.372  1.1311 -0.2899 -0.2958
 1906SOL    HW217181   3.583   1.432   7.412  2.2295  0.7134 -0.1438
 1907SOL     OW17182   3.536   3.642  10.020  0.5892 -0.2832 -0.1266
 1907SOL    HW117183   3.580   3.557  10.029  0.7964 -0.2509 -0.8430
 1907SOL    HW217184   3.446   3.611  10.034  0.4827 -0.7369 -1.7182
 1908SOL     OW17185   0.613   0.029   0.628  0.1483  0.1336 -0.4342
 1908SOL    HW117186   0.587   0.007   0.538  0.1768  1.1154 -0.6851
 1908SOL    HW217187   0.594   4.673   0.675  0.7612 -2.1382 -4.0092
 1909SOL     OW17188   3.989   3.130   4.057 -0.1647  0.3239 -0.0857
 1909SOL    HW117189   3.993   3.225   4.068  2.4795  0.3145 -0.9847
 1909SOL    HW217190   4.059   3.098   4.000 -1.3064 -2.1097 -0.0987
 1910SOL     OW17191   2.969   1.164   9.352 -0.1609 -0.6893  0.3270
 1910SOL    HW117192   2.890   1.211   9.381  0.6434  0.3119  0.9024
 1910SOL    HW217193   2.959   1.081   9.398  0.4098 -1.9960 -1.9254
 1911SOL     OW17194   3.552   1.819   8.149  0.2470 -0.1532 -0.4292
 1911SOL    HW117195   3.629   1.869   8.177 -0.8592  0.9383  0.6508
 1911SOL    HW217196   3.580   1.728   8.143 -1.7091 -0.7910  0.2027
 1912SOL     OW17197   4.619   3.085   7.992 -0.4206  1.0904  0.3846
 1912SOL    HW117198   4.666   3.085   7.909 -0.5250 -1.8203  0.3261
 1912SOL    HW217199   4.547   3.146   7.982 -1.7102 -0.4236  0.4085
 1913SOL     OW17200   2.209   3.090   4.624 -0.4604  0.3271  0.5487
 1913SOL    HW117201   2.276   3.139   4.672  0.1898  0.5293 -0.5756
 1913SOL    HW217202   2.227   3.004   4.660 -1.9298 -0.1578  0.1201
 1914SOL     OW17203   4.510   2.530   6.228 -0.1124 -0.2029  0.2400
 1914SOL    HW117204   4.483   2.584   6.153  0.0508 -0.1504  0.2191
 1914SOL    HW217205   4.592   2.491   6.197 -0.2737  0.7289 -1.3506
 1915SOL     OW17206   0.014   1.648  15.263 -0.6518  0.5141  0.1833
 1915SOL    HW117207   0.026   1.733  15.221  3.1306 -0.9739 -1.7255
 1915SOL    HW217208   4.644   1.657  15.277 -0.5771  1.3738  0.1365
 1916SOL     OW17209   2.493   2.568   8.062  0.0300  0.3179  0.1669
 1916SOL    HW117210   2.415   2.547   8.011  0.4579 -1.9923  0.4615
 1916SOL    HW217211   2.457   2.621   8.133 -1.7107 -1.2359  0.4247
 1917SOL     OW17212   1.410   0.339  11.297  0.4240 -0.1024 -0.2740
 1917SOL    HW117213   1.327   0.381  11.319  0.9328  0.7795 -0.0464
 1917SOL    HW217214   1.475   0.377  11.356 -0.4119 -0.1775  0.6897
 1918SOL     OW17215   2.247   1.481   2.844 -0.4861  0.3041 -0.6407
 1918SOL    HW117216   2.181   1.431   2.796  1.0595 -1.1281 -1.2942
 1918SOL    HW217217   2.204   1.565   2.828  1.2822  1.7280  2.0644
 1919SOL     OW17218   0.537   4.154  10.987 -0.0707 -0.6581 -0.0003
 1919SOL    HW117219   0.477   4.109  10.927  0.8212 -1.8529  0.0015
 1919SOL    HW217220   0.505   4.116  11.069 -2.8088  0.9048 -0.3435
 1920SOL     OW17221   1.105   0.834   2.993  0.0242  0.5028 -0.0127
 1920SOL    HW117222   1.131   0.867   2.907 -1.9517  1.0273 -0.4117
 1920SOL    HW217223   1.016   0.804   2.977 -0.4553  1.6530  0.4894
 1921SOL     OW17224   3.175   1.838  17.576 -0.0700  0.3211  0.3975
 1921SOL    HW117225   3.196   1.752  17.538 -1.4248  0.2589 -0.2071
 1921SOL    HW217226   3.238   1.851  17.647  0.0534 -2.2705  0.7745
 1922SOL     OW17227   2.668   2.965   2.745  0.3905 -0.9663  0.0841
 1922SOL    HW117228   2.581   3.004   2.756  0.3898 -1.9622  3.5409
 1922SOL    HW217229   2.671   2.948   2.651 -2.0321 -2.1817  0.2182
 1923SOL     OW17230   0.323   0.647   9.019 -0.0946 -0.5499 -0.2084
 1923SOL    HW117231   0.322   0.736   9.055 -0.9898  0.6919 -3.2616
 1923SOL    HW217232   0.292   0.595   9.093  1.3102 -0.4734  0.4354
 1924SOL     OW17233   4.652   4.498   6.360 -0.2787 -0.2539 -0.7584
 1924SOL    HW117234   4.682   4.435   6.426 -1.0406  1.0500  0.8407
 1924SOL    HW217235   4.662   4.579   6.410 -1.1954 -0.0334 -0.9237
 1925SOL     OW17236   3.603   2.959   4.641  0.1928  0.5918 -0.7711
 1925SOL    HW117237   3.620   2.961   4.547  2.0560 -0.4579 -0.4586
 1925SOL    HW217238   3.512   2.932   4.648  0.6105 -0.5511  0.2314
 1926SOL     OW17239   2.282   0.068   9.687 -0.0188 -0.0237  0.1695
 1926SOL    HW117240   2.192   0.037   9.698 -0.6258  1.9221  0.6035
 1926SOL    HW217241   2.281   0.074   9.591 -0.6111  0.1348  0.1883
 1927SOL     OW17242   4.015   0.623   4.231  0.1651  0.1151  0.4942
 1927SOL    HW117243   4.045   0.714   4.227 -1.0125  0.5046  0.6993
 1927SOL    HW217244   4.048   0.593   4.147 -0.1830 -0.1584  0.4564
 1928SOL     OW17245   3.372   0.003  15.545 -0.4165  0.3250  0.4407
 1928SOL    HW117246   3.278   4.719  15.530 -0.2086  1.4318 -1.5770
 1928SOL    HW217247   3.377   4.668  15.619 -2.2988 -0.7468 -0.2846
 1929SOL     OW17248   0.177   4.152   3.647 -0.1525  0.5352 -0.2609
 1929SOL    HW117249   0.083   4.155   3.631 -0.0384  3.7708 -0.3034
 1929SOL    HW217250   0.170   4.083   3.713  1.1314  0.2647 -0.4132
 1930SOL     OW17251   1.787   3.615  16.117  0.6137  0.0421 -0.3127
 1930SOL    HW117252   1.737   3.535  16.103 -1.3584  1.1776  0.1449
 1930SOL    HW217253   1.806   3.616  16.210 -2.7267 -0.0281  0.3584
 1931SOL     OW17254   2.943   1.826  12.401  0.3612 -0.4867 -0.0827
 1931SOL    HW117255   2.977   1.772  12.330  1.4817 -1.1320  0.9407
 1931SOL    HW217256   2.994   1.907  12.396  2.4819 -1.9433 -1.9154
 1932SOL     OW17257   0.125   0.267   9.376 -0.1277 -0.0855 -0.0442
 1932SOL    HW117258   0.033   0.258   9.400 -0.1771  1.6809  0.3862
 1932SOL    HW217259   0.144   0.177   9.348 -1.8697 -0.8348  1.2166
 1933SOL     OW17260   2.575   2.012   3.521  0.5731  0.5570  0.0483
 1933SOL    HW117261   2.644   2.024   3.457  1.2782 -0.4357  0.6194
 1933SOL    HW217262   2.558   2.103   3.544  0.2412 -0.1447  2.5688
 1934SOL     OW17263   2.041   2.035  16.647  0.0437  0.7328 -0.1649
 1934SOL    HW117264   2.105   2.106  16.654  0.6457  0.3192 -1.6629
 1934SOL    HW217265   2.095   1.957  16.641 -2.8344 -1.4092  1.9759
 1935SOL     OW17266   3.180   0.542   6.933  0.7177 -0.1774  0.2931
 1935SOL    HW117267   3.188   0.578   6.845 -1.5089  1.1456  0.6379
 1935SOL    HW217268   3.191   0.448   6.916  2.4611 -0.1028  0.9596
 1936SOL     OW17269   0.699   2.687   3.783  0.2840 -0.1814  0.2196
 1936SOL    HW117270   0.677   2.779   3.767 -0.3477 -0.1566  1.2259
 1936SOL    HW217271   0.655   2.656   3.704 -0.6149 -1.1969  1.1180
 1937SOL     OW17272   4.338   2.357   7.231 -0.1543  0.6889 -0.0361
 1937SOL    HW117273   4.298   2.438   7.260  1.6672  1.5936 -0.0539
 1937SOL    HW217274   4.324   2.358   7.137 -1.9790 -1.4343  0.1896
 1938SOL     OW17275   4.247   1.446   6.882  0.5372  0.0949 -0.4636
 1938SOL    HW117276   4.290   1.458   6.967 -0.4509  1.7554 -0.2039
 1938SOL    HW217277   4.212   1.357   6.888  1.0730 -0.1295 -0.6297
 1939SOL     OW17278   2.071   4.268   8.996  0.2738  0.4082  0.0538
 1939SOL    HW117279   2.125   4.294   8.921  2.0226  0.3243  1.2613
 1939SOL    HW217280   2.102   4.180   9.017 -1.8160 -0.2092  0.5140
 1940SOL     OW17281   3.267   2.957   8.765  0.1481  0.4984  0.1258
 1940SOL    HW117282   3.198   2.902   8.802 -0.0917 -1.0948 -2.6644
 1940SOL    HW217283   3.286   3.002   8.847  0.5244  1.4897 -0.5066
 1941SOL     OW17284   0.663   3.803   2.950 -0.0793 -0.5849  0.0135
 1941SOL    HW117285   0.641   3.758   3.031 -1.5378 -0.9033 -0.5493
 1941SOL    HW217286   0.732   3.749   2.912  1.1234  1.5597 -0.9085
 1942SOL     OW17287   0.986   3.021   5.497  0.7599 -0.1396 -0.0574
 1942SOL    HW117288   1.036   3.066   5.429  0.1698  0.4490 -0.0998
 1942SOL    HW217289   1.003   3.079   5.571  0.0154 -0.6960  0.5437
 1943SOL     OW17290   0.168   4.525  12.838 -0.4885 -0.0677 -0.1366
 1943SOL    HW117291   0.188   4.504  12.930 -3.3689  1.3826  0.8251
 1943SOL    HW217292   0.186   4.618  12.843  1.1425 -0.3877 -0.0865
 1944SOL     OW17293   2.120   2.662  11.691 -0.6828  0.3506  0.8427
 1944SOL    HW117294   2.161   2.627  11.771  1.4782 -1.6725 -1.1639
 1944SOL    HW217295   2.197   2.676  11.635 -1.9927  0.6275 -0.8705
 1945SOL     OW17296   1.630   2.585   3.681 -0.1257  0.1857  0.1178
 1945SOL    HW117297   1.570   2.510   3.682  0.2867 -0.1733 -2.5784
 1945SOL    HW217298   1.596   2.641   3.752  0.1471 -0.9456  1.1435
 1946SOL     OW17299   0.071   2.372   1.974  0.2119  0.7515 -0.1588
 1946SOL    HW117300   4.715   2.361   2.025  2.0524 -1.0710  2.3573
 1946SOL    HW217301   0.080   2.468   1.979 -3.0131  1.0279  0.4902
 1947SOL     OW17302   3.728   1.946   0.145 -0.3477  0.5817  0.2598
 1947SOL    HW117303   3.791   1.874   0.145 -2.3726 -1.1771  0.7698
 1947SOL    HW217304   3.672   1.913   0.215 -1.7861  0.5728 -0.9006
 1948SOL     OW17305   2.929   1.462   9.638  0.4021  0.0961  0.4662
 1948SOL    HW117306   2.864   1.482   9.706 -0.4392  0.6187 -0.5021
 1948SOL    HW217307   2.879   1.388   9.603 -0.0213  2.1307 -3.2212
 1949SOL     OW17308   3.158   0.787   7.701  0.3861  0.1073  0.5477
 1949SOL    HW117309   3.176   0.719   7.766 -0.3126 -0.4270  0.1792
 1949SOL    HW217310   3.244   0.792   7.659  0.6778 -1.7364  0.9375
 1950SOL     OW17311   3.981   0.716  16.379 -0.0923 -0.6101 -0.0399
 1950SOL    HW117312   4.023   0.633  16.396  1.2799 -0.3674 -2.2522
 1950SOL    HW217313   3.894   0.675  16.387 -0.6862  0.5544 -0.4730
 1951SOL     OW17314   4.660   2.088   1.067 -0.5593  0.0670 -0.1509
 1951SOL    HW117315   4.675   2.006   1.114  1.4516  0.0935 -0.7687
 1951SOL    HW217316   0.020   2.104   1.027 -0.8513  1.7932 -0.0672
 1952SOL     OW17317   1.136   2.396  10.750  0.4377  0.5637  0.4175
 1952SOL    HW117318   1.092   2.322  10.709 -2.4695  2.0109  0.9235
 1952SOL    HW217319   1.205   2.341  10.788 -0.3096 -1.1670 -0.7135
 1953SOL     OW17320   1.392   4.130   6.129  0.2304  0.2526 -0.3479
 1953SOL    HW117321   1.354   4.206   6.087  4.3993  0.8331 -3.0926
 1953SOL    HW217322   1.319   4.084   6.170  1.0258  0.7115  1.5926
 1954SOL     OW17323   1.924   3.192   7.831  0.4799  1.0091  0.3364
 1954SOL    HW117324   1.989   3.149   7.887 -1.2402 -1.8026  0.1658
 1954SOL    HW217325   1.963   3.280   7.829  2.9988 -0.0875  0.6266
 1955SOL     OW17326   1.343   0.793   0.545 -0.7191 -0.2048  0.7482
 1955SOL    HW117327   1.314   0.715   0.592 -2.0174  0.9405  1.8230
 1955SOL    HW217328   1.307   0.865   0.595 -2.3564  0.6065 -1.6101
 1956SOL     OW17329   0.285   0.736   8.261  0.0262  0.1480 -0.0384
 1956SOL    HW117330   0.274   0.822   8.302 -1.1720 -0.1260  0.2023
 1956SOL    HW217331   0.346   0.769   8.195  0.4202 -0.9853 -0.2527
 1957SOL     OW17332   1.441   2.388   7.079 -0.4522  0.3349  0.2698
 1957SOL    HW117333   1.422   2.296   7.100 -0.8717  0.2972 -0.2762
 1957SOL    HW217334   1.536   2.384   7.093 -0.3344  0.4979 -0.4807
 1958SOL     OW17335   3.717   1.057   8.069 -0.4132 -0.5561 -0.0218
 1958SOL    HW117336   3.731   1.017   8.155 -0.4960  1.7795  1.0757
 1958SOL    HW217337   3.790   1.028   8.014 -1.1314 -1.3151 -0.5760
 1959SOL     OW17338   4.576   4.332  12.286  0.9565 -0.1514 -0.6399
 1959SOL    HW117339   4.571   4.244  12.249  1.3702 -0.0686 -0.8892
 1959SOL    HW217340   4.563   4.382  12.206 -2.5158 -0.9037 -0.5679
 1960SOL     OW17341   1.589   2.367   4.061  0.4633  0.5101 -0.4116
 1960SOL    HW117342   1.677   2.352   4.026  0.6921  1.5410 -0.2723
 1960SOL    HW217343   1.536   2.295   4.026 -0.1824  1.5334 -1.5270
 1961SOL     OW17344   3.927   4.103   4.121 -0.0579  0.2001 -0.3322
 1961SOL    HW117345   3.977   4.052   4.057  0.1075  1.2309 -1.0230
 1961SOL    HW217346   3.913   4.178   4.063 -0.7312  1.0239  0.8917
 1962SOL     OW17347   2.019   1.139   3.093  1.0591 -0.0595  0.0170
 1962SOL    HW117348   2.037   1.068   3.032  0.6124  1.0386 -1.3918
 1962SOL    HW217349   1.949   1.184   3.045  0.8151 -0.0728  0.3638
 1963SOL     OW17350   1.454   4.532   5.458 -0.0170 -0.0624  0.1991
 1963SOL    HW117351   1.478   4.571   5.374 -0.5651  0.8193  0.4505
 1963SOL    HW217352   1.407   4.452   5.433  0.6001 -0.0939 -0.8319
 1964SOL     OW17353   0.323   4.566  12.601 -0.1601 -0.5811  0.4511
 1964SOL    HW117354   0.249   4.535  12.654 -1.3046  1.5509  0.1100
 1964SOL    HW217355   0.395   4.510  12.631 -0.6814 -3.0849 -3.0067
 1965SOL     OW17356   3.082   3.217   8.547  0.8608  0.5421  0.1149
 1965SOL    HW117357   3.050   3.127   8.551 -0.0259  0.8362 -0.4416
 1965SOL    HW217358   3.147   3.206   8.478  1.3442  4.1269  0.0349
 1966SOL     OW17359   0.876   3.321  17.260  0.6415  0.2528 -0.0109
 1966SOL    HW117360   0.851   3.268  17.184 -1.6883 -0.4075  1.2255
 1966SOL    HW217361   0.887   3.257  17.331  1.3277  0.0957 -0.2596
 1967SOL     OW17362   2.217   0.922  14.432  0.3811  0.2385 -0.5936
 1967SOL    HW117363   2.208   0.970  14.350  2.9599  0.9662 -0.4426
 1967SOL    HW217364   2.199   0.982  14.504  0.4199 -0.6088  0.1303
 1968SOL     OW17365   0.642   3.630  15.233  0.2425 -0.2105  0.1170
 1968SOL    HW117366   0.601   3.712  15.206  0.7754 -0.1218 -0.4068
 1968SOL    HW217367   0.678   3.599  15.150 -0.3370  0.5606 -0.4229
 1969SOL     OW17368   0.359   0.890   9.841  0.2805  0.1686 -0.3492
 1969SOL    HW117369   0.360   0.985   9.834  0.9414  0.2565  0.9357
 1969SOL    HW217370   0.267   0.876   9.864  0.4020  1.2138  0.7429
 1970SOL     OW17371   3.461   0.368   0.493  0.1073  0.2557  0.3661
 1970SOL    HW117372   3.548   0.346   0.461  0.3376  1.2797  0.2824
 1970SOL    HW217373   3.481   0.450   0.540  1.3328  0.5709 -0.7239
 1971SOL     OW17374   0.891   4.666  15.225 -0.0976  0.2502 -0.3707
 1971SOL    HW117375   0.833   4.681  15.150 -0.2780 -1.4212 -0.5594
 1971SOL    HW217376   0.907   4.572  15.215 -1.1776  0.0999 -0.6330
 1972SOL     OW17377   2.121   1.443   3.175 -0.1773  0.6076 -0.0443
 1972SOL    HW117378   2.087   1.522   3.133  0.5015  0.7482 -0.3257
 1972SOL    HW217379   2.074   1.370   3.134 -0.4310  0.7092  0.0675
 1973SOL     OW17380   4.047   2.459   7.284 -0.2907 -0.6417 -0.7166
 1973SOL    HW117381   3.999   2.456   7.201  0.2842 -0.1169 -1.0768
 1973SOL    HW217382   4.071   2.369   7.301  3.1121  0.8620  2.4489
 1974SOL     OW17383   3.233   4.403  17.008  0.5992 -0.1041 -0.2879
 1974SOL    HW117384   3.308   4.391  17.066  0.7810  1.8409 -0.1054
 1974SOL    HW217385   3.199   4.488  17.037 -2.1074 -0.5722 -2.1086
 1975SOL     OW17386   1.413   3.001   9.899  0.2142 -0.0954  0.3183
 1975SOL    HW117387   1.460   2.998   9.982  1.1443  0.3352 -0.1864
 1975SOL    HW217388   1.406   2.908   9.879 -0.4918  0.0592 -0.1555
 1976SOL     OW17389   0.594   4.576   3.057  0.1641 -0.6638  0.0431
 1976SOL    HW117390   0.524   4.618   3.007  0.0877  0.5637  1.1671
 1976SOL    HW217391   0.607   4.635   3.132 -1.4171  0.0324 -0.2288
 1977SOL     OW17392   0.552   0.885   3.513  0.1969  0.3086  0.7136
 1977SOL    HW117393   0.582   0.794   3.514  0.5414  0.4256  0.9467
 1977SOL    HW217394   0.637   0.928   3.508  0.3914 -0.2715 -0.8772
 1978SOL     OW17395   4.273   0.587   4.063 -0.5127 -0.1194 -0.0989
 1978SOL    HW117396   4.294   0.672   4.024 -0.6867 -0.3928 -0.7778
 1978SOL    HW217397   4.199   0.553   4.014 -0.8548 -0.6808  0.8066
 1979SOL     OW17398   3.437   1.577   0.285 -0.5046 -0.2667 -0.1093
 1979SOL    HW117399   3.354   1.624   0.299  0.0419  0.6841 -0.0988
 1979SOL    HW217400   3.436   1.570   0.190 -1.6117 -1.8412  0.0113
 1980SOL     OW17401   1.633   3.203   3.813 -0.3620  0.0652 -0.0544
 1980SOL    HW117402   1.710   3.163   3.852  0.3862  1.3955 -0.2007
 1980SOL    HW217403   1.561   3.141   3.827 -0.5727  0.2180 -0.4592
 1981SOL     OW17404   1.557   3.774   5.081 -0.3676 -0.0183 -0.1209
 1981SOL    HW117405   1.617   3.838   5.040  1.7953 -1.4301  0.8795
 1981SOL    HW217406   1.485   3.777   5.018 -1.2362  0.0277  0.8738
 1982SOL     OW17407   0.379   3.647   2.478 -0.1018  0.0257  0.3868
 1982SOL    HW117408   0.380   3.617   2.387  2.6912  1.2833 -0.0052
 1982SOL    HW217409   0.367   3.741   2.465 -3.5414 -0.5703 -0.7641
 1983SOL     OW17410   0.847   3.367   0.308 -0.3462  0.5756  0.6585
 1983SOL    HW117411   0.868   3.282   0.269  0.3961  0.3617  1.5468
 1983SOL    HW217412   0.751   3.363   0.303 -0.2731  0.1841 -0.5550
 1984SOL     OW17413   1.095   0.310   2.735  0.1349  0.0789 -0.1854
 1984SOL    HW117414   1.175   0.308   2.787 -0.0796 -1.1587  0.0866
 1984SOL    HW217415   1.123   0.380   2.676 -0.1370 -1.9203 -2.6883
 1985SOL     OW17416   3.582   0.626   8.867  0.5050 -0.6815  0.6840
 1985SOL    HW117417   3.646   0.670   8.923  2.8112 -0.2074 -2.3703
 1985SOL    HW217418   3.615   0.658   8.783 -1.7452  0.0680  0.0631
 1986SOL     OW17419   4.397   3.835   3.528  0.4831 -0.2253  0.5064
 1986SOL    HW117420   4.370   3.891   3.456  1.1502 -1.4647 -0.6913
 1986SOL    HW217421   4.381   3.748   3.490 -2.6745  0.4801  0.2036
 1987SOL     OW17422   0.982   3.884  17.501  0.4053  0.6691 -0.1246
 1987SOL    HW117423   0.966   3.831  17.578 -1.1162  1.8262  0.3675
 1987SOL    HW217424   1.069   3.855  17.472  0.0811 -1.8297  1.4581
 1988SOL     OW17425   4.450   3.847   8.877 -0.1109 -0.2134  0.3008
 1988SOL    HW117426   4.485   3.909   8.814 -0.7727  0.4452  0.5773
 1988SOL    HW217427   4.495   3.880   8.954 -2.6136  0.0513  1.6752
 1989SOL     OW17428   2.954   0.330   4.802  0.1889  0.0206 -0.0794
 1989SOL    HW117429   2.947   0.360   4.892  0.7694 -1.5616  0.4947
 1989SOL    HW217430   3.045   0.347   4.778 -0.8968  2.1767 -2.6998
 1990SOL     OW17431   3.545   0.280   7.268 -0.3883  0.4078  0.1378
 1990SOL    HW117432   3.504   0.253   7.186 -0.8245  2.0744 -0.1866
 1990SOL    HW217433   3.463   0.306   7.310 -1.8882 -2.2145 -1.1845
 1991SOL     OW17434   0.679   2.723   8.926 -0.4523  0.3399 -0.5123
 1991SOL    HW117435   0.764   2.681   8.936  1.4732  4.4821  0.7783
 1991SOL    HW217436   0.704   2.812   8.900  0.8619  0.5401  1.4154
 1992SOL     OW17437   0.749   2.770   4.711 -0.6321  0.2086 -0.0960
 1992SOL    HW117438   0.774   2.750   4.801 -0.7203  1.0139  0.1073
 1992SOL    HW217439   0.834   2.795   4.675 -0.1137 -0.8556  0.4010
 1993SOL     OW17440   2.793   2.497   3.320  0.1063  0.4255  0.3908
 1993SOL    HW117441   2.872   2.447   3.301  0.7891  1.8560 -0.5249
 1993SOL    HW217442   2.786   2.471   3.412  1.7290 -0.6389  0.2030
 1994SOL     OW17443   1.815   1.722   1.857  0.1671 -0.3854 -0.3433
 1994SOL    HW117444   1.780   1.632   1.857  0.0945 -0.3643  0.5254
 1994SOL    HW217445   1.871   1.710   1.780  0.3706 -0.0627 -0.2428
 1995SOL     OW17446   1.897   1.234   2.829 -0.0553  0.1624  0.1583
 1995SOL    HW117447   1.903   1.206   2.738 -2.0739 -0.5742  0.2567
 1995SOL    HW217448   1.876   1.328   2.827 -1.6085 -0.1707  1.1107
 1996SOL     OW17449   3.947   3.431   0.416 -0.2961 -0.0002 -0.2176
 1996SOL    HW117450   3.879   3.495   0.437 -2.1958 -1.5657 -1.6583
 1996SOL    HW217451   3.931   3.430   0.322 -4.9779  1.8800  0.5503
 1997SOL     OW17452   2.416   1.539   4.360  0.1339 -0.3222 -0.5051
 1997SOL    HW117453   2.436   1.497   4.444 -2.5305  0.0240  0.3118
 1997SOL    HW217454   2.423   1.467   4.297 -0.3635 -1.0811  0.3027
 1998SOL     OW17455   1.387   0.668   2.885  0.1617  0.0186  0.0552
 1998SOL    HW117456   1.304   0.653   2.930  0.9472  0.7638  1.7275
 1998SOL    HW217457   1.364   0.750   2.841  0.3721  1.4360  2.6106
 1999SOL     OW17458   3.357   2.062   1.988  0.2206  0.4015  0.0158
 1999SOL    HW117459   3.334   2.148   2.023  0.2404  0.6366 -0.5535
 1999SOL    HW217460   3.447   2.054   2.021 -0.1327 -4.0916 -0.0908
 2000SOL     OW17461   2.796   2.839   2.164  0.0438 -0.0411  0.1370
 2000SOL    HW117462   2.870   2.781   2.144 -0.5077 -0.6705 -0.0464
 2000SOL    HW217463   2.831   2.919   2.124  1.3360  0.2239  1.7618
 2001SOL     OW17464   0.564   4.162   0.973 -0.1291 -0.1585  0.0503
 2001SOL    HW117465   0.472   4.189   0.968 -0.5640 -2.1463 -2.5558
 2001SOL    HW217466   0.601   4.215   1.044 -0.9017 -0.6811  0.8441
 2002SOL     OW17467   2.993   0.533   9.527 -0.2515  0.2423  0.1033
 2002SOL    HW117468   2.992   0.560   9.619 -1.5278 -0.3051  0.2411
 2002SOL    HW217469   2.911   0.568   9.493 -1.7251 -2.4732  0.9301
 2003SOL     OW17470   2.366   4.167  13.503 -0.1337 -0.1215 -0.0938
 2003SOL    HW117471   2.375   4.081  13.462  1.0342  0.3657 -0.8406
 2003SOL    HW217472   2.409   4.226  13.441 -0.3489  0.3825  0.2391
 2004SOL     OW17473   1.036   4.329  12.559 -0.3235  1.1783 -0.1137
 2004SOL    HW117474   1.114   4.286  12.592 -1.3209 -0.5261  0.0111
 2004SOL    HW217475   1.001   4.278  12.486 -0.3886  1.3476 -0.2033
 2005SOL     OW17476   2.411   3.654   6.440 -0.0666 -0.1308  0.0387
 2005SOL    HW117477   2.453   3.619   6.361 -0.1821 -0.6258  0.1945
 2005SOL    HW217478   2.323   3.672   6.407  0.0199  1.3439  0.6348
 2006SOL     OW17479   3.381   3.715   0.376  0.9706 -0.1547  0.3558
 2006SOL    HW117480   3.296   3.672   0.382  0.5448  0.6455 -0.0052
 2006SOL    HW217481   3.361   3.778   0.306  0.1529  0.3824  1.0789
 2007SOL     OW17482   3.208   0.411   3.482 -0.3869  0.1370  0.2058
 2007SOL    HW117483   3.173   0.344   3.541  1.1492 -0.3062  0.6266
 2007SOL    HW217484   3.134   0.431   3.425 -0.0162  5.0817  1.4798
 2008SOL     OW17485   1.498   2.942  17.305 -0.3901 -0.0152  0.0100
 2008SOL    HW117486   1.513   3.033  17.282 -1.0277  0.5348  1.7447
 2008SOL    HW217487   1.555   2.895  17.244 -1.6766 -0.3892 -0.9003
 2009SOL     OW17488   3.302   3.164   1.780 -0.4232 -0.1379  0.4801
 2009SOL    HW117489   3.258   3.095   1.829 -0.0399  0.9559  2.3645
 2009SOL    HW217490   3.390   3.145   1.813  0.8464 -0.4386 -3.0810
 2010SOL     OW17491   3.256   0.369   9.854 -0.6833 -0.1839  0.1824
 2010SOL    HW117492   3.218   0.426   9.921  0.6557 -0.1590  0.9118
 2010SOL    HW217493   3.208   0.290   9.880  1.0302 -0.8356  1.3413
 2011SOL     OW17494   4.037   1.108  12.042 -0.4300  0.0337  0.3855
 2011SOL    HW117495   3.972   1.058  12.091 -0.4816  0.2240  0.5085
 2011SOL    HW217496   4.008   1.095  11.952 -0.0113  0.4493  0.1878
 2012SOL     OW17497   0.616   3.324   9.457 -0.6459 -0.2656  0.0606
 2012SOL    HW117498   0.601   3.305   9.549  1.2215  0.3254  0.4836
 2012SOL    HW217499   0.636   3.237   9.422 -1.4131 -1.1093  1.7300
 2013SOL     OW17500   2.000   1.753   3.677  0.0417  0.1136  0.0877
 2013SOL    HW117501   1.944   1.806   3.733 -2.3086 -1.0852 -1.1043
 2013SOL    HW217502   2.047   1.822   3.630  0.2137 -1.0367 -1.4327
 2014SOL     OW17503   3.185   3.953   8.326  0.1992  0.5307 -0.2762
 2014SOL    HW117504   3.102   3.984   8.360  0.2986 -0.3779  0.7841
 2014SOL    HW217505   3.164   3.905   8.246 -1.6621 -1.2935  1.3296
 2015SOL     OW17506   1.796   4.384   5.726  0.2002 -0.3770 -0.3619
 2015SOL    HW117507   1.891   4.372   5.729  0.2851  0.1509 -0.7970
 2015SOL    HW217508   1.782   4.470   5.686  1.3290  0.3107  0.7376
 2016SOL     OW17509   3.643   3.040  16.964  0.4613  0.0440 -0.6134
 2016SOL    HW117510   3.699   3.007  16.894  0.0181 -1.4853 -0.2511
 2016SOL    HW217511   3.614   3.124  16.928 -0.1720  1.2121  2.6370
 2017SOL     OW17512   3.349   3.834  13.532 -0.2725  0.0790 -0.0701
 2017SOL    HW117513   3.258   3.823  13.504 -0.9906  3.3297  1.0123
 2017SOL    HW217514   3.352   3.928  13.544  0.4606  0.0750 -0.2571
 2018SOL     OW17515   0.931   2.384   0.471 -0.4437  0.1783  0.3557
 2018SOL    HW117516   0.988   2.308   0.484 -1.1231 -0.7443 -2.0364
 2018SOL    HW217517   0.933   2.418   0.560 -0.7175 -2.3887  1.3507
 2019SOL     OW17518   3.186   0.515   8.838 -0.1291  0.0471 -0.3004
 2019SOL    HW117519   3.199   0.602   8.801  1.3093  0.0069  0.1019
 2019SOL    HW217520   3.195   0.455   8.763  2.3646  0.4926 -0.3380
 2020SOL     OW17521   3.975   0.395  17.424 -0.2040  0.6149  0.3686
 2020SOL    HW117522   4.034   0.400  17.500  0.9956 -1.6836 -0.3923
 2020SOL    HW217523   3.994   0.474  17.374  0.2893 -0.1284 -0.6336
 2021SOL     OW17524   3.213   4.457   5.380  0.3608 -0.2458 -0.0431
 2021SOL    HW117525   3.209   4.419   5.467  0.5651  1.1069  0.5472
 2021SOL    HW217526   3.175   4.390   5.322 -0.3872 -0.4810  0.7199
 2022SOL     OW17527   1.460   0.498   3.844 -0.2390 -0.3653 -0.8320
 2022SOL    HW117528   1.537   0.442   3.856 -0.7479 -1.4111 -2.4201
 2022SOL    HW217529   1.509   0.563   3.794  1.9264 -0.3278  1.3494
 2023SOL     OW17530   2.307   1.925   7.004 -0.5985 -0.0810  0.1516
 2023SOL    HW117531   2.239   1.877   6.958 -0.1498  0.0847 -0.6781
 2023SOL    HW217532   2.323   1.863   7.076 -0.2291 -0.0290  0.1173
 2024SOL     OW17533   0.565   1.770   4.101 -0.2090 -0.1495 -0.2178
 2024SOL    HW117534   0.655   1.738   4.098 -0.4680 -0.7868 -1.0782
 2024SOL    HW217535   0.537   1.707   4.167  1.5545 -2.5458 -1.7423
 2025SOL     OW17536   1.613   4.033   5.984 -0.3334  0.2244  0.1306
 2025SOL    HW117537   1.683   4.005   6.043 -0.3837 -0.4992 -0.1540
 2025SOL    HW217538   1.535   4.011   6.035 -0.0896  0.5193  0.6283
 2026SOL     OW17539   4.201   2.022   5.860 -0.4036  0.6114  0.1915
 2026SOL    HW117540   4.109   2.031   5.886 -0.9104 -0.3338 -1.2921
 2026SOL    HW217541   4.204   1.932   5.827 -0.3243  0.7877 -0.2830
 2027SOL     OW17542   1.692   3.847  13.384 -0.0316  0.3486 -0.1308
 2027SOL    HW117543   1.739   3.919  13.342  0.2634  0.6635  0.7390
 2027SOL    HW217544   1.620   3.900  13.418  1.5765  2.1901  0.4453
 2028SOL     OW17545   0.102   2.899   1.085  0.3096  0.1374  0.0409
 2028SOL    HW117546   0.151   2.828   1.041 -1.4927 -0.9717 -0.1873
 2028SOL    HW217547   0.083   2.952   1.008  0.0361  0.5536  0.3985
 2029SOL     OW17548   0.327   4.425   3.249  0.3822  0.3121 -0.3602
 2029SOL    HW117549   0.292   4.420   3.338 -0.6522 -0.4289 -0.8071
 2029SOL    HW217550   0.407   4.375   3.266  0.8340  1.2127  0.1421
 2030SOL     OW17551   3.909   1.713   1.460  0.0461  0.0297  0.6441
 2030SOL    HW117552   3.902   1.697   1.554  0.9366  1.6834  0.9920
 2030SOL    HW217553   3.850   1.644   1.430  0.4563 -0.7756  1.7117
 2031SOL     OW17554   1.750   3.054   1.876  0.0898 -0.3807 -0.2745
 2031SOL    HW117555   1.822   3.093   1.924  0.1107  0.5068 -1.0284
 2031SOL    HW217556   1.677   3.084   1.930 -0.9859 -0.2902 -1.7608
 2032SOL     OW17557   2.134   3.913   2.295  0.2209  0.4420 -0.0947
 2032SOL    HW117558   2.201   3.852   2.263 -0.0664 -0.0267  0.1954
 2032SOL    HW217559   2.182   3.994   2.279  2.2894 -0.7637  0.0940
 2033SOL     OW17560   3.923   1.381  12.056 -0.6183  0.0734  0.4199
 2033SOL    HW117561   3.910   1.383  11.961  0.8921 -1.5654  0.1728
 2033SOL    HW217562   3.951   1.289  12.064 -0.5912  0.1936  1.7704
 2034SOL     OW17563   3.012   1.427  13.170 -0.0722 -0.3192  0.4773
 2034SOL    HW117564   3.023   1.335  13.146  3.5954 -0.1789  1.5951
 2034SOL    HW217565   2.921   1.428  13.200 -0.3627  0.4931 -0.4527
 2035SOL     OW17566   2.899   4.327   5.695 -0.1190 -0.0284 -0.6381
 2035SOL    HW117567   2.913   4.319   5.600  2.7258  1.7960 -0.4015
 2035SOL    HW217568   2.974   4.272   5.718 -0.2009  0.1209 -0.0383
 2036SOL     OW17569   0.500   2.417   2.871 -1.0579  0.0504 -0.0803
 2036SOL    HW117570   0.565   2.426   2.801 -0.7631 -1.8237 -0.0420
 2036SOL    HW217571   0.501   2.325   2.895  0.5932  0.4193  1.2786
 2037SOL     OW17572   4.015   4.460   5.979 -0.3829  0.1741 -0.0620
 2037SOL    HW117573   3.995   4.517   6.053 -1.0988 -0.0706 -0.0603
 2037SOL    HW217574   3.972   4.379   6.007 -1.1684 -0.0905 -2.0107
 2038SOL     OW17575   1.784   4.235   6.951  0.1896  0.2653 -0.3667
 2038SOL    HW117576   1.827   4.165   6.903 -0.4127 -1.0408  0.9943
 2038SOL    HW217577   1.759   4.188   7.031 -1.3711 -0.2993 -1.1925
 2039SOL     OW17578   1.004   1.327  15.407 -0.0461  0.2331 -0.4328
 2039SOL    HW117579   1.021   1.384  15.482  0.8235  2.7962 -2.5745
 2039SOL    HW217580   0.927   1.277  15.435 -2.5106  2.8413 -2.6017
 2040SOL     OW17581   1.545   1.017  16.441  0.0119  0.4329  0.4315
 2040SOL    HW117582   1.543   0.942  16.500  0.0761  0.4948  0.5128
 2040SOL    HW217583   1.598   0.977  16.372 -0.3560 -2.1092  1.6382
 2041SOL     OW17584   3.150   4.291  15.734 -0.0465  0.7138 -0.2096
 2041SOL    HW117585   3.066   4.336  15.729 -0.6044 -0.1740  1.1968
 2041SOL    HW217586   3.118   4.201  15.728  0.1197  0.8447 -3.4186
 2042SOL     OW17587   0.117   3.142   1.619 -0.0931  0.1812  0.3918
 2042SOL    HW117588   0.203   3.181   1.602 -1.1293  1.8485 -1.0170
 2042SOL    HW217589   0.046   3.183   1.570  0.5208  0.4002 -0.3225
 2043SOL     OW17590   0.657   0.919   2.523 -0.1581  0.1523  0.5843
 2043SOL    HW117591   0.606   0.995   2.550 -0.1707  0.0900  0.7354
 2043SOL    HW217592   0.585   0.857   2.518 -0.9976  1.0679  1.1563
 2044SOL     OW17593   2.129   0.956   8.663  0.3328  0.8196 -0.0547
 2044SOL    HW117594   2.198   0.973   8.727  0.7155 -1.0905  0.0408
 2044SOL    HW217595   2.046   0.971   8.710  0.1116  0.6378 -0.3883
 2045SOL     OW17596   2.150   2.951   5.671 -0.2034 -0.2559 -0.1741
 2045SOL    HW117597   2.098   2.871   5.684 -0.1622  0.1372  2.3611
 2045SOL    HW217598   2.148   2.973   5.578  1.4482  0.2439 -0.0837
 2046SOL     OW17599   1.455   0.682   8.442 -0.2396 -0.3639  0.1322
 2046SOL    HW117600   1.545   0.684   8.409  0.4259 -1.2589  1.8860
 2046SOL    HW217601   1.469   0.737   8.519 -0.8293  0.6713 -0.4855
 2047SOL     OW17602   1.464   1.992  13.625  0.0263 -0.0751  0.3521
 2047SOL    HW117603   1.420   2.031  13.700 -2.3695  0.1420 -1.1820
 2047SOL    HW217604   1.398   1.923  13.624 -0.2026  0.1364  1.3662
 2048SOL     OW17605   2.149   3.829  16.460 -0.7152  0.4208 -0.1054
 2048SOL    HW117606   2.136   3.885  16.536  0.9340  0.1075  0.4059
 2048SOL    HW217607   2.057   3.822  16.434 -1.5098  0.4856  2.7076
 2049SOL     OW17608   0.895   0.830   5.575 -0.3187  0.2708  0.6803
 2049SOL    HW117609   0.909   0.924   5.586  0.6584  0.2635 -0.5999
 2049SOL    HW217610   0.877   0.805   5.666  0.5593 -2.8242 -0.0210
 2050SOL     OW17611   4.562   2.083   9.496 -0.5795  0.0672  0.1107
 2050SOL    HW117612   4.581   2.164   9.449  2.8183 -1.5278 -1.2571
 2050SOL    HW217613   4.524   2.030   9.426  0.8500 -0.0622 -0.5693
 2051SOL     OW17614   0.779   2.687   0.821  0.2393  0.2368 -0.4194
 2051SOL    HW117615   0.828   2.751   0.874  0.8079  0.0313 -0.7025
 2051SOL    HW217616   0.723   2.650   0.890 -0.8687  1.2612 -0.7558
 2052SOL     OW17617   0.996   2.544   4.789  0.7752  1.0638 -0.1594
 2052SOL    HW117618   0.918   2.587   4.824 -0.6957 -1.7968  0.0918
 2052SOL    HW217619   0.981   2.538   4.695  1.4116 -0.2778 -0.1767
 2053SOL     OW17620   4.698   3.314   0.865 -0.0343 -0.5467 -0.5505
 2053SOL    HW117621   0.055   3.364   0.871 -1.5632  1.8891  0.2612
 2053SOL    HW217622   4.638   3.378   0.904 -0.7302 -0.0929 -2.3754
 2054SOL     OW17623   4.506   0.892   4.427  0.7764 -0.4723  0.5244
 2054SOL    HW117624   4.583   0.939   4.459  0.2777  0.6538  0.0511
 2054SOL    HW217625   4.527   0.799   4.443 -0.7643 -0.4278  2.8318
 2055SOL     OW17626   3.738   2.390   5.674 -0.0068  0.2135  0.4066
 2055SOL    HW117627   3.779   2.453   5.734  1.3698 -1.4971  1.2768
 2055SOL    HW217628   3.668   2.434   5.627  0.5292  1.4033  0.7225
 2056SOL     OW17629   2.770   0.729   0.027  0.1128  0.1690  0.2341
 2056SOL    HW117630   2.692   0.739  17.673  0.8577 -0.2483 -0.9264
 2056SOL    HW217631   2.734   0.719   0.115 -0.5435 -0.2520 -0.0873
 2057SOL     OW17632   1.235   2.887  15.326  0.2619  0.1165  0.2707
 2057SOL    HW117633   1.300   2.877  15.258  1.0387 -1.3969  1.2317
 2057SOL    HW217634   1.252   2.814  15.385  4.3260  1.7629  1.1171
 2058SOL     OW17635   3.392   3.104  10.726 -0.1256  0.1434 -0.0358
 2058SOL    HW117636   3.436   3.093  10.641 -1.2393  1.4121 -0.7849
 2058SOL    HW217637   3.337   3.025  10.726  0.2295 -0.1058 -0.5721
 2059SOL     OW17638   0.692   0.649   4.654  0.2974 -0.8464 -0.0359
 2059SOL    HW117639   0.694   0.633   4.749 -2.7841  2.3800  0.5705
 2059SOL    HW217640   0.607   0.622   4.620 -0.4585 -0.8511  1.8623
 2060SOL     OW17641   2.060   3.361   0.800 -0.1397  0.3512  0.4888
 2060SOL    HW117642   2.113   3.300   0.851 -1.8646 -2.4180 -1.0273
 2060SOL    HW217643   2.044   3.439   0.854 -1.9718 -0.2850  0.8539
 2061SOL     OW17644   4.242   4.160   9.700  0.2528 -0.2372 -0.2384
 2061SOL    HW117645   4.200   4.083   9.737 -0.4373 -1.1508 -2.9543
 2061SOL    HW217646   4.293   4.189   9.776  0.6111  0.7184 -0.8532
 2062SOL     OW17647   0.762   4.155   4.428  0.1005 -0.0571 -0.2330
 2062SOL    HW117648   0.745   4.076   4.480  0.7200 -1.1807 -1.7311
 2062SOL    HW217649   0.832   4.132   4.366  0.4937 -3.2268  1.3796
 2063SOL     OW17650   3.478   2.044   2.722 -0.1792 -0.7199 -0.0290
 2063SOL    HW117651   3.490   1.978   2.790 -1.3348  0.8428  1.6774
 2063SOL    HW217652   3.516   2.001   2.645  0.9446  1.1396 -0.5000
 2064SOL     OW17653   3.617   3.171   9.071  0.1017  0.3867  0.4240
 2064SOL    HW117654   3.526   3.149   9.053  0.1388  0.4423  0.1619
 2064SOL    HW217655   3.641   3.174   8.978  0.0658 -3.5958  0.2715
 2065SOL     OW17656   1.130   4.180  15.854 -0.0195  0.5458 -0.0430
 2065SOL    HW117657   1.215   4.192  15.812  0.2379 -1.0750  0.0284
 2065SOL    HW217658   1.157   4.142  15.937 -0.5798  2.0743  0.8542
 2066SOL     OW17659   0.828   2.976   7.288 -0.5470  0.4932  0.0871
 2066SOL    HW117660   0.875   3.049   7.248  1.1355 -1.0043 -0.6684
 2066SOL    HW217661   0.749   2.966   7.235  0.3296  2.8793 -1.6976
 2067SOL     OW17662   3.077   0.709  12.476 -0.2266 -0.4839  0.1835
 2067SOL    HW117663   3.150   0.696  12.537  0.8638 -1.5460 -1.3375
 2067SOL    HW217664   3.100   0.793  12.437  0.3090 -1.6812 -2.0868
 2068SOL     OW17665   3.944   3.688   6.747 -0.1312 -0.2416  0.0267
 2068SOL    HW117666   3.903   3.616   6.700  1.2312  0.4745 -2.2260
 2068SOL    HW217667   4.033   3.653   6.758  0.0863  0.4639  0.5781
 2069SOL     OW17668   2.459   1.832   6.237 -0.3693 -0.2661 -0.3307
 2069SOL    HW117669   2.395   1.845   6.306  0.3983  1.5756  0.0296
 2069SOL    HW217670   2.523   1.902   6.251 -1.7423  0.5911  1.4977
 2070SOL     OW17671   2.367   1.967   4.733  0.3489  0.2689  0.1041
 2070SOL    HW117672   2.324   1.883   4.743  1.0807  0.1960  2.6756
 2070SOL    HW217673   2.457   1.966   4.767  0.8550 -0.3406 -1.2900
 2071SOL     OW17674   1.826   1.438   4.767 -0.5227 -0.0030 -0.2071
 2071SOL    HW117675   1.847   1.518   4.718 -2.3772  0.8967  0.4661
 2071SOL    HW217676   1.836   1.373   4.697 -0.2079  1.0705 -1.1671
 2072SOL     OW17677   3.385   4.264   2.666 -0.0466  0.2712  0.0160
 2072SOL    HW117678   3.423   4.267   2.754 -0.7598 -1.0841  0.3861
 2072SOL    HW217679   3.307   4.211   2.684 -0.0378  0.6971  1.3257
 2073SOL     OW17680   1.984   1.296  17.558 -0.8775  0.2560  0.0059
 2073SOL    HW117681   1.925   1.335  17.494 -0.0509 -0.3150 -1.0928
 2073SOL    HW217682   1.926   1.295  17.635  0.2900 -0.5042  0.8761
 2074SOL     OW17683   4.547   4.622   4.667 -0.0177 -0.4650  0.2011
 2074SOL    HW117684   4.464   4.574   4.664  0.1812 -0.8292  0.4714
 2074SOL    HW217685   4.525   4.692   4.728  0.4269 -0.5003  0.4081
 2075SOL     OW17686   2.985   3.671   5.083 -0.4467 -0.5365 -0.2207
 2075SOL    HW117687   3.063   3.631   5.044 -1.6957 -0.0852 -3.1930
 2075SOL    HW217688   2.949   3.591   5.120  1.7357 -1.8725 -0.9657
 2076SOL     OW17689   3.698   0.763   3.232 -0.4235  0.2459  0.2530
 2076SOL    HW117690   3.758   0.696   3.265 -2.4768 -2.1918 -1.0094
 2076SOL    HW217691   3.749   0.843   3.246  1.4498 -1.2589  2.1590
 2077SOL     OW17692   1.779   0.518  17.520 -0.3833 -0.5761 -0.4703
 2077SOL    HW117693   1.786   0.571  17.599  3.9892 -0.9751 -0.5866
 2077SOL    HW217694   1.802   0.580  17.451 -1.1126 -0.5825 -0.7181
 2078SOL     OW17695   2.843   3.868  16.489  0.2078  0.1669 -0.0197
 2078SOL    HW117696   2.921   3.824  16.456 -1.0919 -2.5433  0.4973
 2078SOL    HW217697   2.875   3.938  16.545  0.3321 -1.5115  2.0019
 2079SOL     OW17698   0.632   1.905   4.921  0.1140  0.2660  0.2683
 2079SOL    HW117699   0.683   1.978   4.885 -2.2237  1.9364  0.2583
 2079SOL    HW217700   0.615   1.938   5.009  0.8409 -0.1674  0.5702
 2080SOL     OW17701   3.729   1.905   6.367  0.0077  0.1738 -0.1288
 2080SOL    HW117702   3.752   1.846   6.294  2.0024 -0.1016  0.7480
 2080SOL    HW217703   3.633   1.897   6.368 -0.0489  0.5906 -1.5288
 2081SOL     OW17704   0.399   2.688   8.911 -0.5371  0.3809 -0.3327
 2081SOL    HW117705   0.378   2.598   8.889 -1.0202  0.8470 -1.7528
 2081SOL    HW217706   0.493   2.684   8.926 -0.2603 -0.3500 -2.2868
 2082SOL     OW17707   4.564   0.468   6.820  0.1228  0.6679 -0.6411
 2082SOL    HW117708   4.507   0.432   6.888 -0.3230  1.5050 -0.5781
 2082SOL    HW217709   4.624   0.394   6.810  0.3503  0.5445  1.5535
 2083SOL     OW17710   1.336   4.319  14.271  0.0543  0.9035 -0.2975
 2083SOL    HW117711   1.258   4.373  14.267 -0.0406  0.8307  0.6605
 2083SOL    HW217712   1.398   4.353  14.205  0.6412  2.9164  1.3118
 2084SOL     OW17713   4.142   4.626  12.527  0.6025 -0.1801  0.0798
 2084SOL    HW117714   4.217   4.602  12.473  1.3422 -0.0656  1.0680
 2084SOL    HW217715   4.095   4.543  12.537 -0.6757  0.3432 -1.6351
 2085SOL     OW17716   2.104   1.718   8.946 -0.3113  0.4129 -0.1442
 2085SOL    HW117717   2.047   1.795   8.946  1.4223  1.6659  3.0743
 2085SOL    HW217718   2.086   1.680   8.859 -1.6925  0.3602  0.1644
 2086SOL     OW17719   1.322   2.283   0.655 -0.1141  0.5018  0.1662
 2086SOL    HW117720   1.413   2.299   0.629 -0.4003  1.6932 -0.0979
 2086SOL    HW217721   1.279   2.307   0.573  0.6753 -1.2314 -0.7432
 2087SOL     OW17722   1.459   3.952   9.503  0.0455  0.5320  0.2011
 2087SOL    HW117723   1.438   4.030   9.452 -0.2114 -0.6580 -1.5086
 2087SOL    HW217724   1.497   4.003   9.574 -1.6598  0.5006  1.1151
 2088SOL     OW17725   2.117   3.141  17.545 -0.7006  0.2348  0.2724
 2088SOL    HW117726   2.140   3.048  17.551 -1.2348  0.1095  0.4537
 2088SOL    HW217727   2.034   3.136  17.496  0.4870  2.4710 -1.9611
 2089SOL     OW17728   2.880   4.216   8.448  0.1182 -0.1149 -0.6033
 2089SOL    HW117729   2.931   4.280   8.498  0.5344 -2.7920  2.4102
 2089SOL    HW217730   2.799   4.266   8.438 -0.9553 -1.5478  0.9991
 2090SOL     OW17731   3.767   3.158   0.831  0.0629 -0.1258 -0.0077
 2090SOL    HW117732   3.750   3.251   0.844  4.3289  0.6659 -0.1285
 2090SOL    HW217733   3.768   3.115   0.917 -0.1799  0.7925  0.4502
 2091SOL     OW17734   1.622   3.009   2.658 -0.4575 -0.1450 -0.1760
 2091SOL    HW117735   1.581   3.095   2.667  0.4561  0.1187  1.5137
 2091SOL    HW217736   1.626   2.991   2.564 -2.0370 -1.4428  0.0145
 2092SOL     OW17737   2.847   1.318  15.240  0.2152  0.7923  0.0609
 2092SOL    HW117738   2.916   1.368  15.195 -0.2397  0.8895 -0.5286
 2092SOL    HW217739   2.876   1.315  15.331 -2.4347 -1.9755  0.8000
 2093SOL     OW17740   0.573   1.501  14.521 -0.4489  0.2649 -0.4324
 2093SOL    HW117741   0.516   1.574  14.498 -0.9319 -0.4461 -1.4965
 2093SOL    HW217742   0.582   1.454  14.438  2.2622  0.3135 -0.1641
 2094SOL     OW17743   2.415   3.910   3.498  0.0906 -0.2317 -0.2867
 2094SOL    HW117744   2.405   3.924   3.404  1.1529 -0.8927 -0.4947
 2094SOL    HW217745   2.509   3.902   3.509  0.3748  0.9075 -1.9271
 2095SOL     OW17746   2.605   1.512   6.350 -0.4951 -0.4447  0.5230
 2095SOL    HW117747   2.545   1.440   6.335 -0.0564 -0.3550 -1.7154
 2095SOL    HW217748   2.686   1.467   6.374 -0.9065 -0.7996  1.2394
 2096SOL     OW17749   1.179   4.165   0.457  0.3975 -0.2164 -0.3671
 2096SOL    HW117750   1.255   4.121   0.418  1.8956  1.5994  0.5229
 2096SOL    HW217751   1.220   4.240   0.500 -1.1844  1.2128 -1.3706
 2097SOL     OW17752   1.192   2.143   1.955 -0.1840  0.0511 -0.1190
 2097SOL    HW117753   1.147   2.059   1.943  0.9745 -0.4670 -0.7894
 2097SOL    HW217754   1.150   2.192   1.884  0.4735  0.3793 -0.2774
 2098SOL     OW17755   0.168   0.093   5.688 -0.1106  0.3939 -0.1029
 2098SOL    HW117756   0.163   0.094   5.784  1.3808 -1.1815  0.0003
 2098SOL    HW217757   0.249   0.145   5.681  0.7403 -0.9900 -0.5440
 2099SOL     OW17758   4.089   4.709  10.793  0.7967 -0.2899  0.8174
 2099SOL    HW117759   4.161   4.683  10.735 -0.4525  2.1652 -1.8273
 2099SOL    HW217760   4.039   4.629  10.774  2.2121 -0.3153 -2.8555
 2100SOL     OW17761   0.952   1.411   5.413  0.4257  0.3075  0.4686
 2100SOL    HW117762   0.948   1.394   5.319  0.8627 -1.6101  0.7942
 2100SOL    HW217763   0.972   1.504   5.416 -0.2073  0.4439  0.4426
 2101SOL     OW17764   3.485   3.427  10.352  0.8574  0.0010  0.2541
 2101SOL    HW117765   3.555   3.470  10.402  1.5872 -1.0499  0.1252
 2101SOL    HW217766   3.522   3.443  10.266  1.9064 -0.0264  0.6946
 2102SOL     OW17767   0.809   1.835   8.540  0.5912 -0.4969 -0.0020
 2102SOL    HW117768   0.857   1.874   8.467  1.1919 -0.2679  0.5152
 2102SOL    HW217769   0.728   1.806   8.497 -0.9702  1.7070  1.4576
 2103SOL     OW17770   0.252   0.342  13.774  0.7393  0.4608 -0.0876
 2103SOL    HW117771   0.282   0.261  13.734 -1.3078  0.6853 -2.0535
 2103SOL    HW217772   0.334   0.386  13.797 -0.0288  1.9915 -0.2268
 2104SOL     OW17773   0.854   2.355   1.218 -0.0567  0.1189 -0.7274
 2104SOL    HW117774   0.812   2.434   1.252  1.0509  0.1025  0.7020
 2104SOL    HW217775   0.828   2.366   1.127 -1.8481  0.7214 -0.1410
 2105SOL     OW17776   2.376   1.463   3.070  0.4076  0.5202  0.1623
 2105SOL    HW117777   2.333   1.457   2.984 -0.3238  0.1937  0.5485
 2105SOL    HW217778   2.299   1.467   3.126 -1.0852 -0.2090 -1.8490
 2106SOL     OW17779   3.947   3.731   3.243 -0.7470 -0.3709  0.1129
 2106SOL    HW117780   3.971   3.708   3.153 -0.0785  0.7078  0.0243
 2106SOL    HW217781   3.988   3.817   3.253  0.2172 -0.7565 -0.6157
 2107SOL     OW17782   1.589   1.589   6.229  0.1434 -0.0563  0.1220
 2107SOL    HW117783   1.552   1.560   6.312 -0.5636 -2.5916 -1.0711
 2107SOL    HW217784   1.585   1.684   6.237 -1.0977 -0.2454  1.6824
 2108SOL     OW17785   1.437   3.933   2.463  0.2898  0.0683  0.2873
 2108SOL    HW117786   1.407   3.871   2.529  1.6731 -0.6023  0.2994
 2108SOL    HW217787   1.449   4.013   2.515 -0.4336 -1.4435  2.7641
 2109SOL     OW17788   2.987   4.482  15.519  0.2678  0.2266  0.3800
 2109SOL    HW117789   3.019   4.572  15.530 -1.4945  0.6985  1.6507
 2109SOL    HW217790   2.932   4.470  15.596  0.6314 -1.5421  0.3766
 2110SOL     OW17791   0.249   2.325   6.078  0.1807  0.2639 -0.5265
 2110SOL    HW117792   0.237   2.282   5.993 -0.8092  0.3769 -0.4476
 2110SOL    HW217793   0.254   2.419   6.059  1.4702  0.5420  1.2108
 2111SOL     OW17794   2.886   3.176   8.032 -0.9917 -0.4710  0.0831
 2111SOL    HW117795   2.813   3.125   8.066 -0.4688 -1.9270 -0.9535
 2111SOL    HW217796   2.930   3.198   8.114  0.1326  2.9584 -1.4667
 2112SOL     OW17797   2.749   4.229   7.436 -0.0163  0.7752  0.0978
 2112SOL    HW117798   2.716   4.313   7.467  0.1886  1.6288 -2.0281
 2112SOL    HW217799   2.732   4.248   7.344 -0.5110  2.5273  0.5585
 2113SOL     OW17800   0.747   2.431   4.308 -0.2172  0.1399  0.0643
 2113SOL    HW117801   0.739   2.457   4.400  2.8723 -0.8298  0.6500
 2113SOL    HW217802   0.723   2.507   4.256  0.1113  1.1488  1.3959
 2114SOL     OW17803   1.434   1.118   3.555 -0.1252 -0.0436  0.1251
 2114SOL    HW117804   1.411   1.060   3.482 -3.4320 -2.0863  2.7863
 2114SOL    HW217805   1.363   1.181   3.558 -1.1771 -1.2220 -0.1781
 2115SOL     OW17806   0.876   2.499   7.641  0.1351 -0.4684  0.0190
 2115SOL    HW117807   0.919   2.465   7.719  3.0166 -0.2037 -1.4725
 2115SOL    HW217808   0.785   2.492   7.670 -0.3753 -0.0894 -1.4749
 2116SOL     OW17809   1.562   3.374  12.088  0.0149  0.1354  0.0805
 2116SOL    HW117810   1.516   3.368  12.004  2.4747  3.5626 -1.5302
 2116SOL    HW217811   1.648   3.342  12.060 -0.5210  1.0136 -2.6118
 2117SOL     OW17812   3.326   3.015   8.495 -0.4409 -0.0582 -0.2158
 2117SOL    HW117813   3.403   2.959   8.497 -0.0829  0.4676  1.2090
 2117SOL    HW217814   3.291   2.988   8.580  0.0968  2.3602  0.7767
 2118SOL     OW17815   1.416   3.869   4.836  0.3780 -0.2488 -0.4760
 2118SOL    HW117816   1.467   3.871   4.755  0.1758 -0.9025 -0.6186
 2118SOL    HW217817   1.357   3.941   4.816 -2.0933 -2.1962 -0.1135
 2119SOL     OW17818   1.232   0.166   4.955 -0.0833 -0.1861 -0.2048
 2119SOL    HW117819   1.177   0.229   5.001  2.8353  0.6727  2.0997
 2119SOL    HW217820   1.252   0.226   4.883 -0.4408 -2.0107 -1.8152
 2120SOL     OW17821   4.480   1.869   1.516  0.0578  0.3571 -0.6839
 2120SOL    HW117822   4.494   1.793   1.460 -0.2229  0.0662 -0.3632
 2120SOL    HW217823   4.546   1.928   1.480  0.6596 -0.3375 -0.7261
 2121SOL     OW17824   0.567   0.397   0.410  0.0765  0.2908 -0.2674
 2121SOL    HW117825   0.508   0.393   0.335 -1.5344  0.4801  1.0011
 2121SOL    HW217826   0.570   0.488   0.438 -1.4100  1.2988 -3.3746
 2122SOL     OW17827   2.160   0.484   6.700  0.3585  0.2513 -0.0249
 2122SOL    HW117828   2.200   0.570   6.702  0.3230  0.2800 -0.5115
 2122SOL    HW217829   2.152   0.471   6.606  2.1857  1.0630 -0.2781
 2123SOL     OW17830   1.579   1.094   8.583 -0.2511 -0.5203 -0.5163
 2123SOL    HW117831   1.604   1.146   8.660 -3.4113 -1.2150  0.9538
 2123SOL    HW217832   1.526   1.027   8.625  0.3876 -1.5705 -1.4035
 2124SOL     OW17833   2.016   0.296   3.736 -0.1954 -0.1117  0.2865
 2124SOL    HW117834   2.105   0.311   3.705 -0.4059 -0.0998 -0.3225
 2124SOL    HW217835   1.990   0.386   3.756  0.0053  0.3412 -1.5105
 2125SOL     OW17836   3.324   0.854  17.456 -0.1671  0.0388 -0.0003
 2125SOL    HW117837   3.399   0.863  17.515 -0.3958  0.9380  0.1508
 2125SOL    HW217838   3.270   0.789  17.499  0.8819 -1.8975 -1.6037
 2126SOL     OW17839   2.944   2.433   4.974 -0.5231  0.7279  0.1466
 2126SOL    HW117840   2.913   2.405   4.888  1.3235 -0.9182 -0.0149
 2126SOL    HW217841   2.957   2.527   4.967  1.2536  0.4911  0.0313
 2127SOL     OW17842   0.342   2.026   3.599 -0.2371  0.2558 -0.0127
 2127SOL    HW117843   0.256   2.049   3.634 -0.6241 -0.7640 -0.2907
 2127SOL    HW217844   0.398   2.043   3.674  1.5855  3.5048 -2.0793
 2128SOL     OW17845   0.188   0.665   7.710 -0.0298  0.2683  0.3136
 2128SOL    HW117846   0.195   0.642   7.617 -1.8357  0.0934  0.2186
 2128SOL    HW217847   0.092   0.672   7.715 -0.0548 -0.4790  0.9482
 2129SOL     OW17848   1.244   0.630   8.266 -0.1737 -0.2995 -0.0363
 2129SOL    HW117849   1.242   0.536   8.250  0.5300 -0.2756 -0.2617
 2129SOL    HW217850   1.327   0.638   8.312  0.5329 -1.6489 -1.0852
 2130SOL     OW17851   4.478   1.530   2.265  0.4174  0.0472 -0.2602
 2130SOL    HW117852   4.532   1.587   2.210  2.8467 -0.4548  1.6070
 2130SOL    HW217853   4.471   1.454   2.207 -1.3614  0.1359 -0.1532
 2131SOL     OW17854   1.098   0.138  11.474  0.6615 -0.3897  0.0739
 2131SOL    HW117855   1.011   0.177  11.467  0.3928 -1.0599 -0.2960
 2131SOL    HW217856   1.104   0.078  11.400  0.7116  1.2147 -1.2020
 2132SOL     OW17857   1.833   3.294   9.405  0.0137 -0.3017 -0.2765
 2132SOL    HW117858   1.773   3.324   9.473 -3.5756 -1.1221 -3.0279
 2132SOL    HW217859   1.920   3.320   9.434 -1.0920  0.9353  1.9244
 2133SOL     OW17860   3.509   0.272   2.985  0.0196 -0.9212  0.1383
 2133SOL    HW117861   3.592   0.301   3.021 -0.1273 -0.9524  0.4994
 2133SOL    HW217862   3.468   0.215   3.050 -2.0185  1.3825  0.8838
 2134SOL     OW17863   1.559   0.025   4.841  0.1359 -0.0649 -0.4585
 2134SOL    HW117864   1.646   0.064   4.854 -0.8853  2.2618 -0.6459
 2134SOL    HW217865   1.527   0.087   4.776  1.6560  0.4749 -0.7085
 2135SOL     OW17866   3.524   0.588   7.235 -0.6242 -0.1789 -0.3906
 2135SOL    HW117867   3.457   0.601   7.169 -2.0112  0.5065  1.1614
 2135SOL    HW217868   3.475   0.577   7.316 -0.7408  2.7081 -0.0601
 2136SOL     OW17869   2.317   1.147   3.944  0.4233 -0.8780 -0.4646
 2136SOL    HW117870   2.344   1.074   4.000  4.0991  0.1725 -0.9019
 2136SOL    HW217871   2.374   1.131   3.869  0.3854  0.8025 -0.8462
 2137SOL     OW17872   4.451   4.285   4.953  0.3409 -0.1389  0.2013
 2137SOL    HW117873   4.416   4.197   4.939 -0.0367 -0.1007  0.8491
 2137SOL    HW217874   4.374   4.314   5.003  1.2537  1.0889  0.8857
 2138SOL     OW17875   4.370   4.481   5.762 -0.1873  0.2084 -0.1364
 2138SOL    HW117876   4.368   4.386   5.768 -0.1995  0.0941 -2.0029
 2138SOL    HW217877   4.430   4.504   5.832  1.0382  2.2898 -1.8617
 2139SOL     OW17878   3.615   4.125  14.066  0.0089  0.0056 -0.0520
 2139SOL    HW117879   3.662   4.101  14.146 -1.6253  1.7233  1.4332
 2139SOL    HW217880   3.608   4.047  14.012  0.6489 -0.7054  0.8804
 2140SOL     OW17881   1.232   0.464   4.178 -0.1911  0.0092  0.1180
 2140SOL    HW117882   1.154   0.513   4.202 -1.4759 -1.1546 -1.6721
 2140SOL    HW217883   1.248   0.418   4.261  2.4005 -0.2198 -0.5175
 2141SOL     OW17884   3.737   4.100   9.927  0.1616 -0.3011  0.2081
 2141SOL    HW117885   3.710   4.017   9.966 -2.4848 -0.8147 -2.7005
 2141SOL    HW217886   3.651   4.137   9.906 -0.1178 -0.9201  0.2668
 2142SOL     OW17887   1.403   4.567   6.171 -1.1150  0.4731 -0.2990
 2142SOL    HW117888   1.485   4.580   6.220  0.5211  0.0299 -2.9095
 2142SOL    HW217889   1.350   4.624   6.227 -3.4748 -0.2957 -1.7564
 2143SOL     OW17890   2.522   1.601  16.781  0.1348 -0.2187 -0.1991
 2143SOL    HW117891   2.582   1.609  16.707 -0.3503 -2.1952 -0.8082
 2143SOL    HW217892   2.563   1.536  16.838  1.1954  1.2830  0.7174
 2144SOL     OW17893   4.370   3.286   7.009 -0.3781  0.0080  0.4647
 2144SOL    HW117894   4.275   3.287   7.018 -0.2340 -3.6646  2.3370
 2144SOL    HW217895   4.381   3.196   6.980 -1.1567 -1.0133  3.3742
 2145SOL     OW17896   4.152   0.267   9.571 -0.1474 -0.2253  0.7964
 2145SOL    HW117897   4.147   0.361   9.555 -1.9551 -0.5446 -0.5642
 2145SOL    HW217898   4.069   0.264   9.619  0.3182  1.4419  1.6896
 2146SOL     OW17899   2.964   0.545   0.132 -0.4791 -0.6513 -0.4918
 2146SOL    HW117900   2.924   0.614   0.078 -0.5621 -1.6529 -1.7084
 2146SOL    HW217901   2.917   0.553   0.215 -1.5695  2.0203 -1.3487
 2147SOL     OW17902   3.858   0.904   1.061  0.1041 -0.1791  0.1060
 2147SOL    HW117903   3.816   0.972   1.114  0.0992  1.1834 -1.6304
 2147SOL    HW217904   3.844   0.828   1.117  0.6358 -1.5620 -1.6341
 2148SOL     OW17905   0.301   0.750   4.736  0.3285  0.6266 -0.3113
 2148SOL    HW117906   0.338   0.678   4.684  0.6458  0.5356  0.0339
 2148SOL    HW217907   0.284   0.704   4.818  0.2338  1.5805  0.2033
 2149SOL     OW17908   2.816   3.535   3.492 -0.0777  0.6229  0.0178
 2149SOL    HW117909   2.725   3.561   3.506  0.5627  2.2642  1.0399
 2149SOL    HW217910   2.844   3.605   3.433  0.2941  0.1881 -0.3234
 2150SOL     OW17911   3.819   2.903   7.619  0.3375  0.2228  0.1472
 2150SOL    HW117912   3.832   2.894   7.524 -0.4170  2.9104 -0.2080
 2150SOL    HW217913   3.747   2.839   7.617 -0.0255  0.6353  0.0275
 2151SOL     OW17914   0.210   2.641   9.994  0.1160  0.5663  0.0258
 2151SOL    HW117915   0.279   2.583   9.963 -0.9245 -0.1610 -0.9491
 2151SOL    HW217916   0.242   2.671  10.079  1.4399  0.9673 -0.6193
 2152SOL     OW17917   1.998   2.294   7.129 -0.0376 -1.1505 -0.5486
 2152SOL    HW117918   2.039   2.372   7.168 -1.0720 -1.9531  2.1497
 2152SOL    HW217919   2.071   2.266   7.075  1.2880  0.1314  0.5856
 2153SOL     OW17920   1.547   3.598   4.138 -0.1549 -0.2766 -0.1414
 2153SOL    HW117921   1.601   3.653   4.081 -0.1834  0.3644  0.4489
 2153SOL    HW217922   1.563   3.508   4.110 -1.0654 -0.7467  0.8446
 2154SOL     OW17923   1.008   1.504   3.085  0.0403 -0.3679  0.2309
 2154SOL    HW117924   1.005   1.452   3.165 -1.3780  3.0354  2.4046
 2154SOL    HW217925   1.037   1.438   3.023 -0.4726 -1.5014  1.1990
 2155SOL     OW17926   0.635   4.098   7.626  0.1636  0.3408 -0.5744
 2155SOL    HW117927   0.683   4.166   7.580  1.4315  0.3865  0.8334
 2155SOL    HW217928   0.704   4.059   7.680 -0.0442 -0.3488 -0.8039
 2156SOL     OW17929   2.171   1.603   3.866 -0.3490  0.0503  0.3700
 2156SOL    HW117930   2.214   1.689   3.868  0.7864 -0.4938 -0.5928
 2156SOL    HW217931   2.133   1.607   3.778  2.1031  0.5391 -0.6947
 2157SOL     OW17932   0.265   0.930   7.478 -0.4325  0.0057  0.0327
 2157SOL    HW117933   0.218   0.995   7.529 -0.3170 -2.0814  2.8320
 2157SOL    HW217934   0.201   0.925   7.406  1.6860 -1.7826 -1.7367
 2158SOL     OW17935   3.584   4.345  14.638 -0.2242 -0.7155 -0.5494
 2158SOL    HW117936   3.598   4.288  14.563 -1.0569 -1.8483  0.1654
 2158SOL    HW217937   3.675   4.357  14.665 -0.9984  0.5453  1.4521
 2159SOL     OW17938   2.335   2.276   7.988 -0.1945  0.1032  0.3445
 2159SOL    HW117939   2.299   2.267   7.900 -1.9044  1.6686  0.8903
 2159SOL    HW217940   2.255   2.296   8.036  0.4971 -1.7380  2.2427
 2160SOL     OW17941   0.462   2.382  11.203 -0.1200  0.3548 -0.4093
 2160SOL    HW117942   0.398   2.415  11.265 -0.6562  0.2334 -0.8976
 2160SOL    HW217943   0.539   2.399  11.257  0.2624  0.2652 -0.9279
 2161SOL     OW17944   0.778   1.266   3.568  1.1330  0.0784 -0.1312
 2161SOL    HW117945   0.779   1.282   3.474  0.7924 -1.1699 -0.3488
 2161SOL    HW217946   0.792   1.172   3.560  0.9276  0.1743 -1.6707
 2162SOL     OW17947   3.334   4.610  10.684 -0.1218  0.0465 -0.0948
 2162SOL    HW117948   3.418   4.613  10.637 -0.9844 -1.4301 -1.7120
 2162SOL    HW217949   3.368   4.573  10.765 -0.1867 -0.0521 -0.1129
 2163SOL     OW17950   1.648   4.080   8.281 -0.0918 -0.3910 -0.7773
 2163SOL    HW117951   1.609   4.167   8.267 -1.7585 -0.9684  0.1855
 2163SOL    HW217952   1.728   4.108   8.325 -0.9103 -0.5286  0.8307
 2164SOL     OW17953   0.628   0.792   6.618  0.3841 -0.4572  0.1927
 2164SOL    HW117954   0.688   0.799   6.544  0.0339 -0.2939 -0.0747
 2164SOL    HW217955   0.548   0.834   6.586  0.5127  0.3725  0.9461
 2165SOL     OW17956   0.602   2.358  15.918 -0.2116  0.6202  0.0233
 2165SOL    HW117957   0.613   2.450  15.896 -4.3251  0.8317 -1.2983
 2165SOL    HW217958   0.619   2.353  16.012  1.2531  0.6972 -0.2392
 2166SOL     OW17959   3.703   3.553   0.482 -0.1362 -0.1342  0.2461
 2166SOL    HW117960   3.704   3.648   0.498  0.5086  0.2092 -1.8113
 2166SOL    HW217961   3.622   3.522   0.441 -0.9202  1.6381  0.4502
 2167SOL     OW17962   1.275   0.516   5.298 -0.1439 -0.0458  0.1580
 2167SOL    HW117963   1.235   0.542   5.381  0.4259 -3.8209  1.6196
 2167SOL    HW217964   1.261   0.593   5.243  2.3348 -0.5901 -1.2363
 2168SOL     OW17965   0.061   0.338   7.673  0.1925  0.5181  0.1720
 2168SOL    HW117966   0.050   0.331   7.768  0.5126 -1.0670  0.1015
 2168SOL    HW217967   0.047   0.430   7.650  1.6088  1.1072  1.6783
 2169SOL     OW17968   4.375   3.070   7.510  0.3839 -0.4005  0.2258
 2169SOL    HW117969   4.470   3.057   7.499  0.3098  0.1243 -1.0284
 2169SOL    HW217970   4.356   3.016   7.587 -0.4263  0.8285  0.8809
 2170SOL     OW17971   1.288   0.046   2.737  0.1806 -0.0721  0.5056
 2170SOL    HW117972   1.310   4.698   2.679 -2.0411 -0.9153  0.7238
 2170SOL    HW217973   1.216   0.090   2.692 -1.2691 -1.4787  1.4675
 2171SOL     OW17974   3.381   3.616   1.473  0.1480 -0.2879 -0.5677
 2171SOL    HW117975   3.336   3.577   1.548 -2.4759 -0.0725 -2.0424
 2171SOL    HW217976   3.462   3.646   1.514  0.4797 -1.4020 -0.4231
 2172SOL     OW17977   2.573   3.651  13.608 -0.2009  0.1964 -0.6400
 2172SOL    HW117978   2.587   3.641  13.514 -2.7633 -0.3171 -0.9790
 2172SOL    HW217979   2.654   3.697  13.629 -0.0258  0.6979 -2.4581
 2173SOL     OW17980   2.773   2.248  12.887 -0.3785  0.6390 -0.0115
 2173SOL    HW117981   2.866   2.247  12.908 -0.0302  0.3673 -1.5368
 2173SOL    HW217982   2.755   2.323  12.830 -0.9128  1.2542  0.9764
 2174SOL     OW17983   2.246   4.372   1.462 -0.6949  0.1010  0.6058
 2174SOL    HW117984   2.240   4.329   1.547 -0.0628  1.8148  1.5199
 2174SOL    HW217985   2.285   4.298   1.416 -0.9531  0.5738 -0.3750
 2175SOL     OW17986   2.487   2.079   3.048  0.0042 -0.2570  0.1015
 2175SOL    HW117987   2.432   2.143   3.093 -0.0330 -0.2343  0.0239
 2175SOL    HW217988   2.522   2.130   2.974 -0.7758  0.7412  0.4279
 2176SOL     OW17989   4.513   1.642   9.158 -0.3233  0.1472 -0.2605
 2176SOL    HW117990   4.546   1.553   9.172 -1.1374  0.0444  0.9437
 2176SOL    HW217991   4.530   1.658   9.065 -0.4080 -0.6818 -0.4212
 2177SOL     OW17992   0.038   0.922  15.801  0.0475 -0.0585 -0.2575
 2177SOL    HW117993   0.072   0.887  15.883  0.1576  0.4566 -0.0795
 2177SOL    HW217994   4.674   0.947  15.829  0.0471 -0.8168  0.3993
 2178SOL     OW17995   0.495   4.482   7.882  0.0748  0.6097  0.4329
 2178SOL    HW117996   0.577   4.456   7.841 -0.2726  1.5532 -0.8401
 2178SOL    HW217997   0.463   4.393   7.901 -1.2739  1.4931  2.2592
 2179SOL     OW17998   1.566   4.172   8.651  0.3219  0.5811 -0.4543
 2179SOL    HW117999   1.591   4.230   8.722  1.7701  0.6557 -1.0318
 2179SOL    HW218000   1.579   4.233   8.578  1.8077  0.9558  0.1318
 2180SOL     OW18001   4.024   2.726   4.546  0.0397 -0.1297  0.7127
 2180SOL    HW118002   4.105   2.768   4.516 -0.6625  1.2771  0.7820
 2180SOL    HW218003   4.007   2.667   4.473 -0.2982 -1.4310  1.8545
 2181SOL     OW18004   0.716   0.484  12.646 -0.1793  0.5048 -0.0670
 2181SOL    HW118005   0.752   0.422  12.708 -0.9241 -3.4717 -3.6343
 2181SOL    HW218006   0.771   0.558  12.672 -0.6444  0.3227  1.4375
 2182SOL     OW18007   0.643   4.712   5.263 -0.3727  0.2520  0.0336
 2182SOL    HW118008   0.565   4.662   5.289 -1.1384  3.2512  3.5137
 2182SOL    HW218009   0.711   4.702   5.330  0.4052  3.2201 -0.3170
 2183SOL     OW18010   2.336   0.623   8.934  0.1841 -0.3210  0.2621
 2183SOL    HW118011   2.253   0.656   8.968 -1.4369 -2.5749 -1.4964
 2183SOL    HW218012   2.310   0.537   8.900 -0.6763 -0.0721  0.2952
 2184SOL     OW18013   4.651   4.457   7.169 -0.0730  0.0144  0.1741
 2184SOL    HW118014   4.639   4.493   7.081 -1.0826 -0.6512  0.0345
 2184SOL    HW218015   4.678   4.366   7.157 -0.7007 -0.4197  1.9915
 2185SOL     OW18016   3.078   3.019   0.737 -0.3079 -0.1096  0.2230
 2185SOL    HW118017   3.026   3.067   0.801 -0.1075  0.0835  0.2413
 2185SOL    HW218018   3.168   3.051   0.745 -0.3066  0.4216 -1.8307
 2186SOL     OW18019   2.447   1.547   1.927 -0.6491 -0.5910 -0.1780
 2186SOL    HW118020   2.373   1.504   1.970 -0.6853 -0.6183 -0.2680
 2186SOL    HW218021   2.460   1.615   1.993  0.5366  0.6478 -1.6942
 2187SOL     OW18022   4.096   0.942   2.998 -0.2800  0.4141 -0.3681
 2187SOL    HW118023   4.163   0.874   3.007  0.4245  1.4085  1.6996
 2187SOL    HW218024   4.097   0.983   3.084  0.8683 -0.3297 -0.0252
 2188SOL     OW18025   0.176   1.898   9.337  0.5834 -0.2271  0.1179
 2188SOL    HW118026   0.091   1.881   9.297  0.2582  1.3071  0.1298
 2188SOL    HW218027   0.236   1.845   9.284  0.2620 -0.1110 -0.3612
 2189SOL     OW18028   2.519   0.217   2.981 -0.6789 -0.2153  0.6826
 2189SOL    HW118029   2.435   0.262   2.968 -0.7231 -0.8697 -1.3773
 2189SOL    HW218030   2.487   0.128   2.992 -0.9260 -0.1560  0.4499
 2190SOL     OW18031   1.484   0.812  11.409 -0.0066  0.3386  0.2638
 2190SOL    HW118032   1.502   0.849  11.496 -0.5716  2.5029 -0.5314
 2190SOL    HW218033   1.551   0.744  11.409  0.5455  0.8791  0.5691
 2191SOL     OW18034   1.624   4.472  13.811  0.2395  0.4379 -0.2256
 2191SOL    HW118035   1.656   4.457  13.722 -1.5771  0.7242 -0.9370
 2191SOL    HW218036   1.705   4.490  13.857  0.4042  1.1886 -0.8189
 2192SOL     OW18037   1.918   0.206   2.834 -0.3644  0.4880 -0.8145
 2192SOL    HW118038   1.827   0.193   2.810 -0.8328  1.4730  0.4351
 2192SOL    HW218039   1.945   0.290   2.798  0.8373  0.5834  0.2830
 2193SOL     OW18040   1.491   4.454   9.587  0.6041  0.2287  0.4878
 2193SOL    HW118041   1.532   4.540   9.589  0.1542  0.4792 -0.9078
 2193SOL    HW218042   1.443   4.461   9.669  0.2421  1.3426  0.1876
 2194SOL     OW18043   2.182   1.665   2.155 -0.3294  0.0587  0.1199
 2194SOL    HW118044   2.222   1.751   2.168  0.1266  0.2141 -2.3604
 2194SOL    HW218045   2.096   1.695   2.129 -0.8022  0.1011  1.7377
 2195SOL     OW18046   3.597   2.919   5.315  0.2181  0.2871 -0.4011
 2195SOL    HW118047   3.615   2.865   5.392  2.0900  1.3804 -0.0770
 2195SOL    HW218048   3.559   2.851   5.260  1.7796 -0.5334 -0.4650
 2196SOL     OW18049   3.859   4.001  11.391  0.5175 -0.0531 -0.7526
 2196SOL    HW118050   3.767   3.972  11.390  0.7889 -0.9417  0.3354
 2196SOL    HW218051   3.866   4.072  11.327 -4.7454  1.3197  0.2043
 2197SOL     OW18052   3.545   0.756   4.423 -0.7418  0.5494  0.7502
 2197SOL    HW118053   3.600   0.687   4.386 -0.6541  0.4369  1.0874
 2197SOL    HW218054   3.545   0.819   4.351  3.5417  0.9051  1.0671
 2198SOL     OW18055   3.188   1.671   5.136 -0.4295  0.0563  0.2893
 2198SOL    HW118056   3.226   1.584   5.150  1.8317  0.9828 -0.0897
 2198SOL    HW218057   3.142   1.650   5.054  2.1141  2.1548 -1.6752
 2199SOL     OW18058   3.508   0.899   8.047  0.0423  0.0688  0.3048
 2199SOL    HW118059   3.461   0.897   8.130  1.1720 -1.2108  0.9242
 2199SOL    HW218060   3.574   0.967   8.062 -0.3238  0.3768  0.5174
 2200SOL     OW18061   1.817   2.390   7.738  0.3334 -0.0545  0.4580
 2200SOL    HW118062   1.852   2.447   7.807 -1.1475 -0.4711  1.5549
 2200SOL    HW218063   1.897   2.346   7.708 -0.8171 -1.8170  0.0236
 2201SOL     OW18064   4.344   3.313   3.330 -0.6230 -0.8364 -0.4888
 2201SOL    HW118065   4.376   3.239   3.382  0.0572  0.7895  1.4270
 2201SOL    HW218066   4.263   3.278   3.292 -0.5522 -0.6698 -0.7924
 2202SOL     OW18067   0.390   3.545  14.176  0.9052 -0.3930  0.3397
 2202SOL    HW118068   0.407   3.465  14.126  0.2320  0.6658 -1.5633
 2202SOL    HW218069   0.442   3.516  14.251 -0.3731  0.3026  1.4945
 2203SOL     OW18070   4.492   2.996   2.919  0.0264  0.5221 -0.2989
 2203SOL    HW118071   4.581   2.966   2.938 -0.0911  1.0718  1.0796
 2203SOL    HW218072   4.451   3.012   3.004  1.5967  2.9438 -0.0038
 2204SOL     OW18073   2.507   2.768   6.871  0.3699 -0.2826 -0.4943
 2204SOL    HW118074   2.435   2.713   6.841 -1.6036  1.6162  0.7522
 2204SOL    HW218075   2.578   2.706   6.858 -1.5949 -2.8118  1.0057
 2205SOL     OW18076   2.773   0.496  10.309 -0.0730 -0.3796 -0.5875
 2205SOL    HW118077   2.760   0.485  10.403  0.7651 -0.5766 -0.4952
 2205SOL    HW218078   2.730   0.414  10.285  1.7763 -1.1155 -1.4198
 2206SOL     OW18079   2.461   3.175  15.231 -0.1266 -0.6602  0.2036
 2206SOL    HW118080   2.366   3.179  15.246 -0.4529  0.5851 -2.0991
 2206SOL    HW218081   2.457   3.115  15.157 -1.4262  0.9246 -1.0323
 2207SOL     OW18082   1.827   0.117   4.908 -0.2468 -0.0282  0.2472
 2207SOL    HW118083   1.862   0.028   4.910 -0.3106 -0.1251 -2.7800
 2207SOL    HW218084   1.904   0.172   4.896  0.2949 -1.0354 -0.8422
 2208SOL     OW18085   1.004   1.936   2.089 -0.4433  0.1268 -0.1159
 2208SOL    HW118086   0.936   1.906   2.030  0.5000 -3.1968  0.5037
 2208SOL    HW218087   0.945   1.986   2.146  0.1335  0.7915 -0.0969
 2209SOL     OW18088   1.267   1.822   5.522 -0.5370 -0.2124  0.2653
 2209SOL    HW118089   1.253   1.911   5.490  0.5235  0.2169  1.0232
 2209SOL    HW218090   1.177   1.797   5.546 -0.2172 -1.1952  0.4418
 2210SOL     OW18091   2.406   0.459   8.030 -0.2783  0.4467 -0.2270
 2210SOL    HW118092   2.418   0.523   7.959 -1.1274  1.6147  0.6893
 2210SOL    HW218093   2.366   0.393   7.974 -0.2564 -0.0562  0.3500
 2211SOL     OW18094   0.117   4.029   0.475  0.2797 -0.4022  0.1028
 2211SOL    HW118095   0.100   4.040   0.569  0.8773 -3.8524  0.6418
 2211SOL    HW218096   0.188   3.964   0.473  0.9374  0.4032 -2.1109
 2212SOL     OW18097   2.527   2.655   0.911 -0.2308 -0.5198 -0.3658
 2212SOL    HW118098   2.576   2.709   0.973 -1.1584  0.1615 -0.2201
 2212SOL    HW218099   2.521   2.573   0.960 -2.3057  0.8361  1.6622
 2213SOL     OW18100   0.799   1.122   8.244 -0.2065 -0.0489  0.1319
 2213SOL    HW118101   0.786   1.167   8.327 -2.7493  0.9001 -0.7861
 2213SOL    HW218102   0.728   1.160   8.194 -0.3274 -2.1396 -1.3017
 2214SOL     OW18103   1.618   3.072  16.210 -0.0528  0.1288 -0.7517
 2214SOL    HW118104   1.605   3.103  16.120  3.2383 -1.4517 -1.7796
 2214SOL    HW218105   1.704   3.105  16.235  0.5284 -1.6913 -0.3456
 2215SOL     OW18106   3.017   0.888  12.176 -0.4046 -0.6650  0.1441
 2215SOL    HW118107   2.990   0.865  12.087  1.1190  1.6359 -0.9045
 2215SOL    HW218108   2.968   0.969  12.191 -2.9283 -2.0770 -0.3297
 2216SOL     OW18109   0.732   0.964   7.942 -0.2382 -0.0475 -0.4351
 2216SOL    HW118110   0.652   1.012   7.919  1.2554  2.2403 -0.9091
 2216SOL    HW218111   0.705   0.920   8.023  1.0459 -0.4315 -0.2204
 2217SOL     OW18112   0.766   2.622   5.569 -0.5509 -0.1242  0.2210
 2217SOL    HW118113   0.729   2.658   5.649  0.5064  2.1411 -0.3146
 2217SOL    HW218114   0.762   2.528   5.587 -1.8465  0.2796  1.9778
 2218SOL     OW18115   2.869   4.115   3.937  0.4483  0.1273  0.4263
 2218SOL    HW118116   2.865   4.198   3.889 -0.0244 -0.6416 -0.8329
 2218SOL    HW218117   2.791   4.080   3.895 -0.9834  1.9013  1.5850
 2219SOL     OW18118   1.768   3.189  15.597 -0.2789  0.2861 -0.0783
 2219SOL    HW118119   1.752   3.144  15.680 -3.0170  1.7238  0.1614
 2219SOL    HW218120   1.864   3.187  15.599 -0.2807 -1.4239 -1.6545
 2220SOL     OW18121   0.081   3.593   8.517 -0.0293  0.1946  0.0574
 2220SOL    HW118122   0.060   3.535   8.591 -0.4364 -1.2325 -1.1795
 2220SOL    HW218123   0.148   3.538   8.476 -1.1057  0.1160 -1.5948
 2221SOL     OW18124   1.826   0.256   1.938  0.0567  0.4191  0.2474
 2221SOL    HW118125   1.844   0.168   1.906 -0.5297  0.1038  0.7928
 2221SOL    HW218126   1.791   0.227   2.022 -0.8127  0.1751 -0.1904
 2222SOL     OW18127   0.032   1.270   2.812 -0.1371  0.4702  0.4442
 2222SOL    HW118128   0.006   1.293   2.723  1.9000  1.3757  0.0966
 2222SOL    HW218129   4.689   1.207   2.839 -0.8274  0.6832 -0.7741
 2223SOL     OW18130   3.304   3.166   0.794  0.1804  0.3598  1.2073
 2223SOL    HW118131   3.343   3.111   0.863  1.4652 -0.1869  0.0486
 2223SOL    HW218132   3.378   3.225   0.779 -0.0986  0.6277  0.8994
 2224SOL     OW18133   4.420   0.841   3.813 -0.3249  0.0661 -0.6775
 2224SOL    HW118134   4.419   0.903   3.740 -2.9307 -0.0329 -0.7084
 2224SOL    HW218135   4.499   0.792   3.790  0.4573  1.7802 -1.6682
 2225SOL     OW18136   3.890   4.127   3.431 -0.0096  0.2993 -0.2436
 2225SOL    HW118137   3.888   4.154   3.339 -2.7331  1.0100  0.0314
 2225SOL    HW218138   3.847   4.200   3.474  3.4786  1.3014  1.5752
 2226SOL     OW18139   0.707   3.274  13.191 -0.4088  0.5206  0.2163
 2226SOL    HW118140   0.776   3.255  13.128  0.9945  3.0679  0.9999
 2226SOL    HW218141   0.764   3.259  13.266  1.2084 -0.1587 -1.1486
 2227SOL     OW18142   0.446   2.459  13.586  0.1123 -0.0703  0.7446
 2227SOL    HW118143   0.509   2.487  13.652  1.1791  1.7975 -1.0591
 2227SOL    HW218144   0.396   2.396  13.637  1.4623 -2.4878 -0.8855
 2228SOL     OW18145   2.408   0.195   8.538 -0.5036 -0.3172  0.3265
 2228SOL    HW118146   2.422   0.162   8.449  2.1631 -0.2184  0.6992
 2228SOL    HW218147   2.381   0.286   8.523 -1.3970 -1.3837 -4.5627
 2229SOL     OW18148   3.001   0.501   2.591 -0.2467 -0.2716 -0.3532
 2229SOL    HW118149   3.048   0.505   2.507  0.5683 -2.5865 -0.0231
 2229SOL    HW218150   3.035   0.576   2.639 -0.4687 -0.8018  0.6392
 2230SOL     OW18151   2.862   3.360   3.083  0.3830  0.4540  0.0938
 2230SOL    HW118152   2.891   3.379   2.993 -0.5709  4.6362  0.6554
 2230SOL    HW218153   2.784   3.416   3.086  0.2674  0.1991  1.8247
 2231SOL     OW18154   4.391   1.145  15.872  0.1683 -0.0537  0.5066
 2231SOL    HW118155   4.311   1.184  15.907  1.2501  0.1226  2.7661
 2231SOL    HW218156   4.447   1.222  15.863  1.5867 -1.0646  0.6141
 2232SOL     OW18157   4.522   4.194   3.130  0.0009 -0.0870 -0.3234
 2232SOL    HW118158   4.608   4.154   3.148  0.0485  0.6393  0.9878
 2232SOL    HW218159   4.460   4.136   3.173  0.6376  0.6101  1.5161
 2233SOL     OW18160   1.370   3.634  14.010  0.5766 -0.4864 -0.1692
 2233SOL    HW118161   1.444   3.581  13.982  0.8964 -0.2373  0.2126
 2233SOL    HW218162   1.378   3.712  13.955 -0.4052  0.8980  1.6604
 2234SOL     OW18163   1.701   1.074   3.595  0.4828  0.2627 -0.0170
 2234SOL    HW118164   1.607   1.079   3.575  0.6040  2.4730 -0.0365
 2234SOL    HW218165   1.718   1.168   3.591 -0.6963  0.3744 -2.7069
 2235SOL     OW18166   2.459   0.989   4.727  0.3397 -0.3069  0.2227
 2235SOL    HW118167   2.419   0.950   4.649  1.1967 -0.7936  0.0210
 2235SOL    HW218168   2.462   1.081   4.700  1.3187 -0.9340 -1.8453
 2236SOL     OW18169   1.594   2.682   8.294 -0.9149 -0.1292  0.5803
 2236SOL    HW118170   1.581   2.601   8.244 -2.4090 -0.4187  1.4079
 2236SOL    HW218171   1.603   2.742   8.220  1.2923  0.3734  1.2740
 2237SOL     OW18172   1.411   0.089   1.386  0.1611 -0.3172  0.4261
 2237SOL    HW118173   1.371   0.017   1.434 -0.7582  0.0953  0.2780
 2237SOL    HW218174   1.498   0.078   1.423  0.1838  0.8763  0.7193
 2238SOL     OW18175   1.062   0.302   8.522  0.2465 -0.4357 -0.3079
 2238SOL    HW118176   1.114   0.234   8.564 -1.7206  0.1145  3.0073
 2238SOL    HW218177   1.105   0.381   8.555 -0.7537  0.7561 -1.8565
 2239SOL     OW18178   3.294   1.254   2.290  0.2830  0.1158 -0.6047
 2239SOL    HW118179   3.347   1.329   2.263 -0.6983  1.2876  0.7652
 2239SOL    HW218180   3.348   1.221   2.362  1.5232  0.7185 -1.2604
 2240SOL     OW18181   2.036   1.867  10.952 -0.1294  0.1494 -0.1436
 2240SOL    HW118182   2.059   1.795  10.894  0.0681 -0.4043  0.6163
 2240SOL    HW218183   1.940   1.870  10.952 -0.0794  1.4580 -1.6307
 2241SOL     OW18184   1.803   3.961  15.324  0.2641 -0.0273 -0.4798
 2241SOL    HW118185   1.781   4.036  15.268 -1.4036 -0.4443 -0.3908
 2241SOL    HW218186   1.726   3.967  15.381  0.2090  0.4765 -0.6003
 2242SOL     OW18187   3.707   0.001   5.259 -0.3750 -0.3616 -0.2194
 2242SOL    HW118188   3.646   0.071   5.280 -0.3127  0.1179 -1.6421
 2242SOL    HW218189   3.659   4.670   5.197  0.4243 -1.4074  0.0816
 2243SOL     OW18190   1.142   1.707   6.327 -0.0814 -0.7086 -0.2817
 2243SOL    HW118191   1.054   1.744   6.338 -0.3200 -1.6989  1.1473
 2243SOL    HW218192   1.184   1.727   6.410 -1.6483 -1.9014  0.8022
 2244SOL     OW18193   4.349   0.484  12.078  0.0813 -0.1892 -0.3412
 2244SOL    HW118194   4.290   0.410  12.090  1.4706 -1.1773  0.3883
 2244SOL    HW218195   4.394   0.487  12.162 -0.3532  0.1698 -0.1181
 2245SOL     OW18196   0.807   1.286  16.674 -0.0487 -0.2667 -0.6956
 2245SOL    HW118197   0.744   1.335  16.622 -1.1585 -1.8157 -0.7894
 2245SOL    HW218198   0.779   1.198  16.651  1.0432 -0.7821 -0.0877
 2246SOL     OW18199   4.008   2.238   4.666 -0.0026 -0.5630  0.8742
 2246SOL    HW118200   3.991   2.194   4.749  0.2612 -1.4372  0.4616
 2246SOL    HW218201   4.013   2.330   4.693 -2.3250 -0.3887  0.7193
 2247SOL     OW18202   2.662   0.011   9.417  0.2886 -0.3274  0.2605
 2247SOL    HW118203   2.626   4.669   9.476 -1.1687  0.7524  0.5892
 2247SOL    HW218204   2.639   0.082   9.478  0.3705 -2.0146  2.2531
 2248SOL     OW18205   2.714   3.430   6.922  0.1306  0.1838 -0.5733
 2248SOL    HW118206   2.762   3.468   6.995  0.9004  1.2221 -1.6262
 2248SOL    HW218207   2.773   3.358   6.899  0.4922 -0.1296  1.3612
 2249SOL     OW18208   1.623   2.953   4.585  0.3596 -0.1455  0.1920
 2249SOL    HW118209   1.557   2.884   4.577  0.3873 -0.0661 -0.7616
 2249SOL    HW218210   1.608   2.977   4.676 -4.1631  2.9429 -1.3840
 2250SOL     OW18211   1.428   3.387   4.604  0.5323  0.4793  0.5864
 2250SOL    HW118212   1.419   3.430   4.519 -2.1797  0.4366  0.8626
 2250SOL    HW218213   1.398   3.298   4.583  1.8596 -0.1894  1.5205
 2251SOL     OW18214   0.988   4.616   6.673 -0.1740 -0.0292 -0.0665
 2251SOL    HW118215   0.926   4.661   6.616 -0.7854 -1.2711 -0.3760
 2251SOL    HW218216   0.944   4.611   6.758  0.4816  0.9357  0.3337
 2252SOL     OW18217   1.369   2.474   3.773 -0.0294 -0.5165  0.0817
 2252SOL    HW118218   1.308   2.528   3.724  0.7113  1.2744  1.1297
 2252SOL    HW218219   1.386   2.404   3.711  1.1085  0.0605 -0.2608
 2253SOL     OW18220   1.207   3.259   3.909  0.5102 -1.1713 -0.4293
 2253SOL    HW118221   1.119   3.296   3.900  0.6452 -0.4384  1.1903
 2253SOL    HW218222   1.250   3.343   3.925 -2.3812  0.0828  0.7150
 2254SOL     OW18223   2.820   3.999   1.433  0.2445 -0.2551 -0.3762
 2254SOL    HW118224   2.727   3.992   1.411  0.2875  0.0291 -0.6512
 2254SOL    HW218225   2.822   4.094   1.450  1.3753 -0.3036 -0.2308
 2255SOL     OW18226   4.447   4.082   6.882  0.7449  0.3597 -0.0400
 2255SOL    HW118227   4.477   4.002   6.925  0.9866 -0.0340 -0.9319
 2255SOL    HW218228   4.527   4.132   6.867  0.6124  1.1370  1.8088
 2256SOL     OW18229   4.130   4.228   0.254  0.0444  0.3151 -0.3832
 2256SOL    HW118230   4.199   4.267   0.308  0.4413 -0.2433 -0.4892
 2256SOL    HW218231   4.084   4.182   0.324 -1.2355  0.6664 -0.9939
 2257SOL     OW18232   0.264   3.286   2.790  0.2858 -0.0134 -0.3604
 2257SOL    HW118233   0.260   3.190   2.783  1.1896 -0.0905  0.2305
 2257SOL    HW218234   0.345   3.298   2.838  0.4632  0.1911 -0.7092
 2258SOL     OW18235   1.602   4.468   4.329  0.0971  0.7999 -0.2383
 2258SOL    HW118236   1.586   4.484   4.422  0.6510  2.4025 -0.4103
 2258SOL    HW218237   1.515   4.498   4.300  1.1604  0.9226 -3.3374
 2259SOL     OW18238   3.129   4.147  16.883  0.7097 -0.3620  0.0737
 2259SOL    HW118239   3.172   4.227  16.914 -0.8009  0.5464 -0.1599
 2259SOL    HW218240   3.075   4.143  16.962 -1.6113 -0.0373 -1.4671
 2260SOL     OW18241   1.296   2.021   2.151  0.1315 -0.2243 -0.7236
 2260SOL    HW118242   1.313   2.007   2.058  0.8695  0.0968 -0.6354
 2260SOL    HW218243   1.200   2.024   2.145  0.1133 -0.4651 -0.5359
 2261SOL     OW18244   3.319   1.410   6.055  0.2588  0.3243  0.3581
 2261SOL    HW118245   3.310   1.334   5.998  2.0599 -0.5208  1.1774
 2261SOL    HW218246   3.232   1.428   6.089  0.7383  2.6438  0.3514
 2262SOL     OW18247   3.251   3.902   4.762 -0.1721 -0.1331 -0.4026
 2262SOL    HW118248   3.212   3.907   4.675  1.6986  4.9051 -0.9308
 2262SOL    HW218249   3.337   3.939   4.743  0.3889 -0.0462  2.2283
 2263SOL     OW18250   0.177   1.538   6.107 -0.0435  0.5028 -0.0522
 2263SOL    HW118251   0.116   1.590   6.159 -1.2590  0.9764 -1.9643
 2263SOL    HW218252   0.135   1.549   6.022 -1.2567 -0.7386  0.3852
 2264SOL     OW18253   3.257   1.884   8.548  0.6812  0.1124  0.2038
 2264SOL    HW118254   3.222   1.918   8.630  3.4077  1.1766  0.9230
 2264SOL    HW218255   3.169   1.876   8.511  0.3498 -0.5656  1.1328
 2265SOL     OW18256   4.110   0.138   6.772  0.0531 -0.2761  0.3119
 2265SOL    HW118257   4.132   0.225   6.807 -0.8278  0.0800 -0.0230
 2265SOL    HW218258   4.074   0.167   6.688  1.7164  1.5015  0.1974
 2266SOL     OW18259   1.772   3.582  17.357 -0.0967 -0.2490  0.2283
 2266SOL    HW118260   1.744   3.649  17.294  2.3686 -1.7247 -2.4561
 2266SOL    HW218261   1.801   3.639  17.429  0.7553  3.5913 -3.1018
 2267SOL     OW18262   0.418   2.373   7.375  0.0461 -0.2078  0.1439
 2267SOL    HW118263   0.491   2.433   7.370 -0.4308  0.5566  2.7327
 2267SOL    HW218264   0.342   2.429   7.360 -0.2924 -0.5106  0.7319
 2268SOL     OW18265   3.621   2.780   1.075 -0.2294 -0.3847  0.0686
 2268SOL    HW118266   3.559   2.815   1.011  0.4868 -1.1421 -1.0542
 2268SOL    HW218267   3.564   2.722   1.126  0.2393 -2.0744 -1.3185
 2269SOL     OW18268   3.259   3.558   7.027  0.4095  0.0562  0.5172
 2269SOL    HW118269   3.299   3.593   6.948 -2.7577 -0.1617 -1.1571
 2269SOL    HW218270   3.316   3.611   7.083 -0.2148  0.6066  0.6271
 2270SOL     OW18271   3.101   1.692   2.348 -0.0022 -0.5558  0.2344
 2270SOL    HW118272   3.082   1.680   2.256  0.6148  3.2325 -0.4145
 2270SOL    HW218273   3.063   1.609   2.377  0.7334 -0.4337  1.5945
 2271SOL     OW18274   2.243   2.366  14.355  0.0023 -0.2814 -0.4962
 2271SOL    HW118275   2.308   2.377  14.424  1.7311 -0.0806 -2.1410
 2271SOL    HW218276   2.184   2.292  14.365  0.2255 -0.6110 -1.6233
 2272SOL     OW18277   0.421   3.881   8.154  0.7012  0.0949 -0.3956
 2272SOL    HW118278   0.453   3.939   8.223  2.5827 -1.2097 -0.1635
 2272SOL    HW218279   0.471   3.801   8.170 -0.5801 -0.4816  0.7093
 2273SOL     OW18280   3.555   2.255  12.684 -0.6179  0.8716 -0.3236
 2273SOL    HW118281   3.617   2.183  12.687 -0.4824  0.9291 -1.8158
 2273SOL    HW218282   3.517   2.250  12.596  0.2404  2.1511 -0.7630
 2274SOL     OW18283   3.147   4.460  14.109 -0.2277  0.3392 -0.9591
 2274SOL    HW118284   3.224   4.441  14.163 -0.3274 -0.3600 -1.0652
 2274SOL    HW218285   3.186   4.534  14.061  1.8969 -1.1946 -1.5912
 2275SOL     OW18286   3.116   2.341   7.300 -0.7074 -0.2886  0.3378
 2275SOL    HW118287   3.079   2.372   7.217  0.6795  1.6205  0.4283
 2275SOL    HW218288   3.168   2.264   7.278 -2.0101 -1.3188  0.8724
 2276SOL     OW18289   1.758   0.768   9.471 -0.2376 -0.1893 -0.2329
 2276SOL    HW118290   1.766   0.851   9.518  2.5642 -1.1159  0.8975
 2276SOL    HW218291   1.675   0.742   9.512 -0.0536 -2.1105 -1.0696
 2277SOL     OW18292   2.058   3.400  16.204  0.3667  0.0010 -0.4493
 2277SOL    HW118293   2.095   3.418  16.117  1.5864 -2.5055 -0.4715
 2277SOL    HW218294   2.113   3.460  16.254  0.0233 -1.1634  1.2954
 2278SOL     OW18295   4.230   1.333   3.817 -0.2666 -0.0374 -0.1814
 2278SOL    HW118296   4.305   1.375   3.859 -0.8476  0.2319  0.5943
 2278SOL    HW218297   4.263   1.334   3.727 -1.0241 -0.1625 -0.4581
 2279SOL     OW18298   2.957   3.528   0.891  0.0489  0.1691  0.3793
 2279SOL    HW118299   2.955   3.554   0.983  3.8086  2.0187 -0.0653
 2279SOL    HW218300   2.872   3.483   0.887  0.5727 -0.8908  0.9966
 2280SOL     OW18301   1.434   4.320  16.947  0.2299  0.3302  0.0884
 2280SOL    HW118302   1.470   4.407  16.965  1.9506  0.4817 -4.0161
 2280SOL    HW218303   1.485   4.306  16.867 -2.6851  0.4592 -1.7522
 2281SOL     OW18304   2.940   4.361   1.676  0.4118  0.4988 -0.4093
 2281SOL    HW118305   2.980   4.419   1.611  0.1412  0.7803 -0.3274
 2281SOL    HW218306   2.880   4.309   1.623 -0.7545  2.0883 -0.6600
 2282SOL     OW18307   2.000   4.699  17.614 -0.7518  0.3665 -0.1333
 2282SOL    HW118308   1.977   4.610  17.639 -0.7963  0.2516 -0.5748
 2282SOL    HW218309   2.057   4.684  17.538 -0.5368 -0.1224  0.1295
 2283SOL     OW18310   1.023   1.397   7.408 -0.1036  0.4277 -0.0451
 2283SOL    HW118311   1.002   1.489   7.423  0.0335  0.5417 -0.5367
 2283SOL    HW218312   1.021   1.353   7.492  1.1749  0.7510  0.1539
 2284SOL     OW18313   2.649   2.981   8.539 -0.9041  0.1442 -0.6758
 2284SOL    HW118314   2.561   2.948   8.518 -1.3493  0.9967 -0.1583
 2284SOL    HW218315   2.704   2.905   8.523  0.1375  0.3059  2.2275
 2285SOL     OW18316   1.156   3.561   6.470  0.2757  0.4796  0.1366
 2285SOL    HW118317   1.155   3.465   6.465 -1.6367  0.6319 -2.3053
 2285SOL    HW218318   1.228   3.573   6.409  1.5956  1.2408  1.8601
 2286SOL     OW18319   3.302   2.497  13.948 -0.2148 -0.3381  0.0402
 2286SOL    HW118320   3.320   2.410  13.912  3.0661 -1.2411  3.9117
 2286SOL    HW218321   3.266   2.478  14.035  0.0074  2.6489  0.7897
 2287SOL     OW18322   0.977   3.753   7.721  0.2401  0.5489  0.1503
 2287SOL    HW118323   1.005   3.808   7.794  2.6668 -0.0946 -0.2923
 2287SOL    HW218324   0.885   3.742   7.744 -0.2088  0.0278 -1.8445
 2288SOL     OW18325   3.885   0.757   3.935  0.2497 -0.0526  0.6778
 2288SOL    HW118326   3.831   0.831   3.960 -0.1435 -0.8158  2.0930
 2288SOL    HW218327   3.972   0.774   3.972  0.2865 -1.1989  1.1110
 2289SOL     OW18328   3.454   2.529   2.612 -0.5190 -0.3105 -0.6258
 2289SOL    HW118329   3.466   2.523   2.517  1.3712  1.9963 -0.5241
 2289SOL    HW218330   3.392   2.457   2.626 -1.2032  0.6048  0.9934
 2290SOL     OW18331   3.248   1.699  14.915  0.1325 -0.2180  0.1424
 2290SOL    HW118332   3.268   1.777  14.966 -0.7117 -0.8829  1.4860
 2290SOL    HW218333   3.289   1.632  14.971  1.7140 -0.8313 -1.7141
 2291SOL     OW18334   0.111   1.778   1.735  0.5202  0.0336 -0.5822
 2291SOL    HW118335   0.076   1.814   1.653 -0.5461  0.4272  0.0418
 2291SOL    HW218336   0.099   1.688   1.704 -0.1702  0.7623 -2.4412
 2292SOL     OW18337   4.123   1.802   2.765  0.1477  0.3020 -0.1179
 2292SOL    HW118338   4.174   1.725   2.740  0.3277  0.7257 -1.0466
 2292SOL    HW218339   4.058   1.763   2.824  1.9894 -0.9881  1.0411
 2293SOL     OW18340   0.915   3.142  12.360  0.2504 -0.5508 -0.2212
 2293SOL    HW118341   0.864   3.179  12.432  0.7087 -0.6200  0.1382
 2293SOL    HW218342   0.972   3.212  12.327 -0.5376  0.2554  0.1214
 2294SOL     OW18343   2.167   0.019   8.553  0.3017  0.3342  0.2320
 2294SOL    HW118344   2.132   0.102   8.522  1.3271 -0.3604 -2.7400
 2294SOL    HW218345   2.252   0.055   8.578 -0.1288  1.6193 -0.1692
 2295SOL     OW18346   0.784   0.439   8.403 -0.0264  0.1958  0.6057
 2295SOL    HW118347   0.872   0.448   8.367 -0.5549 -1.6655 -1.1743
 2295SOL    HW218348   0.803   0.488   8.482 -0.0751 -1.1768  1.4736
 2296SOL     OW18349   3.632   2.230  12.015 -0.1036 -0.0718 -0.6809
 2296SOL    HW118350   3.716   2.217  12.060 -0.0313 -1.2758 -1.1583
 2296SOL    HW218351   3.656   2.240  11.923  0.8573  0.6769 -0.3504
 2297SOL     OW18352   2.522   2.272   3.578 -0.8207 -0.6106  0.1703
 2297SOL    HW118353   2.556   2.312   3.657 -0.9386  1.9527 -1.0852
 2297SOL    HW218354   2.567   2.317   3.506 -0.0220 -1.2789  0.2481
 2298SOL     OW18355   1.655   3.816  16.003 -0.4973  0.1118  0.7808
 2298SOL    HW118356   1.573   3.768  15.996  0.4929 -1.5869  0.9101
 2298SOL    HW218357   1.713   3.750  16.041  0.3355  0.0889 -0.5172
 2299SOL     OW18358   4.456   2.286   8.117 -1.0701  0.1817  0.2909
 2299SOL    HW118359   4.525   2.234   8.075 -0.5387 -0.5295  2.0285
 2299SOL    HW218360   4.512   2.357   8.150 -0.6466  0.2214 -0.4997
 2300SOL     OW18361   2.511   0.454   3.612  0.5807  0.0945  0.3409
 2300SOL    HW118362   2.549   0.541   3.619 -0.2732  0.5983 -1.2306
 2300SOL    HW218363   2.578   0.410   3.558 -0.0068  0.0057 -0.3154
 2301SOL     OW18364   0.339   2.903   7.670  0.2999 -0.0344  0.1537
 2301SOL    HW118365   0.433   2.921   7.670 -0.2513  2.8642  0.8360
 2301SOL    HW218366   0.326   2.927   7.762 -0.3213 -1.4484  0.4397
 2302SOL     OW18367   1.006   3.604   8.072 -0.0268 -0.0247 -0.4819
 2302SOL    HW118368   1.042   3.692   8.066 -1.6955  0.6160 -1.1169
 2302SOL    HW218369   0.947   3.622   8.145  0.2747  0.7899 -0.4344
 2303SOL     OW18370   1.527   0.257   9.097  0.5000 -0.3424 -0.4427
 2303SOL    HW118371   1.460   0.216   9.151 -0.0827  3.4108  1.7132
 2303SOL    HW218372   1.484   0.293   9.020 -0.9944  3.5422  2.1708
 2304SOL     OW18373   4.452   0.571   6.613 -0.2059  0.0996 -0.4881
 2304SOL    HW118374   4.530   0.533   6.573 -0.1475  0.6611 -0.9040
 2304SOL    HW218375   4.478   0.533   6.698  0.5412 -0.2526 -0.8734
 2305SOL     OW18376   4.378   3.910   3.967  0.1812 -0.0191 -0.1865
 2305SOL    HW118377   4.452   3.918   3.907 -0.6078  1.4480 -0.9672
 2305SOL    HW218378   4.402   3.958   4.046  0.7513 -1.1697  0.3379
 2306SOL     OW18379   2.196   3.677   8.155  0.0695 -0.6650  0.3134
 2306SOL    HW118380   2.198   3.765   8.119 -0.1414 -0.1447  1.5777
 2306SOL    HW218381   2.110   3.680   8.197 -0.0724  0.6434 -0.0706
 2307SOL     OW18382   4.643   4.216   3.629 -0.3181  0.4459  0.6093
 2307SOL    HW118383   4.620   4.253   3.714  2.4631 -2.1267  2.4997
 2307SOL    HW218384   4.637   4.291   3.570 -1.7506  0.5114  0.8548
 2308SOL     OW18385   4.619   1.413   1.380 -0.5301 -0.2295 -0.3261
 2308SOL    HW118386   4.699   1.453   1.346 -1.2349  0.7544 -0.8206
 2308SOL    HW218387   4.618   1.337   1.321 -0.7435 -1.8819  1.7839
 2309SOL     OW18388   1.723   1.543  10.955  0.2840 -0.0592  0.2793
 2309SOL    HW118389   1.649   1.576  11.005  0.2201 -2.2392  1.6264
 2309SOL    HW218390   1.676   1.505  10.880 -0.0050  1.6704 -0.3985
 2310SOL     OW18391   0.501   4.692   0.344  0.0587  0.3591  0.0501
 2310SOL    HW118392   0.574   0.018   0.308  0.1718 -1.1892 -1.8930
 2310SOL    HW218393   0.430   0.031   0.343  0.6164  0.9823 -0.0977
 2311SOL     OW18394   4.492   1.330   2.104 -0.1937 -0.1990 -0.3063
 2311SOL    HW118395   4.579   1.288   2.106 -0.2364 -0.1275  2.8621
 2311SOL    HW218396   4.424   1.263   2.096 -1.3095  0.6575  2.1176
 2312SOL     OW18397   0.333   2.652   1.976 -0.1916  0.1184 -0.1958
 2312SOL    HW118398   0.403   2.706   1.939 -1.1763  0.4599 -1.5774
 2312SOL    HW218399   0.342   2.653   2.071 -2.8625 -1.5527  0.0764
 2313SOL     OW18400   1.295   3.511   3.495  0.7399  0.6140 -0.5344
 2313SOL    HW118401   1.234   3.447   3.532  1.1454  0.7725  0.4026
 2313SOL    HW218402   1.336   3.518   3.582  0.0922  0.5370 -0.2187
 2314SOL     OW18403   3.878   2.899   5.406 -0.0479  0.3199  0.6294
 2314SOL    HW118404   3.862   2.834   5.338 -1.3347  3.0878 -1.7080
 2314SOL    HW218405   3.808   2.883   5.469 -1.2347  3.2315  0.0737
 2315SOL     OW18406   2.564   1.083   4.459  0.2695 -0.1932 -0.1446
 2315SOL    HW118407   2.630   1.076   4.390  0.7266 -2.1116  0.5020
 2315SOL    HW218408   2.536   0.992   4.466  1.5353 -0.5250  0.5447
 2316SOL     OW18409   2.529   1.050   0.476 -0.1111 -0.0795 -0.2880
 2316SOL    HW118410   2.493   1.005   0.552 -0.5501  1.7559  0.6050
 2316SOL    HW218411   2.618   1.067   0.505 -1.1389  0.3198  2.6673
 2317SOL     OW18412   3.723   0.721   5.010  0.1522 -0.2654 -0.1287
 2317SOL    HW118413   3.643   0.773   5.014 -1.4720 -3.0084  2.2510
 2317SOL    HW218414   3.743   0.707   4.918 -1.3072  0.3472 -0.5246
 2318SOL     OW18415   2.326   2.178   8.296  0.0801 -0.8497  0.0316
 2318SOL    HW118416   2.299   2.266   8.270 -2.0882 -0.5927  3.0897
 2318SOL    HW218417   2.355   2.194   8.386  1.2889 -0.6399 -0.3961
 2319SOL     OW18418   0.846   0.602   6.114 -0.2214 -0.8190  0.1846
 2319SOL    HW118419   0.756   0.630   6.133  0.0077 -0.4495  0.7097
 2319SOL    HW218420   0.826   0.514   6.082  1.3005 -0.2986 -2.1708
 2320SOL     OW18421   2.334   1.583   7.443  0.5203 -0.2234  0.0437
 2320SOL    HW118422   2.243   1.593   7.415 -0.1369 -1.0590  1.8827
 2320SOL    HW218423   2.326   1.634   7.524  0.8399 -0.0224 -0.0519
 2321SOL     OW18424   2.763   0.305   2.936  0.6755 -0.2687 -0.4596
 2321SOL    HW118425   2.773   0.400   2.928 -1.1332 -0.0577 -0.2958
 2321SOL    HW218426   2.672   0.287   2.959  1.0721 -0.4153  1.0196
 2322SOL     OW18427   2.982   2.321   3.199  0.1489  0.0416 -0.1896
 2322SOL    HW118428   3.068   2.285   3.176  0.3321  0.2744  0.1356
 2322SOL    HW218429   2.954   2.333   3.108 -1.4941 -0.5551  0.2392
 2323SOL     OW18430   0.925   3.087   6.643  0.1159  0.1109  0.2827
 2323SOL    HW118431   0.869   3.112   6.569 -0.9405  0.6953  1.2692
 2323SOL    HW218432   0.957   3.003   6.610 -0.5320 -0.5216  1.2618
 2324SOL     OW18433   1.484   3.119  15.291  0.2881 -0.3089 -0.8839
 2324SOL    HW118434   1.414   3.083  15.237 -2.7219  1.6798  1.6604
 2324SOL    HW218435   1.497   3.199  15.241 -0.3267  0.7200  0.5781
 2325SOL     OW18436   2.297   0.787   6.914  0.7171 -0.1704 -0.5352
 2325SOL    HW118437   2.350   0.859   6.881 -0.7907  0.9371 -0.5491
 2325SOL    HW218438   2.331   0.778   7.003 -0.5633 -0.8548 -0.1210
 2326SOL     OW18439   2.284   1.670  15.778 -0.5361  0.2346  0.3106
 2326SOL    HW118440   2.348   1.728  15.736 -0.3110 -0.3442 -0.1379
 2326SOL    HW218441   2.311   1.591  15.731 -2.4397 -0.2612  0.0671
 2327SOL     OW18442   2.939   2.500   4.569 -0.1855  0.5614 -0.3503
 2327SOL    HW118443   2.899   2.523   4.485 -2.0238 -3.0118 -0.4517
 2327SOL    HW218444   2.864   2.445   4.594 -0.7082  1.3648 -0.1552
 2328SOL     OW18445   0.763   0.450   7.549 -0.3515 -0.2597 -0.4568
 2328SOL    HW118446   0.720   0.372   7.584 -0.4745 -0.2821 -0.6610
 2328SOL    HW218447   0.733   0.511   7.616  0.3910 -1.5422  1.0523
 2329SOL     OW18448   2.994   0.207   9.666 -0.5903 -0.3739  0.1535
 2329SOL    HW118449   2.934   0.143   9.704 -0.9906  0.3028  0.6601
 2329SOL    HW218450   2.973   0.285   9.717  2.6402  0.2250  0.5767
 2330SOL     OW18451   1.862   0.814  11.279  0.5545  0.4139 -0.0759
 2330SOL    HW118452   1.903   0.860  11.206 -0.3547 -0.5799 -1.2142
 2330SOL    HW218453   1.894   0.877  11.344  1.2675  1.6467 -1.6188
 2331SOL     OW18454   2.219   3.066   2.992 -0.1344 -0.2368  0.8049
 2331SOL    HW118455   2.158   3.103   2.928  2.4521  2.0640 -0.3267
 2331SOL    HW218456   2.208   2.973   2.973 -1.1079  0.0759 -0.1489
 2332SOL     OW18457   2.225   0.111   6.570  0.0304 -0.1835  0.4372
 2332SOL    HW118458   2.211   0.195   6.525  0.5284  0.9452  2.3781
 2332SOL    HW218459   2.261   0.058   6.499  0.0712 -0.7908  0.9197
 2333SOL     OW18460   1.153   4.620   9.080 -0.9165  0.3664 -0.4313
 2333SOL    HW118461   1.129   4.547   9.136  2.1506  0.7458  1.3667
 2333SOL    HW218462   1.151   4.586   8.990 -1.9591  0.7833 -0.5642
 2334SOL     OW18463   0.598   0.280   4.910 -0.2922 -0.0126  0.0094
 2334SOL    HW118464   0.528   0.230   4.952 -0.8470 -0.6518 -1.6465
 2334SOL    HW218465   0.669   0.243   4.962 -0.6375 -0.0983  0.4214
 2335SOL     OW18466   2.629   0.451  14.839 -0.5487 -0.3984  0.0223
 2335SOL    HW118467   2.631   0.369  14.791  1.2312 -0.7966  0.7678
 2335SOL    HW218468   2.609   0.516  14.772 -2.1532  0.4634  1.3402
 2336SOL     OW18469   0.350   4.680   8.416 -0.4292  0.9560 -0.2254
 2336SOL    HW118470   0.366   0.001   8.498 -2.2103  1.4900 -0.1654
 2336SOL    HW218471   0.276   0.006   8.382  1.4528  2.4491 -2.0621
 2337SOL     OW18472   1.357   2.876   4.523  0.3582 -0.6674 -0.0669
 2337SOL    HW118473   1.304   2.853   4.447 -1.4270 -1.6913  1.4860
 2337SOL    HW218474   1.326   2.827   4.599 -0.7510  0.0011 -0.0927
 2338SOL     OW18475   0.563   0.850   8.123 -0.1732 -0.2082  0.3633
 2338SOL    HW118476   0.601   0.839   8.210 -1.3852 -0.2016  0.8882
 2338SOL    HW218477   0.514   0.931   8.136  0.8625  0.5828 -0.5992
 2339SOL     OW18478   0.166   4.129   4.052 -0.0714 -0.2428  0.3052
 2339SOL    HW118479   0.130   4.048   4.085  1.5656  0.2783  3.3715
 2339SOL    HW218480   0.164   4.165   4.140 -1.1733  1.2960 -0.3435
 2340SOL     OW18481   4.206   3.733   7.011  0.1968 -0.2818 -0.4770
 2340SOL    HW118482   4.210   3.700   7.100  0.2196  1.7014  0.2648
 2340SOL    HW218483   4.172   3.823   7.017 -1.5390 -0.9666 -0.0440
 2341SOL     OW18484   0.131   1.034   8.690  0.2922 -0.2767  0.2308
 2341SOL    HW118485   0.149   1.126   8.710 -2.7967  0.8325 -1.9851
 2341SOL    HW218486   0.055   1.015   8.746 -0.3678 -1.8136 -1.1697
 2342SOL     OW18487   4.485   0.481  10.202  0.1806 -0.4205 -0.2308
 2342SOL    HW118488   4.449   0.562  10.168 -0.1108 -0.3260  0.2923
 2342SOL    HW218489   4.450   0.496  10.290  0.4742  2.1944 -0.5585
 2343SOL     OW18490   2.499   0.007   4.600  0.2225  0.1574  0.0125
 2343SOL    HW118491   2.433   0.031   4.535  0.1730  0.6735  0.2521
 2343SOL    HW218492   2.567   4.701   4.540 -1.4993  0.1869 -1.9525
 2344SOL     OW18493   4.643   2.434   7.159 -0.1409 -0.0242 -0.1094
 2344SOL    HW118494   4.551   2.453   7.141 -0.8425 -1.3913  2.0114
 2344SOL    HW218495   4.665   2.375   7.086 -1.5229 -1.8197  0.9115
 2345SOL     OW18496   4.380   0.915   5.311 -1.1751  0.4396  0.1388
 2345SOL    HW118497   4.444   0.847   5.287  0.3005  1.2784  1.7034
 2345SOL    HW218498   4.316   0.904   5.241  0.8157 -2.8340 -1.2016
 2346SOL     OW18499   0.959   0.739   8.243  0.7877  0.3499 -0.0944
 2346SOL    HW118500   0.980   0.761   8.152 -1.3655  0.4012 -0.5906
 2346SOL    HW218501   1.048   0.742   8.277  0.6231 -0.2077  0.3708
 2347SOL     OW18502   0.708   2.781  11.413 -0.3244 -0.6136  0.1895
 2347SOL    HW118503   0.747   2.740  11.490 -0.2667 -1.6935 -0.4253
 2347SOL    HW218504   0.774   2.850  11.399 -0.8659 -0.2894 -0.7306
 2348SOL     OW18505   2.229   2.365   3.789 -0.1278  0.0772 -0.7154
 2348SOL    HW118506   2.144   2.378   3.831 -0.7185 -1.4922 -1.4235
 2348SOL    HW218507   2.222   2.429   3.718 -2.4567 -0.6412 -1.1370
 2349SOL     OW18508   2.562   3.458   4.673  0.1890  0.1213  0.4185
 2349SOL    HW118509   2.523   3.539   4.706 -0.2145 -0.7846  2.1722
 2349SOL    HW218510   2.653   3.466   4.703  0.1396  2.1306  0.0191
 2350SOL     OW18511   1.162   4.598   1.324  0.0935 -0.0915 -0.2143
 2350SOL    HW118512   1.170   4.574   1.231 -1.6091  2.4507 -1.0088
 2350SOL    HW218513   1.096   4.667   1.320  0.1784 -0.1210 -2.2807
 2351SOL     OW18514   1.512   0.575   9.041  0.1402  0.3482 -0.6257
 2351SOL    HW118515   1.486   0.547   9.129  0.3127 -0.4375 -0.8264
 2351SOL    HW218516   1.527   0.669   9.045  0.1970  0.3376 -0.5980
 2352SOL     OW18517   0.039   2.279   9.792 -0.3294  0.4425 -0.0869
 2352SOL    HW118518   4.713   2.215   9.742 -0.4329 -0.1184  0.7385
 2352SOL    HW218519   0.055   2.351   9.731 -1.2745  2.2008  1.7478
 2353SOL     OW18520   1.954   2.666   0.870  0.4961 -0.0647 -0.1558
 2353SOL    HW118521   1.884   2.726   0.896 -1.2710 -2.0883 -0.2985
 2353SOL    HW218522   1.902   2.587   0.860  0.2067  0.1891 -0.6712
 2354SOL     OW18523   3.221   2.035   2.813 -0.5183  0.0503  0.0985
 2354SOL    HW118524   3.285   2.047   2.883 -0.5523 -0.7921  0.2810
 2354SOL    HW218525   3.269   2.085   2.748 -4.4504  2.5075 -0.9033
 2355SOL     OW18526   3.775   4.156   5.943 -0.8626  0.0666 -0.1060
 2355SOL    HW118527   3.721   4.090   5.985 -1.3566 -0.1010 -1.0099
 2355SOL    HW218528   3.782   4.119   5.855  1.6220 -0.8182  0.4723
 2356SOL     OW18529   2.274   4.123  17.284 -0.2315  0.5280  0.1149
 2356SOL    HW118530   2.307   4.137  17.373 -1.4237  1.2339  0.4612
 2356SOL    HW218531   2.353   4.140  17.233  0.8582 -2.6585  0.7801
 2357SOL     OW18532   2.944   3.106  16.047  0.4792  0.4290  0.0093
 2357SOL    HW118533   2.965   3.039  16.112 -0.4173  0.7675  0.6542
 2357SOL    HW218534   2.954   3.184  16.102  0.1481  1.6265 -1.6573
 2358SOL     OW18535   4.380   0.796   4.955  0.2379  0.5624  0.2055
 2358SOL    HW118536   4.424   0.807   4.870 -0.0083 -0.6840 -0.0959
 2358SOL    HW218537   4.341   0.709   4.945  0.1402  0.5105  1.0352
 2359SOL     OW18538   1.749   0.120   9.853  0.2378  0.0078 -0.1816
 2359SOL    HW118539   1.771   0.077   9.935 -2.5671 -0.3804  0.3794
 2359SOL    HW218540   1.696   0.193   9.886  1.2480  0.9908 -0.7468
 2360SOL     OW18541   2.187   4.153   0.036  0.0853 -0.0189  0.1649
 2360SOL    HW118542   2.239   4.201  17.672 -1.3536  0.1577 -0.8658
 2360SOL    HW218543   2.258   4.128   0.096  0.1416 -1.9588 -0.6972
 2361SOL     OW18544   1.872   2.058   7.647  0.5719  0.4060  0.0487
 2361SOL    HW118545   1.932   2.130   7.627  0.9145  0.5542  1.6750
 2361SOL    HW218546   1.876   2.009   7.564 -1.1821 -0.1252  0.2674
 2362SOL     OW18547   1.610   2.666  14.993 -0.3915  0.2367  0.0883
 2362SOL    HW118548   1.657   2.584  15.008 -2.3975 -1.4433 -2.6741
 2362SOL    HW218549   1.534   2.634  14.944 -1.1786 -0.9089  2.0339
 2363SOL     OW18550   4.505   1.731   6.892 -0.5791  0.3412 -0.1617
 2363SOL    HW118551   4.453   1.680   6.831  2.1931  0.6906 -2.8222
 2363SOL    HW218552   4.445   1.733   6.966 -0.8687  4.2566 -0.4533
 2364SOL     OW18553   1.151   2.649  14.651  0.4892  0.2427  0.0610
 2364SOL    HW118554   1.242   2.665  14.675  0.1204  0.5043  1.3016
 2364SOL    HW218555   1.127   2.718  14.589  0.8252  0.1146 -0.2042
 2365SOL     OW18556   2.736   2.155   5.614  0.0352 -0.0797 -1.0846
 2365SOL    HW118557   2.659   2.114   5.575 -0.6783  1.4730 -1.3280
 2365SOL    HW218558   2.804   2.088   5.615 -0.8074 -0.9170  0.2400
 2366SOL     OW18559   2.123   0.015   4.597  0.0048  0.3225 -0.0979
 2366SOL    HW118560   2.202   4.701   4.559 -0.2006 -2.1782  2.0406
 2366SOL    HW218561   2.155   0.044   4.682  2.4718 -1.3528 -0.4679
 2367SOL     OW18562   3.231   0.696   7.145  0.5995  0.0356 -0.4232
 2367SOL    HW118563   3.192   0.635   7.083 -1.5558  1.0289 -0.0421
 2367SOL    HW218564   3.179   0.776   7.137  1.5803  0.8296  1.0804
 2368SOL     OW18565   3.315   3.619   1.074 -0.0062  0.2846  0.0556
 2368SOL    HW118566   3.258   3.633   1.149 -1.6484 -0.1590 -1.1120
 2368SOL    HW218567   3.352   3.705   1.051 -0.6299 -0.5406 -4.0137
 2369SOL     OW18568   1.280   2.084   8.351 -0.1397 -0.2116  0.6468
 2369SOL    HW118569   1.194   2.099   8.312  0.8856  0.2585 -1.4417
 2369SOL    HW218570   1.330   2.078   8.270  1.0763  1.2622  1.3025
 2370SOL     OW18571   0.165   0.089  14.913 -0.2420 -0.6791 -0.2374
 2370SOL    HW118572   0.151   4.720  14.901  0.4670 -0.5555 -2.1166
 2370SOL    HW218573   0.224   0.089  14.988 -1.0786 -0.0045  0.4183
 2371SOL     OW18574   2.440   0.564   0.116 -0.0992 -0.6460 -0.2832
 2371SOL    HW118575   2.366   0.519   0.075 -0.1551  0.1919 -1.1181
 2371SOL    HW218576   2.466   0.625   0.046  0.1229 -1.0248 -0.5337
 2372SOL     OW18577   2.722   2.733   7.492 -0.1090  0.4348 -0.0102
 2372SOL    HW118578   2.816   2.740   7.506  0.3158  1.1252 -3.0568
 2372SOL    HW218579   2.725   2.695   7.404 -1.7047  0.8191 -0.2320
 2373SOL     OW18580   1.612   0.089   7.520 -0.2563 -0.0746 -0.4174
 2373SOL    HW118581   1.687   0.049   7.476  0.8830  0.4160  1.0756
 2373SOL    HW218582   1.621   0.040   7.602  0.1605  1.3094  0.3575
 2374SOL     OW18583   1.258   3.822  17.473  0.0650 -0.3891  0.3626
 2374SOL    HW118584   1.283   3.730  17.488 -1.7430 -1.2057 -1.7932
 2374SOL    HW218585   1.333   3.872  17.506  0.4926 -2.0410  1.8876
 2375SOL     OW18586   3.985   1.813   3.955 -0.5459  0.5239 -0.1816
 2375SOL    HW118587   4.043   1.828   4.030 -0.9290 -2.5422  0.7355
 2375SOL    HW218588   4.053   1.778   3.898 -1.3238 -0.3566 -0.5759
 2376SOL     OW18589   3.689   4.610   0.988 -0.1248  0.0771  0.1348
 2376SOL    HW118590   3.675   4.608   0.893 -0.5554  0.5645  0.1882
 2376SOL    HW218591   3.783   4.596   0.987 -0.4262 -1.9940 -1.0642
 2377SOL     OW18592   4.136   3.898   4.800 -0.5083  0.2008  0.1348
 2377SOL    HW118593   4.154   3.950   4.722 -0.0464  0.1122  0.1813
 2377SOL    HW218594   4.045   3.923   4.813 -0.8431 -0.5045 -0.8881
 2378SOL     OW18595   3.701   1.522   1.420  0.3596 -0.0385  0.0602
 2378SOL    HW118596   3.622   1.560   1.457  1.1768  0.4943  1.2659
 2378SOL    HW218597   3.671   1.501   1.332 -2.1626 -0.8803  1.1380
 2379SOL     OW18598   0.075   1.330   5.718 -0.8084 -0.3000 -0.0930
 2379SOL    HW118599   0.028   1.259   5.762  0.3233 -1.7348 -1.1982
 2379SOL    HW218600   0.017   1.344   5.643  2.1680 -0.6203 -2.4505
 2380SOL     OW18601   3.803   2.234   8.287  0.0598  0.0390  0.1874
 2380SOL    HW118602   3.724   2.201   8.244  0.3236  0.2839 -0.4953
 2380SOL    HW218603   3.805   2.326   8.261  2.6781  0.2268  1.0758
 2381SOL     OW18604   3.729   0.637   3.549  0.5079  0.4228  0.3181
 2381SOL    HW118605   3.808   0.688   3.566 -0.2311  1.6225  0.1269
 2381SOL    HW218606   3.749   0.596   3.465  0.0385 -2.1013  1.4227
 2382SOL     OW18607   1.990   4.597   8.405  0.4346 -0.2999 -0.3964
 2382SOL    HW118608   1.999   4.653   8.328  1.7088  2.0999  1.4901
 2382SOL    HW218609   2.065   4.633   8.452 -0.5007  0.8707  0.2001
 2383SOL     OW18610   2.852   4.279  14.507 -0.2287 -0.3846  0.0853
 2383SOL    HW118611   2.896   4.336  14.570 -0.6892  1.3732 -1.1708
 2383SOL    HW218612   2.783   4.239  14.560 -0.4390  1.4095  1.1514
 2384SOL     OW18613   4.376   3.182   1.686  0.8117  0.4999  0.2252
 2384SOL    HW118614   4.337   3.110   1.735  0.4847  0.4850 -0.0610
 2384SOL    HW218615   4.389   3.153   1.596  2.3748  3.5551 -0.5358
 2385SOL     OW18616   0.832   3.613  10.685  0.1713  0.0787 -0.3195
 2385SOL    HW118617   0.909   3.558  10.698  0.5001  0.1611 -1.8119
 2385SOL    HW218618   0.853   3.681  10.621 -1.8422  0.4066 -0.6120
 2386SOL     OW18619   3.349   2.582   5.801 -0.1094 -0.6295 -0.3539
 2386SOL    HW118620   3.298   2.566   5.881 -0.8828 -0.5202 -0.8250
 2386SOL    HW218621   3.301   2.526   5.740 -1.5021 -0.3765  0.4929
 2387SOL     OW18622   3.380   4.547  10.293 -0.5338  0.3672 -0.6047
 2387SOL    HW118623   3.427   4.604  10.354 -1.9269  2.2360 -1.2512
 2387SOL    HW218624   3.451   4.493  10.260  0.6965  0.6568  1.5768
 2388SOL     OW18625   3.451   1.976   7.425 -0.0520 -0.4082 -0.1684
 2388SOL    HW118626   3.458   2.071   7.411  0.4775 -0.9924 -3.7927
 2388SOL    HW218627   3.452   1.987   7.520  0.6682  0.4258 -0.2702
 2389SOL     OW18628   2.048   3.341   5.842 -0.0798  0.0602  0.0838
 2389SOL    HW118629   2.065   3.319   5.751 -2.1083  1.9568 -0.7239
 2389SOL    HW218630   1.959   3.375   5.848 -1.5717 -3.8431 -0.3483
 2390SOL     OW18631   0.460   3.633   6.655  0.0479  0.1206 -0.2489
 2390SOL    HW118632   0.518   3.581   6.601  0.7035  1.5325 -0.9048
 2390SOL    HW218633   0.452   3.582   6.736  0.0327 -2.5286 -1.9608
 2391SOL     OW18634   1.677   2.175  14.093  0.2610  0.6126  0.8175
 2391SOL    HW118635   1.673   2.140  14.182 -2.9607  2.2940  1.3592
 2391SOL    HW218636   1.588   2.208  14.080 -0.5279 -2.0993 -0.7237
 2392SOL     OW18637   4.003   0.920   6.300  0.0089  0.5312  0.5504
 2392SOL    HW118638   4.047   0.837   6.282  1.0280  1.7209 -2.5221
 2392SOL    HW218639   3.982   0.899   6.391 -2.4844  0.3619 -0.0588
 2393SOL     OW18640   1.979   4.646  12.010 -0.3739  0.2099  0.2273
 2393SOL    HW118641   1.893   4.605  12.005  0.5509 -1.7416  0.0950
 2393SOL    HW218642   2.023   4.613  11.931 -1.4235 -1.5516  0.3905
 2394SOL     OW18643   2.209   2.394  11.543  0.5038 -0.2614 -0.0535
 2394SOL    HW118644   2.200   2.477  11.496  1.8854  0.2228  0.5528
 2394SOL    HW218645   2.302   2.374  11.533  0.3633 -1.2850  0.6443
 2395SOL     OW18646   0.553   0.946   7.593  0.5579 -0.3388  0.2782
 2395SOL    HW118647   0.520   1.025   7.634  0.8259 -0.0869  0.0038
 2395SOL    HW218648   0.465   0.912   7.575  0.4739  0.0518 -0.0593
 2396SOL     OW18649   3.290   1.418  15.006 -0.4724 -0.2297 -0.6239
 2396SOL    HW118650   3.372   1.467  15.003 -0.1545 -0.6439  1.2470
 2396SOL    HW218651   3.305   1.352  14.938 -0.9461  0.8341 -1.7643
 2397SOL     OW18652   1.932   1.979   9.328 -0.2545  0.5988 -0.1662
 2397SOL    HW118653   1.881   1.986   9.409  1.4083 -1.5813  1.0638
 2397SOL    HW218654   1.915   2.066   9.292 -0.8799  1.2558  1.6781
 2398SOL     OW18655   3.878   4.129   2.086  0.1410  0.3385 -0.2838
 2398SOL    HW118656   3.809   4.126   2.152  1.5917  0.5867  1.2436
 2398SOL    HW218657   3.948   4.119   2.150  0.3677 -0.6037 -0.6819
 2399SOL     OW18658   4.338   3.421   5.040 -0.2305  0.1717  0.0347
 2399SOL    HW118659   4.280   3.449   4.969  1.0610  2.2846 -0.1801
 2399SOL    HW218660   4.342   3.494   5.102 -0.7728  0.2898 -0.0717
 2400SOL     OW18661   2.724   3.919   6.568  0.0208  0.3251  0.0087
 2400SOL    HW118662   2.819   3.911   6.572 -0.0529 -1.0506 -0.9795
 2400SOL    HW218663   2.698   3.827   6.571 -1.1474  0.7116  2.1268
 2401SOL     OW18664   0.970   1.684   5.468  0.2061 -0.4954 -0.0561
 2401SOL    HW118665   0.964   1.678   5.563  0.5112 -0.5912 -0.0419
 2401SOL    HW218666   0.937   1.774   5.463  0.2264 -0.5485 -1.2159
 2402SOL     OW18667   0.176   1.664   7.241 -0.0146 -0.8497  0.5673
 2402SOL    HW118668   0.093   1.616   7.246 -1.3334  1.6753  2.7889
 2402SOL    HW218669   0.230   1.586   7.257  1.7086 -0.2440 -2.1677
 2403SOL     OW18670   0.270   1.218   6.703  0.1909 -0.1575  0.5563
 2403SOL    HW118671   0.178   1.245   6.704 -1.1715 -4.7257 -3.1502
 2403SOL    HW218672   0.311   1.283   6.761  1.2808  0.1811 -0.5813
 2404SOL     OW18673   3.962   0.975  10.643  0.2816  0.3252 -0.4251
 2404SOL    HW118674   3.868   0.967  10.627  0.2424 -1.1046  0.5777
 2404SOL    HW218675   3.984   0.883  10.630 -0.8053  0.0289 -0.2165
 2405SOL     OW18676   2.934   1.918   5.032 -0.1523 -0.0550  0.0039
 2405SOL    HW118677   2.994   1.845   5.020 -1.7838 -1.3852 -0.0627
 2405SOL    HW218678   2.942   1.968   4.950 -1.2477  0.0391 -0.0409
 2406SOL     OW18679   1.987   3.422   4.723  0.7103 -0.0086  0.2386
 2406SOL    HW118680   2.073   3.388   4.699  1.2856  0.6413  1.3614
 2406SOL    HW218681   1.982   3.414   4.818 -0.6692  0.0861  0.1771
 2407SOL     OW18682   1.358   1.086   4.540  0.0641  0.2472  0.3125
 2407SOL    HW118683   1.390   1.132   4.617  0.9272  0.1775 -0.0100
 2407SOL    HW218684   1.440   1.042   4.519 -0.0263 -0.6551  1.8687
 2408SOL     OW18685   3.185   0.274   6.917  0.4112 -0.4086  0.2663
 2408SOL    HW118686   3.196   0.203   6.980 -0.4348  0.6350  1.5810
 2408SOL    HW218687   3.108   0.242   6.870  0.8780  1.4425 -1.7741
 2409SOL     OW18688   0.701   2.740   8.555  0.3746 -0.3985  0.5393
 2409SOL    HW118689   0.778   2.797   8.548 -1.3013  1.9364  1.2033
 2409SOL    HW218690   0.635   2.808   8.561  1.4384  0.5472  1.6992
 2410SOL     OW18691   1.223   2.152   4.620  0.1117  0.6919 -0.0516
 2410SOL    HW118692   1.153   2.188   4.675  2.4180  0.7596  2.7966
 2410SOL    HW218693   1.267   2.087   4.675 -0.6452  0.4727  0.2972
 2411SOL     OW18694   1.357   1.314   6.098 -0.1336 -0.4528 -0.4171
 2411SOL    HW118695   1.450   1.319   6.078  0.1180  1.1052  1.2298
 2411SOL    HW218696   1.348   1.335   6.191 -2.2475  1.7186 -1.1050
 2412SOL     OW18697   1.716   3.803   3.457  0.3178  0.3136  0.0399
 2412SOL    HW118698   1.624   3.791   3.431  0.0637  1.7355  0.2971
 2412SOL    HW218699   1.748   3.713   3.460 -1.1187 -0.2689 -2.5308
 2413SOL     OW18700   0.100   1.704   3.145  0.6021 -0.5422  0.1195
 2413SOL    HW118701   0.187   1.672   3.121  0.8817  1.6263 -1.7366
 2413SOL    HW218702   0.047   1.648   3.089  0.0749 -0.0405  0.1201
 2414SOL     OW18703   1.942   1.722  15.621  0.1018  0.1985 -0.3150
 2414SOL    HW118704   1.959   1.632  15.649  0.9787  0.9227  1.4746
 2414SOL    HW218705   1.850   1.730  15.649  0.6527  1.1095  1.2023
 2415SOL     OW18706   1.621   1.513   0.358  0.0705  0.3719 -0.4085
 2415SOL    HW118707   1.612   1.462   0.439  1.7281 -0.0769 -0.5027
 2415SOL    HW218708   1.650   1.442   0.301 -0.5916 -0.3665  0.1689
 2416SOL     OW18709   0.996   2.548   4.499  0.2907  0.0523  0.1671
 2416SOL    HW118710   0.913   2.505   4.477  2.2818 -3.4324 -0.5268
 2416SOL    HW218711   1.043   2.552   4.416  1.3340  0.5677  0.7880
 2417SOL     OW18712   3.414   2.186   4.556  0.2443 -0.6932 -0.3570
 2417SOL    HW118713   3.462   2.224   4.629  0.6193 -1.9637  0.0443
 2417SOL    HW218714   3.409   2.263   4.498 -2.1757 -0.1042  0.6191
 2418SOL     OW18715   0.571   1.683   1.953  0.3195  0.2184 -0.7484
 2418SOL    HW118716   0.589   1.642   1.868  0.1674 -1.5059  0.0646
 2418SOL    HW218717   0.482   1.719   1.945 -0.7394 -2.1267  0.4282
 2419SOL     OW18718   2.057   4.052   9.405  0.1000 -0.2920  0.1931
 2419SOL    HW118719   2.099   4.049   9.319 -1.7525 -1.9954 -0.6639
 2419SOL    HW218720   2.045   4.146   9.419 -2.4771 -0.5110 -0.4350
 2420SOL     OW18721   2.091   0.857   4.431  0.5881  0.3760  0.1634
 2420SOL    HW118722   2.031   0.914   4.479 -1.0266 -0.1182 -1.2715
 2420SOL    HW218723   2.076   0.880   4.340 -1.3585  0.5918  0.5391
 2421SOL     OW18724   0.852   2.303   2.971 -0.1649  0.1631  0.0433
 2421SOL    HW118725   0.871   2.328   3.061 -0.4862  2.1966 -0.4500
 2421SOL    HW218726   0.781   2.241   2.983  0.3019 -0.0722  1.5643
 2422SOL     OW18727   3.208   3.777   1.838 -0.7605 -0.4833  0.1334
 2422SOL    HW118728   3.205   3.818   1.925  0.2966 -2.4448  1.0895
 2422SOL    HW218729   3.296   3.800   1.808 -2.0771  1.1329 -2.4524
 2423SOL     OW18730   1.366   1.926   0.566 -0.0184 -0.1618 -0.7200
 2423SOL    HW118731   1.406   1.942   0.651  0.1114 -2.2813 -0.3778
 2423SOL    HW218732   1.424   1.855   0.539 -0.7334 -1.5926  1.5731
 2424SOL     OW18733   2.349   1.136   0.113 -0.0862 -0.5341 -0.2558
 2424SOL    HW118734   2.256   1.118   0.102 -0.2251 -0.4094  0.7145
 2424SOL    HW218735   2.351   1.226   0.079  2.3100 -0.8792 -0.9903
 2425SOL     OW18736   4.455   0.486   0.223  0.1858  0.5068  0.0604
 2425SOL    HW118737   4.412   0.413   0.178 -1.1888  0.8653  0.8285
 2425SOL    HW218738   4.549   0.484   0.203 -0.2434 -1.6871 -1.7537
 2426SOL     OW18739   1.049   3.402   9.403 -0.5237  0.8451 -0.5569
 2426SOL    HW118740   0.986   3.336   9.373  0.4173  0.5674 -1.9571
 2426SOL    HW218741   1.010   3.435   9.484 -0.0984 -1.2752  0.5173
 2427SOL     OW18742   1.828   3.787   8.151  0.2559 -0.1322  0.2572
 2427SOL    HW118743   1.799   3.849   8.218  0.7230  1.5101 -1.0674
 2427SOL    HW218744   1.887   3.735   8.205  0.1784 -0.2708  0.2084
 2428SOL     OW18745   3.068   1.129   4.576  0.3229 -0.4393 -0.3548
 2428SOL    HW118746   3.161   1.125   4.599 -0.0857  0.1097  1.3953
 2428SOL    HW218747   3.055   1.035   4.565  1.2270 -0.6242  0.1875
 2429SOL     OW18748   1.091   1.538   6.083 -0.4296  0.6812 -0.5484
 2429SOL    HW118749   1.142   1.563   6.160  2.0994  0.1957 -2.0422
 2429SOL    HW218750   1.080   1.625   6.044 -0.2476  0.7323 -0.4872
 2430SOL     OW18751   1.970   2.458   3.891 -1.1580  0.4233 -0.2157
 2430SOL    HW118752   1.976   2.549   3.921 -1.4153  0.3499  0.0645
 2430SOL    HW218753   1.903   2.423   3.950 -0.7201  0.5449  0.3501
 2431SOL     OW18754   3.198   4.660   4.100  0.0002  0.1137 -0.0413
 2431SOL    HW118755   3.285   4.696   4.119 -0.6693  0.3220  2.6096
 2431SOL    HW218756   3.213   4.617   4.016 -2.3348  0.0657 -0.4264
 2432SOL     OW18757   0.334   1.323   4.608  0.8122 -0.1334  0.5424
 2432SOL    HW118758   0.399   1.391   4.628  1.3111 -0.6751  0.7554
 2432SOL    HW218759   0.354   1.303   4.516  0.1377  1.3699  0.0634
 2433SOL     OW18760   3.099   3.804   8.674  0.2138  0.7608 -0.4158
 2433SOL    HW118761   3.080   3.769   8.587 -0.2317  1.9262 -0.7914
 2433SOL    HW218762   3.123   3.722   8.718 -0.2301 -0.9658 -3.3854
 2434SOL     OW18763   2.845   0.589   0.539  0.2410  0.4342 -0.0453
 2434SOL    HW118764   2.788   0.654   0.580  2.9681  2.5404  0.3411
 2434SOL    HW218765   2.831   0.596   0.444  0.8123  0.3267 -0.1366
 2435SOL     OW18766   3.561   3.898   5.486 -0.3469  0.5368 -0.4840
 2435SOL    HW118767   3.548   3.889   5.580 -1.6151  0.4192 -0.6674
 2435SOL    HW218768   3.479   3.920   5.441 -0.2872 -1.2264 -1.4772
 2436SOL     OW18769   1.415   2.949   5.721  0.4883  0.0326  1.1294
 2436SOL    HW118770   1.503   2.981   5.741  1.8317 -1.8338 -1.6810
 2436SOL    HW218771   1.375   2.955   5.807 -0.7985 -0.9897  0.6117
 2437SOL     OW18772   1.210   2.387   8.157 -0.3807  0.5034  0.6529
 2437SOL    HW118773   1.297   2.418   8.133 -1.8452  1.6988 -3.1928
 2437SOL    HW218774   1.165   2.467   8.131  1.5791  0.6790 -2.2413
 2438SOL     OW18775   0.820   1.784   6.930  0.0483 -0.1988  0.2867
 2438SOL    HW118776   0.834   1.846   7.001 -2.2483 -1.0419  1.4923
 2438SOL    HW218777   0.725   1.792   6.927  0.1268  0.9997  1.2945
 2439SOL     OW18778   3.236   0.689   7.941 -0.1813  0.5199 -0.4023
 2439SOL    HW118779   3.223   0.761   8.003 -1.3873  1.2649 -1.5332
 2439SOL    HW218780   3.326   0.666   7.964 -0.7328 -1.6529 -0.4214
 2440SOL     OW18781   1.768   3.085  15.215  0.3080  0.7276  0.2380
 2440SOL    HW118782   1.722   3.017  15.264  0.9189 -0.9126 -1.4594
 2440SOL    HW218783   1.854   3.069  15.254  0.1374  0.6032  0.5666
 2441SOL     OW18784   0.978   0.944   4.621 -0.2584 -0.3944  0.0037
 2441SOL    HW118785   0.888   0.953   4.653 -0.3265 -1.5391  0.1368
 2441SOL    HW218786   0.984   0.997   4.542  0.8769  2.3879  1.9225
 2442SOL     OW18787   2.026   1.665   3.092 -0.4601 -0.3164 -0.6555
 2442SOL    HW118788   1.939   1.692   3.062  0.1090  0.4994 -1.5921
 2442SOL    HW218789   2.088   1.700   3.028  1.6914 -0.5181  1.3289
 2443SOL     OW18790   1.771   2.724   8.884 -0.1264 -0.0834  0.3212
 2443SOL    HW118791   1.678   2.747   8.884 -0.1400 -0.1380  0.3097
 2443SOL    HW218792   1.796   2.787   8.952  0.0637  1.1331 -0.8719
 2444SOL     OW18793   0.287   2.581   2.279  0.3093  0.2049  0.0299
 2444SOL    HW118794   0.286   2.677   2.278 -0.0970  0.2403  2.9777
 2444SOL    HW218795   0.227   2.581   2.354  1.9082  1.3380  1.3339
 2445SOL     OW18796   3.472   3.906   2.751 -0.4100 -0.1977  0.2707
 2445SOL    HW118797   3.380   3.884   2.739 -0.4882  2.2494 -3.5297
 2445SOL    HW218798   3.491   3.894   2.844 -2.8526 -1.3413  0.6288
 2446SOL     OW18799   2.457   3.328   2.885  0.1249 -0.1061  1.1440
 2446SOL    HW118800   2.525   3.394   2.872  0.9309 -1.5721 -2.0297
 2446SOL    HW218801   2.461   3.308   2.978  0.4185 -0.1462  1.1215
 2447SOL     OW18802   0.713   1.459   4.820 -0.5159 -0.4194  0.5184
 2447SOL    HW118803   0.662   1.378   4.811 -0.3165 -0.2145 -2.5416
 2447SOL    HW218804   0.726   1.449   4.914  0.5475  1.2078  0.5528
 2448SOL     OW18805   3.309   1.443   1.575  0.6122  0.6278  0.0907
 2448SOL    HW118806   3.326   1.351   1.552 -0.2138  0.8170 -1.2122
 2448SOL    HW218807   3.224   1.456   1.535  0.9551  1.4862 -0.3545
 2449SOL     OW18808   4.334   0.700   8.107  0.3761 -0.1650 -0.5130
 2449SOL    HW118809   4.351   0.670   8.196  0.0183  2.8051  0.5758
 2449SOL    HW218810   4.279   0.776   8.126 -2.0647 -2.4906  1.5974
 2450SOL     OW18811   3.709   1.678   9.355  0.5058 -0.4116 -0.2282
 2450SOL    HW118812   3.668   1.689   9.441  0.1208  2.0479 -0.7356
 2450SOL    HW218813   3.633   1.700   9.302 -0.6539 -2.6218  0.5049
 2451SOL     OW18814   3.547   2.547  16.016 -0.7705 -0.6695  0.5641
 2451SOL    HW118815   3.551   2.478  15.950  1.5013  0.9277 -0.9532
 2451SOL    HW218816   3.578   2.623  15.968  0.8784  0.0747  2.7910
 2452SOL     OW18817   4.346   2.626   3.450 -0.2041  0.1343  0.0792
 2452SOL    HW118818   4.298   2.705   3.475 -1.1190 -0.4243  0.0886
 2452SOL    HW218819   4.299   2.558   3.499 -0.7063  1.5704  1.5729
 2453SOL     OW18820   4.106   3.988   7.071 -0.4801 -0.3207  0.1227
 2453SOL    HW118821   4.088   4.082   7.060  1.5791  0.1342  0.6848
 2453SOL    HW218822   4.177   3.999   7.134 -1.0468  3.7879  0.0405
 2454SOL     OW18823   2.714   3.675   7.382 -0.1280 -0.3627 -0.0261
 2454SOL    HW118824   2.790   3.649   7.434 -0.1013 -1.4255 -0.5885
 2454SOL    HW218825   2.731   3.769   7.373  1.2059 -0.7784 -1.9363
 2455SOL     OW18826   0.117   3.210   4.922 -0.3515 -0.0136 -0.1216
 2455SOL    HW118827   0.113   3.128   4.872  1.4515  0.0676 -0.4032
 2455SOL    HW218828   0.036   3.257   4.902 -1.6120 -2.8938 -1.7761
 2456SOL     OW18829   1.297   3.349   1.704  0.4814 -0.0857  0.7150
 2456SOL    HW118830   1.324   3.257   1.703  2.6740  0.5573  1.0369
 2456SOL    HW218831   1.334   3.366   1.617 -0.3624 -2.3419 -0.0870
 2457SOL     OW18832   0.276   2.184   2.012 -0.2968 -0.0860 -0.3196
 2457SOL    HW118833   0.323   2.190   2.095 -0.6480 -0.4237 -0.0990
 2457SOL    HW218834   0.222   2.263   2.013 -1.8263 -1.1307 -1.9412
 2458SOL     OW18835   2.779   1.169   8.473  0.1168 -0.1674 -0.2503
 2458SOL    HW118836   2.795   1.075   8.471 -0.1572 -0.2167  0.0179
 2458SOL    HW218837   2.736   1.174   8.558  1.6483 -0.8718  0.5665
 2459SOL     OW18838   0.926   1.001   2.450  0.2201  0.1034 -0.5630
 2459SOL    HW118839   0.841   0.964   2.473  0.0454  1.3536  0.8132
 2459SOL    HW218840   0.918   1.008   2.355 -0.0643  1.9707 -0.4086
 2460SOL     OW18841   1.178   0.551   5.556 -0.0276 -0.0837  0.2904
 2460SOL    HW118842   1.202   0.643   5.567  0.0429  0.0536 -0.9670
 2460SOL    HW218843   1.141   0.529   5.641 -0.6271  1.0684  0.3309
 2461SOL     OW18844   1.605   3.330   7.335 -0.2176  0.1519  0.1238
 2461SOL    HW118845   1.609   3.420   7.303  0.7990 -0.3185 -1.0877
 2461SOL    HW218846   1.519   3.302   7.305 -0.3991  0.8563 -0.0117
 2462SOL     OW18847   4.724   1.961   9.090 -0.2446  0.1080  0.1265
 2462SOL    HW118848   4.706   2.043   9.044  2.5735  0.9469  0.5249
 2462SOL    HW218849   0.059   1.926   9.024 -1.4326 -0.5335 -0.6086
 2463SOL     OW18850   0.990   2.371  15.928 -0.0521 -0.1107  0.2934
 2463SOL    HW118851   1.008   2.344  15.838 -0.2274  0.6070  0.0419
 2463SOL    HW218852   1.023   2.297  15.979  0.2055 -1.9003 -2.5200
 2464SOL     OW18853   3.357   0.928   8.961 -0.4138  0.2073 -0.5077
 2464SOL    HW118854   3.338   1.015   8.995  3.6954  1.6210 -1.8220
 2464SOL    HW218855   3.434   0.892   9.006  0.7608 -0.8971 -3.4319
 2465SOL     OW18856   4.451   2.853   4.051 -0.2933  0.2828 -0.1480
 2465SOL    HW118857   4.489   2.912   4.116  1.5952  0.5408 -1.5049
 2465SOL    HW218858   4.519   2.786   4.058 -1.1624 -0.5608  0.2863
 2466SOL     OW18859   2.021   0.030   9.778 -0.8779 -0.0065 -0.8056
 2466SOL    HW118860   2.039   4.682   9.838 -2.2454  2.2002  2.2448
 2466SOL    HW218861   1.950   0.070   9.828 -0.6158 -1.2916  0.6198
 2467SOL     OW18862   3.312   0.604   8.422 -0.5756  0.0873 -0.3283
 2467SOL    HW118863   3.352   0.678   8.467  0.4798 -1.0016  0.5438
 2467SOL    HW218864   3.276   0.553   8.495 -0.7609  0.1280 -0.3908
 2468SOL     OW18865   2.315   4.685   6.046 -0.1699 -0.1600 -0.2420
 2468SOL    HW118866   2.275   4.601   6.069  0.3691 -1.0256 -2.4225
 2468SOL    HW218867   2.405   4.669   6.073 -1.1383 -0.6653  2.7272
 2469SOL     OW18868   3.383   2.872  14.575  1.0934  0.0481  0.3606
 2469SOL    HW118869   3.292   2.843  14.570  1.4458 -1.1817  1.1175
 2469SOL    HW218870   3.417   2.792  14.616  1.7681  0.2034  0.1161
 2470SOL     OW18871   3.619   3.828   2.532  0.2894  0.1315 -0.1102
 2470SOL    HW118872   3.543   3.837   2.590  0.5590 -1.0165  0.4261
 2470SOL    HW218873   3.589   3.891   2.466 -1.3859 -0.9412 -0.3876
 2471SOL     OW18874   2.627   2.966   0.256 -0.6875 -0.1498 -0.0693
 2471SOL    HW118875   2.566   2.893   0.259 -0.8160 -0.0866 -1.5905
 2471SOL    HW218876   2.586   3.028   0.317  0.5874 -0.6237  1.2605
 2472SOL     OW18877   4.416   2.380   5.093  0.3195  0.0903  0.0539
 2472SOL    HW118878   4.486   2.436   5.126 -0.0276  0.1603  0.6700
 2472SOL    HW218879   4.445   2.386   5.002  0.3227 -2.7447 -0.1424
 2473SOL     OW18880   4.625   2.654   4.639 -0.1462  0.5773  0.6950
 2473SOL    HW118881   4.572   2.575   4.652  0.0575  0.3645  0.2335
 2473SOL    HW218882   4.558   2.720   4.619 -0.4607 -0.3007 -1.1860
 2474SOL     OW18883   2.958   3.371   2.829  0.3204 -0.6123 -0.1285
 2474SOL    HW118884   2.991   3.281   2.834  1.1643 -0.3417 -0.6867
 2474SOL    HW218885   2.896   3.364   2.757  1.5415  0.7702 -1.3046
 2475SOL     OW18886   4.464   3.985   5.448  1.1857  0.0162 -0.4166
 2475SOL    HW118887   4.482   4.040   5.525  0.8614  1.3717 -1.3158
 2475SOL    HW218888   4.452   4.054   5.383 -0.6176 -0.7895 -0.9240
 2476SOL     OW18889   4.604   4.571   5.911  0.1042 -0.0247 -0.0421
 2476SOL    HW118890   4.682   4.559   5.857  0.3132 -0.1984  0.2968
 2476SOL    HW218891   4.623   4.515   5.986 -1.1963  0.0471  0.3497
 2477SOL     OW18892   3.590   4.550   5.716  0.9126  0.1222  0.4832
 2477SOL    HW118893   3.673   4.510   5.689 -0.0103 -2.2908  1.1889
 2477SOL    HW218894   3.580   4.521   5.807  2.0142  1.6872  1.1162
 2478SOL     OW18895   1.237   4.544  17.563  0.3010 -0.2135  0.3171
 2478SOL    HW118896   1.289   4.522  17.486  0.5693 -0.6958  0.6360
 2478SOL    HW218897   1.285   4.479  17.615  3.3925 -1.6517 -4.3891
 2479SOL     OW18898   0.110   2.108  16.985  0.2411 -0.9169  0.4613
 2479SOL    HW118899   0.041   2.082  17.046 -1.0248 -1.1329 -1.0577
 2479SOL    HW218900   0.064   2.097  16.902  2.8160 -0.9161 -0.9648
 2480SOL     OW18901   2.206   4.069   4.336 -0.1897 -0.3183 -0.2206
 2480SOL    HW118902   2.297   4.048   4.359 -0.8619  0.2322  3.0226
 2480SOL    HW218903   2.216   4.156   4.373  3.8999 -1.1966  0.8149
 2481SOL     OW18904   2.194   4.077   6.804  0.1926  1.1964 -0.4985
 2481SOL    HW118905   2.117   4.046   6.756  0.1176  0.6432 -0.0230
 2481SOL    HW218906   2.245   3.996   6.809 -0.3485  0.8263 -1.0159
 2482SOL     OW18907   3.704   2.430   1.126 -0.5114 -0.1458  0.0079
 2482SOL    HW118908   3.633   2.480   1.165 -0.2755 -0.4437  0.8306
 2482SOL    HW218909   3.755   2.497   1.081  0.1196  1.1828  2.6711
 2483SOL     OW18910   2.691   1.255  17.238 -0.2395  0.2194  0.7110
 2483SOL    HW118911   2.712   1.168  17.272  0.7979  0.0379 -0.3764
 2483SOL    HW218912   2.708   1.311  17.313  2.6972 -0.8226  0.8307
 2484SOL     OW18913   1.126   1.602   1.720 -0.2070 -0.2891  0.0265
 2484SOL    HW118914   1.219   1.583   1.716  0.2741  2.3355 -0.6348
 2484SOL    HW218915   1.084   1.569   1.640 -0.5507  2.4372 -0.9191
 2485SOL     OW18916   1.575   4.451  13.324  0.8260 -0.1767  0.1060
 2485SOL    HW118917   1.572   4.356  13.335  0.8726 -0.0228  1.4862
 2485SOL    HW218918   1.585   4.479  13.415 -1.9635 -4.2059  1.6249
 2486SOL     OW18919   4.050   4.093   8.448 -0.1594 -0.1458  0.3743
 2486SOL    HW118920   4.044   4.020   8.509 -0.3655 -1.2521 -0.9679
 2486SOL    HW218921   3.967   4.087   8.401  0.6395 -1.7649 -0.8250
 2487SOL     OW18922   1.934   4.235   4.396  0.1252 -0.5422  0.1175
 2487SOL    HW118923   2.020   4.272   4.414 -0.3225 -0.2695  1.6192
 2487SOL    HW218924   1.884   4.302   4.349 -1.0590 -0.8176  0.9982
 2488SOL     OW18925   3.652   1.441   6.522 -0.0152 -0.3389  0.2528
 2488SOL    HW118926   3.601   1.501   6.576 -1.4018 -0.8878 -0.4557
 2488SOL    HW218927   3.631   1.360   6.570 -1.9728 -0.0452 -0.1158
 2489SOL     OW18928   4.384   3.977  15.758 -0.2861  0.3984  0.8164
 2489SOL    HW118929   4.400   4.038  15.830  3.6773  0.4023 -0.0612
 2489SOL    HW218930   4.290   3.985  15.741 -0.4446 -0.0666  1.4965
 2490SOL     OW18931   2.460   2.183   0.731 -0.0663  0.0639 -0.3383
 2490SOL    HW118932   2.459   2.127   0.808 -0.5543  0.5511  0.0088
 2490SOL    HW218933   2.462   2.119   0.660 -1.3248  0.7945 -1.0311
 2491SOL     OW18934   2.599   2.605   4.780 -0.0415  0.0283  0.3344
 2491SOL    HW118935   2.583   2.539   4.847 -2.1655  1.4080  1.1931
 2491SOL    HW218936   2.605   2.554   4.699 -2.1477 -0.7116  0.6291
 2492SOL     OW18937   2.157   2.215   6.233 -0.0011 -0.4007  0.4489
 2492SOL    HW118938   2.135   2.272   6.159  1.0823 -2.1747 -1.2387
 2492SOL    HW218939   2.243   2.249   6.258  0.4398  0.2945 -2.0657
 2493SOL     OW18940   2.305   0.586  15.623 -0.2207 -0.3349  0.2072
 2493SOL    HW118941   2.324   0.502  15.582  0.2640 -0.1773  0.1076
 2493SOL    HW218942   2.334   0.649  15.557  1.2605 -1.3896 -0.1435
 2494SOL     OW18943   1.450   3.221  16.748  0.5296 -0.2264  0.9195
 2494SOL    HW118944   1.465   3.291  16.685 -0.5209  0.0880  1.0211
 2494SOL    HW218945   1.541   3.191  16.747  0.8452  0.8507 -2.3376
 2495SOL     OW18946   3.902   4.719   7.840 -0.2488 -0.1229 -0.0047
 2495SOL    HW118947   3.881   0.087   7.846 -0.7446 -0.5990  5.3281
 2495SOL    HW218948   3.945   4.697   7.922  2.4890  1.5273 -0.9951
 2496SOL     OW18949   4.414   1.233   2.605 -0.1469 -0.0983  0.2285
 2496SOL    HW118950   4.371   1.307   2.564 -2.9296  0.2581  3.7660
 2496SOL    HW218951   4.334   1.182   2.618  0.2186 -0.9737 -0.9857
 2497SOL     OW18952   1.716   0.167  17.659  0.4461  0.0472 -0.5481
 2497SOL    HW118953   1.798   0.216  17.660 -0.9235  2.2962  1.9416
 2497SOL    HW218954   1.650   0.222  17.615  0.6484 -0.3744 -1.3807
 2498SOL     OW18955   1.580   4.093   3.723  0.2184  0.7863  0.2772
 2498SOL    HW118956   1.523   4.029   3.766  1.8730 -0.4402  0.6610
 2498SOL    HW218957   1.622   4.145   3.792  1.0449 -0.1718  0.5051
 2499SOL     OW18958   1.647   3.655   6.532 -0.1710  0.0482  0.7049
 2499SOL    HW118959   1.649   3.561   6.516 -2.9237  0.1468 -0.1236
 2499SOL    HW218960   1.554   3.676   6.532  0.1352  1.4011 -1.3503
 2500SOL     OW18961   3.738   3.373   3.269 -0.4841 -0.5169  0.0239
 2500SOL    HW118962   3.713   3.298   3.216 -0.1059  0.5519 -1.6545
 2500SOL    HW218963   3.690   3.364   3.351  1.2265  0.5410  1.1452
 2501SOL     OW18964   2.057   2.135  15.294  0.4983  0.3019 -0.1885
 2501SOL    HW118965   2.009   2.052  15.296 -3.2903  2.5751  5.1203
 2501SOL    HW218966   2.142   2.094  15.280  0.0538 -1.0698  1.0226
 2502SOL     OW18967   0.240   1.033   7.836 -0.0903 -0.1345  0.4940
 2502SOL    HW118968   0.199   1.076   7.761  0.5233  0.9107  0.7555
 2502SOL    HW218969   0.174   1.055   7.902 -1.6555  0.8289 -1.3847
 2503SOL     OW18970   0.829   4.131  15.032 -0.1134  0.2201 -0.3545
 2503SOL    HW118971   0.780   4.055  15.062 -1.6187  1.2327 -0.2296
 2503SOL    HW218972   0.886   4.089  14.968 -1.0536 -0.1392 -0.9598
 2504SOL     OW18973   2.717   0.342   7.997 -0.7165 -0.0729 -0.3699
 2504SOL    HW118974   2.662   0.288   7.940  1.2173  0.5674 -2.8186
 2504SOL    HW218975   2.744   0.415   7.941  1.5280  0.6913  1.7120
 2505SOL     OW18976   4.404   2.641   7.091 -0.0661  0.1653  0.0660
 2505SOL    HW118977   4.380   2.634   7.184 -0.5414 -1.1821 -0.1577
 2505SOL    HW218978   4.457   2.721   7.096 -0.1618  0.4054 -2.9875
 2506SOL     OW18979   1.023   4.603  14.878  0.3507  0.0388  0.5759
 2506SOL    HW118980   1.016   4.622  14.784 -1.1719  1.8387  1.0468
 2506SOL    HW218981   0.932   4.617  14.904  0.5819  1.2577  0.7447
 2507SOL     OW18982   1.653   4.562  16.505  0.6456  0.8615  0.0725
 2507SOL    HW118983   1.647   4.635  16.443 -0.4325  1.2003  0.5625
 2507SOL    HW218984   1.744   4.559  16.534  0.5842 -1.0049  0.0633
 2508SOL     OW18985   1.738   1.547   3.463  0.0651  0.2170 -0.5556
 2508SOL    HW118986   1.813   1.601   3.436 -0.1898  0.6185 -0.4683
 2508SOL    HW218987   1.658   1.595   3.441 -1.0898 -1.5463 -0.1828
 2509SOL     OW18988   1.886   0.440   3.442  0.2571  0.0328 -0.1985
 2509SOL    HW118989   1.912   0.432   3.350 -0.4943  1.5644 -0.5459
 2509SOL    HW218990   1.833   0.361   3.445 -0.7974  0.7671  0.4819
 2510SOL     OW18991   1.258   3.959   7.574  0.7269  0.4080 -0.0039
 2510SOL    HW118992   1.202   3.934   7.500  0.0038  2.9771 -0.3277
 2510SOL    HW218993   1.293   4.043   7.545 -0.9760  0.4298 -2.0715
 2511SOL     OW18994   4.724   4.477   3.062  0.3402  0.2045  0.2060
 2511SOL    HW118995   4.717   4.507   3.152  2.6302 -1.3375  0.8983
 2511SOL    HW218996   0.051   4.398   3.078  1.9790  1.0875 -0.7510
 2512SOL     OW18997   1.676   3.509   5.030 -0.0606  0.1804  1.0012
 2512SOL    HW118998   1.600   3.452   5.021  1.9452 -2.4374  0.5966
 2512SOL    HW218999   1.644   3.596   5.053 -2.1022  0.0426 -1.3848
 2513SOL     OW19000   2.892   3.081   4.852  0.0883 -0.1850 -0.1839
 2513SOL    HW119001   2.973   3.100   4.805  0.3992  2.2060  1.3389
 2513SOL    HW219002   2.856   3.009   4.799  0.5322  0.2947 -1.1215
 2514SOL     OW19003   0.328   2.734   3.626  0.0710 -0.2925 -0.6309
 2514SOL    HW119004   0.298   2.727   3.535 -2.2802 -2.9908  0.3421
 2514SOL    HW219005   0.260   2.788   3.667 -0.5231 -0.6350 -1.1698
 2515SOL     OW19006   1.321   1.885   8.047 -1.0071  0.0093 -0.3799
 2515SOL    HW119007   1.410   1.850   8.049 -2.1544 -2.8357  1.3895
 2515SOL    HW219008   1.342   1.970   8.086  0.0504 -0.9019  1.0085
 2516SOL     OW19009   0.823   2.633   1.335  0.8663 -0.2192 -0.4079
 2516SOL    HW119010   0.862   2.676   1.259  1.3117  2.9660  1.6310
 2516SOL    HW219011   0.899   2.599   1.382 -1.3391 -0.8641  2.6817
 2517SOL     OW19012   2.425   3.227   4.759  0.1080 -0.7960  0.4340
 2517SOL    HW119013   2.468   3.292   4.703 -1.6899 -2.0522 -2.4369
 2517SOL    HW219014   2.453   3.255   4.845 -0.6375  3.6537 -0.7905
 2518SOL     OW19015   1.668   1.323   9.099 -0.2218 -0.0588 -0.5718
 2518SOL    HW119016   1.657   1.379   9.022  1.5461 -3.8489 -3.6289
 2518SOL    HW219017   1.645   1.376   9.174 -2.6666 -3.4244  1.0405
 2519SOL     OW19018   1.770   3.495   3.143  0.9200 -0.4381  0.1228
 2519SOL    HW119019   1.807   3.416   3.103 -0.6432 -0.7543 -0.6961
 2519SOL    HW219020   1.769   3.567   3.079  1.0330  0.9211  1.6539
 2520SOL     OW19021   4.382   1.917   4.713  0.2983 -0.3907 -0.1620
 2520SOL    HW119022   4.416   1.995   4.668 -1.1663  0.6873  0.5802
 2520SOL    HW219023   4.464   1.871   4.733  0.6183  0.0767 -0.3925
 2521SOL     OW19024   1.727   4.354   8.759 -0.2582  0.0864 -0.2802
 2521SOL    HW119025   1.751   4.444   8.783 -2.5238  0.9575 -1.3145
 2521SOL    HW219026   1.745   4.365   8.665 -2.5487  2.1227 -0.4658
 2522SOL     OW19027   2.532   1.298   5.362  0.0723  0.3982  0.1670
 2522SOL    HW119028   2.625   1.294   5.385  0.5306  1.3211 -1.5538
 2522SOL    HW219029   2.541   1.303   5.267 -0.3912 -0.7763  0.0543
 2523SOL     OW19030   3.543   2.602  14.926 -0.5500  0.3717  0.1294
 2523SOL    HW119031   3.595   2.576  15.002 -0.8077 -0.8914 -0.1217
 2523SOL    HW219032   3.501   2.680  14.964  0.1134 -0.2405  2.1544
 2524SOL     OW19033   3.144   3.279   2.080 -0.3727 -0.1925  0.5530
 2524SOL    HW119034   3.180   3.325   2.004 -2.9008 -0.2022 -0.6510
 2524SOL    HW219035   3.124   3.345   2.147  0.1791  1.0139 -0.4642
 2525SOL     OW19036   3.277   1.864   8.213 -0.0610  0.1071  0.2554
 2525SOL    HW119037   3.371   1.876   8.199  0.0363  0.1082  0.9170
 2525SOL    HW219038   3.271   1.774   8.244 -0.2065  0.6822  1.8927
 2526SOL     OW19039   4.135   2.826  10.022 -0.0482  0.1166  0.0572
 2526SOL    HW119040   4.226   2.847  10.001 -0.5329  2.2058  0.0914
 2526SOL    HW219041   4.102   2.912   9.997  2.1561  0.6607 -1.0847
 2527SOL     OW19042   2.360   3.325   7.847 -0.3620  0.5482 -0.0159
 2527SOL    HW119043   2.310   3.406   7.861  1.4392  1.7092 -0.3828
 2527SOL    HW219044   2.398   3.345   7.762  2.0508  0.8183  1.1199
 2528SOL     OW19045   2.034   4.398   3.955  0.0777  0.3818  0.1350
 2528SOL    HW119046   2.006   4.329   4.015 -4.2758  1.0383 -1.1211
 2528SOL    HW219047   1.974   4.403   3.880 -0.7372  0.3314  0.7821
 2529SOL     OW19048   4.642   0.281   5.559 -0.4826 -0.1269 -0.3405
 2529SOL    HW119049   4.586   0.213   5.596 -1.2036  1.0947  0.8208
 2529SOL    HW219050   4.590   0.358   5.582  1.1772  0.5026  1.2978
 2530SOL     OW19051   0.581   3.414   6.148  0.1740 -0.5337  0.3148
 2530SOL    HW119052   0.574   3.437   6.241 -1.4447  1.3310 -0.2595
 2530SOL    HW219053   0.675   3.420   6.128 -0.1084  0.9358 -0.5428
 2531SOL     OW19054   3.966   4.612   7.460  0.8610  0.3567  0.2156
 2531SOL    HW119055   3.894   4.585   7.403  0.8798  2.3517 -0.7546
 2531SOL    HW219056   3.935   4.610   7.551 -0.6587  1.0557 -0.2835
 2532SOL     OW19057   1.429   0.792  12.873 -0.1522 -0.1280  0.0057
 2532SOL    HW119058   1.366   0.728  12.907 -0.1275 -0.8955 -1.3807
 2532SOL    HW219059   1.411   0.881  12.904  0.5316  0.1393 -0.3720
 2533SOL     OW19060   2.368   1.787   7.241 -0.4261  0.6171 -0.4477
 2533SOL    HW119061   2.345   1.707   7.287 -0.5734  1.3622  0.7757
 2533SOL    HW219062   2.376   1.851   7.312  1.2889 -0.2301  0.1037
 2534SOL     OW19063   0.312   1.185  16.943  0.4949  0.4753 -0.1124
 2534SOL    HW119064   0.276   1.162  17.028 -2.3805 -0.4245 -1.5345
 2534SOL    HW219065   0.313   1.099  16.900 -2.1997 -0.6603  2.1117
 2535SOL     OW19066   0.435   0.253   2.110 -0.1258  0.4796  0.1039
 2535SOL    HW119067   0.461   0.177   2.058 -0.1460 -0.2393  1.1470
 2535SOL    HW219068   0.505   0.317   2.100 -0.5069  1.1271  1.7179
 2536SOL     OW19069   0.752   4.357   5.210 -0.3266  0.2295 -0.4652
 2536SOL    HW119070   0.715   4.369   5.298  1.5652  0.6236  0.2683
 2536SOL    HW219071   0.840   4.322   5.222  0.2996  2.0359  0.2316
 2537SOL     OW19072   4.645   1.647   8.231  0.4180  0.4318  0.1279
 2537SOL    HW119073   4.621   1.735   8.261  0.6748  0.4290  0.3481
 2537SOL    HW219074   4.633   1.604   8.316  0.9053 -0.9405 -0.4940
 2538SOL     OW19075   3.501   3.288   7.135 -0.3088  0.3066 -0.1621
 2538SOL    HW119076   3.471   3.336   7.213 -2.0466 -0.8511 -0.1060
 2538SOL    HW219077   3.594   3.310   7.134 -0.7816  1.9916 -4.5534
 2539SOL     OW19078   2.091   3.443   4.336 -0.0992 -0.3810  0.2215
 2539SOL    HW119079   2.021   3.497   4.371 -0.7188 -0.5266 -0.7785
 2539SOL    HW219080   2.091   3.460   4.242 -0.0912  2.3721  0.7267
 2540SOL     OW19081   1.908   2.826   0.636  0.2063 -0.2021 -0.0909
 2540SOL    HW119082   1.954   2.782   0.708 -0.6239 -0.0184  0.5647
 2540SOL    HW219083   1.896   2.918   0.659  1.8148  0.1735 -0.7900
 2541SOL     OW19084   2.393   3.486   8.215  0.6216 -0.1107  0.5143
 2541SOL    HW119085   2.315   3.535   8.189  1.3097  0.4362 -0.5316
 2541SOL    HW219086   2.348   3.413   8.257 -1.0802  1.1120  0.8252
 2542SOL     OW19087   1.565   4.639   8.495  0.1815 -0.2255  0.2748
 2542SOL    HW119088   1.522   4.638   8.581  1.1699  0.6204  0.7747
 2542SOL    HW219089   1.534   4.554   8.463 -1.2143  0.2565  0.3472
 2543SOL     OW19090   3.437   0.496   9.459 -0.5330 -0.2939 -0.0880
 2543SOL    HW119091   3.426   0.591   9.461  0.7957 -0.1289 -0.6073
 2543SOL    HW219092   3.471   0.476   9.547  2.6315 -0.8988 -1.4547
 2544SOL     OW19093   0.401   4.287   6.567  0.0479  0.1045  0.6086
 2544SOL    HW119094   0.454   4.229   6.622 -2.0056 -1.1431  1.2804
 2544SOL    HW219095   0.352   4.217   6.523  0.0370  0.0453  0.7160
 2545SOL     OW19096   0.192   3.992  16.191 -0.2508 -0.0605 -0.0418
 2545SOL    HW119097   0.159   4.030  16.110  1.4570 -0.1122 -0.7699
 2545SOL    HW219098   0.285   4.015  16.187 -0.6844  1.4130 -1.8146
 2546SOL     OW19099   1.803   2.418   9.611  0.5523 -0.4904 -0.1001
 2546SOL    HW119100   1.754   2.494   9.642  0.9555  0.4710 -1.8154
 2546SOL    HW219101   1.780   2.362   9.685 -0.0112 -1.9261 -1.3732
 2547SOL     OW19102   1.869   4.543   5.363 -0.3088 -0.0683 -0.0893
 2547SOL    HW119103   1.837   4.619   5.314 -0.3897 -0.0664 -0.0333
 2547SOL    HW219104   1.820   4.545   5.445  0.7665 -0.1422  0.5431
 2548SOL     OW19105   2.219   2.081   5.973  0.0579 -0.2892  0.3348
 2548SOL    HW119106   2.299   2.106   6.019 -0.8916  2.7717  0.2973
 2548SOL    HW219107   2.177   2.167   5.968 -0.4972 -0.6730 -1.6303
 2549SOL     OW19108   1.183   2.925   5.117  0.9520  0.2936 -0.0033
 2549SOL    HW119109   1.146   2.927   5.029 -0.8244 -0.9614  0.6914
 2549SOL    HW219110   1.213   2.834   5.125  1.2239  0.4684  0.9885
 2550SOL     OW19111   0.284   3.750   6.179  0.2814 -0.1189 -0.1088
 2550SOL    HW119112   0.282   3.720   6.269  1.4776  2.2397  0.7077
 2550SOL    HW219113   0.372   3.728   6.150  0.4280 -1.1247  1.1093
 2551SOL     OW19114   2.043   3.704   6.260 -0.0320 -0.1035  0.2332
 2551SOL    HW119115   2.056   3.752   6.342  3.2651 -2.2656  0.9781
 2551SOL    HW219116   2.073   3.764   6.192  0.1625  0.7316  1.0587
 2552SOL     OW19117   4.073   3.401   4.092  0.0849 -0.4240  0.1295
 2552SOL    HW119118   4.020   3.481   4.096 -0.2045 -0.6931  1.6754
 2552SOL    HW219119   4.131   3.436   4.024 -0.3322  0.5273  0.2635
 2553SOL     OW19120   0.260   0.540   8.466  0.3287 -0.2461  0.4302
 2553SOL    HW119121   0.261   0.617   8.410  1.1481 -0.8958 -0.4611
 2553SOL    HW219122   0.289   0.581   8.547  0.1348  0.7111  0.0163
 2554SOL     OW19123   1.270   0.159   5.261 -0.1591 -0.5293  0.3051
 2554SOL    HW119124   1.259   0.065   5.274  3.0526 -0.9098  0.4020
 2554SOL    HW219125   1.329   0.155   5.185  1.5607  0.6619  1.5738
 2555SOL     OW19126   0.767   3.573  14.999  0.5674  0.5075 -0.6021
 2555SOL    HW119127   0.832   3.602  14.935  1.9373 -0.1768  0.4723
 2555SOL    HW219128   0.690   3.579  14.943  0.4898 -0.7964 -0.6419
 2556SOL     OW19129   2.198   0.701   8.641 -0.0907  0.4180  0.1995
 2556SOL    HW119130   2.211   0.705   8.736 -0.1109  0.3881  0.2036
 2556SOL    HW219131   2.180   0.793   8.622  1.8703  0.5757 -0.8159
 2557SOL     OW19132   2.983   4.464   0.449  0.1766  0.1612 -0.5291
 2557SOL    HW119133   2.898   4.419   0.454  0.1805  0.0846 -1.1988
 2557SOL    HW219134   2.982   4.509   0.534  1.0658  0.4006 -0.6466
 2558SOL     OW19135   3.169   4.521   5.006  0.1780 -0.2402 -0.2020
 2558SOL    HW119136   3.237   4.587   4.993 -0.4248  0.6449  1.0852
 2558SOL    HW219137   3.141   4.517   4.914 -2.8712  0.0016  0.7054
 2559SOL     OW19138   2.199   1.521   8.317  0.2793 -0.5300  0.4293
 2559SOL    HW119139   2.125   1.466   8.343 -1.4317 -0.0790 -3.4699
 2559SOL    HW219140   2.262   1.452   8.297  1.2296  0.5395 -0.2448
 2560SOL     OW19141   0.936   3.571   9.628  0.2924 -0.5967 -0.0893
 2560SOL    HW119142   0.896   3.602   9.547 -1.3609  1.1296  1.3873
 2560SOL    HW219143   0.856   3.568   9.681 -0.2590  1.6556 -0.7883
 2561SOL     OW19144   2.610   1.731   4.964 -0.4417  0.1824 -0.0548
 2561SOL    HW119145   2.546   1.675   5.009  1.5325 -0.9601  1.3310
 2561SOL    HW219146   2.653   1.681   4.895  0.5646  1.5574 -0.4114
 2562SOL     OW19147   1.718   4.560  10.449  0.1548  0.4297 -0.0789
 2562SOL    HW119148   1.755   4.491  10.394 -0.0425 -0.9416  1.5139
 2562SOL    HW219149   1.785   4.626  10.432 -0.1185  1.5927  3.3991
 2563SOL     OW19150   3.887   0.243   6.257  0.8541 -0.1518  0.5707
 2563SOL    HW119151   3.890   0.148   6.244  2.8986  0.0920 -0.6550
 2563SOL    HW219152   3.886   0.283   6.170 -0.2902 -2.4667 -0.4698
 2564SOL     OW19153   1.589   1.331   3.309 -0.1924  0.4581 -0.4133
 2564SOL    HW119154   1.626   1.369   3.389 -1.2837 -0.8874  0.7391
 2564SOL    HW219155   1.630   1.250   3.281 -2.4090 -0.5024 -0.9046
 2565SOL     OW19156   0.746   2.154   7.689  0.4255  0.0081  0.4749
 2565SOL    HW119157   0.704   2.202   7.618  1.9041  0.4721 -0.1046
 2565SOL    HW219158   0.676   2.090   7.699  2.4146 -2.4832 -1.3081
 2566SOL     OW19159   2.185   2.874   1.957  0.5468 -0.4163 -0.2835
 2566SOL    HW119160   2.104   2.894   1.910  0.0945  0.2449  0.7855
 2566SOL    HW219161   2.227   2.953   1.924  1.6236 -0.4637  0.9970
 2567SOL     OW19162   1.329   0.136  17.338 -0.0426 -0.0701  0.4725
 2567SOL    HW119163   1.262   0.191  17.296  1.2916  0.8203 -0.4657
 2567SOL    HW219164   1.306   0.142  17.431 -1.4240 -1.5483  0.2258
 2568SOL     OW19165   1.952   0.347  15.971  0.0209  0.2554 -0.1539
 2568SOL    HW119166   1.858   0.332  15.981  0.2785 -1.3694 -0.2210
 2568SOL    HW219167   1.963   0.320  15.879 -1.2479  2.9340 -1.1007
 2569SOL     OW19168   3.479   4.465   6.808  0.5680  0.5216 -0.0786
 2569SOL    HW119169   3.459   4.441   6.718  1.2451  0.4647 -0.2202
 2569SOL    HW219170   3.396   4.457   6.854  0.9558  0.2837  0.5831
 2570SOL     OW19171   1.160   0.474   2.084 -0.2023 -0.0981  0.3964
 2570SOL    HW119172   1.136   0.395   2.036  0.4374 -0.8228  1.2878
 2570SOL    HW219173   1.254   0.484   2.066 -1.2263  3.2415 -3.1764
 2571SOL     OW19174   2.995   4.064  16.625  0.2197 -0.0150  0.1986
 2571SOL    HW119175   3.068   4.073  16.565  0.0896  2.6855  0.4432
 2571SOL    HW219176   3.039   4.087  16.707  0.5421 -0.7266  0.2255
 2572SOL     OW19177   2.331   3.178   3.213  0.0941 -0.3516 -0.6416
 2572SOL    HW119178   2.423   3.169   3.191 -0.3143 -1.4971 -1.8754
 2572SOL    HW219179   2.292   3.151   3.130  0.2117  1.4111 -1.2642
 2573SOL     OW19180   3.393   1.155   5.106 -0.2971  0.3432  0.7730
 2573SOL    HW119181   3.442   1.102   5.169  2.6133 -0.2373 -1.9402
 2573SOL    HW219182   3.461   1.218   5.080 -0.5984  0.0423 -0.7854
 2574SOL     OW19183   4.475   2.129   7.251 -0.4172 -0.0341  0.6974
 2574SOL    HW119184   4.557   2.173   7.272  0.3688 -1.3995  0.4824
 2574SOL    HW219185   4.412   2.201   7.257  1.2031  1.6219 -2.0760
 2575SOL     OW19186   2.484   0.126   4.118 -0.0803  0.5853  0.0419
 2575SOL    HW119187   2.406   0.117   4.064 -0.5114  0.9465  0.5941
 2575SOL    HW219188   2.533   0.196   4.077 -2.7257  2.5308  0.2128
 2576SOL     OW19189   4.637   1.958  10.281  0.2346  0.8217  0.1202
 2576SOL    HW119190   4.710   1.979  10.222  0.6721  0.1623  0.4285
 2576SOL    HW219191   4.575   2.024  10.250 -0.0635  1.0933  1.2983
 2577SOL     OW19192   4.126   3.211   3.245 -0.5189  0.2634 -0.5719
 2577SOL    HW119193   4.090   3.299   3.247  0.4697  0.6878 -2.0084
 2577SOL    HW219194   4.078   3.173   3.172 -0.0168  0.7282 -1.1394
 2578SOL     OW19195   4.132   4.434   8.360 -0.1539 -0.7264  0.5281
 2578SOL    HW119196   4.196   4.364   8.350 -0.0577 -0.6216  0.3984
 2578SOL    HW219197   4.186   4.486   8.419 -1.6906 -2.0711  3.1027
 2579SOL     OW19198   2.565   1.805   4.254 -0.4799 -0.4179 -0.4538
 2579SOL    HW119199   2.558   1.826   4.348  0.9265 -0.6723 -0.2810
 2579SOL    HW219200   2.516   1.723   4.260 -2.8327  1.0032 -0.3331
 2580SOL     OW19201   3.372   1.292   7.053 -0.4084 -0.0794 -0.0485
 2580SOL    HW119202   3.389   1.384   7.072 -1.6806  0.5844 -2.0573
 2580SOL    HW219203   3.384   1.249   7.138 -0.8775 -0.8757 -0.3804
 2581SOL     OW19204   0.027   4.303   6.521  0.0882  0.2573  0.0055
 2581SOL    HW119205   0.037   4.211   6.547  2.0618  0.6581  0.6360
 2581SOL    HW219206   0.068   4.281   6.437  0.5939  1.2072  0.0021
 2582SOL     OW19207   4.199   2.219   2.363 -0.0165  0.0036  0.4435
 2582SOL    HW119208   4.107   2.208   2.338  0.0074  2.9151 -0.8571
 2582SOL    HW219209   4.228   2.128   2.350 -0.5063 -0.2337  0.9786
 2583SOL     OW19210   4.182   0.399   3.158  0.4472 -0.0495 -0.1956
 2583SOL    HW119211   4.276   0.397   3.141  1.0361 -3.1625  3.4764
 2583SOL    HW219212   4.178   0.469   3.223 -0.1649  0.7252 -1.0609
 2584SOL     OW19213   3.059   2.298   5.189 -0.3355  0.2069  0.0431
 2584SOL    HW119214   3.036   2.322   5.099 -1.8521 -0.8820  0.1306
 2584SOL    HW219215   2.982   2.327   5.239  1.0179 -0.9576  2.8271
 2585SOL     OW19216   0.427   4.644   4.992 -0.3023 -0.0932 -0.6951
 2585SOL    HW119217   0.422   4.549   5.000 -0.7207 -0.0268 -0.1575
 2585SOL    HW219218   0.521   4.654   5.007 -0.6508 -1.3161  2.2477
 2586SOL     OW19219   2.957   2.400  11.652 -0.1871  0.0855  0.1436
 2586SOL    HW119220   2.958   2.332  11.720 -2.2102 -0.9172 -0.8289
 2586SOL    HW219221   3.035   2.452  11.669 -0.0537 -0.6539  1.8215
 2587SOL     OW19222   2.697   1.929   5.991  0.0602 -0.2214  0.5195
 2587SOL    HW119223   2.757   1.894   6.056  0.6165  0.4131  0.3431
 2587SOL    HW219224   2.670   1.847   5.949  0.0466  0.1062 -0.1032
 2588SOL     OW19225   0.444   4.122   9.929  0.4786 -0.9982  0.0778
 2588SOL    HW119226   0.496   4.113   9.850  1.1544  1.7118  0.2196
 2588SOL    HW219227   0.358   4.144   9.894  0.9767  0.8191  0.0095
 2589SOL     OW19228   2.055   0.602  10.195 -0.2732  0.4256 -0.1614
 2589SOL    HW119229   2.115   0.648  10.136  0.7198 -0.4982  0.1218
 2589SOL    HW219230   1.973   0.649  10.183 -0.9860 -0.6675  0.3982
 2590SOL     OW19231   0.813   2.682   4.961 -0.0530  0.0667 -0.2539
 2590SOL    HW119232   0.747   2.725   5.015  0.2750 -1.2207  1.1625
 2590SOL    HW219233   0.876   2.662   5.030 -1.7230 -0.0541  1.2098
 2591SOL     OW19234   3.265   4.526   6.229 -0.1092  0.7728  0.5186
 2591SOL    HW119235   3.281   4.566   6.315  2.7844  2.3615 -0.7518
 2591SOL    HW219236   3.241   4.600   6.174 -0.6309 -0.7635 -1.3043
 2592SOL     OW19237   3.912   2.885   6.902  0.5686  0.0213  0.0711
 2592SOL    HW119238   3.969   2.815   6.934  2.5539  2.9340  3.0064
 2592SOL    HW219239   3.855   2.915   6.973  2.9319  1.5382  1.3254
 2593SOL     OW19240   0.489   2.992   2.620  0.0063 -0.0622 -0.0818
 2593SOL    HW119241   0.569   2.987   2.672  0.1516  2.0988 -0.0927
 2593SOL    HW219242   0.426   2.980   2.691  0.7232 -0.0032  0.5679
 2594SOL     OW19243   4.139   4.113   5.527  0.8640 -0.2589 -0.3153
 2594SOL    HW119244   4.195   4.132   5.452  1.7275  1.0311  0.6580
 2594SOL    HW219245   4.049   4.114   5.494  0.6196 -1.1669  0.3370
 2595SOL     OW19246   3.320   1.507   8.022 -0.4242 -0.0251  0.8496
 2595SOL    HW119247   3.316   1.601   8.003  0.6659 -0.2753 -0.6640
 2595SOL    HW219248   3.244   1.484   7.967 -0.7012 -0.8793  1.5977
 2596SOL     OW19249   3.664   2.008   4.613 -0.1705  0.0170 -0.1698
 2596SOL    HW119250   3.693   2.082   4.560 -0.8694  0.6328  0.3133
 2596SOL    HW219251   3.603   2.054   4.671  1.5886  2.4562 -0.2744
 2597SOL     OW19252   1.120   1.032   6.500 -0.2851  0.1350  0.3744
 2597SOL    HW119253   1.214   1.052   6.497 -0.5853  1.3451 -1.3074
 2597SOL    HW219254   1.100   1.006   6.589 -1.5352  1.4026  0.4585
 2598SOL     OW19255   4.429   2.374   6.715 -0.0417 -0.1775 -0.1128
 2598SOL    HW119256   4.444   2.439   6.647 -3.3776  0.4972 -0.2046
 2598SOL    HW219257   4.491   2.307   6.686 -0.6437 -1.0566  0.6225
 2599SOL     OW19258   2.412   1.218   1.530  0.0062 -0.2170 -0.3419
 2599SOL    HW119259   2.362   1.210   1.611  1.1988 -1.6013  0.2655
 2599SOL    HW219260   2.418   1.125   1.506 -2.5240 -0.7554  1.1406
 2600SOL     OW19261   1.148   3.432  17.309  0.1377 -0.6788  0.0671
 2600SOL    HW119262   1.116   3.345  17.289 -1.1232  0.0418 -1.0294
 2600SOL    HW219263   1.095   3.474  17.241 -0.1125 -1.2248 -0.0718
 2601SOL     OW19264   1.700   1.413   6.949  0.1749  0.5476  0.2069
 2601SOL    HW119265   1.688   1.469   6.872  0.4279 -1.7066 -1.4556
 2601SOL    HW219266   1.617   1.365   6.947  0.0649  0.7804 -0.9382
 2602SOL     OW19267   2.393   4.343  16.861  0.1537 -0.2495  0.8025
 2602SOL    HW119268   2.364   4.341  16.952  0.3111  0.7421  0.8746
 2602SOL    HW219269   2.473   4.395  16.874  0.5994 -0.1310 -2.2682
 2603SOL     OW19270   0.764   0.116   5.085 -0.3071  0.2165  0.2739
 2603SOL    HW119271   0.806   0.042   5.043 -0.2134 -0.1620  1.0225
 2603SOL    HW219272   0.700   0.064   5.134  0.2218 -0.3698  0.3492
 2604SOL     OW19273   0.603   2.391   4.883  0.7236  0.0903 -0.0552
 2604SOL    HW119274   0.541   2.362   4.950  0.2781 -2.0398 -1.4016
 2604SOL    HW219275   0.585   2.485   4.888 -1.8116 -0.4103 -0.0528
 2605SOL     OW19276   3.680   3.285   1.091 -0.0539  0.4725  0.2502
 2605SOL    HW119277   3.687   3.380   1.078  0.5330  0.6011  1.5036
 2605SOL    HW219278   3.593   3.277   1.051  0.6385 -2.2827 -0.7496
 2606SOL     OW19279   3.854   0.675   4.643 -0.1527 -0.0986  0.0090
 2606SOL    HW119280   3.937   0.637   4.669  0.7076  0.3148 -2.1453
 2606SOL    HW219281   3.859   0.769   4.662 -2.7289 -0.2165  1.3729
 2607SOL     OW19282   3.502   1.555   5.869  0.0047 -0.0374  0.3664
 2607SOL    HW119283   3.426   1.590   5.822 -0.0180 -1.3485 -0.5643
 2607SOL    HW219284   3.454   1.506   5.935 -1.7387  1.5996  0.3145
 2608SOL     OW19285   1.548   0.277   4.241  0.0531  0.2791 -0.2452
 2608SOL    HW119286   1.573   0.365   4.213 -0.0280  0.4799  0.2954
 2608SOL    HW219287   1.523   0.240   4.157  1.9630 -1.5459 -0.0081
 2609SOL     OW19288   3.050   1.654  14.114 -0.5436  0.0579 -0.2416
 2609SOL    HW119289   3.075   1.658  14.206 -0.6240  0.4357 -0.2373
 2609SOL    HW219290   3.006   1.737  14.101 -0.5033 -0.1765 -2.0189
 2610SOL     OW19291   0.080   2.831   7.991 -0.3227 -0.3616  0.5257
 2610SOL    HW119292   0.160   2.860   7.946 -0.4165  1.5010  1.5750
 2610SOL    HW219293   0.018   2.901   7.972  0.6835  0.1469 -0.8943
 2611SOL     OW19294   0.745   4.426   6.900 -0.7227 -0.4274  0.1536
 2611SOL    HW119295   0.706   4.356   6.849 -0.7529 -0.9200  0.8609
 2611SOL    HW219296   0.801   4.371   6.954  1.4272  1.1986 -0.3949
 2612SOL     OW19297   2.173   2.547   0.759  0.6160  0.5249 -0.0365
 2612SOL    HW119298   2.164   2.568   0.666  2.5024 -0.4177 -0.4231
 2612SOL    HW219299   2.092   2.585   0.794  0.6783 -0.5452  1.2913
 2613SOL     OW19300   3.970   3.388   1.078 -0.5610  0.3404  0.3317
 2613SOL    HW119301   3.918   3.441   1.139 -0.0373  0.1679  0.9265
 2613SOL    HW219302   3.899   3.326   1.063 -0.8943  0.4355  1.5395
 2614SOL     OW19303   2.729   4.688   3.217  0.2292  0.3271 -0.7911
 2614SOL    HW119304   2.700   4.664   3.128 -1.6593  2.5271 -0.7489
 2614SOL    HW219305   2.819   4.654   3.220 -0.1418 -0.4913  0.7126
 2615SOL     OW19306   3.783   0.245   6.748 -0.3514 -0.1707  0.1812
 2615SOL    HW119307   3.764   0.296   6.669 -0.3444  0.1072  0.3588
 2615SOL    HW219308   3.858   0.283   6.793 -0.3645 -1.1289  1.0250
 2616SOL     OW19309   4.627   1.489   3.491 -0.7425  0.2317 -0.4319
 2616SOL    HW119310   4.621   1.463   3.400  1.7708  2.8014 -1.3275
 2616SOL    HW219311   4.714   1.454   3.512 -0.1800  1.0972 -1.3472
 2617SOL     OW19312   0.374   4.559   4.687  0.7961 -0.3643  0.1355
 2617SOL    HW119313   0.358   4.480   4.739  0.8490 -0.6493 -0.2856
 2617SOL    HW219314   0.296   4.611   4.711  0.5218 -0.6220 -0.2012
 2618SOL     OW19315   3.484   0.969   2.733  0.1290  0.4341  0.0814
 2618SOL    HW119316   3.559   1.010   2.691  0.6585 -1.0075 -0.3806
 2618SOL    HW219317   3.522   0.881   2.725  0.9746  0.7285  0.7974
 2619SOL     OW19318   0.476   3.443   6.879  0.0060 -0.4822 -0.2841
 2619SOL    HW119319   0.515   3.367   6.835 -1.7969 -0.4181 -2.0293
 2619SOL    HW219320   0.518   3.446   6.965 -0.6104  0.8234 -0.0337
 2620SOL     OW19321   2.416   2.318   6.266 -0.1956  0.8029 -0.6460
 2620SOL    HW119322   2.441   2.277   6.349  0.2637  2.5316  0.0574
 2620SOL    HW219323   2.497   2.356   6.234 -0.3331  0.2196 -1.6851
 2621SOL     OW19324   4.557   2.892   5.336  0.2865 -0.4551  0.1483
 2621SOL    HW119325   4.620   2.869   5.405  0.0224  0.7934  0.8031
 2621SOL    HW219326   4.473   2.861   5.369 -0.2319  1.0304  0.2243
 2622SOL     OW19327   1.662   3.551   2.612  0.4043  0.3321 -0.3222
 2622SOL    HW119328   1.592   3.590   2.665  0.2927 -0.1775 -0.0984
 2622SOL    HW219329   1.739   3.602   2.639  0.3909 -0.2232  0.8010
 2623SOL     OW19330   2.632   3.285   0.463 -0.0246  0.1929 -0.1828
 2623SOL    HW119331   2.557   3.227   0.446  0.2884 -0.1599 -0.3524
 2623SOL    HW219332   2.641   3.270   0.557  0.8768  1.5085 -0.0637
 2624SOL     OW19333   3.714   1.529   6.176 -0.4683  0.5864  0.3181
 2624SOL    HW119334   3.730   1.546   6.269  0.5006  1.2559  0.0331
 2624SOL    HW219335   3.759   1.604   6.136  0.9028  0.4343  1.5545
 2625SOL     OW19336   3.105   2.159   6.441  0.0698  0.1013  0.1738
 2625SOL    HW119337   3.104   2.149   6.536 -1.9413  2.8433  0.4298
 2625SOL    HW219338   3.195   2.132   6.423 -0.3775 -0.1563 -1.7551
 2626SOL     OW19339   3.826   3.455   5.040 -0.4577  0.7201  0.2988
 2626SOL    HW119340   3.777   3.468   4.959 -0.1511 -0.9330 -0.1663
 2626SOL    HW219341   3.908   3.504   5.038 -0.0441  0.0826  2.0371
 2627SOL     OW19342   3.449   1.801   9.331  0.4203  0.1020 -0.0213
 2627SOL    HW119343   3.515   1.848   9.281  0.7129  0.5165  0.7440
 2627SOL    HW219344   3.418   1.875   9.383 -2.0064 -0.3566 -0.8381
 2628SOL     OW19345   2.160   4.457  10.667  0.0971  0.4573 -0.1048
 2628SOL    HW119346   2.081   4.478  10.717  0.4876  0.1400  0.6494
 2628SOL    HW219347   2.212   4.462  10.747 -1.4675 -2.6873  1.0679
 2629SOL     OW19348   3.210   2.951   2.657 -0.0235  0.0828 -0.1701
 2629SOL    HW119349   3.266   2.884   2.695 -1.1627 -1.1502 -0.6643
 2629SOL    HW219350   3.124   2.930   2.695  1.2850 -2.3771  1.4236
 2630SOL     OW19351   2.909   2.701   4.967  0.1950  0.2520  0.1761
 2630SOL    HW119352   2.841   2.737   5.024  1.0234 -0.1541  1.4144
 2630SOL    HW219353   2.884   2.738   4.882 -0.2872 -1.7691 -0.5691
 2631SOL     OW19354   4.666   4.221   2.003 -0.3347 -0.0601 -0.2148
 2631SOL    HW119355   4.611   4.230   1.926 -1.6757 -1.0299  0.6333
 2631SOL    HW219356   4.601   4.242   2.069  1.9994  0.4270  1.9292
 2632SOL     OW19357   4.464   3.445   3.102  0.5760  0.2400  0.5985
 2632SOL    HW119358   4.417   3.391   3.167  0.2472 -0.8404 -0.5362
 2632SOL    HW219359   4.544   3.472   3.148  1.2938 -0.9346  0.0395
 2633SOL     OW19360   4.500   3.478   0.979  0.1848  0.2749  0.1029
 2633SOL    HW119361   4.429   3.514   0.927 -0.7540 -0.1659  1.0781
 2633SOL    HW219362   4.478   3.510   1.066 -2.0743 -2.7865  0.6286
 2634SOL     OW19363   2.763   2.673   5.570  0.5709 -0.3200 -0.0872
 2634SOL    HW119364   2.766   2.590   5.618 -1.1705  1.2764  2.7745
 2634SOL    HW219365   2.837   2.720   5.608 -2.3904  2.1561  2.6372
 2635SOL     OW19366   2.056   1.713   5.677 -0.4226 -0.0840  0.1158
 2635SOL    HW119367   2.117   1.772   5.722  0.0454 -1.0015  0.6868
 2635SOL    HW219368   1.999   1.693   5.751 -0.5892 -0.7368 -0.1862
 2636SOL     OW19369   2.163   3.954   0.772 -0.5105  0.5103  0.3663
 2636SOL    HW119370   2.230   3.912   0.718 -0.8425  1.6621 -0.9328
 2636SOL    HW219371   2.181   3.932   0.863 -0.0277 -0.0534  0.1396
 2637SOL     OW19372   2.423   0.424  17.045 -0.5925  0.2918  1.0953
 2637SOL    HW119373   2.501   0.448  17.095 -0.0160 -0.3295  0.4823
 2637SOL    HW219374   2.428   0.331  17.065 -1.7976 -0.1922 -0.8957
 2638SOL     OW19375   4.665   3.030   8.250  0.3353 -0.2264  0.4984
 2638SOL    HW119376   0.034   3.009   8.255  0.3758  0.0039  0.7162
 2638SOL    HW219377   4.645   3.053   8.159  0.2515  3.4459  1.4498
 2639SOL     OW19378   1.615   1.690   9.509  0.1422  0.8280  0.4253
 2639SOL    HW119379   1.566   1.755   9.560 -1.2703  2.3289 -2.8955
 2639SOL    HW219380   1.695   1.742   9.514  0.7901  0.0016 -1.6407
 2640SOL     OW19381   1.859   2.814  11.676 -0.1575 -0.1010 -0.1031
 2640SOL    HW119382   1.948   2.786  11.697 -0.6065  0.2225  2.2878
 2640SOL    HW219383   1.865   2.851  11.588  0.1189  0.4628  0.1495
 2641SOL     OW19384   0.112   0.970   7.133  0.3561  0.1757  0.2180
 2641SOL    HW119385   0.085   0.906   7.199  1.3134 -1.7045 -1.1770
 2641SOL    HW219386   0.140   0.908   7.064 -0.9482 -0.9146  0.6676
 2642SOL     OW19387   4.673   3.869   5.298 -0.4905  0.3387  0.1120
 2642SOL    HW119388   0.005   3.937   5.335 -1.5540  2.2364 -1.7804
 2642SOL    HW219389   4.600   3.872   5.359 -0.9863  2.0946 -0.5777
 2643SOL     OW19390   0.322   1.420   0.486 -0.2906 -0.2074 -0.1376
 2643SOL    HW119391   0.375   1.479   0.432 -1.9677  1.8238  0.4414
 2643SOL    HW219392   0.250   1.481   0.501 -0.4169  0.5660 -3.6810
 2644SOL     OW19393   0.565   1.393   3.372  0.3062  0.0278  0.3907
 2644SOL    HW119394   0.525   1.368   3.288  3.7264 -1.8269 -0.6828
 2644SOL    HW219395   0.656   1.387   3.344 -0.4347  0.0305 -2.0959
 2645SOL     OW19396   0.491   3.775   5.308 -0.6061  0.3697 -0.4210
 2645SOL    HW119397   0.568   3.721   5.327 -2.1280 -1.4998  0.3569
 2645SOL    HW219398   0.471   3.733   5.224  2.2480  2.0744 -1.9556
 2646SOL     OW19399   1.365   3.227   1.105 -0.4197  0.2333 -0.9452
 2646SOL    HW119400   1.340   3.237   1.197 -0.2528 -0.0848 -0.8662
 2646SOL    HW219401   1.307   3.289   1.060  0.4838  0.7943 -1.3498
 2647SOL     OW19402   0.689   1.567   2.506  0.0165  0.4173  0.6905
 2647SOL    HW119403   0.774   1.550   2.547  0.2740 -0.2363 -0.1164
 2647SOL    HW219404   0.702   1.499   2.440  1.8824  0.0388  1.4563
 2648SOL     OW19405   2.862   4.548   7.132 -0.3196 -0.0175 -0.7145
 2648SOL    HW119406   2.874   4.489   7.057 -2.7538  1.8797 -2.5692
 2648SOL    HW219407   2.955   4.567   7.146 -0.5147  2.8686 -3.3042
 2649SOL     OW19408   1.437   3.697   3.699 -0.4482  0.0524  0.0683
 2649SOL    HW119409   1.474   3.756   3.764  0.7134 -1.1281  0.4742
 2649SOL    HW219410   1.453   3.745   3.618 -1.2334  1.1473  0.5667
 2650SOL     OW19411   0.870   2.733   5.869 -0.9072  0.2499 -0.6366
 2650SOL    HW119412   0.855   2.701   5.958  0.0441  2.3407  0.2678
 2650SOL    HW219413   0.788   2.744   5.820 -1.8560  0.1860  0.9304
 2651SOL     OW19414   1.014   3.096   9.618 -0.1145 -0.6098 -0.2053
 2651SOL    HW119415   1.036   3.067   9.530 -0.7351  0.4714 -0.7163
 2651SOL    HW219416   1.097   3.106   9.663  0.1246 -1.5197 -0.4399
 2652SOL     OW19417   1.787   1.493   8.815  0.0189 -0.3517  0.0439
 2652SOL    HW119418   1.811   1.523   8.903  0.8978 -1.3377  0.1451
 2652SOL    HW219419   1.857   1.532   8.762 -0.5944 -2.8772 -2.6351
 2653SOL     OW19420   2.890   2.727   7.980  0.5820 -0.6972 -0.1952
 2653SOL    HW119421   2.877   2.816   7.947 -2.2638 -0.1786  2.3727
 2653SOL    HW219422   2.983   2.714   7.963  0.3869 -2.0681 -0.2401
 2654SOL     OW19423   1.280   3.008   7.681  0.0544 -0.7076 -0.2174
 2654SOL    HW119424   1.285   3.089   7.732  0.2337 -0.5980 -0.4074
 2654SOL    HW219425   1.365   3.020   7.638 -0.3811  0.4051 -0.7751
 2655SOL     OW19426   3.469   4.533   4.653  0.3368  0.4872 -0.5406
 2655SOL    HW119427   3.382   4.571   4.663 -0.1180 -0.7285  0.1473
 2655SOL    HW219428   3.529   4.568   4.719 -0.3392  1.8175 -0.6326
 2656SOL     OW19429   0.330   1.806  16.112  0.3350 -0.2880 -0.6847
 2656SOL    HW119430   0.417   1.815  16.151  0.0947 -0.4215 -0.1242
 2656SOL    HW219431   0.346   1.852  16.030 -0.2099  2.5011  0.7626
 2657SOL     OW19432   4.290   4.607  10.647  0.1387  0.0435  0.5393
 2657SOL    HW119433   4.258   4.544  10.582  0.6924  0.6072 -0.2860
 2657SOL    HW219434   4.306   4.681  10.588  2.0274 -1.2926 -0.6575
 2658SOL     OW19435   2.193   2.198   6.991  0.1657 -0.2002 -0.7224
 2658SOL    HW119436   2.255   2.263   7.024 -0.6778  0.0303  0.4088
 2658SOL    HW219437   2.247   2.120   7.007  1.3871  1.2978  2.6194
 2659SOL     OW19438   2.911   1.211   4.195  0.4395  0.7037 -0.0193
 2659SOL    HW119439   3.001   1.179   4.189 -0.2143 -0.6434 -2.6939
 2659SOL    HW219440   2.857   1.134   4.179 -0.5930  1.1565  1.3270
 2660SOL     OW19441   2.829   3.014   6.997 -0.4410  0.1278  0.0128
 2660SOL    HW119442   2.875   2.961   6.931  3.3602  2.6220  0.6123
 2660SOL    HW219443   2.739   2.984   6.986 -0.5706  0.0401  1.3454
 2661SOL     OW19444   3.692   1.205   6.901 -0.3237  0.4467  0.0827
 2661SOL    HW119445   3.688   1.112   6.879 -1.5100  0.4594  0.2542
 2661SOL    HW219446   3.636   1.210   6.978  2.1156  1.0474  1.7937
 2662SOL     OW19447   0.133   0.431   5.827 -0.4444  0.1082 -0.0207
 2662SOL    HW119448   0.139   0.430   5.922 -1.1716  0.4465  0.0225
 2662SOL    HW219449   0.155   0.520   5.800  0.1469  0.2300  0.8478
 2663SOL     OW19450   1.063   1.464   8.315  0.0738 -0.0229  0.1786
 2663SOL    HW119451   0.967   1.461   8.323 -0.0845  2.5287 -0.9842
 2663SOL    HW219452   1.074   1.558   8.329 -0.0490  0.3083 -2.0166
 2664SOL     OW19453   0.959   4.489  13.032  0.2307  0.5222 -0.1985
 2664SOL    HW119454   0.934   4.399  13.053  0.8078  0.3347 -0.2994
 2664SOL    HW219455   0.874   4.522  13.005 -1.8738 -2.5439  2.6627
 2665SOL     OW19456   3.341   1.697   7.695  0.7345 -0.4501  0.1630
 2665SOL    HW119457   3.353   1.713   7.789 -1.9437  2.7063 -0.0369
 2665SOL    HW219458   3.432   1.700   7.667  1.2351  0.2519  1.8267
 2666SOL     OW19459   1.547   1.524  12.427  0.8838 -0.2563  0.7889
 2666SOL    HW119460   1.640   1.537  12.407  0.5677 -0.8888 -1.0586
 2666SOL    HW219461   1.543   1.428  12.427 -0.1828 -0.1988 -1.4523
 2667SOL     OW19462   4.167   0.524  13.449 -0.1475 -0.3843 -0.2963
 2667SOL    HW119463   4.222   0.533  13.371 -0.4436 -4.0724 -0.9035
 2667SOL    HW219464   4.181   0.603  13.501  1.0053  0.8805 -2.5027
 2668SOL     OW19465   2.411   2.372   7.014 -0.2200 -0.7028 -0.1370
 2668SOL    HW119466   2.414   2.466   7.034  2.5970 -0.0924 -3.5806
 2668SOL    HW219467   2.453   2.371   6.928 -2.4760 -2.5834 -1.2178
 2669SOL     OW19468   2.081   3.344   8.850 -0.2611 -0.8183 -0.4565
 2669SOL    HW119469   2.165   3.379   8.822  1.0729 -1.9270  2.0945
 2669SOL    HW219470   2.023   3.392   8.792  1.2764  1.3863 -0.1761
 2670SOL     OW19471   3.169   3.647  10.967  0.4228 -0.3439 -0.3993
 2670SOL    HW119472   3.223   3.660  10.889 -0.2977 -1.0711 -1.0171
 2670SOL    HW219473   3.155   3.553  10.968 -0.2748 -0.2530 -2.0322
 2671SOL     OW19474   1.257   0.121   3.667  0.6389 -0.6007 -0.2210
 2671SOL    HW119475   1.268   0.202   3.617  3.3624 -0.2671  0.8681
 2671SOL    HW219476   1.253   0.049   3.604 -0.6008  1.1908 -2.1633
 2672SOL     OW19477   1.525   0.473  12.667 -0.5040 -0.0333 -0.4533
 2672SOL    HW119478   1.474   0.407  12.620 -0.1865 -0.2018 -0.5595
 2672SOL    HW219479   1.456   0.477  12.734 -0.8368 -0.6611 -0.7552
 2673SOL     OW19480   2.464   1.248   4.648 -0.2782  0.3994  0.1413
 2673SOL    HW119481   2.487   1.197   4.571 -0.9465 -0.5261  0.5498
 2673SOL    HW219482   2.514   1.328   4.630  1.5656 -0.5662  0.9611
 2674SOL     OW19483   3.519   2.819   8.489  0.0808  0.5506  0.0010
 2674SOL    HW119484   3.595   2.815   8.431  1.0865  0.7614  1.3065
 2674SOL    HW219485   3.556   2.795   8.574 -1.3272 -0.5492  0.3029
 2675SOL     OW19486   1.708   1.847   4.874  0.3410 -0.5851 -0.3485
 2675SOL    HW119487   1.642   1.782   4.852 -1.6786  0.4927  2.5267
 2675SOL    HW219488   1.713   1.895   4.791 -0.1157  0.3992  0.1863
 2676SOL     OW19489   2.791   1.051   5.403 -0.1633  0.1214 -0.1142
 2676SOL    HW119490   2.864   1.032   5.345  0.4308  2.2424 -0.0604
 2676SOL    HW219491   2.807   0.997   5.481 -0.1517 -0.5183 -0.5564
 2677SOL     OW19492   2.245   2.916   3.342  0.3153  0.4075 -0.0411
 2677SOL    HW119493   2.151   2.922   3.358  0.4106 -0.9837  0.9878
 2677SOL    HW219494   2.264   2.994   3.290  0.6172  0.2450 -0.1753
 2678SOL     OW19495   3.799   3.128   3.874  0.1985  0.0527 -0.7808
 2678SOL    HW119496   3.743   3.205   3.880 -0.5626 -0.6645  1.4095
 2678SOL    HW219497   3.869   3.139   3.938  0.1164 -0.1526 -0.6547
 2679SOL     OW19498   4.579   1.896   1.972  0.2175 -0.3463 -0.6864
 2679SOL    HW119499   4.608   1.834   2.039 -0.0694 -0.0475 -0.2862
 2679SOL    HW219500   4.661   1.922   1.930  0.7840 -2.2144 -0.7411
 2680SOL     OW19501   4.665   2.039   8.392  0.0647  0.1034  0.3046
 2680SOL    HW119502   4.579   1.999   8.381  0.0662 -0.3680  1.8916
 2680SOL    HW219503   4.681   2.020   8.485  0.9464 -0.7326 -0.0307
 2681SOL     OW19504   0.827   0.199  15.746  0.9595 -0.0854 -0.3339
 2681SOL    HW119505   0.867   0.114  15.727  0.7009 -0.7614  2.1975
 2681SOL    HW219506   0.880   0.234  15.818 -0.4768 -1.0405  1.1629
 2682SOL     OW19507   2.107   1.389   2.613 -0.4203 -0.0638 -0.0154
 2682SOL    HW119508   2.034   1.432   2.568 -0.3796 -0.1022 -0.1178
 2682SOL    HW219509   2.184   1.436   2.580 -0.6033  0.7095  0.6633
 2683SOL     OW19510   1.801   0.373   7.276 -0.2418  0.0292  0.3988
 2683SOL    HW119511   1.887   0.405   7.302  0.2251  0.8029 -2.1343
 2683SOL    HW219512   1.815   0.282   7.250  0.4917 -0.1685  1.5076
 2684SOL     OW19513   2.725   2.551   1.988  0.2483 -0.3760 -0.0156
 2684SOL    HW119514   2.816   2.538   1.963  0.1297 -0.6648 -0.2972
 2684SOL    HW219515   2.704   2.644   1.989  1.3086 -0.1324 -0.5466
 2685SOL     OW19516   0.596   2.158  13.883  0.8554 -0.2807  0.2800
 2685SOL    HW119517   0.680   2.113  13.887  1.6174  1.0652 -0.5908
 2685SOL    HW219518   0.598   2.209  13.802  1.0381 -0.0021  0.4591
 2686SOL     OW19519   0.409   0.605   5.985  0.6791 -0.0469 -0.4819
 2686SOL    HW119520   0.387   0.652   5.904  1.2529  1.6252  0.3305
 2686SOL    HW219521   0.333   0.553   6.011  1.3710 -0.7588  0.1036
 2687SOL     OW19522   1.056   2.262   3.608  0.1084  0.3641 -0.0067
 2687SOL    HW119523   1.074   2.253   3.514  0.2899  0.4796  0.0180
 2687SOL    HW219524   1.097   2.189   3.655 -0.3320  0.9521  1.2660
 2688SOL     OW19525   0.233   3.329   8.719 -0.3077  0.6595 -0.3918
 2688SOL    HW119526   0.145   3.361   8.739 -1.6952 -2.7079 -1.0541
 2688SOL    HW219527   0.220   3.243   8.679 -2.3459  0.4123  0.8137
 2689SOL     OW19528   2.067   4.467  12.166  0.3268  0.0948 -0.1653
 2689SOL    HW119529   2.042   4.455  12.258 -1.1390 -2.0140 -0.8182
 2689SOL    HW219530   2.026   4.550  12.143 -0.7764 -0.3264  0.2639
 2690SOL     OW19531   1.536   0.703   9.634 -0.0255 -0.2585  0.2047
 2690SOL    HW119532   1.452   0.710   9.679  0.7004  4.3333  0.7948
 2690SOL    HW219533   1.596   0.736   9.701 -0.8833  0.5789  0.5464
 2691SOL     OW19534   2.092   0.736   9.317  0.6197 -0.6596  0.0440
 2691SOL    HW119535   2.135   0.813   9.279 -0.5160 -0.0312  0.0094
 2691SOL    HW219536   2.012   0.765   9.361  1.6489 -0.5846  1.8691
 2692SOL     OW19537   1.723   3.024   8.681  0.1783 -0.3255 -0.4834
 2692SOL    HW119538   1.810   3.046   8.717 -0.6986  1.6484  0.4334
 2692SOL    HW219539   1.694   2.936   8.703 -0.9060  0.2537  0.3834
 2693SOL     OW19540   0.349   1.446   7.289 -0.1475  0.0750 -0.2033
 2693SOL    HW119541   0.434   1.410   7.316 -1.7338 -3.8323 -0.4041
 2693SOL    HW219542   0.323   1.386   7.219  1.5320 -1.2216  0.2668
 2694SOL     OW19543   0.465   4.420  10.016 -0.0477  0.1590 -0.4498
 2694SOL    HW119544   0.551   4.454   9.991  0.6662  0.8837  2.9128
 2694SOL    HW219545   0.485   4.326  10.012  1.1057  0.4349 -1.0786
 2695SOL     OW19546   1.239   0.571   3.685  0.5033  0.2702 -0.3862
 2695SOL    HW119547   1.299   0.567   3.759  0.2764 -1.4564 -0.3003
 2695SOL    HW219548   1.233   0.665   3.668  0.3937 -0.0146 -1.9690
 2696SOL     OW19549   1.708   1.981   1.823 -0.0893 -0.1980 -0.3829
 2696SOL    HW119550   1.742   1.894   1.842 -2.1639 -0.7043  0.9983
 2696SOL    HW219551   1.617   1.971   1.851 -0.3951  0.3598 -1.1707
 2697SOL     OW19552   0.452   0.966   4.732  0.1340  0.0032 -0.6086
 2697SOL    HW119553   0.542   0.933   4.729  0.0093 -0.2527 -1.6067
 2697SOL    HW219554   0.400   0.887   4.723  1.3345 -0.8988  0.2997
 2698SOL     OW19555   1.505   2.806   8.850 -0.8722 -0.4998  0.0317
 2698SOL    HW119556   1.468   2.894   8.855 -0.2485 -0.2424  0.0205
 2698SOL    HW219557   1.461   2.771   8.928 -0.1268  2.4360  1.7407
 2699SOL     OW19558   3.789   0.401   0.802 -0.6150 -0.1976  0.6529
 2699SOL    HW119559   3.712   0.350   0.775 -0.0621 -0.6137 -0.1299
 2699SOL    HW219560   3.807   0.376   0.893 -1.8004 -0.1600  0.8986
 2700SOL     OW19561   2.229   0.437  10.699 -0.3614 -0.0042 -0.3869
 2700SOL    HW119562   2.147   0.397  10.729  0.2323  0.4651  1.8421
 2700SOL    HW219563   2.285   0.388  10.758 -1.1511  0.7337  0.9820
 2701SOL     OW19564   0.945   0.326   8.823 -0.3372  0.3953  0.1720
 2701SOL    HW119565   0.930   0.369   8.739 -0.4980  1.0024  0.5072
 2701SOL    HW219566   0.854   0.329   8.853 -0.9163  4.0571 -1.9035
 2702SOL     OW19567   0.097   2.014   6.503  0.4748  0.1804  0.0909
 2702SOL    HW119568   0.102   1.993   6.410  0.9205 -1.3202  0.4521
 2702SOL    HW219569   0.042   1.944   6.538  0.6525  0.8589  1.7315
 2703SOL     OW19570   0.551   4.046   6.073 -0.3817  0.4786 -0.3883
 2703SOL    HW119571   0.558   4.042   5.978 -0.9018  1.0203 -0.4518
 2703SOL    HW219572   0.623   4.097   6.110 -0.1397 -2.0000  2.5287
 2704SOL     OW19573   3.180   1.927  13.426 -0.1252 -0.1694 -0.3960
 2704SOL    HW119574   3.158   1.873  13.350 -2.9321  2.0368 -1.1250
 2704SOL    HW219575   3.102   1.983  13.422 -0.4000 -0.5193  0.0036
 2705SOL     OW19576   4.657   0.778   2.473 -0.0369 -0.3647  0.1451
 2705SOL    HW119577   4.650   0.847   2.539 -0.5097  0.6743 -1.0095
 2705SOL    HW219578   4.564   0.764   2.453  0.4207 -0.5361 -1.8286
 2706SOL     OW19579   1.439   0.488   9.319 -0.0828  0.3348  0.0063
 2706SOL    HW119580   1.379   0.416   9.340  1.6374 -0.8328  0.9348
 2706SOL    HW219581   1.402   0.558   9.372 -1.6476 -0.3812 -0.1388
 2707SOL     OW19582   0.766   1.711  11.626  0.1293 -0.2340  0.3392
 2707SOL    HW119583   0.762   1.636  11.685  2.7650 -0.0156  0.7671
 2707SOL    HW219584   0.851   1.750  11.645  1.0412 -2.4662  0.7880
 2708SOL     OW19585   0.082   2.734   7.121 -0.4762  0.2596  0.3811
 2708SOL    HW119586   0.046   2.697   7.201  1.5736 -2.1128  0.1737
 2708SOL    HW219587   0.051   2.677   7.051 -2.3478 -0.4050  1.7632
 2709SOL     OW19588   0.868   3.134   7.896 -0.8497 -0.2795  0.2218
 2709SOL    HW119589   0.868   3.229   7.898 -1.6227 -0.3377  2.9307
 2709SOL    HW219590   0.881   3.128   7.801 -0.2635 -0.3808  0.3069
 2710SOL     OW19591   2.347   0.886   9.444 -0.0284  0.2977 -0.2441
 2710SOL    HW119592   2.441   0.871   9.428  0.5955  0.6646  3.2369
 2710SOL    HW219593   2.322   0.795   9.462  1.2698 -0.0727 -0.2980
 2711SOL     OW19594   0.557   4.453  13.721  0.0425  0.7749  0.0206
 2711SOL    HW119595   0.617   4.420  13.655 -1.1881 -0.0177 -0.7132
 2711SOL    HW219596   0.604   4.535  13.734 -0.3954  0.9583  0.4648
 2712SOL     OW19597   0.272   3.861   5.451  0.7044 -0.1860 -0.3719
 2712SOL    HW119598   0.355   3.836   5.411  0.4300 -0.6631 -0.6464
 2712SOL    HW219599   0.255   3.947   5.412 -1.3572 -1.2197 -1.7602
 2713SOL     OW19600   0.779   4.166   6.541  0.2973  0.3487  0.2936
 2713SOL    HW119601   0.840   4.239   6.531  0.1962  0.3172 -0.5450
 2713SOL    HW219602   0.802   4.110   6.468 -1.4266  0.2372 -0.1530
 2714SOL     OW19603   3.165   3.404  15.993  0.4021 -0.5657  0.0470
 2714SOL    HW119604   3.114   3.435  15.918 -2.3143 -1.5235  1.4950
 2714SOL    HW219605   3.170   3.314  15.963 -0.9540  0.0911 -2.1537
 2715SOL     OW19606   2.924   0.066  14.250  0.4252  0.1223 -0.4609
 2715SOL    HW119607   2.984   0.081  14.323 -0.1809 -2.9861  0.7202
 2715SOL    HW219608   2.926   0.150  14.205  1.5300  0.3206 -0.0512
 2716SOL     OW19609   2.031   2.727   5.706  0.0720 -0.1724  0.1172
 2716SOL    HW119610   1.985   2.685   5.779 -0.6301  2.5615  1.2677
 2716SOL    HW219611   1.975   2.711   5.631  1.5846  0.9483 -1.2517
 2717SOL     OW19612   0.468   0.527  15.623 -0.4317  0.9825 -0.5150
 2717SOL    HW119613   0.455   0.439  15.659  0.8777  0.5250 -1.1458
 2717SOL    HW219614   0.539   0.522  15.559  0.3202  2.2484  0.2179
 2718SOL     OW19615   0.072   2.674   0.776 -0.1314 -0.3302 -0.0037
 2718SOL    HW119616   0.121   2.649   0.854  0.1225 -1.9416 -0.6648
 2718SOL    HW219617   4.711   2.700   0.810 -0.1872  2.1755 -2.0881
 2719SOL     OW19618   3.885   3.477   6.554  0.2345  0.3404 -0.0635
 2719SOL    HW119619   3.804   3.427   6.562  0.0071  0.9243  1.2497
 2719SOL    HW219620   3.935   3.420   6.495 -1.7593 -2.1690  0.6564
 2720SOL     OW19621   1.549   2.280   1.798 -0.1643 -0.2020  0.1531
 2720SOL    HW119622   1.624   2.274   1.856 -0.1155 -0.0435  0.1066
 2720SOL    HW219623   1.575   2.347   1.735 -1.0506  0.6048  0.6428
 2721SOL     OW19624   3.350   3.188   9.407  0.2129  0.5238 -0.1838
 2721SOL    HW119625   3.339   3.221   9.496  0.1790  2.1054 -0.7663
 2721SOL    HW219626   3.373   3.271   9.366 -0.8293  0.1482 -1.5399
 2722SOL     OW19627   3.780   3.937   1.618 -0.2057  0.0488 -0.2359
 2722SOL    HW119628   3.766   3.991   1.695 -1.2360  0.9865 -1.0698
 2722SOL    HW219629   3.800   3.856   1.665 -0.1777  0.5392  0.5911
 2723SOL     OW19630   3.616   0.297  11.999 -0.4809  0.4573 -0.0297
 2723SOL    HW119631   3.594   0.371  12.056 -2.8783  1.6584 -2.4946
 2723SOL    HW219632   3.710   0.313  11.990 -0.3984 -0.7436 -1.4352
 2724SOL     OW19633   0.352   0.714   3.000 -0.4975  0.1351  0.3169
 2724SOL    HW119634   0.368   0.692   2.909  0.8163 -2.0672  1.0797
 2724SOL    HW219635   0.438   0.705   3.041 -0.0208  0.6089 -0.5879
 2725SOL     OW19636   3.830   3.743   1.817  0.1556  0.4402  0.6099
 2725SOL    HW119637   3.809   3.765   1.908  0.0821 -0.7684  0.8821
 2725SOL    HW219638   3.893   3.674   1.838 -0.0457  0.3354  0.8692
 2726SOL     OW19639   1.778   2.865   7.469  0.2033 -0.4966  0.4162
 2726SOL    HW119640   1.838   2.927   7.509 -1.1480  0.0258  1.6310
 2726SOL    HW219641   1.731   2.910   7.398  1.1302 -0.7211 -0.3436
 2727SOL     OW19642   4.437   2.618   9.401 -0.3288 -0.3915  0.8451
 2727SOL    HW119643   4.466   2.579   9.318  0.5779 -0.2879  1.1102
 2727SOL    HW219644   4.342   2.611   9.392 -0.1520 -0.2586 -1.0846
 2728SOL     OW19645   3.816   1.734  10.063 -0.2931  0.2138  0.1152
 2728SOL    HW119646   3.863   1.715   9.982  0.0287  0.0023  0.3527
 2728SOL    HW219647   3.885   1.758  10.124  0.5246 -0.7044 -0.4376
 2729SOL     OW19648   3.899   2.780   5.771  0.4913 -0.1007 -0.7975
 2729SOL    HW119649   3.950   2.728   5.833 -2.0253 -1.5621  0.0519
 2729SOL    HW219650   3.973   2.815   5.723  1.8926  1.5969  2.5757
 2730SOL     OW19651   3.753   0.874   2.240 -0.6506  0.6026  0.2730
 2730SOL    HW119652   3.690   0.809   2.274 -0.5985  0.6532  0.4663
 2730SOL    HW219653   3.711   0.956   2.266  0.7998  0.8692  1.7422
 2731SOL     OW19654   1.506   1.788  10.791  0.7280  0.0655  0.7368
 2731SOL    HW119655   1.421   1.748  10.771  0.7174  0.5979 -0.2838
 2731SOL    HW219656   1.496   1.776  10.885  0.5219  0.3941  0.7548
 2732SOL     OW19657   3.838   3.547   1.239  0.6913 -0.0731  0.1435
 2732SOL    HW119658   3.851   3.616   1.174  1.3210 -0.5883 -0.2890
 2732SOL    HW219659   3.744   3.545   1.251  0.3136  2.3951 -2.4928
 2733SOL     OW19660   4.450   3.302   7.643  0.3420  0.4330  0.4904
 2733SOL    HW119661   4.385   3.239   7.676  1.6249  0.0544  2.3105
 2733SOL    HW219662   4.400   3.326   7.566  1.1402  3.1722  0.8420
 2734SOL     OW19663   1.942   2.296  14.021 -1.0272 -0.0300  0.6221
 2734SOL    HW119664   2.027   2.331  13.997 -0.2006 -2.2919  0.2573
 2734SOL    HW219665   1.933   2.329  14.110 -1.7136 -1.3482  1.0468
 2735SOL     OW19666   2.329   3.251   3.822  0.0992  0.0424 -0.0949
 2735SOL    HW119667   2.238   3.223   3.829 -0.2165  1.4513  1.2393
 2735SOL    HW219668   2.367   3.163   3.812  0.8023  0.2905  0.4097
 2736SOL     OW19669   0.692   1.918  15.100 -0.4264 -0.7764  0.3639
 2736SOL    HW119670   0.599   1.899  15.091 -0.3542 -1.5782  1.3074
 2736SOL    HW219671   0.709   1.834  15.141  0.9802 -0.9743 -0.6225
 2737SOL     OW19672   1.527   3.243  10.771 -0.3713  0.4216  0.5068
 2737SOL    HW119673   1.517   3.262  10.864  2.8853  4.6769  0.0218
 2737SOL    HW219674   1.558   3.154  10.789 -0.4553  0.5070  1.0697
 2738SOL     OW19675   2.999   2.559   2.555  0.0193  0.4830  0.4121
 2738SOL    HW119676   2.964   2.620   2.620 -0.0983 -0.0099  0.8139
 2738SOL    HW219677   2.929   2.570   2.491  0.4215  0.5764 -0.0074
 2739SOL     OW19678   3.496   2.790   4.262  0.4271 -0.6614  0.3560
 2739SOL    HW119679   3.404   2.806   4.286  0.0583 -1.2322 -0.7096
 2739SOL    HW219680   3.534   2.861   4.314  1.1285 -1.4063  0.8512
 2740SOL     OW19681   2.016   0.485   2.004  0.1412 -0.0823 -0.3837
 2740SOL    HW119682   2.064   0.468   2.085  1.1088 -0.7418 -1.0801
 2740SOL    HW219683   1.990   0.399   1.973  0.0359 -0.4429  0.7343
 2741SOL     OW19684   3.879   1.933   2.415  0.0228  0.0489  0.4062
 2741SOL    HW119685   3.911   2.023   2.420  2.3827 -0.6344 -2.5045
 2741SOL    HW219686   3.872   1.927   2.320  1.4329 -2.1391  0.4197
 2742SOL     OW19687   3.247   3.175  17.084  0.0606 -0.7159 -0.3726
 2742SOL    HW119688   3.254   3.101  17.023 -2.5266 -0.3109 -1.1497
 2742SOL    HW219689   3.299   3.239  17.035  1.2117 -0.5690  1.0423
 2743SOL     OW19690   2.864   1.607   8.575 -0.1501  0.3107 -0.2068
 2743SOL    HW119691   2.794   1.541   8.578 -0.9568  1.1860  0.0685
 2743SOL    HW219692   2.904   1.587   8.660 -0.9555 -2.8221 -0.5733
 2744SOL     OW19693   2.026   2.267   3.544  0.3352 -0.5290  0.3586
 2744SOL    HW119694   1.964   2.337   3.523 -1.6792 -2.2121  0.6778
 2744SOL    HW219695   2.111   2.290   3.506 -0.4429 -0.2585 -1.2082
 2745SOL     OW19696   4.457   4.160   6.071 -0.5232  0.1532 -0.6710
 2745SOL    HW119697   4.478   4.133   6.160  0.0449 -1.3528 -1.2537
 2745SOL    HW219698   4.518   4.114   6.013 -0.3165 -1.8257  1.1508
 2746SOL     OW19699   1.204   2.301   0.377 -0.0998  0.3869 -0.3601
 2746SOL    HW119700   1.177   2.302   0.286 -1.1027 -1.0344 -0.0934
 2746SOL    HW219701   1.235   2.389   0.395  0.1994 -0.5737  3.8809
 2747SOL     OW19702   2.817   2.749  14.039 -0.0395  0.1042 -0.3213
 2747SOL    HW119703   2.783   2.803  13.968 -0.4474  0.9993  0.5568
 2747SOL    HW219704   2.889   2.801  14.075  0.2477 -0.0468 -0.6743
 2748SOL     OW19705   2.862   1.938   3.534  0.8014 -0.0346  0.5908
 2748SOL    HW119706   2.797   1.917   3.601  0.6619 -2.2467 -0.2351
 2748SOL    HW219707   2.945   1.935   3.580  1.4704 -1.4292 -0.7051
 2749SOL     OW19708   4.383   3.571   1.719  1.0264  0.5499 -0.4727
 2749SOL    HW119709   4.304   3.604   1.677  2.0344  3.3218 -0.1809
 2749SOL    HW219710   4.372   3.611   1.805 -2.7692 -1.0949 -0.2308
 2750SOL     OW19711   0.647   4.074   3.908  0.2119  0.3880 -0.5044
 2750SOL    HW119712   0.603   4.133   3.847 -3.9105 -0.5820  1.5498
 2750SOL    HW219713   0.604   4.100   3.989  0.8430  0.3862 -0.1680
 2751SOL     OW19714   3.346   3.455   3.183 -0.4461 -0.6536 -0.2092
 2751SOL    HW119715   3.255   3.466   3.209 -0.0122 -0.9140  1.4095
 2751SOL    HW219716   3.332   3.393   3.111  3.3175 -2.8377  0.9102
 2752SOL     OW19717   3.810   4.310   5.402 -0.0518  0.0083  0.6782
 2752SOL    HW119718   3.779   4.251   5.471 -1.0195  1.4669  1.5030
 2752SOL    HW219719   3.727   4.332   5.359 -0.1139 -0.0666  0.7584
 2753SOL     OW19720   3.778   1.921   4.857 -0.6522 -0.0360  0.2579
 2753SOL    HW119721   3.855   1.977   4.848 -0.4334 -0.5765 -1.2026
 2753SOL    HW219722   3.747   1.937   4.767  0.1940 -3.4283 -0.6353
 2754SOL     OW19723   2.947   3.632   1.888 -0.1310 -0.0572 -0.2443
 2754SOL    HW119724   3.035   3.670   1.880 -0.5774  0.9171 -0.5681
 2754SOL    HW219725   2.939   3.610   1.795  2.0114  0.3379 -0.5222
 2755SOL     OW19726   3.440   2.758   5.165 -0.1985 -0.0846  0.1605
 2755SOL    HW119727   3.354   2.729   5.194 -0.1519 -1.8786 -1.5577
 2755SOL    HW219728   3.415   2.788   5.078 -2.1962  1.1171  1.1557
 2756SOL     OW19729   1.910   3.086   0.718 -0.3123  0.0380 -0.6874
 2756SOL    HW119730   1.942   3.124   0.636 -0.7897  0.9569 -0.4569
 2756SOL    HW219731   1.985   3.108   0.772 -2.6339  3.8681  1.0104
 2757SOL     OW19732   3.287   2.912  10.003 -0.1338 -0.6149 -0.0062
 2757SOL    HW119733   3.267   2.871   9.919  1.5342 -2.5411  0.5286
 2757SOL    HW219734   3.360   2.972   9.990 -2.4420  2.0822 -0.5995
 2758SOL     OW19735   1.492   2.480   3.302 -0.3725 -0.4582  0.3349
 2758SOL    HW119736   1.546   2.555   3.328  0.4970 -0.0812 -2.5934
 2758SOL    HW219737   1.568   2.426   3.281 -0.3633 -0.7233  1.0597
 2759SOL     OW19738   3.421   0.788   8.564 -0.4147 -0.3205  0.3325
 2759SOL    HW119739   3.514   0.796   8.584 -0.0748 -1.8958 -0.6270
 2759SOL    HW219740   3.386   0.808   8.651 -0.7662  1.1619 -0.1576
 2760SOL     OW19741   4.564   2.136   9.967 -0.3167 -0.2944  0.5021
 2760SOL    HW119742   4.470   2.117   9.970 -0.9140  2.9657  2.4644
 2760SOL    HW219743   4.570   2.206  10.031  0.5226 -1.4111  1.6400
 2761SOL     OW19744   3.940   3.677   9.014  0.0551  0.4470  0.2715
 2761SOL    HW119745   4.025   3.650   8.979  0.7029  0.9720  1.4545
 2761SOL    HW219746   3.943   3.772   9.015 -1.3882  0.4774  1.1570
 2762SOL     OW19747   4.226   2.691   9.625 -0.6454 -0.1597 -0.6077
 2762SOL    HW119748   4.187   2.686   9.712  2.1190  0.4880  0.6748
 2762SOL    HW219749   4.313   2.656   9.643 -0.8386  0.3120  1.1928
 2763SOL     OW19750   1.358   3.023   8.662  0.0012 -0.0974 -0.2244
 2763SOL    HW119751   1.298   3.002   8.733 -1.4049  0.7071 -1.1649
 2763SOL    HW219752   1.375   2.937   8.623 -1.7899 -0.4165 -0.3163
 2764SOL     OW19753   3.119   2.526   1.236 -0.3019 -0.2495  0.0624
 2764SOL    HW119754   3.087   2.436   1.250 -0.0934 -0.6428 -1.9708
 2764SOL    HW219755   3.056   2.553   1.169 -0.2546  0.7179  0.4142
 2765SOL     OW19756   4.135   2.059   3.057 -0.5686 -0.2907  0.2215
 2765SOL    HW119757   4.114   2.047   2.964 -0.8324 -0.4129  0.2961
 2765SOL    HW219758   4.208   2.120   3.046 -1.3728  0.6642  0.1395
 2766SOL     OW19759   3.101   0.236   5.407  0.7825 -0.1605 -0.1656
 2766SOL    HW119760   3.129   0.164   5.350 -0.7702 -1.1376  0.2941
 2766SOL    HW219761   3.151   0.216   5.486 -0.4897  0.6461  0.8403
 2767SOL     OW19762   0.612   2.253  13.426 -0.2492 -0.2297  0.2858
 2767SOL    HW119763   0.672   2.188  13.391  0.2006 -0.0061  0.6364
 2767SOL    HW219764   0.660   2.292  13.499  3.6652 -1.1511 -1.8289
 2768SOL     OW19765   0.281   4.111   5.335  0.2026  0.1853 -0.8542
 2768SOL    HW119766   0.333   4.192   5.341 -1.6668  1.3999 -1.0176
 2768SOL    HW219767   0.277   4.105   5.240  2.1871 -1.1152 -0.8645
 2769SOL     OW19768   2.644   2.646   3.978  0.4161  0.1923 -0.5068
 2769SOL    HW119769   2.595   2.725   4.001 -0.2680 -0.4657  0.2669
 2769SOL    HW219770   2.684   2.669   3.894 -2.2654  0.1175 -1.7873
 2770SOL     OW19771   2.295   0.732   5.043  0.2339 -0.0613 -0.2835
 2770SOL    HW119772   2.202   0.723   5.062  0.0963 -0.5834 -1.2164
 2770SOL    HW219773   2.330   0.654   5.086 -0.0366 -0.5296 -0.9182
 2771SOL     OW19774   0.139   0.850  10.687  0.5506  0.0360 -0.3186
 2771SOL    HW119775   0.176   0.831  10.773  1.8435 -3.8189 -1.7101
 2771SOL    HW219776   0.198   0.917  10.653  3.4810 -3.1657 -1.5181
 2772SOL     OW19777   3.130   1.416   0.018  0.3602 -0.3111 -0.3811
 2772SOL    HW119778   3.209   1.415   0.072  0.1171 -1.0147 -0.0357
 2772SOL    HW219779   3.120   1.321   0.009 -2.3868  0.0729 -1.6015
 2773SOL     OW19780   1.226   1.636  10.177  0.2137 -0.0807 -0.1515
 2773SOL    HW119781   1.170   1.701  10.134  0.7221 -0.2741 -1.1088
 2773SOL    HW219782   1.185   1.556  10.145  0.9095 -0.0948 -1.0108
 2774SOL     OW19783   0.285   2.913   5.840  0.3432  0.2195 -0.0331
 2774SOL    HW119784   0.312   2.828   5.806  1.6815  1.7642 -2.8394
 2774SOL    HW219785   0.219   2.930   5.772  1.1233  0.6228 -0.6895
 2775SOL     OW19786   1.349   2.037   6.538  0.8243  0.0508  0.1514
 2775SOL    HW119787   1.334   2.059   6.630 -0.7678  0.4560 -0.2071
 2775SOL    HW219788   1.442   2.056   6.524  0.9652 -0.0853  0.9250
 2776SOL     OW19789   3.229   2.948   1.947 -0.0829  0.3266  0.2453
 2776SOL    HW119790   3.175   2.872   1.968  0.7293 -0.8512 -2.0636
 2776SOL    HW219791   3.296   2.922   2.010  0.8525  0.8776 -0.5280
 2777SOL     OW19792   4.302   4.323   7.839  0.4101  0.2130 -0.1745
 2777SOL    HW119793   4.389   4.298   7.810  1.2863  1.9906  0.9561
 2777SOL    HW219794   4.326   4.337   7.930 -0.6507  0.1433  0.1254
 2778SOL     OW19795   4.625   2.207   6.598 -0.0218 -0.3418 -0.8309
 2778SOL    HW119796   4.561   2.136   6.589  1.5387 -1.3480 -3.8429
 2778SOL    HW219797   4.703   2.155   6.616 -0.6752 -1.0681 -0.0546
 2779SOL     OW19798   3.297   4.422   5.640 -0.7391 -0.1100  0.2956
 2779SOL    HW119799   3.253   4.458   5.717 -0.6996 -0.3982  0.4482
 2779SOL    HW219800   3.381   4.465   5.628 -0.6220 -0.1443  0.9853
 2780SOL     OW19801   1.883   2.232   7.361 -0.2204  0.1284 -0.0524
 2780SOL    HW119802   1.796   2.269   7.375  1.2569  3.3441  0.6112
 2780SOL    HW219803   1.907   2.252   7.270  2.0919  0.0132  0.5243
 2781SOL     OW19804   2.637   2.819   0.650  0.2256 -0.1966  0.3927
 2781SOL    HW119805   2.711   2.875   0.671 -0.1168  0.0238  0.9965
 2781SOL    HW219806   2.646   2.812   0.555 -1.4415 -0.9376  0.2743
 2782SOL     OW19807   2.182   1.378   5.961  0.2162  0.3607  0.2056
 2782SOL    HW119808   2.212   1.345   5.876  1.3432 -1.8156  1.4805
 2782SOL    HW219809   2.199   1.306   6.021  0.8100 -0.3018 -0.7574
 2783SOL     OW19810   2.562   2.398   7.422 -0.5247  0.3248  0.5093
 2783SOL    HW119811   2.624   2.358   7.361  0.4679  2.1445  0.3239
 2783SOL    HW219812   2.613   2.395   7.503  1.9949 -1.2719 -1.1400
 2784SOL     OW19813   1.093   3.882   1.473  0.2158 -0.2251  0.0521
 2784SOL    HW119814   1.118   3.951   1.412 -2.3122 -0.3406 -1.1151
 2784SOL    HW219815   1.155   3.889   1.546 -1.9361 -0.5562  1.9210
 2785SOL     OW19816   3.379   3.144   7.437 -0.5488  0.1203  0.1754
 2785SOL    HW119817   3.366   3.095   7.518 -0.7184 -0.5057 -0.2318
 2785SOL    HW219818   3.473   3.162   7.438 -0.0486 -2.5472  0.4055
 2786SOL     OW19819   4.155   3.755  11.474 -0.5246 -0.8533  0.3672
 2786SOL    HW119820   4.212   3.808  11.418 -1.1131  0.7159  1.2561
 2786SOL    HW219821   4.096   3.718  11.408  1.5341  1.2559 -2.6420
 2787SOL     OW19822   0.992   3.489  14.728  0.1294  1.0965 -0.2717
 2787SOL    HW119823   1.026   3.429  14.794 -1.7056 -0.9771 -1.2174
 2787SOL    HW219824   0.964   3.437  14.653  0.3633  1.7896 -0.8444
 2788SOL     OW19825   1.837   2.683  15.993 -0.4753  0.3352 -0.1904
 2788SOL    HW119826   1.787   2.712  16.070 -0.1291  1.5881 -0.4443
 2788SOL    HW219827   1.785   2.612  15.956  2.0807 -1.7823  0.3367
 2789SOL     OW19828   1.788   1.129   5.024  0.3653  0.2730 -0.2481
 2789SOL    HW119829   1.862   1.100   5.078 -0.1200  0.3315  0.4633
 2789SOL    HW219830   1.723   1.062   5.047  0.8245 -0.6694 -1.7097
 2790SOL     OW19831   0.877   3.677  17.651 -0.0705 -0.5643  0.1887
 2790SOL    HW119832   0.895   3.584  17.669 -1.0158 -0.6416  0.7196
 2790SOL    HW219833   0.805   3.688   0.013  0.4794  3.2945  0.1550
 2791SOL     OW19834   0.326   3.096  10.143 -0.0304  0.6433 -0.5372
 2791SOL    HW119835   0.382   3.048  10.205  1.5113  1.2839 -1.4402
 2791SOL    HW219836   0.387   3.123  10.075  2.6998  0.2225  1.7177
 2792SOL     OW19837   1.465   3.444  16.582 -0.3726  0.1141 -0.6268
 2792SOL    HW119838   1.485   3.535  16.604 -0.4488  0.1657 -0.7788
 2792SOL    HW219839   1.461   3.440  16.487  0.9244  1.1346 -0.7205
 2793SOL     OW19840   0.320   0.826   1.226 -0.2083  0.1407  0.0231
 2793SOL    HW119841   0.320   0.887   1.152 -0.5158 -2.7855 -2.3865
 2793SOL    HW219842   0.310   0.745   1.177 -0.3522 -0.1477  0.5295
 2794SOL     OW19843   0.382   2.779  14.729  0.2877  0.0356 -0.3875
 2794SOL    HW119844   0.312   2.743  14.675  1.2734 -1.7492 -0.4535
 2794SOL    HW219845   0.392   2.871  14.702 -0.4503  0.4966  0.9109
 2795SOL     OW19846   3.075   4.366   7.455 -0.1909  0.2894  0.6495
 2795SOL    HW119847   3.040   4.331   7.373  1.8544 -2.7688  1.1219
 2795SOL    HW219848   3.042   4.303   7.519 -0.7551 -0.6205 -0.5352
 2796SOL     OW19849   4.663   2.645  16.194 -0.2833 -0.0605  0.3126
 2796SOL    HW119850   4.661   2.621  16.101  1.2503 -0.9963  0.5309
 2796SOL    HW219851   4.709   2.729  16.190 -1.5102  0.5234 -1.8164
 2797SOL     OW19852   4.178   1.788   1.477  0.1001 -0.2807  0.0458
 2797SOL    HW119853   4.165   1.697   1.504  2.2983 -1.1696 -1.8549
 2797SOL    HW219854   4.090   1.803   1.443 -0.3739 -0.8402  1.0027
 2798SOL     OW19855   4.293   3.311   0.430  0.9776 -0.6344  0.1509
 2798SOL    HW119856   4.216   3.255   0.422 -0.5268  1.2587  1.3200
 2798SOL    HW219857   4.319   3.321   0.339  0.2917  0.2850  0.0685
 2799SOL     OW19858   2.998   3.137   3.195 -0.6198  0.1918 -0.4603
 2799SOL    HW119859   3.092   3.149   3.181 -0.5378 -1.3480 -1.1963
 2799SOL    HW219860   2.969   3.210   3.140 -4.4052 -0.9220  0.0627
 2800SOL     OW19861   0.593   3.671   3.347 -0.1395  0.7051 -1.0663
 2800SOL    HW119862   0.571   3.746   3.292  0.3621  0.9804 -0.8872
 2800SOL    HW219863   0.632   3.720   3.419 -1.8498 -0.6934  0.8112
 2801SOL     OW19864   2.028   2.507   7.893 -0.5016 -0.0292 -0.4223
 2801SOL    HW119865   2.026   2.429   7.949 -1.2020 -0.0313 -0.4418
 2801SOL    HW219866   2.023   2.575   7.960  0.6986 -0.7718  0.4292
 2802SOL     OW19867   4.362   4.545  10.970  0.1200 -0.0173 -0.2772
 2802SOL    HW119868   4.347   4.524  10.878 -0.1194 -1.1935  0.0350
 2802SOL    HW219869   4.325   4.465  11.008  3.2442 -1.2969  0.0989
 2803SOL     OW19870   0.413   1.079   3.331 -0.3491 -0.1302  0.0217
 2803SOL    HW119871   0.464   1.142   3.280 -0.1674  0.0718  0.4606
 2803SOL    HW219872   0.485   1.036   3.378  0.0559 -0.0939 -0.5606
 2804SOL     OW19873   3.187   4.367   3.624  0.1564  0.1208  0.1491
 2804SOL    HW119874   3.105   4.351   3.578 -0.2653 -1.3447  1.4066
 2804SOL    HW219875   3.242   4.427   3.573 -0.4782  0.0221 -0.6425
 2805SOL     OW19876   0.798   4.403   6.037  0.0733  0.0834  0.8213
 2805SOL    HW119877   0.712   4.400   5.997  1.5087  1.2727 -2.3229
 2805SOL    HW219878   0.849   4.442   5.966  0.4673  0.2151  1.1753
 2806SOL     OW19879   1.999   4.431   2.460  0.2714 -0.0924  0.1148
 2806SOL    HW119880   1.927   4.396   2.407  1.9467 -0.9213 -1.6006
 2806SOL    HW219881   1.960   4.400   2.542 -0.3780 -1.8794 -0.8693
 2807SOL     OW19882   0.870   0.196  16.354  0.7414 -0.2650 -0.5295
 2807SOL    HW119883   0.837   0.166  16.269  2.6964  2.4852 -2.2443
 2807SOL    HW219884   0.815   0.270  16.378  0.2734 -0.6461 -0.4127
 2808SOL     OW19885   0.500   0.252   7.396 -0.6997 -0.0542 -0.1253
 2808SOL    HW119886   0.406   0.242   7.384 -0.5847 -1.4217  0.1093
 2808SOL    HW219887   0.532   0.167   7.425  0.3629  0.7126  0.9807
 2809SOL     OW19888   3.153   1.416   8.439  0.0547  0.3738  0.0938
 2809SOL    HW119889   3.131   1.404   8.531 -0.6044 -1.7829 -0.3439
 2809SOL    HW219890   3.070   1.381   8.407  0.8888 -2.4523  0.9998
 2810SOL     OW19891   1.911   2.996   6.881  0.0908 -0.4777 -0.1133
 2810SOL    HW119892   2.004   3.013   6.862 -0.1723  0.9779 -0.0337
 2810SOL    HW219893   1.914   2.951   6.966  0.6998 -1.8189 -0.8443
 2811SOL     OW19894   2.012   0.348   4.842  0.1556  0.1063 -0.3281
 2811SOL    HW119895   2.013   0.426   4.787 -0.8463  0.0076 -0.4904
 2811SOL    HW219896   2.007   0.386   4.930  2.4118 -2.1678  0.7739
 2812SOL     OW19897   2.422   2.962   8.225 -0.4490 -0.5216 -0.1699
 2812SOL    HW119898   2.346   3.001   8.268  2.0677  1.8194  2.1465
 2812SOL    HW219899   2.419   2.874   8.260 -1.3024  0.2684  1.7290
 2813SOL     OW19900   1.041   4.413   6.180  0.1669 -0.4635  0.0578
 2813SOL    HW119901   0.962   4.379   6.138 -1.4569 -0.2636  2.8977
 2813SOL    HW219902   1.089   4.427   6.099 -1.9088  0.6430 -0.9718
 2814SOL     OW19903   3.550   4.414  14.373 -0.0273 -0.6742  0.1818
 2814SOL    HW119904   3.629   4.437  14.323 -1.2588  2.3969 -0.3257
 2814SOL    HW219905   3.559   4.319  14.365  0.4682 -0.5416 -0.8763
 2815SOL     OW19906   3.911   2.852   1.996 -0.1590 -0.2965 -0.0500
 2815SOL    HW119907   3.991   2.822   1.953 -1.1258 -0.0913 -1.9649
 2815SOL    HW219908   3.869   2.769   2.016 -1.0029  0.2047  0.2750
 2816SOL     OW19909   2.202   4.007   3.978  0.2377  0.1363 -0.6818
 2816SOL    HW119910   2.119   4.054   3.979 -1.4533 -2.8258 -0.1321
 2816SOL    HW219911   2.244   4.038   4.058 -2.5580 -0.5115  1.0508
 2817SOL     OW19912   2.719   4.020   6.920  0.4012  0.4196 -0.2682
 2817SOL    HW119913   2.756   4.032   6.832 -0.1467 -0.3765 -0.6156
 2817SOL    HW219914   2.751   3.931   6.934 -2.4928 -0.2739  1.8756
 2818SOL     OW19915   2.949   2.284   8.155  0.3969 -0.1680 -0.4846
 2818SOL    HW119916   2.974   2.196   8.184  0.5707  0.6218  1.7731
 2818SOL    HW219917   2.861   2.271   8.121  0.0546  0.2541  0.2406
 2819SOL     OW19918   0.317   4.326   5.861  0.7339  0.3055 -1.0829
 2819SOL    HW119919   0.319   4.234   5.833  1.6085 -1.1363  3.7451
 2819SOL    HW219920   0.222   4.328   5.873  0.8626 -1.9898  0.3749
 2820SOL     OW19921   2.758   4.449  13.968 -0.2940 -0.2886  0.0224
 2820SOL    HW119922   2.836   4.393  13.965  1.3595  1.9473  0.8534
 2820SOL    HW219923   2.760   4.486  14.056  2.0387  1.1371 -0.6248
 2821SOL     OW19924   4.659   2.367  11.816 -0.2013  0.0406  0.2668
 2821SOL    HW119925   4.584   2.408  11.773  1.7658  2.4191 -0.9650
 2821SOL    HW219926   4.685   2.312  11.742 -0.6703 -1.2436  1.0788
 2822SOL     OW19927   3.450   3.367   2.497 -0.2274  0.5124 -0.0106
 2822SOL    HW119928   3.444   3.456   2.529 -0.3191 -0.4009  2.4569
 2822SOL    HW219929   3.525   3.369   2.437  1.2132 -0.4567  1.7727
 2823SOL     OW19930   1.987   4.322   6.323  0.4204  0.6627  0.1610
 2823SOL    HW119931   2.012   4.235   6.353 -0.0860 -0.4606 -2.7056
 2823SOL    HW219932   1.971   4.301   6.231 -1.7417 -0.4614  0.7943
 2824SOL     OW19933   2.707   0.078   7.587 -0.2067 -0.1644 -0.6144
 2824SOL    HW119934   2.725   0.062   7.494  0.3472  1.8442 -0.8617
 2824SOL    HW219935   2.767   0.152   7.602  0.0322  0.1624 -3.2027
 2825SOL     OW19936   3.704   3.835   8.380  0.3560  0.0380  0.2250
 2825SOL    HW119937   3.608   3.838   8.379  0.3840  0.6294 -0.5212
 2825SOL    HW219938   3.726   3.810   8.470 -0.4450 -0.5056  0.2726
 2826SOL     OW19939   1.390   2.564   4.035 -0.4836 -0.2215 -0.1304
 2826SOL    HW119940   1.464   2.504   4.042  0.4440  0.8697 -0.4124
 2826SOL    HW219941   1.357   2.533   3.951 -1.6052 -1.2607  0.7000
 2827SOL     OW19942   3.068   2.194   2.452  0.1612  0.9718  0.7342
 2827SOL    HW119943   3.029   2.211   2.367  0.5506  0.9138  0.5443
 2827SOL    HW219944   3.078   2.100   2.466  0.5996  0.9459  0.2211
 2828SOL     OW19945   2.763   2.073   0.283  0.1001 -0.6040  0.6779
 2828SOL    HW119946   2.747   2.053   0.191  0.9281 -0.5674  0.5303
 2828SOL    HW219947   2.684   2.027   0.311 -0.2783 -1.1693 -1.2779
 2829SOL     OW19948   2.394   3.862   3.012 -0.1187  0.0313  0.3422
 2829SOL    HW119949   2.472   3.916   3.021 -1.5612  2.8370 -3.7538
 2829SOL    HW219950   2.368   3.861   3.104 -1.1523  1.7225  0.0743
 2830SOL     OW19951   2.183   2.995   6.896 -0.3413 -0.0210 -0.2027
 2830SOL    HW119952   2.221   3.078   6.925 -0.4742  0.2877 -0.8938
 2830SOL    HW219953   2.219   2.941   6.966  1.4749  0.3552 -0.8476
 2831SOL     OW19954   1.315   0.450  17.494 -0.3445  0.2312 -0.1086
 2831SOL    HW119955   1.270   0.384  17.547 -0.5726 -1.7066 -2.7629
 2831SOL    HW219956   1.250   0.478  17.430 -0.0726  0.5854 -0.2308
 2832SOL     OW19957   4.111   2.883   9.466 -0.1073 -0.2234 -0.1404
 2832SOL    HW119958   4.159   2.825   9.524 -1.5873 -2.4960 -1.2211
 2832SOL    HW219959   4.031   2.834   9.450 -0.6096  0.1526  1.2319
 2833SOL     OW19960   0.542   2.129   5.666  0.0943  0.2537  0.8973
 2833SOL    HW119961   0.456   2.148   5.629  1.4575 -0.2906 -2.5229
 2833SOL    HW219962   0.567   2.048   5.621  0.1682  2.1044 -2.3866
 2834SOL     OW19963   0.444   1.714   2.623 -0.2273  0.0906 -0.2410
 2834SOL    HW119964   0.470   1.760   2.703  0.6843  2.2882 -1.8190
 2834SOL    HW219965   0.513   1.651   2.601 -0.7296 -0.0606 -1.3571
 2835SOL     OW19966   2.020   0.170   3.263  0.3225 -0.2641 -0.1252
 2835SOL    HW119967   2.003   0.138   3.352  0.3380  0.8390  0.2720
 2835SOL    HW219968   2.085   0.103   3.239  1.4273  0.5207  0.6661
 2836SOL     OW19969   3.068   1.425   6.209 -0.0876 -0.5490  0.3466
 2836SOL    HW119970   3.082   1.505   6.260 -0.6027  2.0315 -3.5640
 2836SOL    HW219971   2.991   1.455   6.161  0.4000 -2.2745 -1.5192
 2837SOL     OW19972   1.814   4.214   5.200  1.3000 -0.0840 -0.1530
 2837SOL    HW119973   1.757   4.143   5.169 -1.1901  0.9854  1.9800
 2837SOL    HW219974   1.760   4.243   5.273  0.5866  0.8906 -1.0599
 2838SOL     OW19975   4.331   1.589   9.399 -1.2561 -0.1034 -0.2403
 2838SOL    HW119976   4.342   1.643   9.320  0.2101 -1.1130 -0.7379
 2838SOL    HW219977   4.318   1.502   9.361  1.5254 -0.7450  0.2667
 2839SOL     OW19978   4.706   2.991  16.523 -0.5675 -0.5687  0.6084
 2839SOL    HW119979   0.044   3.054  16.487  1.1038 -3.0635 -0.8831
 2839SOL    HW219980   4.627   3.043  16.537 -0.7116 -0.0322 -2.2222
 2840SOL     OW19981   2.275   3.341   0.501  0.5738  0.1570  0.5908
 2840SOL    HW119982   2.347   3.394   0.536  0.5008 -0.1068  1.1423
 2840SOL    HW219983   2.198   3.398   0.493  0.4454  0.0708  1.1795
 2841SOL     OW19984   2.314   2.274   3.215 -0.0914  0.1498  0.3959
 2841SOL    HW119985   2.286   2.289   3.306 -0.1906 -1.3642  0.6055
 2841SOL    HW219986   2.244   2.219   3.182  0.4143 -0.1933 -0.1015
 2842SOL     OW19987   2.914   0.018  11.099  0.4670  0.1622  0.4047
 2842SOL    HW119988   2.914   4.685  11.022  3.6982  1.1261 -0.2924
 2842SOL    HW219989   2.926   4.672  11.162  1.2421  0.7085  0.8708
 2843SOL     OW19990   2.662   2.795   3.492 -0.1113 -0.0543 -0.2282
 2843SOL    HW119991   2.614   2.789   3.409  1.1320  0.1385 -0.9673
 2843SOL    HW219992   2.729   2.857   3.465  0.0948 -0.6396 -1.0604
 2844SOL     OW19993   4.456   1.975   7.912 -0.4427 -0.3596  0.0099
 2844SOL    HW119994   4.441   1.882   7.895 -2.0022 -0.1975  0.4723
 2844SOL    HW219995   4.446   1.986   8.007  0.3287 -1.6308  0.2407
 2845SOL     OW19996   4.329   2.973   3.153 -0.6091  0.7718 -0.2156
 2845SOL    HW119997   4.279   2.966   3.072  2.3669  1.3143 -2.1046
 2845SOL    HW219998   4.263   3.007   3.213  0.0977  1.1432  0.3447
 2846SOL     OW19999   3.283   1.550   4.643  0.1977  0.3150 -0.4019
 2846SOL    HW120000   3.326   1.477   4.599  0.4673  0.6063 -0.6274
 2846SOL    HW220001   3.363   1.600   4.658 -0.9156  1.8814  0.2683
 2847SOL     OW20002   3.790   2.207   4.499  0.9093 -0.0232 -0.0966
 2847SOL    HW120003   3.777   2.301   4.491  0.8001 -0.0902 -0.6898
 2847SOL    HW220004   3.852   2.200   4.572  1.9699 -0.1901 -1.0226
 2848SOL     OW20005   0.295   1.414   1.411 -0.0907 -0.4491 -0.2839
 2848SOL    HW120006   0.383   1.382   1.392  0.9477  3.1861 -1.6950
 2848SOL    HW220007   0.319   1.479   1.477 -2.0046 -1.5168  1.4625
 2849SOL     OW20008   2.409   0.757  10.228 -0.5841 -0.1206  0.1460
 2849SOL    HW120009   2.364   0.715  10.155 -0.5313 -0.4816  0.3203
 2849SOL    HW220010   2.389   0.692  10.295  0.9005  0.4320  1.1168
 2850SOL     OW20011   1.268   4.658   6.669  0.1657  0.5945  0.1662
 2850SOL    HW120012   1.264   0.002   6.736 -0.7674 -0.8592  1.6129
 2850SOL    HW220013   1.175   4.635   6.672 -0.3669  2.7862  0.2745
 2851SOL     OW20014   2.208   3.279  15.260  0.4294 -0.0212 -0.0849
 2851SOL    HW120015   2.226   3.339  15.188  1.1676 -0.7253 -0.4814
 2851SOL    HW220016   2.116   3.303  15.274  0.1825 -0.8229 -0.3176
 2852SOL     OW20017   0.111   1.413   3.653 -0.0811  0.5378 -0.0143
 2852SOL    HW120018   0.202   1.420   3.623 -0.5934  4.4909 -0.6479
 2852SOL    HW220019   0.125   1.329   3.696 -2.8556  0.7240  1.2734
 2853SOL     OW20020   0.070   4.516   1.631 -0.2636  0.4789  0.2152
 2853SOL    HW120021   0.058   4.606   1.599 -0.2936  0.8509  1.2534
 2853SOL    HW220022   4.716   4.509   1.685  0.7767 -0.5487  1.5646
 2854SOL     OW20023   3.977   2.962   8.116  0.3037 -0.1104 -0.1117
 2854SOL    HW120024   4.073   2.967   8.109  0.2614 -1.1407 -1.4339
 2854SOL    HW220025   3.965   2.919   8.032 -0.4813  1.6747 -0.9012
 2855SOL     OW20026   3.048   0.426   9.052  0.4335  0.5386  0.2888
 2855SOL    HW120027   3.010   0.340   9.032  2.3827 -0.3157  0.3145
 2855SOL    HW220028   3.098   0.446   8.973  0.2239 -0.5390 -0.1224
 2856SOL     OW20029   3.760   0.467   1.078 -0.1081  0.1278 -0.1749
 2856SOL    HW120030   3.811   0.535   1.121  1.3155 -1.7899  1.1490
 2856SOL    HW220031   3.753   0.394   1.139 -0.4181  0.1366 -0.1961
 2857SOL     OW20032   1.771   3.112   4.421  0.0135 -0.2591 -0.4726
 2857SOL    HW120033   1.776   3.186   4.481 -0.9682 -2.3548  2.1784
 2857SOL    HW220034   1.727   3.056   4.484 -0.5348  0.2640 -0.3830
 2858SOL     OW20035   2.246   2.900   7.154  0.2898 -0.8126  0.1966
 2858SOL    HW120036   2.341   2.900   7.170 -0.2582 -0.4959  3.5221
 2858SOL    HW220037   2.224   2.823   7.206 -0.2752 -1.0308 -0.3720
 2859SOL     OW20038   0.112   1.583   0.804  0.0931 -0.5545  0.1532
 2859SOL    HW120039   0.026   1.541   0.805  0.2547 -0.9437 -1.9687
 2859SOL    HW220040   0.130   1.615   0.715  0.5001 -0.0057  0.4332
 2860SOL     OW20041   2.461   4.057   4.477 -0.2819 -0.3866  0.8326
 2860SOL    HW120042   2.521   4.059   4.551 -1.0061  1.5737  1.3624
 2860SOL    HW220043   2.515   4.114   4.421 -0.2496  0.3435  1.6069
 2861SOL     OW20044   3.678   0.533   4.794  0.5138 -0.2827 -0.1409
 2861SOL    HW120045   3.719   0.585   4.725 -0.1157  0.0079 -0.2854
 2861SOL    HW220046   3.584   0.537   4.778  0.1398 -0.3926  2.1162
 2862SOL     OW20047   1.453   3.449   6.547 -0.5555  0.3561 -0.0432
 2862SOL    HW120048   1.449   3.355   6.564 -0.5626  0.1684 -1.0758
 2862SOL    HW220049   1.409   3.464   6.463 -1.7431  4.2490  1.2628
 2863SOL     OW20050   3.575   2.960   9.413 -0.4952 -0.3116 -0.2335
 2863SOL    HW120051   3.492   2.926   9.447 -0.5871 -1.2790 -1.4390
 2863SOL    HW220052   3.564   2.924   9.325  0.9414 -0.4847 -0.3370
 2864SOL     OW20053   0.057   2.424   3.536  0.0604  0.3392 -0.6838
 2864SOL    HW120054   0.046   2.332   3.510  1.3292 -0.3334  1.1641
 2864SOL    HW220055   0.018   2.471   3.462  1.0328  2.3328  0.0640
 2865SOL     OW20056   4.712   1.535   4.614  0.0473 -0.1509 -0.4789
 2865SOL    HW120057   0.058   1.589   4.577  1.5353 -1.4187  0.4847
 2865SOL    HW220058   0.042   1.471   4.661  1.2642  1.4140  0.2468
 2866SOL     OW20059   2.198   0.222   6.817 -0.1221  0.3575 -0.6191
 2866SOL    HW120060   2.224   0.311   6.793  1.4769  0.5472  1.8288
 2866SOL    HW220061   2.204   0.185   6.729 -1.1919  1.6642 -1.2323
 2867SOL     OW20062   1.681   2.649  11.827  0.4994 -0.2943  0.2598
 2867SOL    HW120063   1.708   2.690  11.746  1.0490  0.2516  0.7191
 2867SOL    HW220064   1.766   2.649  11.872  0.5151 -1.4473  0.2364
 2868SOL     OW20065   3.371   0.908   8.309 -0.4945  0.5115 -0.1576
 2868SOL    HW120066   3.355   0.996   8.344 -1.8487 -0.4928  1.7592
 2868SOL    HW220067   3.384   0.867   8.395 -2.8214  0.6247  0.2521
 2869SOL     OW20068   4.389   2.262   6.408 -0.0111  0.0767 -0.5134
 2869SOL    HW120069   4.416   2.324   6.475 -1.3136 -1.6665  1.6650
 2869SOL    HW220070   4.295   2.277   6.413  0.2025  1.2178  0.0849
 2870SOL     OW20071   4.274   4.364  16.825 -0.0134  0.7001 -0.3369
 2870SOL    HW120072   4.212   4.337  16.757 -0.0598 -3.1859  1.2880
 2870SOL    HW220073   4.251   4.457  16.831  0.9568  0.9225 -0.0708
 2871SOL     OW20074   3.114   1.230   7.136 -0.0419 -0.3665  0.7510
 2871SOL    HW120075   3.124   1.258   7.045 -0.5144  2.2920  1.5293
 2871SOL    HW220076   3.162   1.291   7.191  1.9029  1.8486 -3.4143
 2872SOL     OW20077   3.411   3.761   6.062  0.1315  0.5948 -0.3031
 2872SOL    HW120078   3.317   3.746   6.076  0.2788  1.3354  1.4439
 2872SOL    HW220079   3.455   3.764   6.147  0.4623 -3.8089 -0.3178
 2873SOL     OW20080   0.880   3.574   8.614 -0.1773 -0.2627  0.2499
 2873SOL    HW120081   0.923   3.520   8.680 -1.5143 -1.2924  0.2902
 2873SOL    HW220082   0.935   3.651   8.626 -0.6494  0.3216 -1.2585
 2874SOL     OW20083   3.729   0.294   0.023  0.7598 -0.2428  0.0492
 2874SOL    HW120084   3.815   0.284   0.066 -0.0712  0.3342  1.8432
 2874SOL    HW220085   3.681   0.344   0.089 -0.1779 -1.3011  0.1585
 2875SOL     OW20086   4.405   1.255   5.116  0.2547  0.4660 -0.2265
 2875SOL    HW120087   4.379   1.192   5.048  1.7848 -1.3003  0.8445
 2875SOL    HW220088   4.474   1.205   5.159  0.7206  1.1153 -0.2089
 2876SOL     OW20089   0.912   3.413   7.871  0.4533 -0.1135 -0.3279
 2876SOL    HW120090   0.926   3.494   7.920  0.9552 -0.6066  0.3485
 2876SOL    HW220091   0.990   3.406   7.816 -0.7413 -0.8200 -1.9344
 2877SOL     OW20092   1.730   1.196   2.166  0.1870 -0.0786 -0.5778
 2877SOL    HW120093   1.800   1.210   2.102  0.0997 -0.7164 -0.8070
 2877SOL    HW220094   1.652   1.237   2.129 -0.3230  0.4446  1.1017
 2878SOL     OW20095   0.881   3.865  15.089 -0.0053  0.0721  0.3444
 2878SOL    HW120096   0.927   3.839  15.169  2.0209  0.9773 -0.5151
 2878SOL    HW220097   0.877   3.786  15.035 -0.3524 -0.3518  0.9976
 2879SOL     OW20098   3.725   0.528   0.560 -0.1159  0.0082  0.5820
 2879SOL    HW120099   3.805   0.577   0.542  0.2261 -0.7138  0.1137
 2879SOL    HW220100   3.753   0.492   0.644  0.3851 -1.9506 -0.4167
 2880SOL     OW20101   4.138   2.821   9.128  0.2348  0.5228  0.3190
 2880SOL    HW120102   4.214   2.824   9.070 -0.1228 -0.9962 -0.2285
 2880SOL    HW220103   4.169   2.863   9.209  0.2410  0.9446  0.0995
 2881SOL     OW20104   1.027   0.841   8.003  0.4972  0.3870  0.2092
 2881SOL    HW120105   0.997   0.799   7.922 -0.3426 -1.7279  1.5987
 2881SOL    HW220106   1.122   0.856   8.004  0.5743 -0.1812  1.5565
 2882SOL     OW20107   0.566   1.001  12.439 -0.1852  0.2951 -0.2637
 2882SOL    HW120108   0.569   1.097  12.446  1.7325  0.2809 -1.0996
 2882SOL    HW220109   0.508   0.984  12.365 -0.1252 -1.4169  0.0887
 2883SOL     OW20110   0.654   2.975   6.293 -0.1941  0.0087  0.1140
 2883SOL    HW120111   0.576   2.920   6.291  0.5157 -0.9398 -1.5336
 2883SOL    HW220112   0.639   3.030   6.370  1.9858 -0.1781  0.6833
 2884SOL     OW20113   1.462   0.312   5.915  0.0493 -0.7472 -0.2588
 2884SOL    HW120114   1.522   0.244   5.887  0.3035  0.6420 -3.0470
 2884SOL    HW220115   1.405   0.314   5.838 -1.3424  0.3553  0.7906
 2885SOL     OW20116   2.746   3.389  13.543 -0.2473 -0.6422 -0.8299
 2885SOL    HW120117   2.754   3.471  13.495  1.4465 -0.5037 -0.3082
 2885SOL    HW220118   2.755   3.322  13.475 -0.1940 -2.1417  0.6352
 2886SOL     OW20119   0.519   2.405  14.654  0.7745  0.5141 -0.6168
 2886SOL    HW120120   0.597   2.351  14.649  2.0112  2.5009 -3.1205
 2886SOL    HW220121   0.489   2.392  14.744  2.9665 -2.1970 -0.2893
 2887SOL     OW20122   1.029   0.155   5.958 -0.2601 -0.8921 -0.3221
 2887SOL    HW120123   1.047   0.243   5.991  1.4090 -0.5809 -2.0590
 2887SOL    HW220124   1.021   0.176   5.866  0.6051 -1.5304 -0.5522
 2888SOL     OW20125   3.928   3.116   5.668  0.6728 -0.4141  0.1423
 2888SOL    HW120126   3.975   3.035   5.647 -0.9067 -1.5149  0.8644
 2888SOL    HW220127   3.855   3.112   5.605  1.3459  2.0326 -0.8028
 2889SOL     OW20128   1.644   0.858   0.584  0.1180  0.8066  0.0833
 2889SOL    HW120129   1.691   0.775   0.584 -2.0372 -0.3877 -2.2484
 2889SOL    HW220130   1.561   0.838   0.540  0.8096  0.1074 -0.8867
 2890SOL     OW20131   0.766   1.413  12.479  0.1106  0.3124  0.0365
 2890SOL    HW120132   0.728   1.480  12.536 -0.0520 -0.5068  0.8842
 2890SOL    HW220133   0.816   1.349  12.529  1.1032  1.3827  0.4279
 2891SOL     OW20134   2.711   2.932   8.939  0.7223  0.5741 -0.2303
 2891SOL    HW120135   2.707   2.901   9.029  1.3194 -1.2331 -0.8146
 2891SOL    HW220136   2.790   2.985   8.938 -0.1690  1.9018 -0.5689
 2892SOL     OW20137   2.162   3.490   1.568  0.3001  0.1721  0.4523
 2892SOL    HW120138   2.068   3.499   1.553  0.4798  1.0835 -0.1204
 2892SOL    HW220139   2.202   3.494   1.481 -2.1473  2.5958 -0.5145
 2893SOL     OW20140   2.601   0.727   4.798 -0.2517 -0.2240 -0.1909
 2893SOL    HW120141   2.511   0.696   4.791 -0.0865 -0.8824  0.5862
 2893SOL    HW220142   2.591   0.802   4.741  2.0746  1.5699  1.7584
 2894SOL     OW20143   4.224   3.376  13.749  0.4208  0.2083  0.0699
 2894SOL    HW120144   4.281   3.312  13.706  0.3903  1.3473 -1.6505
 2894SOL    HW220145   4.276   3.455  13.764  1.2446 -0.6263  1.5512
 2895SOL     OW20146   1.327   3.858   7.815 -0.0465 -0.1452 -0.4635
 2895SOL    HW120147   1.264   3.887   7.881  1.0469  0.6253  0.2322
 2895SOL    HW220148   1.295   3.897   7.734  1.4398  1.4609 -0.2545
 2896SOL     OW20149   4.205   4.569   4.376 -0.5026 -0.5766  0.3122
 2896SOL    HW120150   4.206   4.656   4.338 -1.7436 -0.8170 -0.2870
 2896SOL    HW220151   4.115   4.562   4.409 -0.7835 -0.1610 -0.3648
 2897SOL     OW20152   0.835   3.988   8.673 -0.3081  0.2588  0.0646
 2897SOL    HW120153   0.884   4.070   8.670 -0.3252  0.3407  1.8426
 2897SOL    HW220154   0.895   3.914   8.660  0.5310  1.0131 -0.3886
 2898SOL     OW20155   3.768   3.417   6.097 -0.2070  0.1432 -0.7504
 2898SOL    HW120156   3.741   3.347   6.156 -1.6535  0.5230 -0.9580
 2898SOL    HW220157   3.806   3.370   6.022  0.6884  0.9512 -0.8056
 2899SOL     OW20158   0.810   2.895   1.018 -0.4675 -0.3437  0.2286
 2899SOL    HW120159   0.857   2.973   1.047  1.7622 -1.7319  0.4170
 2899SOL    HW220160   0.725   2.933   1.040 -0.5437 -0.5348  0.2631
 2900SOL     OW20161   4.059   3.603   4.573  0.2674 -0.7894  0.1871
 2900SOL    HW120162   4.056   3.507   4.570 -0.3838 -0.8436  2.5745
 2900SOL    HW220163   3.972   3.618   4.611  0.5582 -1.3837  1.0667
 2901SOL     OW20164   4.589   1.350   6.375 -0.1471  0.5306  0.1255
 2901SOL    HW120165   4.547   1.385   6.297 -0.1475 -0.1889 -0.1955
 2901SOL    HW220166   4.638   1.272   6.349 -1.9066 -0.3535 -0.5528
 2902SOL     OW20167   1.566   4.169   4.234 -0.5126 -0.3599  0.0384
 2902SOL    HW120168   1.598   4.248   4.277 -0.2734 -0.5973  0.2894
 2902SOL    HW220169   1.514   4.209   4.164 -0.0006 -2.0166 -1.2871
 2903SOL     OW20170   0.086   3.266   7.051  0.6848  0.6589 -0.3167
 2903SOL    HW120171   0.070   3.205   6.979 -0.1081  0.2000  0.2534
 2903SOL    HW220172   0.145   3.328   7.007 -0.4521  0.8084 -1.6454
 2904SOL     OW20173   4.208   3.591   9.065 -0.3640 -0.1853 -0.2955
 2904SOL    HW120174   4.235   3.648   9.136  0.5317 -2.1283  0.9327
 2904SOL    HW220175   4.210   3.507   9.112  1.6409  0.1260  0.1800
 2905SOL     OW20176   2.029   3.431   7.785  1.0710  0.1936 -0.6519
 2905SOL    HW120177   2.093   3.492   7.822  0.7987  0.5748 -0.7967
 2905SOL    HW220178   1.969   3.492   7.741 -0.2178 -0.2598  0.4676
 2906SOL     OW20179   3.401   3.690  12.749 -0.1746 -0.1918  0.2908
 2906SOL    HW120180   3.435   3.699  12.660  1.4122 -1.1277  0.8012
 2906SOL    HW220181   3.309   3.714  12.736  0.1025 -0.0088 -1.3465
 2907SOL     OW20182   3.580   2.520   3.380  0.1554  0.2847  0.0668
 2907SOL    HW120183   3.581   2.516   3.475 -1.2853 -1.2668  0.0190
 2907SOL    HW220184   3.489   2.545   3.367  0.5608  1.4632 -0.6149
 2908SOL     OW20185   3.364   3.197   4.060  0.5641  0.4823 -0.0711
 2908SOL    HW120186   3.417   3.118   4.052 -0.5645 -0.2759  0.0288
 2908SOL    HW220187   3.383   3.219   4.151 -0.3236 -0.5772  0.3573
 2909SOL     OW20188   3.961   0.254   3.230 -0.9754  0.1485 -0.0812
 2909SOL    HW120189   4.045   0.279   3.193 -1.4721 -0.0143 -1.3281
 2909SOL    HW220190   3.910   0.232   3.151 -0.0648 -0.1600 -0.5798
 2910SOL     OW20191   1.284   4.658  12.274  0.2792 -0.0412  0.3098
 2910SOL    HW120192   1.304   4.623  12.187 -0.9702  2.2822 -0.9127
 2910SOL    HW220193   1.201   4.703  12.257  0.3641  0.3105  0.8374
 2911SOL     OW20194   2.039   0.856  15.338  0.4235  0.0864  0.1088
 2911SOL    HW120195   2.020   0.845  15.245 -0.9934 -2.1901  0.6496
 2911SOL    HW220196   1.994   0.937  15.362 -0.2525 -0.3490  0.3431
 2912SOL     OW20197   0.594   0.670  12.288  0.1052  0.1677 -0.1526
 2912SOL    HW120198   0.596   0.689  12.382 -0.0385 -1.6291  0.2059
 2912SOL    HW220199   0.510   0.625  12.279  0.6108 -0.2794 -2.7681
 2913SOL     OW20200   3.902   0.361   5.969 -0.1479 -0.5342 -0.4236
 2913SOL    HW120201   3.931   0.273   5.945  0.5039 -0.0621 -1.4057
 2913SOL    HW220202   3.984   0.409   5.981  0.2927 -2.3306  3.7474
 2914SOL     OW20203   2.841   0.946   9.719  0.0952 -0.0805 -0.3121
 2914SOL    HW120204   2.856   0.921   9.810 -0.8251 -0.0873 -0.1626
 2914SOL    HW220205   2.858   1.040   9.724 -1.0321  0.1499 -1.0347
 2915SOL     OW20206   4.428   4.149   5.237  0.4448 -0.2935 -0.7718
 2915SOL    HW120207   4.491   4.178   5.171  0.7076 -0.0787 -0.4344
 2915SOL    HW220208   4.396   4.233   5.269 -0.9820 -1.5144  0.9671
 2916SOL     OW20209   1.684   0.301   1.422  0.0573  0.1109  0.1480
 2916SOL    HW120210   1.715   0.365   1.487 -0.4694 -1.3264  1.8080
 2916SOL    HW220211   1.660   0.236   1.488 -0.7152  0.0871 -0.1582
 2917SOL     OW20212   4.628   4.053   5.883  0.7416  0.1344  0.2555
 2917SOL    HW120213   4.701   4.114   5.892  0.7196  0.3687 -1.1148
 2917SOL    HW220214   4.673   3.968   5.884 -1.8630 -1.2304  0.5940
 2918SOL     OW20215   1.554   1.038   9.314 -0.6374  0.7977 -0.0749
 2918SOL    HW120216   1.626   1.029   9.376  0.0032  0.7256 -0.8265
 2918SOL    HW220217   1.557   1.130   9.289 -0.7309  0.6829 -0.5052
 2919SOL     OW20218   1.458   2.628  12.019  0.7537 -0.0898  0.1306
 2919SOL    HW120219   1.494   2.607  12.105 -0.2278  1.1358  0.8297
 2919SOL    HW220220   1.540   2.627  11.970 -0.6579 -0.4307 -2.2527
 2920SOL     OW20221   0.361   3.063   9.202 -0.3588 -0.3141  0.2397
 2920SOL    HW120222   0.316   3.147   9.215 -2.1594 -1.5354  1.8815
 2920SOL    HW220223   0.330   3.040   9.115 -2.5653  0.5641  0.7771
 2921SOL     OW20224   3.302   1.800  12.770  0.1244 -0.0313 -0.1860
 2921SOL    HW120225   3.349   1.859  12.712  0.2033  0.6976  0.6151
 2921SOL    HW220226   3.218   1.845  12.765 -1.3040 -2.6826 -0.0361
 2922SOL     OW20227   0.240   0.429   6.137  0.2118  0.4192  0.1279
 2922SOL    HW120228   0.301   0.365   6.173 -0.9803  0.2731  1.8847
 2922SOL    HW220229   0.214   0.473   6.218  0.0277 -0.2550  0.4342
 2923SOL     OW20230   3.460   0.161  14.012 -0.0315  0.6054  0.2675
 2923SOL    HW120231   3.430   0.251  14.011 -0.1570  0.5679  0.8529
 2923SOL    HW220232   3.499   0.144  14.098  0.3542 -1.1935 -0.2567
 2924SOL     OW20233   1.177   0.833  11.339 -0.0184 -0.6006 -0.2835
 2924SOL    HW120234   1.177   0.894  11.413 -0.5622 -0.4454 -0.4144
 2924SOL    HW220235   1.267   0.837  11.306  0.9805 -0.1838  2.4782
 2925SOL     OW20236   3.029   2.224   1.877 -0.3101 -0.0141 -0.6567
 2925SOL    HW120237   2.997   2.155   1.818 -0.4514 -0.6291  0.1394
 2925SOL    HW220238   3.059   2.171   1.950 -0.0466  1.0863  0.0247
 2926SOL     OW20239   2.957   2.901   2.743  0.0502 -0.0565  0.2765
 2926SOL    HW120240   2.912   2.819   2.762 -0.1433  0.0113  0.1030
 2926SOL    HW220241   2.880   2.955   2.727  0.8980 -0.3424 -4.6914
 2927SOL     OW20242   4.463   1.041   2.051 -0.3927  0.5351  0.4420
 2927SOL    HW120243   4.549   1.079   2.071 -0.3288 -0.4646  2.0178
 2927SOL    HW220244   4.473   0.951   2.082  1.9659  0.5851 -0.1852
 2928SOL     OW20245   3.929   0.282   9.740 -0.6362 -0.6631 -0.1071
 2928SOL    HW120246   3.862   0.312   9.801 -1.0079  1.8377 -1.7530
 2928SOL    HW220247   3.877   0.234   9.675 -0.1762 -0.3102 -0.7355
 2929SOL     OW20248   1.506   0.942   5.648 -0.3884  0.2832 -0.4849
 2929SOL    HW120249   1.441   0.874   5.662 -1.6813  1.3434 -1.2779
 2929SOL    HW220250   1.495   0.958   5.554 -1.3071 -0.3979 -0.4969
 2930SOL     OW20251   1.657   4.145  12.515  0.2226  0.3117  0.4449
 2930SOL    HW120252   1.672   4.207  12.587 -1.2450  0.9229  0.2259
 2930SOL    HW220253   1.703   4.188  12.443  0.2238 -3.0003 -1.5258
 2931SOL     OW20254   3.481   4.196   2.939  0.3923 -0.1817  0.1431
 2931SOL    HW120255   3.517   4.144   3.011 -0.3074  1.0462  1.3961
 2931SOL    HW220256   3.556   4.246   2.908  0.1006  1.0564  1.3728
 2932SOL     OW20257   1.317   0.797   6.016  0.5858  0.1185 -0.2697
 2932SOL    HW120258   1.398   0.843   5.994  0.1917  1.0683  0.2517
 2932SOL    HW220259   1.345   0.709   6.042  2.2389  0.9914  0.8740
 2933SOL     OW20260   0.292   3.644   6.439  0.0185 -0.0274 -0.2744
 2933SOL    HW120261   0.332   3.661   6.524 -1.4074 -0.1342  0.4012
 2933SOL    HW220262   0.202   3.619   6.460 -0.8653  1.2861 -2.4618
 2934SOL     OW20263   3.615   3.069   8.167 -0.1506 -0.2738 -0.2955
 2934SOL    HW120264   3.659   3.010   8.229 -1.0898 -0.3298  0.3108
 2934SOL    HW220265   3.583   3.135   8.228  1.1226  0.8269 -0.8139
 2935SOL     OW20266   4.461   0.009   6.111 -0.1166  0.0811  0.0748
 2935SOL    HW120267   4.529   4.718   6.046 -1.3738 -0.0492 -1.1964
 2935SOL    HW220268   4.387   4.710   6.054  1.3573  3.0752 -3.0002
 2936SOL     OW20269   1.522   2.223   6.112 -0.1459 -0.5066 -0.2480
 2936SOL    HW120270   1.558   2.276   6.183  0.3506 -2.4243  0.9003
 2936SOL    HW220271   1.591   2.226   6.046  0.1705 -3.0292 -0.0059
 2937SOL     OW20272   0.990   1.946   5.706 -0.2225  0.1885 -0.3190
 2937SOL    HW120273   0.947   1.918   5.787 -0.9867  1.8606 -0.1350
 2937SOL    HW220274   1.008   2.037   5.730 -0.8739  0.3611 -0.4674
 2938SOL     OW20275   0.566   3.263   3.351  0.1110 -0.1972 -0.0287
 2938SOL    HW120276   0.483   3.271   3.304  0.4175  2.2412 -0.1474
 2938SOL    HW220277   0.543   3.313   3.429 -0.2210  2.8032 -2.0482
 2939SOL     OW20278   0.349   1.175  10.506 -0.7169  0.0187  0.5023
 2939SOL    HW120279   0.273   1.208  10.458  0.9194  0.1100 -2.0893
 2939SOL    HW220280   0.347   1.080  10.494  1.8800  0.1051 -0.6650
 2940SOL     OW20281   1.458   2.427   5.729  0.0930  0.2605  0.0595
 2940SOL    HW120282   1.460   2.459   5.818 -0.2493  2.3807 -0.7040
 2940SOL    HW220283   1.407   2.347   5.743 -3.2430  1.9376 -2.4579
 2941SOL     OW20284   0.906   3.737   7.246  0.0481 -0.0203 -0.1096
 2941SOL    HW120285   0.811   3.738   7.238 -0.0788 -1.2430  1.3522
 2941SOL    HW220286   0.931   3.723   7.154 -0.9806 -1.1681 -0.2102
 2942SOL     OW20287   0.734   3.000   2.775  0.0554  0.2301 -0.2652
 2942SOL    HW120288   0.714   2.918   2.820 -2.2675  0.7290 -0.3971
 2942SOL    HW220289   0.829   2.996   2.772  0.0764  1.8246 -1.9514
 2943SOL     OW20290   0.186   4.558   8.177  0.0470 -0.4042  0.2317
 2943SOL    HW120291   0.112   4.552   8.238 -2.4915  0.3089 -2.8098
 2943SOL    HW220292   0.265   4.554   8.231  0.4898  0.8343 -0.3246
 2944SOL     OW20293   1.155   1.852   1.819 -0.0529  0.2636 -0.4160
 2944SOL    HW120294   1.220   1.853   1.749  1.2443 -1.3071  0.7681
 2944SOL    HW220295   1.117   1.764   1.808  0.5197 -0.2574  1.8937
 2945SOL     OW20296   4.365   1.496   1.369 -0.2867 -0.8755 -0.1617
 2945SOL    HW120297   4.458   1.486   1.388 -0.5113 -1.9811  0.3191
 2945SOL    HW220298   4.367   1.580   1.322  2.2617 -0.6878  0.2897
 2946SOL     OW20299   0.869   4.478   2.402  0.3364 -0.4573  0.0467
 2946SOL    HW120300   0.830   4.460   2.317  2.2010  0.4675 -1.0080
 2946SOL    HW220301   0.871   4.391   2.442  0.3599 -0.1620  0.6918
 2947SOL     OW20302   0.594   2.884   7.128  0.0004  0.1484  0.0190
 2947SOL    HW120303   0.589   2.807   7.070  0.1736  0.1216  0.0422
 2947SOL    HW220304   0.503   2.870   7.155  0.0396  1.9698  1.1172
 2948SOL     OW20305   2.303   0.485   7.360 -0.0564 -0.2316 -0.0083
 2948SOL    HW120306   2.329   0.455   7.273  0.0622 -0.2814  0.0437
 2948SOL    HW220307   2.284   0.577   7.341 -2.5423 -0.2704  2.2584
 2949SOL     OW20308   2.480   3.876   7.271 -0.3723 -0.0147 -0.2007
 2949SOL    HW120309   2.570   3.852   7.249 -0.5283 -0.4215 -0.3929
 2949SOL    HW220310   2.437   3.791   7.272  1.4361 -0.9522 -1.0246
 2950SOL     OW20311   0.736   0.661   3.410  0.3052 -0.0956 -0.1803
 2950SOL    HW120312   0.828   0.686   3.411  0.2185  0.1818  0.5012
 2950SOL    HW220313   0.741   0.567   3.397  2.3503  0.4346 -3.1387
 2951SOL     OW20314   3.231   0.606   6.651  0.1554  0.3790 -0.2990
 2951SOL    HW120315   3.150   0.630   6.605  0.9401  0.7252 -1.4826
 2951SOL    HW220316   3.278   0.686   6.626  0.6642  0.3169  0.4766
 2952SOL     OW20317   4.549   3.485   8.877  0.3209  0.1808  0.3558
 2952SOL    HW120318   4.492   3.556   8.907 -0.1281 -0.6430  1.4497
 2952SOL    HW220319   4.497   3.437   8.812 -1.1979  0.4654  1.3547
 2953SOL     OW20320   0.180   2.868  15.769 -0.4130 -0.0828  0.4621
 2953SOL    HW120321   0.204   2.903  15.855 -0.1200  0.0824  0.3123
 2953SOL    HW220322   0.220   2.944  15.727 -0.9480  1.1096  2.1134
 2954SOL     OW20323   2.867   3.497   7.152 -0.3909 -0.2567  0.5954
 2954SOL    HW120324   2.885   3.566   7.216 -2.6721 -0.5877  1.5712
 2954SOL    HW220325   2.812   3.437   7.203 -1.1237 -2.0471 -2.3464
 2955SOL     OW20326   3.492   3.446  16.178  0.1670 -0.2183 -0.1523
 2955SOL    HW120327   3.506   3.535  16.147  0.6953 -0.4627 -0.6177
 2955SOL    HW220328   3.483   3.402  16.093  1.7459 -0.7310 -0.0554
 2956SOL     OW20329   2.290   0.925  12.187  0.1164 -0.3005  0.1093
 2956SOL    HW120330   2.307   0.980  12.263 -0.3361 -1.2145  0.8713
 2956SOL    HW220331   2.292   0.993  12.120 -2.4533  1.1468  1.5193
 2957SOL     OW20332   2.911   4.194   4.195  0.2515  0.0418  0.3434
 2957SOL    HW120333   2.929   4.101   4.205 -1.1908 -0.0309  2.2134
 2957SOL    HW220334   2.905   4.196   4.100 -0.1528  0.5931  0.3790
 2958SOL     OW20335   3.042   1.211   3.150 -0.1902  0.2738 -0.3573
 2958SOL    HW120336   2.971   1.274   3.144 -0.5308 -0.1854 -1.1431
 2958SOL    HW220337   3.006   1.130   3.112  0.0051 -0.2285  0.5171
 2959SOL     OW20338   4.041   4.659   5.137 -0.2583 -0.1816 -0.5600
 2959SOL    HW120339   3.974   4.608   5.090 -0.9160  0.6447 -0.5203
 2959SOL    HW220340   4.035   4.627   5.227 -0.2668 -0.2188 -0.5736
 2960SOL     OW20341   2.378   2.067  14.434  0.1419 -0.3454 -0.3032
 2960SOL    HW120342   2.458   2.114  14.457  0.7341 -1.5785  0.1495
 2960SOL    HW220343   2.411   1.979  14.453 -0.9719 -0.1914  2.3376
 2961SOL     OW20344   1.654   4.308   6.008 -0.0605 -0.0392 -0.2912
 2961SOL    HW120345   1.684   4.329   5.920 -1.6547  0.3283 -0.7369
 2961SOL    HW220346   1.629   4.216   5.996  0.0881 -0.5976  3.5650
 2962SOL     OW20347   0.266   2.612  10.520 -0.3363 -0.3253  0.5972
 2962SOL    HW120348   0.268   2.521  10.549 -2.6152 -0.5334  0.0802
 2962SOL    HW220349   0.238   2.660  10.598 -1.7189  1.2456 -0.8725
 2963SOL     OW20350   4.518   1.551   8.462 -0.4100  0.7516 -0.8708
 2963SOL    HW120351   4.503   1.606   8.539 -0.0187 -2.7440  1.7162
 2963SOL    HW220352   4.494   1.468   8.505  0.5042  0.0050 -1.7852
 2964SOL     OW20353   3.827   2.814   9.396  0.1516 -0.4927 -0.4521
 2964SOL    HW120354   3.796   2.762   9.471  1.2520 -2.5977 -1.4569
 2964SOL    HW220355   3.751   2.865   9.369  1.9390  1.7196 -1.3356
 2965SOL     OW20356   2.508   0.548   6.806  0.1268 -0.6841 -0.0180
 2965SOL    HW120357   2.422   0.575   6.773 -0.4689  0.1807  2.2376
 2965SOL    HW220358   2.540   0.508   6.726 -0.6057 -2.3544  0.5200
 2966SOL     OW20359   3.087   2.221   5.467  0.6285  0.1179 -0.2243
 2966SOL    HW120360   3.054   2.234   5.378  0.4718 -1.3531 -0.3883
 2966SOL    HW220361   3.065   2.128   5.476  1.9156 -0.2586 -0.9853
 2967SOL     OW20362   3.502   1.667   8.989  0.3377  0.0105  0.6283
 2967SOL    HW120363   3.507   1.694   9.080  0.9270 -4.0309  1.7662
 2967SOL    HW220364   3.585   1.701   8.953 -1.4460  1.3074 -2.2648
 2968SOL     OW20365   1.765   1.333   3.614 -0.6026  0.6174 -0.1427
 2968SOL    HW120366   1.802   1.376   3.691 -0.8026  0.3438  0.1043
 2968SOL    HW220367   1.781   1.397   3.545 -0.7420 -0.5451 -1.2566
 2969SOL     OW20368   1.315   4.630   2.987 -0.6223 -0.4243  0.0685
 2969SOL    HW120369   1.265   4.704   2.953  0.7224 -0.9666 -3.0300
 2969SOL    HW220370   1.283   4.555   2.937  2.4390 -0.4589 -1.8783
 2970SOL     OW20371   4.183   0.925  14.999  0.3002  0.4347  0.7318
 2970SOL    HW120372   4.169   0.834  15.026  1.0754 -0.8909 -3.3508
 2970SOL    HW220373   4.253   0.913  14.935 -1.3878 -2.3016 -0.5910
 2971SOL     OW20374   1.071   2.313   1.756  0.0210  0.0566 -0.2364
 2971SOL    HW120375   1.100   2.404   1.770 -0.8205  0.3043 -0.1189
 2971SOL    HW220376   0.978   2.300   1.771 -0.1579  1.4611 -0.0961
 2972SOL     OW20377   3.907   0.261   2.634 -0.7391  0.2461 -0.3518
 2972SOL    HW120378   3.964   0.184   2.630  1.4128  1.8358 -0.5429
 2972SOL    HW220379   3.973   0.316   2.593  0.0813 -0.3797  0.1148
 2973SOL     OW20380   4.058   4.402   0.552 -0.7410 -0.0853  0.4314
 2973SOL    HW120381   4.121   4.399   0.480  2.1213 -0.7731  2.9475
 2973SOL    HW220382   4.037   4.309   0.550 -0.2525 -0.0949 -3.2586
 2974SOL     OW20383   3.357   1.137   6.324  0.4089 -0.4221 -0.0388
 2974SOL    HW120384   3.403   1.221   6.328  1.4880 -1.0397  0.3553
 2974SOL    HW220385   3.283   1.168   6.376 -0.0190 -0.9376 -0.3470
 2975SOL     OW20386   0.974   4.196   9.411  0.2784 -0.2507  0.4084
 2975SOL    HW120387   0.901   4.183   9.351 -0.3927 -2.1575  1.6309
 2975SOL    HW220388   1.053   4.179   9.359 -1.3871 -0.2228 -2.1365
 2976SOL     OW20389   3.680   1.562   7.928  0.7383 -0.6833 -0.4892
 2976SOL    HW120390   3.630   1.494   7.884 -1.8620  0.6771  0.3584
 2976SOL    HW220391   3.638   1.561   8.014  2.2946  0.8062  0.2978
 2977SOL     OW20392   0.863   2.707   8.185 -0.3336  0.0609  0.4986
 2977SOL    HW120393   0.875   2.762   8.107  1.5712 -0.7142  0.2533
 2977SOL    HW220394   0.831   2.629   8.140 -2.4713  0.5006  1.2695
 2978SOL     OW20395   2.454   3.915  15.005 -0.4166  0.0414 -0.3757
 2978SOL    HW120396   2.528   3.858  15.024 -0.4400 -0.3855 -1.6020
 2978SOL    HW220397   2.381   3.853  15.004 -1.7346  1.5820  0.5561
 2979SOL     OW20398   2.224   3.163   4.345 -0.2414  0.8979  0.3002
 2979SOL    HW120399   2.163   3.234   4.330 -1.7794 -0.2761  1.0240
 2979SOL    HW220400   2.221   3.154   4.440 -1.3587  1.1500  0.2874
 2980SOL     OW20401   1.460   3.727  12.450 -0.0097 -0.4257  0.2390
 2980SOL    HW120402   1.485   3.806  12.498 -0.3629 -0.6052  0.7198
 2980SOL    HW220403   1.496   3.662  12.510 -1.3572 -1.9072 -0.5608
 2981SOL     OW20404   0.891   2.889   5.228 -0.2100 -0.3791  0.6552
 2981SOL    HW120405   0.952   2.939   5.174 -2.4788 -0.2910 -1.8310
 2981SOL    HW220406   0.904   2.932   5.313 -0.2409 -1.5281  1.2485
 2982SOL     OW20407   0.714   0.509  10.303 -0.4889 -1.0678 -1.0414
 2982SOL    HW120408   0.674   0.459  10.373 -0.4113  0.4905  0.1157
 2982SOL    HW220409   0.808   0.507  10.319  0.0342 -3.2011 -4.4314
 2983SOL     OW20410   3.711   0.192   9.589 -0.0108 -0.4889  0.1744
 2983SOL    HW120411   3.617   0.174   9.593  0.0496 -0.9547 -0.4260
 2983SOL    HW220412   3.746   0.145   9.513  1.6117  2.0003 -0.6286
 2984SOL     OW20413   4.134   3.412   2.704  0.4110  0.4140 -0.2816
 2984SOL    HW120414   4.090   3.451   2.779 -1.1538 -0.6401 -0.6607
 2984SOL    HW220415   4.122   3.317   2.710  1.5812  0.1822 -1.4064
 2985SOL     OW20416   2.311   4.415   8.479 -0.3063 -0.3183 -0.7738
 2985SOL    HW120417   2.292   4.474   8.551 -2.6279 -1.2061 -0.6545
 2985SOL    HW220418   2.347   4.485   8.424 -2.1128  0.2532 -1.2292
 2986SOL     OW20419   4.713   3.653  12.340 -0.3654 -0.1235  0.3947
 2986SOL    HW120420   0.036   3.571  12.355 -1.1137 -0.8083 -1.0234
 2986SOL    HW220421   0.054   3.711  12.302 -1.3049 -0.1756 -1.2876
 2987SOL     OW20422   0.110   3.773  16.882  0.1396  0.3641  0.1853
 2987SOL    HW120423   0.104   3.697  16.940  4.4848 -0.2778 -0.1549
 2987SOL    HW220424   0.127   3.733  16.797 -0.5715  1.1932 -0.3451
 2988SOL     OW20425   3.568   1.918  13.095  0.3504 -0.2828  0.1789
 2988SOL    HW120426   3.622   1.866  13.035  0.6386  0.8198 -0.5114
 2988SOL    HW220427   3.499   1.852  13.104  0.4474 -0.1931  1.7096
 2989SOL     OW20428   1.529   4.652   3.937 -0.1599  0.0296 -0.3629
 2989SOL    HW120429   1.584   0.001   3.908  1.4490 -0.6136  0.9958
 2989SOL    HW220430   1.555   4.639   4.029 -0.6333 -0.7674 -0.3464
 2990SOL     OW20431   3.204   0.083   7.188 -0.2054 -0.5179 -0.6566
 2990SOL    HW120432   3.172   4.720   7.166  3.6978 -1.6194 -2.0762
 2990SOL    HW220433   3.284   0.058   7.235 -0.6486 -0.1044  0.3014
 2991SOL     OW20434   3.565   0.617  15.963 -0.2601  0.1084 -0.5003
 2991SOL    HW120435   3.566   0.522  15.973 -1.6236  0.1430  0.0512
 2991SOL    HW220436   3.616   0.633  15.884 -0.1191  0.0748 -0.4158
 2992SOL     OW20437   4.237   3.746   4.108  0.5566  0.0499  0.0630
 2992SOL    HW120438   4.168   3.738   4.041  0.4957  0.0315  0.1276
 2992SOL    HW220439   4.293   3.800   4.053 -0.0216  1.6425  1.0259
 2993SOL     OW20440   2.955   1.284  11.263  0.8717 -0.0362 -0.2087
 2993SOL    HW120441   2.994   1.248  11.183 -1.0139  0.8353 -1.5253
 2993SOL    HW220442   3.015   1.351  11.295  0.5572 -0.1979  0.7310
 2994SOL     OW20443   3.005   4.140   7.583  0.0988  0.5371  0.1523
 2994SOL    HW120444   2.911   4.121   7.587  0.2828 -0.2707  0.6985
 2994SOL    HW220445   3.042   4.110   7.666  1.3125  0.6957 -0.3315
 2995SOL     OW20446   4.562   3.358   1.769 -0.3558 -0.1554  0.2312
 2995SOL    HW120447   4.503   3.286   1.747  0.6153 -0.1255 -2.4988
 2995SOL    HW220448   4.527   3.440   1.736 -0.2792 -1.4606 -3.1260
 2996SOL     OW20449   2.421   0.089   3.797 -0.3190  0.2704  0.4789
 2996SOL    HW120450   2.357   0.141   3.845  1.5948  1.1242  2.1191
 2996SOL    HW220451   2.396   4.723   3.813  0.0351 -0.4451 -2.9307
 2997SOL     OW20452   2.267   0.613  16.936 -0.8045  0.0720  0.2695
 2997SOL    HW120453   2.294   0.578  16.851  1.0267 -0.1424  0.9319
 2997SOL    HW220454   2.306   0.548  16.994 -0.3644  0.6234  0.5900
 2998SOL     OW20455   3.068   2.254   1.265 -0.2137 -0.1959 -0.7312
 2998SOL    HW120456   3.085   2.162   1.284  1.0480  0.6318  2.2545
 2998SOL    HW220457   3.056   2.255   1.170  3.0205 -0.1980 -1.1418
 2999SOL     OW20458   3.953   0.105   5.940  0.0817 -0.0503  0.8082
 2999SOL    HW120459   3.971   0.041   6.009  1.6510  1.3262  1.6789
 2999SOL    HW220460   3.958   0.036   5.874  0.8248 -0.1085  0.9188
 3000SOL     OW20461   0.368   2.611   7.733 -0.1084 -0.4142  0.8624
 3000SOL    HW120462   0.295   2.562   7.695  0.0447  0.2779 -0.2889
 3000SOL    HW220463   0.354   2.700   7.703  0.6351 -0.3566  0.6858
 3001SOL     OW20464   4.640   4.721   6.530  0.5027  0.4481  0.3687
 3001SOL    HW120465   4.569   0.045   6.572  1.9220  1.4149  1.6493
 3001SOL    HW220466   4.718   0.030   6.575 -0.0945  1.0640  0.9450
 3002SOL     OW20467   4.463   2.139   1.341  0.6712 -0.3309 -0.9002
 3002SOL    HW120468   4.467   2.086   1.261  1.5178 -1.5491 -0.0376
 3002SOL    HW220469   4.556   2.142   1.361  0.1764 -0.4809  1.4412
 3003SOL     OW20470   0.098   2.131   5.205  0.7076  0.0793 -0.5710
 3003SOL    HW120471   0.040   2.178   5.145  1.4499 -0.5095 -1.7257
 3003SOL    HW220472   0.050   2.130   5.288 -1.0599 -0.4352 -1.5855
 3004SOL     OW20473   4.252   1.956   6.836 -0.0722 -0.2438 -0.2604
 3004SOL    HW120474   4.223   2.023   6.898  2.2163  0.6061 -0.1007
 3004SOL    HW220475   4.194   1.883   6.859 -1.1268  0.8553  0.5377
 3005SOL     OW20476   2.809   0.164   1.267 -0.0535  0.8614 -0.1715
 3005SOL    HW120477   2.878   0.214   1.223 -0.2504  1.7265  0.4984
 3005SOL    HW220478   2.853   0.079   1.264  2.3694  2.1565 -1.8280
 3006SOL     OW20479   2.723   0.863   8.739  0.4550 -0.0091  0.4708
 3006SOL    HW120480   2.779   0.821   8.804  0.6638  0.5696  0.6732
 3006SOL    HW220481   2.644   0.813   8.759 -0.1354  1.1895  1.1364
 3007SOL     OW20482   1.450   3.285   8.074  0.1753 -0.1746  0.7755
 3007SOL    HW120483   1.384   3.354   8.070  1.1267  0.7470  0.9750
 3007SOL    HW220484   1.490   3.286   7.987 -0.1498  0.1506  0.6271
 3008SOL     OW20485   2.722   1.746   0.104 -0.5705 -0.2578 -0.1018
 3008SOL    HW120486   2.803   1.696   0.093 -2.1141 -2.9256  0.7693
 3008SOL    HW220487   2.699   1.738   0.196 -0.7091  1.8407  0.0455
 3009SOL     OW20488   2.003   1.311   8.628  0.1545  0.6323  0.1678
 3009SOL    HW120489   1.978   1.391   8.674  3.1248  0.6269  1.8159
 3009SOL    HW220490   1.995   1.244   8.696  2.4092  0.3591  0.1709
 3010SOL     OW20491   3.933   1.533   5.752 -0.1777 -0.4580  0.4900
 3010SOL    HW120492   3.933   1.437   5.753  0.9296 -0.4477  0.6653
 3010SOL    HW220493   3.913   1.551   5.660  0.5586  0.4052  0.5057
 3011SOL     OW20494   3.974   3.524   7.662 -0.1777 -0.0818 -0.2746
 3011SOL    HW120495   3.989   3.471   7.741 -1.0650  0.1504  0.0422
 3011SOL    HW220496   4.063   3.555   7.644 -0.8589  1.6736 -0.5460
 3012SOL     OW20497   1.861   2.633   8.610  0.7671  0.1210  0.2752
 3012SOL    HW120498   1.857   2.665   8.701 -0.3759  0.3180  0.1604
 3012SOL    HW220499   1.816   2.549   8.613  1.0615  0.0421  2.5407
 3013SOL     OW20500   1.777   1.276   7.331  0.1966  0.6923 -0.6837
 3013SOL    HW120501   1.786   1.274   7.426 -3.1476 -0.0793 -0.3719
 3013SOL    HW220502   1.693   1.234   7.312 -0.0224  0.8056  0.0358
 3014SOL     OW20503   3.510   0.189   8.888  0.1620  0.3902 -0.5043
 3014SOL    HW120504   3.471   0.276   8.878 -0.1182  0.2668 -0.4866
 3014SOL    HW220505   3.600   0.213   8.868  1.2184 -2.0773  1.3092
 3015SOL     OW20506   1.988   1.490   2.340 -0.1687  0.1856 -0.2297
 3015SOL    HW120507   2.019   1.405   2.311  0.1920  0.6342 -1.1626
 3015SOL    HW220508   1.982   1.548   2.265  0.8451  0.9119  0.2607
 3016SOL     OW20509   4.661   3.372   9.519 -0.4803  0.8614  0.0056
 3016SOL    HW120510   4.632   3.349   9.430 -1.1591 -0.0366  0.4635
 3016SOL    HW220511   4.576   3.365   9.562  0.0783  0.9142  1.0983
 3017SOL     OW20512   1.806   2.523   6.802  0.4772  0.0615  0.0545
 3017SOL    HW120513   1.856   2.548   6.725  1.0936 -0.0228  0.4262
 3017SOL    HW220514   1.790   2.432   6.777  1.3446 -0.3937  1.1496
 3018SOL     OW20515   3.829   3.952   7.997 -0.4103 -0.2036 -0.1395
 3018SOL    HW120516   3.810   3.865   7.961  1.4174 -1.3119  1.5923
 3018SOL    HW220517   3.909   3.971   7.948 -0.9185  2.0611 -0.0651
 3019SOL     OW20518   3.840   4.064   6.648  0.3133 -0.3353 -0.4867
 3019SOL    HW120519   3.896   4.114   6.708 -0.5715  0.7070 -0.5302
 3019SOL    HW220520   3.890   4.078   6.568 -0.7217 -3.2752 -1.6675
 3020SOL     OW20521   4.413   3.160   1.405  0.7006  0.2539  0.6521
 3020SOL    HW120522   4.397   3.069   1.379 -1.6144  1.2130 -1.1985
 3020SOL    HW220523   4.368   3.211   1.338 -1.9894 -1.3013  1.2799
 3021SOL     OW20524   1.111   0.407   3.939 -0.0110  0.0399 -0.3302
 3021SOL    HW120525   1.159   0.479   3.898 -0.1859  0.9628  1.0808
 3021SOL    HW220526   1.155   0.415   4.024 -0.0259  0.7669 -0.3902
 3022SOL     OW20527   0.609   3.221   4.126 -0.7043 -0.4882 -0.2784
 3022SOL    HW120528   0.697   3.191   4.146 -0.6399 -0.5926 -0.7276
 3022SOL    HW220529   0.587   3.273   4.204 -0.7915  0.2196 -0.7667
 3023SOL     OW20530   1.884   2.219  12.413 -0.1336 -0.5498  0.0081
 3023SOL    HW120531   1.850   2.135  12.383  1.0083  0.0800 -3.0208
 3023SOL    HW220532   1.944   2.191  12.482  0.4166  0.4349 -0.0635
 3024SOL     OW20533   0.617   3.902   3.213  0.3268 -0.2126  0.3153
 3024SOL    HW120534   0.604   3.991   3.245 -2.0058 -0.7459  0.8127
 3024SOL    HW220535   0.673   3.909   3.136  0.9712 -1.3574  0.6703
 3025SOL     OW20536   1.421   3.126   8.389 -0.2337 -0.3502  0.0364
 3025SOL    HW120537   1.403   3.057   8.452 -0.3610 -1.1676 -0.8872
 3025SOL    HW220538   1.328   3.149   8.387 -0.1511 -0.1705 -2.2179
 3026SOL     OW20539   2.577   4.319   1.290 -0.4445  0.1866 -0.1586
 3026SOL    HW120540   2.559   4.393   1.232 -3.5364  0.1686  0.7749
 3026SOL    HW220541   2.520   4.253   1.250 -0.4603 -0.5261  1.0338
 3027SOL     OW20542   2.362   1.962   7.459 -0.1732  0.9530 -0.4592
 3027SOL    HW120543   2.276   1.998   7.436 -0.7385 -0.6862 -0.9128
 3027SOL    HW220544   2.419   2.019   7.408  1.3805 -0.2873 -0.1017
 3028SOL     OW20545   2.129   2.383   9.092  0.3537 -0.2385  0.4152
 3028SOL    HW120546   2.181   2.334   9.028 -0.2897 -1.1509  0.5946
 3028SOL    HW220547   2.148   2.477   9.089  2.9448 -0.8145 -1.7327
 3029SOL     OW20548   2.158   4.360  16.254 -0.8005 -0.2456 -0.3002
 3029SOL    HW120549   2.089   4.419  16.284 -0.5448  0.6881 -1.5376
 3029SOL    HW220550   2.205   4.349  16.337 -1.6294 -1.8882 -0.0597
 3030SOL     OW20551   3.850   1.022  13.764  0.2357 -0.2435  0.0104
 3030SOL    HW120552   3.818   0.937  13.734 -0.6191  0.4141 -0.9831
 3030SOL    HW220553   3.767   1.070  13.755  0.5553  0.7524  2.4004
 3031SOL     OW20554   0.925   3.148   1.541 -0.0710 -0.2527 -0.3295
 3031SOL    HW120555   0.954   3.224   1.591  1.2594 -0.4631 -0.7707
 3031SOL    HW220556   0.973   3.076   1.582 -1.8384 -1.5158 -0.5040
 3032SOL     OW20557   0.534   3.150  14.961 -0.1028  0.2665 -0.1709
 3032SOL    HW120558   0.458   3.204  14.939  1.2308  1.2135 -2.4489
 3032SOL    HW220559   0.498   3.075  15.009  0.5939  0.4923  0.6976
 3033SOL     OW20560   0.927   0.251   3.207  0.1497  0.4424  0.7719
 3033SOL    HW120561   0.945   0.163   3.242  0.0101 -0.2331 -0.8731
 3033SOL    HW220562   1.010   0.262   3.161  1.4503 -0.6815  2.8253
 3034SOL     OW20563   3.446   2.010   5.831  0.7477  0.8237 -0.5466
 3034SOL    HW120564   3.462   1.974   5.743 -0.2675  0.0107 -0.3893
 3034SOL    HW220565   3.386   2.075   5.795  1.6583  1.3332 -1.1708
 3035SOL     OW20566   1.340   4.052   9.038 -0.0355 -0.1317 -0.7186
 3035SOL    HW120567   1.418   4.095   9.003  0.8807 -0.7652  0.5321
 3035SOL    HW220568   1.268   4.114   9.032 -0.5294 -0.5724  0.6170
 3036SOL     OW20569   1.743   0.100   2.155  0.5413  0.4306  0.5901
 3036SOL    HW120570   1.770   0.117   2.245  1.6614  0.0084  0.3366
 3036SOL    HW220571   1.683   0.026   2.165 -0.2522  0.9138 -0.6122
 3037SOL     OW20572   1.869   4.048   6.790 -0.1347  0.0694  0.4343
 3037SOL    HW120573   1.810   4.050   6.715  1.8847  1.2170 -1.1241
 3037SOL    HW220574   1.846   3.962   6.825  4.3697 -1.0989  0.4469
 3038SOL     OW20575   2.388   2.725   8.327  0.3158 -0.2732  0.2220
 3038SOL    HW120576   2.300   2.690   8.310 -0.3964  1.9102 -0.6215
 3038SOL    HW220577   2.400   2.678   8.409 -2.2816  1.2226  1.4705
 3039SOL     OW20578   2.976   0.802  11.899  0.2123 -0.9957 -0.4298
 3039SOL    HW120579   2.904   0.741  11.914  0.6595 -1.9021 -1.9642
 3039SOL    HW220580   2.931   0.885  11.882  0.6801 -0.6423  0.0618
 3040SOL     OW20581   0.833   1.060   6.092 -0.3506  0.3163  0.5824
 3040SOL    HW120582   0.860   1.151   6.081 -0.3704  0.3673  0.9647
 3040SOL    HW220583   0.893   1.025   6.158  0.2097  0.4837  0.1656
 3041SOL     OW20584   0.523   2.806   1.834 -0.0542 -0.0389 -0.0354
 3041SOL    HW120585   0.610   2.845   1.824  0.5507 -2.0915 -2.6568
 3041SOL    HW220586   0.489   2.787   1.746 -1.3448 -0.5111  0.5506
 3042SOL     OW20587   0.852   4.662   4.886 -0.1573  0.5385  0.5275
 3042SOL    HW120588   0.785   4.629   4.827 -0.0076  0.7150  0.2586
 3042SOL    HW220589   0.898   0.004   4.836  1.6617 -1.1136 -0.0116
 3043SOL     OW20590   1.373   2.980  11.190 -0.3123  0.4598  0.1381
 3043SOL    HW120591   1.289   2.952  11.155 -0.9227  0.6489  1.4603
 3043SOL    HW220592   1.398   2.896  11.228  0.8277  0.3596 -0.8486
 3044SOL     OW20593   1.129   2.646   8.174 -0.1928  0.7756  0.1044
 3044SOL    HW120594   1.155   2.730   8.211 -1.0749  0.3028  1.7665
 3044SOL    HW220595   1.035   2.648   8.190  0.1511  0.4540  2.2103
 3045SOL     OW20596   0.485   2.845   7.424 -0.4590 -0.4522  0.2433
 3045SOL    HW120597   0.529   2.891   7.496 -2.6305  1.6960  0.2141
 3045SOL    HW220598   0.421   2.785   7.464  0.4177 -1.0641  0.7331
 3046SOL     OW20599   3.116   2.374   8.726 -0.3815 -0.6227 -0.4077
 3046SOL    HW120600   3.057   2.440   8.762  1.6708  0.3072  1.2658
 3046SOL    HW220601   3.068   2.301   8.765  1.0216 -0.7127  1.1184
 3047SOL     OW20602   0.518   0.130   9.211  0.5429  0.5216  0.4747
 3047SOL    HW120603   0.598   0.178   9.193  1.3067 -0.7131  0.5373
 3047SOL    HW220604   0.554   0.043   9.190 -0.7674 -0.3448  1.8119
 3048SOL     OW20605   0.249   3.411   8.413 -0.3444 -0.8723 -0.5114
 3048SOL    HW120606   0.330   3.404   8.364  0.6683  0.5704  0.9580
 3048SOL    HW220607   0.273   3.357   8.488  0.3364  1.6695  1.0910
 3049SOL     OW20608   1.615   2.339  13.831 -0.4531 -0.2600 -0.0114
 3049SOL    HW120609   1.566   2.380  13.760 -0.1618 -0.8199 -0.5448
 3049SOL    HW220610   1.544   2.318  13.891 -0.5333 -0.2256 -0.0943
 3050SOL     OW20611   1.160   3.822  16.154  0.0248 -0.0971  0.0874
 3050SOL    HW120612   1.162   3.835  16.249  0.0877  0.8536 -0.0387
 3050SOL    HW220613   1.153   3.727  16.154  3.1065 -0.3105 -0.9465
 3051SOL     OW20614   3.143   2.902   9.120  0.7585  0.5799  0.2218
 3051SOL    HW120615   3.064   2.875   9.167  1.6583  0.9422  1.9603
 3051SOL    HW220616   3.200   2.828   9.140 -2.3751 -1.7418  0.6122
 3052SOL     OW20617   1.691   0.523   7.840  0.3263 -0.1701 -0.0992
 3052SOL    HW120618   1.707   0.467   7.764  1.4933  2.3015 -1.6764
 3052SOL    HW220619   1.774   0.515   7.887  0.0137 -3.1742 -0.0679
 3053SOL     OW20620   4.094   3.333   8.319  0.1668 -0.0694 -0.4041
 3053SOL    HW120621   4.043   3.335   8.399 -0.5394 -0.2391 -0.8552
 3053SOL    HW220622   4.104   3.427   8.304  1.5561  0.0075  1.0020
 3054SOL     OW20623   3.817   2.668   3.525 -0.2858 -0.3580  0.1657
 3054SOL    HW120624   3.874   2.612   3.577  0.4434  0.9094  0.7293
 3054SOL    HW220625   3.729   2.653   3.560 -1.0943  2.2325 -0.7654
 3055SOL     OW20626   1.079   0.105  13.687 -0.8624 -0.0022  0.1802
 3055SOL    HW120627   1.042   0.118  13.774 -2.9235 -0.0811 -0.6766
 3055SOL    HW220628   1.143   0.176  13.683 -1.8387  0.8814  0.3367
 3056SOL     OW20629   3.253   4.699   2.660  0.1819 -0.6644  0.3835
 3056SOL    HW120630   3.179   0.035   2.658 -0.4136 -1.4157 -0.7258
 3056SOL    HW220631   3.240   4.648   2.740  0.4461  1.0632  1.5182
 3057SOL     OW20632   0.155   1.486   8.205  0.0781 -0.4237  0.3184
 3057SOL    HW120633   0.207   1.560   8.173 -0.2705 -0.4629 -0.3381
 3057SOL    HW220634   0.067   1.522   8.200  0.5746  0.5727 -1.3529
 3058SOL     OW20635   1.770   3.506   5.823  0.5606 -0.2690  0.6809
 3058SOL    HW120636   1.766   3.587   5.772  2.1093  0.5590  1.8778
 3058SOL    HW220637   1.737   3.443   5.760 -0.3501 -0.4139  1.2947
 3059SOL     OW20638   4.630   1.000   6.919 -0.4770 -0.2799  0.4666
 3059SOL    HW120639   4.618   0.924   6.862  3.1399  0.9583 -1.9368
 3059SOL    HW220640   4.691   0.976   6.989  0.8206 -1.3713 -1.0206
 3060SOL     OW20641   2.574   1.061   9.066  0.0050  0.5386 -0.4622
 3060SOL    HW120642   2.533   1.010   8.996 -1.7354 -0.8593  1.5647
 3060SOL    HW220643   2.657   1.014   9.054  0.1316  1.2510 -2.3723
 3061SOL     OW20644   3.708   0.372  17.462  0.6234 -0.1238 -0.0877
 3061SOL    HW120645   3.720   0.338  17.551 -0.1558  1.3152  0.5704
 3061SOL    HW220646   3.798   0.394  17.438  0.7411  1.6048  1.9268
 3062SOL     OW20647   2.234   3.052   8.393 -0.0124  0.0853 -0.1812
 3062SOL    HW120648   2.274   3.009   8.469  1.0328  2.3556  0.5520
 3062SOL    HW220649   2.144   3.053   8.424  0.5127  0.5189  1.2831
 3063SOL     OW20650   1.835   2.906   4.231 -0.0144 -0.0119 -0.0990
 3063SOL    HW120651   1.820   2.978   4.293  0.5554 -0.4251  0.5156
 3063SOL    HW220652   1.767   2.843   4.255 -2.5441  3.7590  2.7262
 3064SOL     OW20653   0.054   2.725   4.857  0.2119 -0.1408  0.5999
 3064SOL    HW120654   0.130   2.746   4.803  0.2625  1.6250  1.3685
 3064SOL    HW220655   4.716   2.708   4.787  2.3830  0.4072 -1.4830
 3065SOL     OW20656   2.743   4.230   5.903  0.5411  0.1511 -0.5459
 3065SOL    HW120657   2.763   4.292   5.833  2.4401  1.2398  0.9933
 3065SOL    HW220658   2.729   4.148   5.855 -1.4274 -0.0157  0.2956
 3066SOL     OW20659   3.002   0.359   8.353  0.2839 -0.5743 -0.1544
 3066SOL    HW120660   2.968   0.300   8.287 -0.6617 -0.0422 -0.1508
 3066SOL    HW220661   2.920   0.408   8.367  0.1500 -0.5954 -0.8973
 3067SOL     OW20662   1.338   0.133   0.859 -0.6023  0.3424 -0.0488
 3067SOL    HW120663   1.385   0.050   0.869 -0.5856 -0.2099 -4.6005
 3067SOL    HW220664   1.250   0.107   0.835 -0.1584 -1.1444 -0.0667
 3068SOL     OW20665   0.018   0.707   8.693  0.5600 -0.5074 -0.3168
 3068SOL    HW120666   0.030   0.658   8.612  1.1391  1.8765 -1.6734
 3068SOL    HW220667   0.060   0.791   8.673 -2.0472  0.4491 -1.7740
 3069SOL     OW20668   2.372   2.950   8.600 -0.4880 -0.3802  0.0579
 3069SOL    HW120669   2.320   2.872   8.620 -1.6945  0.7582  1.3489
 3069SOL    HW220670   2.418   2.958   8.684  1.4264 -1.6340 -0.8739
 3070SOL     OW20671   3.989   4.018   6.063 -0.3235 -0.1624  0.2404
 3070SOL    HW120672   3.906   4.011   6.110  0.0827 -2.3534  0.6244
 3070SOL    HW220673   3.993   3.939   6.009  1.7444  1.1389 -1.4731
 3071SOL     OW20674   4.138   2.813   8.764 -0.7239  0.3838 -0.2328
 3071SOL    HW120675   4.198   2.770   8.703 -2.8528 -1.9544 -0.6789
 3071SOL    HW220676   4.135   2.733   8.818  1.0591  0.3215 -0.2269
 3072SOL     OW20677   3.541   3.445  10.894  0.1032  0.4598  0.3495
 3072SOL    HW120678   3.621   3.396  10.877  1.4104  1.4053  3.8373
 3072SOL    HW220679   3.557   3.469  10.985  1.0778 -0.5502  0.4420
 3073SOL     OW20680   3.467   1.666   1.500 -0.2431 -0.0367  0.7275
 3073SOL    HW120681   3.419   1.680   1.418 -2.0029  0.1927  1.7825
 3073SOL    HW220682   3.412   1.596   1.536  0.7530 -0.5756  1.1789
 3074SOL     OW20683   2.898   3.170   0.859  0.3639  0.3257 -0.1966
 3074SOL    HW120684   2.819   3.222   0.841 -1.5025 -2.1482  0.8293
 3074SOL    HW220685   2.891   3.152   0.953  1.4603  0.5026 -0.0809
 3075SOL     OW20686   0.054   1.903  15.195  0.5946 -0.2070 -0.1564
 3075SOL    HW120687   0.070   1.983  15.245 -1.4985 -0.2960  0.6470
 3075SOL    HW220688   0.039   1.942  15.109  0.0992  0.3467  0.1838
 3076SOL     OW20689   4.130   2.752   5.345 -0.2863 -0.1351  0.3386
 3076SOL    HW120690   4.089   2.718   5.266  0.4700  1.9500 -0.9688
 3076SOL    HW220691   4.053   2.788   5.390 -1.3732 -1.6658 -0.3189
 3077SOL     OW20692   4.328   4.080  16.711 -0.8382  0.2709 -0.2303
 3077SOL    HW120693   4.280   4.163  16.716 -1.0158  0.1637 -0.1668
 3077SOL    HW220694   4.364   4.097  16.624  2.8987 -2.8167  0.7258
 3078SOL     OW20695   3.324   2.477  12.216 -0.3467  0.5152 -0.2048
 3078SOL    HW120696   3.310   2.480  12.311 -1.9332 -0.2656 -0.4059
 3078SOL    HW220697   3.368   2.392  12.214  1.6044  1.5648 -1.3622
 3079SOL     OW20698   2.348   4.634   3.166 -0.1883 -0.2431 -0.7334
 3079SOL    HW120699   2.327   0.002   3.164  0.5530 -0.0976 -1.5157
 3079SOL    HW220700   2.398   4.636   3.248 -1.5333  0.8849  0.0546
 3080SOL     OW20701   4.654   2.268   6.931  0.0344  0.1561 -0.4814
 3080SOL    HW120702   4.621   2.179   6.944  0.7383 -0.3516 -2.2214
 3080SOL    HW220703   4.695   2.246   6.848 -0.5067  1.7704 -1.1699
 3081SOL     OW20704   1.272   4.256   1.209  0.3959  0.1720 -0.1396
 3081SOL    HW120705   1.346   4.280   1.153  0.6060  0.8195  0.4155
 3081SOL    HW220706   1.224   4.198   1.150  1.7394 -1.8321  0.7130
 3082SOL     OW20707   4.261   2.519   1.885  0.3692  0.0669 -0.2087
 3082SOL    HW120708   4.309   2.436   1.875  0.7104  0.1625  0.6093
 3082SOL    HW220709   4.340   2.572   1.880  1.7673 -1.9850  0.1032
 3083SOL     OW20710   2.275   0.161   9.444 -0.4649  0.0927 -0.4512
 3083SOL    HW120711   2.317   0.190   9.363  0.5375 -1.8115 -0.6321
 3083SOL    HW220712   2.272   0.247   9.486  0.3953  1.4942 -3.2533
 3084SOL     OW20713   4.023   2.056   2.796 -0.2517  0.1233 -0.3617
 3084SOL    HW120714   4.049   1.967   2.772  0.0753 -0.3280  1.6269
 3084SOL    HW220715   3.966   2.075   2.721 -0.1346 -0.5144 -0.6148
 3085SOL     OW20716   4.115   1.149   4.178  0.1262  0.2514  0.2502
 3085SOL    HW120717   4.180   1.220   4.181 -0.7016  0.9525  1.9277
 3085SOL    HW220718   4.089   1.152   4.270 -1.6685 -1.0395 -0.2298
 3086SOL     OW20719   1.873   0.667   1.877  0.3788  0.5666  0.2028
 3086SOL    HW120720   1.935   0.603   1.913 -2.0941 -1.5495  0.7104
 3086SOL    HW220721   1.929   0.698   1.806  1.2932 -2.0349 -0.2217
 3087SOL     OW20722   3.085   1.009   1.676 -0.4892  0.1049 -0.1354
 3087SOL    HW120723   3.084   0.967   1.591  0.5923 -0.8960  0.3465
 3087SOL    HW220724   3.112   0.939   1.736  3.5613  0.8090 -1.1675
 3088SOL     OW20725   0.578   3.315   3.617  0.4186 -0.2440 -0.2796
 3088SOL    HW120726   0.623   3.398   3.632 -2.0241  1.0117 -0.0410
 3088SOL    HW220727   0.593   3.283   3.707 -2.1905 -2.1340 -0.5205
 3089SOL     OW20728   3.041   1.173   2.203 -0.5412  0.2968 -0.0209
 3089SOL    HW120729   3.133   1.197   2.215 -0.9782  1.8876  0.0763
 3089SOL    HW220730   3.034   1.185   2.108 -1.2064  0.4523  0.0475
 3090SOL     OW20731   0.110   0.059   3.581 -0.1061 -0.5662  0.2214
 3090SOL    HW120732   0.143   0.023   3.498  0.5723 -1.4460  0.8719
 3090SOL    HW220733   0.061   4.711   3.620 -0.0766  0.7944  2.7868
 3091SOL     OW20734   1.485   0.572   7.658  0.3487 -0.3885  0.7673
 3091SOL    HW120735   1.558   0.527   7.614  1.2622  2.3392 -0.4706
 3091SOL    HW220736   1.518   0.556   7.746  1.9821  0.4377  0.3083
 3092SOL     OW20737   3.696   0.323  13.056 -0.2193 -0.6059  0.7478
 3092SOL    HW120738   3.649   0.393  13.102 -0.6148 -0.8842  0.7671
 3092SOL    HW220739   3.705   0.356  12.966  1.5093 -1.1914  0.7071
 3093SOL     OW20740   0.424   2.971   8.659 -0.4121  0.4416  0.0347
 3093SOL    HW120741   0.335   2.937   8.656 -0.1106 -0.2317 -1.6022
 3093SOL    HW220742   0.453   2.953   8.570 -0.0599  0.9743  0.0403
 3094SOL     OW20743   2.372   0.646  13.769 -0.5089 -0.2770 -0.0709
 3094SOL    HW120744   2.355   0.702  13.693  0.9389  2.3579  1.5635
 3094SOL    HW220745   2.296   0.652  13.827  0.7041  1.2209  1.3532
 3095SOL     OW20746   0.034   0.240  14.471  0.0895  0.0159  0.1955
 3095SOL    HW120747   0.061   0.277  14.555 -0.3072  1.5952 -0.3723
 3095SOL    HW220748   0.079   0.156  14.461 -0.1514  0.1043 -1.7165
 3096SOL     OW20749   1.870   2.334  16.935 -0.0068 -0.9527 -0.2672
 3096SOL    HW120750   1.806   2.383  16.987  0.6176  1.3599 -1.6906
 3096SOL    HW220751   1.880   2.250  16.980 -1.2693 -0.5571  0.7493
 3097SOL     OW20752   4.536   2.670  17.104 -0.3979 -0.2348 -0.3074
 3097SOL    HW120753   4.456   2.716  17.079  1.8967  3.0790 -1.5120
 3097SOL    HW220754   4.587   2.678  17.024  0.5028 -1.6305  0.1267
 3098SOL     OW20755   0.407   3.984   4.946 -0.0077  0.2546  0.0781
 3098SOL    HW120756   0.445   3.993   5.033 -0.9271  1.7171  0.3316
 3098SOL    HW220757   0.317   3.981   4.978 -0.2754  1.0844 -0.5926
 3099SOL     OW20758   2.641   1.704  11.317 -0.1485  0.3557 -0.4642
 3099SOL    HW120759   2.720   1.671  11.272  0.1029 -1.5996  1.4095
 3099SOL    HW220760   2.574   1.660  11.265  1.0093  0.4347 -2.0472
 3100SOL     OW20761   0.042   1.554   1.606 -0.1501 -0.3797  0.7737
 3100SOL    HW120762   0.078   1.465   1.604 -0.7165 -0.5951 -0.0915
 3100SOL    HW220763   4.679   1.523   1.628 -1.1056  0.6597 -1.5277
 3101SOL     OW20764   1.623   0.701  11.060  0.1387  0.1416  0.3441
 3101SOL    HW120765   1.643   0.617  11.102  0.2961 -0.5878 -1.2219
 3101SOL    HW220766   1.701   0.749  11.086  0.6358 -1.5095  1.9453
 3102SOL     OW20767   0.974   2.851   6.537 -0.2493 -0.3403  0.2442
 3102SOL    HW120768   0.979   2.797   6.458  1.3158 -0.6045  0.5135
 3102SOL    HW220769   0.926   2.798   6.601 -1.7185 -0.1620 -0.7156
 3103SOL     OW20770   0.018   1.321   3.988 -0.0924  0.2217  0.2682
 3103SOL    HW120771   0.101   1.301   3.944 -0.7789  0.6599 -1.2370
 3103SOL    HW220772   0.014   1.240   4.039  1.8779  2.2029  3.5488
 3104SOL     OW20773   0.145   2.195  11.687  0.1345  0.1566  0.3663
 3104SOL    HW120774   0.125   2.239  11.604 -0.6118  2.1394  1.5936
 3104SOL    HW220775   0.238   2.210  11.705 -0.3950 -0.0788  3.3863
 3105SOL     OW20776   3.835   1.279   1.439  0.1576 -0.2344 -0.2282
 3105SOL    HW120777   3.802   1.343   1.375 -2.1817 -1.1879  0.0230
 3105SOL    HW220778   3.783   1.303   1.515  0.5725 -2.1680  0.6609
 3106SOL     OW20779   2.941   4.101   4.783  0.1989 -0.1521  0.5522
 3106SOL    HW120780   2.911   4.123   4.695 -1.1757 -1.3582  0.7127
 3106SOL    HW220781   3.032   4.131   4.775  0.3129 -0.3067  1.2656
 3107SOL     OW20782   3.155   0.983   6.233 -0.7160  0.0975 -0.3326
 3107SOL    HW120783   3.189   0.898   6.258  0.0987  1.1395  2.1119
 3107SOL    HW220784   3.235   1.036   6.244  0.7240 -2.5843  1.8566
 3108SOL     OW20785   1.648   0.401   2.810  0.4673  0.6988  0.2639
 3108SOL    HW120786   1.599   0.433   2.734 -0.7458 -1.7069  0.0203
 3108SOL    HW220787   1.591   0.331   2.845 -1.5238  2.1159 -0.1220
 3109SOL     OW20788   3.415   1.392  13.461  0.1984  0.5817 -0.0252
 3109SOL    HW120789   3.330   1.434  13.472  0.3279  0.8488 -0.0524
 3109SOL    HW220790   3.403   1.310  13.509  1.0186  1.7255  2.1736
 3110SOL     OW20791   2.776   0.884   3.371 -0.1989  0.4037  0.2431
 3110SOL    HW120792   2.868   0.910   3.378  0.5236 -1.8045 -1.0036
 3110SOL    HW220793   2.778   0.789   3.357 -0.6482  0.2943  0.9381
 3111SOL     OW20794   0.098   1.552  10.233 -0.3054 -0.0947 -0.1936
 3111SOL    HW120795   0.148   1.578  10.311 -0.2872  0.1739 -0.2965
 3111SOL    HW220796   0.101   1.621  10.167  0.6363 -0.0708 -0.1338
 3112SOL     OW20797   0.314   1.474   8.897 -0.0577 -0.1543 -0.0635
 3112SOL    HW120798   0.391   1.417   8.898 -0.1259 -0.2333  0.9577
 3112SOL    HW220799   0.244   1.435   8.950 -1.2592 -1.1146 -2.3989
 3113SOL     OW20800   0.607   0.294  15.937  0.1192  0.0550 -0.1656
 3113SOL    HW120801   0.681   0.257  15.889 -0.1911 -0.2393 -0.4181
 3113SOL    HW220802   0.538   0.297  15.871 -1.8219 -0.5592  1.8217
 3114SOL     OW20803   2.152   0.860   8.972 -0.2531 -0.4170  0.4064
 3114SOL    HW120804   2.176   0.896   9.057 -0.2590  2.4454 -0.8184
 3114SOL    HW220805   2.057   0.865   8.979 -0.3893  0.9778 -2.3123
 3115SOL     OW20806   1.121   1.346   2.440  0.3967 -0.6106  0.3079
 3115SOL    HW120807   1.216   1.341   2.428  0.7557 -1.0985  3.2681
 3115SOL    HW220808   1.102   1.366   2.349  0.1950  0.0890  0.5051
 3116SOL     OW20809   2.188   4.092   2.653 -0.2454  0.5060  0.5736
 3116SOL    HW120810   2.194   4.039   2.732 -1.0208 -1.1241 -0.4620
 3116SOL    HW220811   2.173   4.019   2.593 -0.2696  1.5484 -0.6959
 3117SOL     OW20812   3.256   2.697   8.506  0.1155 -0.0711  0.1215
 3117SOL    HW120813   3.263   2.645   8.426  2.4344 -1.3933  1.2029
 3117SOL    HW220814   3.338   2.745   8.499 -0.0263 -0.1267 -1.8039
 3118SOL     OW20815   4.537   1.997   6.908  0.1640  0.2576 -0.5159
 3118SOL    HW120816   4.450   2.024   6.880  0.6492 -0.6073 -2.8295
 3118SOL    HW220817   4.535   1.910   6.869  1.7218 -0.0431  0.0614
 3119SOL     OW20818   3.281   2.942   9.471 -0.2685  0.3958 -0.1516
 3119SOL    HW120819   3.320   3.027   9.447 -0.0728  0.1272 -0.7937
 3119SOL    HW220820   3.197   2.954   9.427 -0.4850  2.8331  0.9052
 3120SOL     OW20821   2.758   4.058   4.992 -1.0197 -0.3355 -0.3231
 3120SOL    HW120822   2.799   3.977   5.024 -2.1588 -1.2359 -1.1404
 3120SOL    HW220823   2.824   4.084   4.927  1.8428 -4.6930  0.8255
 3121SOL     OW20824   4.553   2.703  10.116 -0.5414 -0.5871 -0.3724
 3121SOL    HW120825   4.521   2.670  10.199 -1.3296 -1.0203 -0.8512
 3121SOL    HW220826   4.626   2.752  10.154 -0.2752 -1.9142  0.7972
 3122SOL     OW20827   2.472   2.767  16.104  0.7014  0.1243  0.4922
 3122SOL    HW120828   2.524   2.842  16.076  1.2216 -0.9176 -1.3121
 3122SOL    HW220829   2.452   2.784  16.196  1.4509 -0.7317  0.8114
 3123SOL     OW20830   4.646   2.334   7.695  0.1522 -0.5313 -0.4160
 3123SOL    HW120831   4.584   2.317   7.624  0.7316  0.0680 -1.0730
 3123SOL    HW220832   4.671   2.247   7.725  1.8360 -0.3707 -1.3299
 3124SOL     OW20833   4.081   2.329   6.710  0.1438  0.2431  0.0974
 3124SOL    HW120834   4.172   2.302   6.704 -0.0650 -0.6867  1.0697
 3124SOL    HW220835   4.040   2.245   6.731  0.6780 -0.0036  0.1492
 3125SOL     OW20836   0.334   1.035   3.972 -0.1824  0.2652  0.5409
 3125SOL    HW120837   0.337   0.940   3.961 -0.0347  0.3473 -0.1077
 3125SOL    HW220838   0.375   1.044   4.058  1.3728  0.2975 -0.2158
 3126SOL     OW20839   1.306   2.398   1.485 -0.6218 -0.0442  0.1253
 3126SOL    HW120840   1.371   2.378   1.418 -2.4818 -1.7263 -1.1891
 3126SOL    HW220841   1.284   2.305   1.486 -1.5528  0.1542 -1.1339
 3127SOL     OW20842   4.224   3.681   6.596  1.0935 -0.6169 -0.3368
 3127SOL    HW120843   4.197   3.649   6.510  2.5638  2.0061 -1.7846
 3127SOL    HW220844   4.218   3.776   6.586  0.0507 -0.6618 -0.1785
 3128SOL     OW20845   2.477   2.103   6.057 -0.2156 -0.5497 -0.2995
 3128SOL    HW120846   2.475   2.115   6.152 -0.2510 -2.4627 -0.0519
 3128SOL    HW220847   2.534   2.028   6.040 -0.7771 -0.8306 -0.9456
 3129SOL     OW20848   3.655   0.633  17.696 -0.2323 -0.4789  0.0335
 3129SOL    HW120849   3.747   0.641   0.021  0.0147  2.0419 -1.6512
 3129SOL    HW220850   3.638   0.546   0.031  0.1819 -0.6804 -0.2627
 3130SOL     OW20851   1.002   4.372   6.513  0.1923 -0.6101 -0.3201
 3130SOL    HW120852   1.085   4.346   6.552  0.9543  0.2374 -1.3935
 3130SOL    HW220853   0.989   4.448   6.570  2.9857 -0.9963  0.8136
 3131SOL     OW20854   2.634   3.724   7.903  0.6056  0.3112 -0.0524
 3131SOL    HW120855   2.619   3.698   7.994  1.9813  1.0379  0.3725
 3131SOL    HW220856   2.709   3.783   7.904 -0.6354  1.9042 -0.1869
 3132SOL     OW20857   2.356   4.337   7.224 -0.4118  0.4946 -0.7660
 3132SOL    HW120858   2.350   4.314   7.316 -0.4893  1.5321 -0.5138
 3132SOL    HW220859   2.372   4.247   7.193 -2.0805 -0.3369  0.7313
 3133SOL     OW20860   4.107   1.334   1.293  0.7635  0.1044  0.0145
 3133SOL    HW120861   4.076   1.306   1.378  2.7390 -0.4272  0.5645
 3133SOL    HW220862   4.177   1.395   1.316 -0.3302  1.7657 -1.0338
 3134SOL     OW20863   1.532   1.378   4.241 -0.6292 -0.0506  0.1853
 3134SOL    HW120864   1.614   1.415   4.275  0.1959 -0.8967 -0.8959
 3134SOL    HW220865   1.534   1.395   4.147 -1.2606 -0.7327  0.0480
 3135SOL     OW20866   1.315   0.893   9.294  0.3792  0.2059 -0.5990
 3135SOL    HW120867   1.327   0.817   9.351  1.3929  0.1156 -0.9416
 3135SOL    HW220868   1.393   0.946   9.308  0.0581  0.6102 -0.3493
 3136SOL     OW20869   2.000   1.095   7.643  0.6613  0.2133  0.4485
 3136SOL    HW120870   2.016   1.105   7.737  3.4347 -1.1142  0.1058
 3136SOL    HW220871   2.004   1.000   7.636  1.6602  0.4169 -1.6395
 3137SOL     OW20872   3.389   1.098   9.614  0.6138 -0.0681 -0.4161
 3137SOL    HW120873   3.379   1.168   9.678  0.2294  1.1341 -1.7753
 3137SOL    HW220874   3.311   1.042   9.613 -0.6070  1.6479 -2.3635
 3138SOL     OW20875   4.038   4.560   6.430  0.1545  0.1159  0.0923
 3138SOL    HW120876   4.099   4.582   6.499  0.8965 -0.5133 -0.3593
 3138SOL    HW220877   4.085   4.483   6.399 -1.3957 -1.0372  0.5920
 3139SOL     OW20878   3.471   4.432   5.342 -0.3604  0.2593 -0.4328
 3139SOL    HW120879   3.478   4.342   5.311 -0.8554 -0.3175  1.1072
 3139SOL    HW220880   3.375   4.439   5.344 -0.3620 -0.2304  1.2998
 3140SOL     OW20881   2.876   3.799   8.321 -0.2119 -0.7109 -0.1942
 3140SOL    HW120882   2.802   3.741   8.335  0.7262 -1.2028  2.5769
 3140SOL    HW220883   2.826   3.857   8.262  2.0027 -0.2577 -1.6374
 3141SOL     OW20884   2.176   0.187  10.505  0.1674  0.0749 -0.5950
 3141SOL    HW120885   2.226   0.264  10.531  2.3078 -0.6013 -2.7464
 3141SOL    HW220886   2.092   0.222  10.476 -0.5979 -0.0032  1.5228
 3142SOL     OW20887   4.191   4.305   2.746 -0.2284 -0.7406 -0.4897
 3142SOL    HW120888   4.240   4.243   2.801 -1.1289 -2.9496 -2.1680
 3142SOL    HW220889   4.218   4.393   2.771  1.8891 -0.4749 -3.7395
 3143SOL     OW20890   4.467   3.345   6.105 -0.4530 -0.2362  0.0401
 3143SOL    HW120891   4.414   3.384   6.036  2.5227  1.4902 -1.2544
 3143SOL    HW220892   4.524   3.290   6.051  1.8803  0.8981  1.3511
 3144SOL     OW20893   0.064   1.407   4.350  0.0297  0.3344  0.1087
 3144SOL    HW120894   0.137   1.346   4.338 -0.3664  0.0189 -0.6511
 3144SOL    HW220895   0.039   1.384   4.440 -1.3668 -0.1499 -0.4114
 3145SOL     OW20896   1.590   2.761   2.438  0.2397 -0.5984 -0.0930
 3145SOL    HW120897   1.526   2.746   2.508  0.5441 -0.4132  0.2252
 3145SOL    HW220898   1.663   2.765   2.500  2.1840  4.5574 -2.7882
 3146SOL     OW20899   4.143   2.061   4.510  0.4959  0.3366  0.2871
 3146SOL    HW120900   4.167   1.990   4.569  3.2885 -0.3833 -1.6616
 3146SOL    HW220901   4.096   2.118   4.570 -1.8865 -1.1128 -0.2074
 3147SOL     OW20902   4.640   3.387   4.118 -0.0803  0.3749 -0.0991
 3147SOL    HW120903   4.705   3.394   4.048  0.5260  0.4004  0.4619
 3147SOL    HW220904   4.564   3.383   4.060 -0.1160 -1.6771  0.0937
 3148SOL     OW20905   3.938   0.773   3.626 -0.2401  0.2573  0.7335
 3148SOL    HW120906   4.001   0.751   3.695  1.1058 -0.7261 -0.8069
 3148SOL    HW220907   3.962   0.864   3.611 -0.1575 -0.1693 -1.7212
 3149SOL     OW20908   3.721   3.378   2.355 -0.5581 -0.3744  0.3663
 3149SOL    HW120909   3.748   3.469   2.370  0.7775 -0.5552 -0.9983
 3149SOL    HW220910   3.806   3.341   2.379 -1.1444 -3.1698 -1.8912
 3150SOL     OW20911   1.929   1.955   3.848  0.1327  0.1784  0.7090
 3150SOL    HW120912   1.861   1.926   3.909  1.1056 -0.1708  1.6379
 3150SOL    HW220913   1.875   2.023   3.806 -1.9593 -2.3330 -0.6724
 3151SOL     OW20914   1.275   1.898   2.754 -0.4841 -0.3943  0.0762
 3151SOL    HW120915   1.203   1.880   2.814  0.0254 -0.8277  0.5524
 3151SOL    HW220916   1.237   1.891   2.666  1.7307 -1.5662 -0.7807
 3152SOL     OW20917   3.761   0.777   5.656  0.0765  0.2756  0.0796
 3152SOL    HW120918   3.773   0.811   5.567  2.3932  0.4128  0.4338
 3152SOL    HW220919   3.810   0.838   5.711  1.8088 -0.8867 -0.1888
 3153SOL     OW20920   1.631   3.729   5.353  0.2146  0.4982 -0.4831
 3153SOL    HW120921   1.586   3.745   5.270  1.3314  0.8171 -1.0289
 3153SOL    HW220922   1.610   3.810   5.399  0.4645  0.4444 -0.2797
 3154SOL     OW20923   1.762   2.477   4.536 -0.3503  0.1897 -0.4001
 3154SOL    HW120924   1.710   2.512   4.608  0.0528  1.5616 -0.7860
 3154SOL    HW220925   1.695   2.426   4.489  0.0606 -0.7432  0.0395
 3155SOL     OW20926   0.735   4.686  13.292  0.5388 -0.4665 -0.2254
 3155SOL    HW120927   0.821   4.645  13.304  0.1470 -0.2417  3.5519
 3155SOL    HW220928   0.711   4.676  13.384  1.1515  1.4006  0.1196
 3156SOL     OW20929   3.257   2.964   6.972  0.5649  0.4084  0.0312
 3156SOL    HW120930   3.272   2.895   6.907  0.3389 -2.1888  2.7376
 3156SOL    HW220931   3.274   3.043   6.919  0.2166  0.8583  0.5890
 3157SOL     OW20932   1.038   3.402   1.595  0.3296  0.3942  0.0147
 3157SOL    HW120933   1.005   3.492   1.591 -1.7314 -0.3006  1.6030
 3157SOL    HW220934   1.094   3.393   1.672  0.3186  4.3349  0.4813
 3158SOL     OW20935   1.134   3.704   6.122  0.0239 -0.0550  0.1917
 3158SOL    HW120936   1.138   3.753   6.040 -0.3046 -1.4429 -0.6749
 3158SOL    HW220937   1.149   3.618   6.082 -1.1600 -0.2004  0.0640
 3159SOL     OW20938   2.020   0.749  16.914 -0.4581  0.2405 -0.1472
 3159SOL    HW120939   2.096   0.705  16.952 -1.2559  0.7400  2.0160
 3159SOL    HW220940   2.039   0.841  16.929 -0.1199  0.0845  0.4011
 3160SOL     OW20941   0.955   3.971   9.074  0.8319 -0.3761  0.2105
 3160SOL    HW120942   0.877   4.026   9.074  1.1237  0.0417  0.6098
 3160SOL    HW220943   0.945   3.942   9.164 -2.0978 -3.0104 -0.9590
 3161SOL     OW20944   0.241   0.699  15.719 -0.5385  0.1221 -0.5751
 3161SOL    HW120945   0.275   0.767  15.778 -0.6132 -0.1780 -0.1901
 3161SOL    HW220946   0.319   0.665  15.674  0.5000  0.5032  0.9411
 3162SOL     OW20947   4.482   2.054   2.399 -0.1951 -0.0213  0.1143
 3162SOL    HW120948   4.555   2.063   2.460 -0.9020 -0.1824  0.9876
 3162SOL    HW220949   4.465   1.961   2.411  1.7166 -0.4569 -0.5171
 3163SOL     OW20950   1.433   3.733   7.021  0.2441  0.0470  0.3045
 3163SOL    HW120951   1.481   3.784   6.956  0.6980  0.4479  0.9477
 3163SOL    HW220952   1.345   3.771   7.019  0.1963 -0.2113 -2.4202
 3164SOL     OW20953   1.345   1.553   3.940 -0.1616 -0.2462  0.1363
 3164SOL    HW120954   1.298   1.588   3.864 -1.0937  1.2173  1.3792
 3164SOL    HW220955   1.285   1.483   3.967 -2.0245  0.8568 -1.1537
 3165SOL     OW20956   0.693   4.077   7.213  0.2987 -0.0342  0.2613
 3165SOL    HW120957   0.657   4.048   7.129  2.5128 -0.4117 -0.5560
 3165SOL    HW220958   0.668   4.009   7.277 -0.6028  0.1369  0.0885
 3166SOL     OW20959   1.613   1.856   6.231  0.6561  0.2442  0.0405
 3166SOL    HW120960   1.652   1.927   6.179  0.0345 -0.8694 -1.9209
 3166SOL    HW220961   1.520   1.879   6.236  0.8225  1.0975 -0.8338
 3167SOL     OW20962   2.519   0.778   3.578 -0.3860 -0.2230 -0.2379
 3167SOL    HW120963   2.444   0.803   3.633  0.0453  1.2630 -0.3237
 3167SOL    HW220964   2.580   0.844   3.609 -0.2117 -1.2708  1.6615
 3168SOL     OW20965   0.145   3.098  12.378  0.3136  0.5174 -0.2939
 3168SOL    HW120966   0.143   3.054  12.293  0.7281 -2.7775  1.3872
 3168SOL    HW220967   0.109   3.032  12.438  0.1294 -1.7211 -2.8626
 3169SOL     OW20968   4.053   2.089   7.913  0.0055  0.4419 -0.5544
 3169SOL    HW120969   4.114   2.016   7.922 -0.3439  0.3169  0.9178
 3169SOL    HW220970   4.116   2.161   7.906  1.6418 -0.6868  2.4944
 3170SOL     OW20971   1.375   1.764   8.419 -0.2366 -0.7151  0.0944
 3170SOL    HW120972   1.302   1.749   8.358 -0.1848 -0.9967  0.1000
 3170SOL    HW220973   1.348   1.845   8.462 -0.0356  1.0352 -3.0744
 3171SOL     OW20974   2.817   3.425   4.758 -0.6396 -0.0714  0.4266
 3171SOL    HW120975   2.826   3.406   4.851  0.9801 -0.1426  0.2705
 3171SOL    HW220976   2.897   3.479   4.751 -0.3926 -0.7192 -1.8927
 3172SOL     OW20977   3.815   0.379   8.000 -0.5716 -0.2467  0.3466
 3172SOL    HW120978   3.866   0.308   8.039  0.4506  1.0880  1.4281
 3172SOL    HW220979   3.792   0.341   7.915 -0.4265 -2.5949  1.3320
 3173SOL     OW20980   0.667   2.132   9.673 -0.2321  0.0451 -0.1441
 3173SOL    HW120981   0.583   2.154   9.634 -0.7590 -1.0322  0.3979
 3173SOL    HW220982   0.673   2.038   9.688 -2.5658  0.0381  0.6391
 3174SOL     OW20983   2.113   3.523   9.178 -0.1854 -0.4777 -0.1814
 3174SOL    HW120984   2.066   3.566   9.250  0.0314 -1.0379  0.2938
 3174SOL    HW220985   2.080   3.569   9.101 -1.3880 -1.0211 -0.0044
 3175SOL     OW20986   3.255   3.837  11.117  0.2461 -0.0586 -0.0721
 3175SOL    HW120987   3.346   3.815  11.138 -0.8909 -2.0236  2.7042
 3175SOL    HW220988   3.238   3.766  11.057  0.9119  1.0013 -1.5184
 3176SOL     OW20989   2.087   0.566   9.081  0.5537  0.4420 -0.5389
 3176SOL    HW120990   2.060   0.636   9.142 -1.1724 -2.2621  1.8122
 3176SOL    HW220991   1.997   0.550   9.051  0.8436 -0.2087 -1.0438
 3177SOL     OW20992   0.850   1.177   1.789 -0.1729  0.5508 -0.2114
 3177SOL    HW120993   0.933   1.224   1.785  0.5747 -0.8436 -0.9556
 3177SOL    HW220994   0.873   1.098   1.839  0.1832 -0.4948 -2.0345
 3178SOL     OW20995   4.442   3.667   8.604 -0.0262 -0.1050  0.3730
 3178SOL    HW120996   4.389   3.674   8.683  1.2818 -2.0894  1.4423
 3178SOL    HW220997   4.487   3.587   8.632 -0.0122 -0.5283 -0.8428
 3179SOL     OW20998   3.446   3.489   0.715 -0.4549  0.0238 -0.0195
 3179SOL    HW120999   3.439   3.468   0.622  1.4065 -1.2630  0.1477
 3179SOL    HW221000   3.355   3.482   0.746 -0.5081  0.0931 -0.1607
 3180SOL     OW21001   3.435   1.218   2.021 -0.2414  0.6049 -0.0510
 3180SOL    HW121002   3.492   1.223   1.944  0.2893  0.0600  0.3160
 3180SOL    HW221003   3.396   1.306   2.024  0.9796  1.0634  2.5213
 3181SOL     OW21004   3.506   0.465  11.757  0.4186 -0.3093  0.2960
 3181SOL    HW121005   3.498   0.556  11.785 -1.5482  0.0286 -1.4233
 3181SOL    HW221006   3.420   0.434  11.783 -0.5373  0.0682 -2.4419
 3182SOL     OW21007   1.541   0.112   8.078  0.1306 -0.5174  0.2069
 3182SOL    HW121008   1.495   0.112   7.994  1.6747 -1.5490 -0.6451
 3182SOL    HW221009   1.494   0.180   8.126  1.5204 -0.4279  1.4409
 3183SOL     OW21010   4.434   3.122   8.372  0.2562 -0.1075  0.1166
 3183SOL    HW121011   4.523   3.114   8.338 -0.5771  1.6288 -2.4451
 3183SOL    HW221012   4.435   3.217   8.386 -0.3941 -0.1946  0.7413
 3184SOL     OW21013   4.123   0.529   7.850  0.6953  0.0574 -0.4997
 3184SOL    HW121014   4.040   0.576   7.858  1.2251  1.0864 -1.0417
 3184SOL    HW221015   4.100   0.436   7.844  2.5050 -0.4915  1.3464
 3185SOL     OW21016   1.985   1.226   4.836 -0.4299  0.2676  0.0412
 3185SOL    HW121017   1.942   1.310   4.853  0.6325  0.8883 -0.3480
 3185SOL    HW221018   1.947   1.170   4.904 -1.1816  1.3177  0.4905
 3186SOL     OW21019   3.900   2.351  16.512  0.4666 -0.5629  0.0307
 3186SOL    HW121020   3.962   2.349  16.585  2.6887 -1.2731 -1.8744
 3186SOL    HW221021   3.854   2.268  16.521 -1.1674  0.6966  3.1994
 3187SOL     OW21022   3.050   2.698   0.395  0.1681 -0.0867  0.3316
 3187SOL    HW121023   3.025   2.727   0.307 -3.6799 -0.3870  1.3046
 3187SOL    HW221024   3.032   2.781   0.439  0.6298 -0.6378  1.5530
 3188SOL     OW21025   1.109   0.358   6.364  0.0685  0.5261 -0.0441
 3188SOL    HW121026   1.188   0.305   6.366  0.4982  1.1778  0.3283
 3188SOL    HW221027   1.055   0.302   6.419  0.5230  1.3858  1.2757
 3189SOL     OW21028   1.495   0.673   6.829 -0.1304  0.7448  0.1566
 3189SOL    HW121029   1.520   0.584   6.803 -2.8690 -0.3905  1.4532
 3189SOL    HW221030   1.444   0.665   6.909 -0.5850  0.7460 -0.1300
 3190SOL     OW21031   2.559   1.683  10.725 -0.3766  0.1804 -0.0999
 3190SOL    HW121032   2.654   1.688  10.722 -0.3567 -0.7908 -1.0791
 3190SOL    HW221033   2.540   1.628  10.649  0.8868  2.5154 -2.0906
 3191SOL     OW21034   2.591   0.976  13.564  0.4066  0.1754 -0.6950
 3191SOL    HW121035   2.587   1.033  13.487 -2.2080 -0.9628 -1.4199
 3191SOL    HW221036   2.598   0.888  13.526  2.6522  0.4883 -1.0216
 3192SOL     OW21037   0.496   2.939  10.272 -0.0373  0.2783 -0.2090
 3192SOL    HW121038   0.487   2.882  10.348  2.3863  0.0893 -0.0394
 3192SOL    HW221039   0.574   2.902  10.231 -0.9160  0.5710 -2.1276
 3193SOL     OW21040   2.195   0.398   6.421 -0.9485 -0.6578 -0.6168
 3193SOL    HW121041   2.117   0.440   6.386  0.1314  0.5849 -1.5390
 3193SOL    HW221042   2.219   0.350   6.342 -1.8700 -0.9235 -0.7352
 3194SOL     OW21043   1.136   2.945  14.696 -0.4822  0.2824 -0.1900
 3194SOL    HW121044   1.137   2.943  14.792 -1.0054 -2.8004 -0.2325
 3194SOL    HW221045   1.046   2.912  14.685 -0.5412  0.8478 -1.3310
 3195SOL     OW21046   3.496   1.152   6.603 -0.1169 -0.3602 -0.1177
 3195SOL    HW121047   3.496   1.130   6.697 -0.1008  1.1692  0.2508
 3195SOL    HW221048   3.404   1.172   6.585 -0.5471  0.3272  2.7199
 3196SOL     OW21049   1.427   0.164  10.679  0.8974  0.4647 -0.2565
 3196SOL    HW121050   1.465   0.246  10.709  0.5973  0.8868 -1.0363
 3196SOL    HW221051   1.423   0.176  10.585 -3.0978  0.8925 -0.0477
 3197SOL     OW21052   4.045   2.910   1.448  0.0321 -0.3820  0.0825
 3197SOL    HW121053   4.004   2.997   1.448  2.0755  0.5569 -4.9295
 3197SOL    HW221054   3.987   2.839   1.421  0.1453 -0.4239 -0.0476
 3198SOL     OW21055   0.954   1.655   7.365 -0.1815 -0.3545 -0.1014
 3198SOL    HW121056   1.014   1.712   7.316 -1.0239 -0.6512 -1.4888
 3198SOL    HW221057   0.876   1.711   7.374 -1.5958 -2.3803  0.2377
 3199SOL     OW21058   3.528   0.412  16.748 -0.4747  0.1923 -0.8082
 3199SOL    HW121059   3.547   0.379  16.660  3.2741  2.6140 -0.8902
 3199SOL    HW221060   3.603   0.386  16.802 -0.6174  1.9271  0.1829
 3200SOL     OW21061   1.421   0.624  10.358  0.5143  0.3032  0.3805
 3200SOL    HW121062   1.347   0.573  10.391  0.8516 -1.0006 -0.8825
 3200SOL    HW221063   1.402   0.710  10.395 -0.1781  0.6348 -0.7781
 3201SOL     OW21064   1.096   0.131  11.150  0.4744  0.6219  0.3212
 3201SOL    HW121065   1.163   0.071  11.119 -3.7111 -3.4269 -0.9306
 3201SOL    HW221066   1.023   0.073  11.128  0.9074 -0.3963  1.5441
 3202SOL     OW21067   4.116   0.216   3.840  0.2929 -0.1624  0.0615
 3202SOL    HW121068   4.197   0.197   3.887  0.7350  2.2094  0.2368
 3202SOL    HW221069   4.063   0.138   3.856  0.7019 -0.0948  1.8109
 3203SOL     OW21070   2.694   2.776  12.337  0.2276 -0.3296 -0.0356
 3203SOL    HW121071   2.617   2.743  12.382  2.8423 -2.0650  3.1696
 3203SOL    HW221072   2.658   2.864  12.324  0.2876 -0.3001 -0.0009
 3204SOL     OW21073   1.735   4.497  12.354 -0.4655  0.4296 -0.3275
 3204SOL    HW121074   1.772   4.419  12.312  1.2740  1.7605 -1.2301
 3204SOL    HW221075   1.646   4.507  12.318 -0.8864 -1.9057  0.0587
 3205SOL     OW21076   1.864   0.550  16.656  0.4761  0.5036  0.0692
 3205SOL    HW121077   1.811   0.503  16.591  0.7576  0.6775 -0.2911
 3205SOL    HW221078   1.840   0.496  16.731  0.3953  0.0730 -0.2612
 3206SOL     OW21079   3.381   1.871   0.050 -0.1436  0.1287 -0.3841
 3206SOL    HW121080   3.422   1.819  17.680 -2.7096 -1.9443 -0.3459
 3206SOL    HW221081   3.422   1.955   0.033 -0.4427  0.2106 -0.6962
 3207SOL     OW21082   0.383   0.542  12.170 -0.1317 -0.0963  0.5447
 3207SOL    HW121083   0.373   0.450  12.197 -0.0522  0.6244  2.9840
 3207SOL    HW221084   0.316   0.591  12.217 -0.2850  0.6749 -0.4659
 3208SOL     OW21085   2.332   0.035   2.869 -0.1256  0.6855  0.0730
 3208SOL    HW121086   2.358   4.677   2.908 -0.2000  0.8815  0.5324
 3208SOL    HW221087   2.240   0.044   2.894 -0.9576 -1.6983 -2.0563
 3209SOL     OW21088   1.665   0.459   2.041  0.2197 -0.4936 -0.2960
 3209SOL    HW121089   1.710   0.519   2.100 -0.5386  0.4191 -0.6313
 3209SOL    HW221090   1.737   0.408   2.005 -0.0141  0.3170 -1.9374
 3210SOL     OW21091   0.922   1.731   1.507  0.4570  0.0846 -0.1956
 3210SOL    HW121092   0.923   1.826   1.513  0.8271  0.0200  0.8292
 3210SOL    HW221093   0.900   1.713   1.416  0.5733 -1.5962  0.1059
 3211SOL     OW21094   3.334   2.313   7.464 -0.7143  0.6938  0.3562
 3211SOL    HW121095   3.253   2.364   7.470 -2.2607 -1.8321  0.6603
 3211SOL    HW221096   3.367   2.354   7.384  1.4779 -1.1097  0.3670
 3212SOL     OW21097   4.115   1.218  12.411 -0.0873 -0.2856  0.5454
 3212SOL    HW121098   4.112   1.301  12.365 -0.6654 -2.2158 -2.8994
 3212SOL    HW221099   4.197   1.191  12.368  0.0028  0.4824  0.2446
 3213SOL     OW21100   0.561   3.199   3.875  0.0993 -0.1732 -0.4533
 3213SOL    HW121101   0.587   3.203   3.967  1.8090 -1.4235 -0.8919
 3213SOL    HW221102   0.475   3.241   3.885 -1.0955 -2.1535 -2.3937
 3214SOL     OW21103   3.221   4.620   7.774  0.1767 -0.1937 -0.0824
 3214SOL    HW121104   3.239   4.674   7.851 -1.0570  0.4361 -0.2255
 3214SOL    HW221105   3.169   4.674   7.714 -1.5116  0.4322  1.9283
 3215SOL     OW21106   3.607   1.817   7.036  0.0690  0.0215  0.4240
 3215SOL    HW121107   3.517   1.800   7.063 -0.5409  3.8858  0.7211
 3215SOL    HW221108   3.648   1.730   7.029 -1.1343 -0.2895 -2.6082
 3216SOL     OW21109   0.665   3.372   7.044  0.1971  0.1717 -0.0108
 3216SOL    HW121110   0.649   3.415   7.128  0.5338  0.7862 -0.2575
 3216SOL    HW221111   0.761   3.376   7.047  0.2021  0.1780 -0.1906
 3217SOL     OW21112   1.226   0.221  11.897 -0.6822  0.3547  0.2378
 3217SOL    HW121113   1.279   0.154  11.942 -0.4590 -0.3630 -1.0998
 3217SOL    HW221114   1.277   0.240  11.819  0.7806 -1.9191  0.6226
 3218SOL     OW21115   1.613   1.247  12.366  0.0223  0.7391 -0.1637
 3218SOL    HW121116   1.632   1.170  12.419  0.1234 -1.4144 -3.2928
 3218SOL    HW221117   1.704   1.278  12.362  0.2650  0.2955  1.8812
 3219SOL     OW21118   4.446   2.211   0.926 -0.3568 -0.2794 -0.1480
 3219SOL    HW121119   4.507   2.170   0.987 -0.8865  0.8054  1.1097
 3219SOL    HW221120   4.478   2.184   0.840  1.4456 -0.8204  0.6744
 3220SOL     OW21121   2.291   0.614  11.014  0.2889  0.0845  0.2150
 3220SOL    HW121122   2.201   0.641  11.027  0.5136 -0.5410  3.1003
 3220SOL    HW221123   2.285   0.519  11.015 -2.8209  0.2844 -0.8899
 3221SOL     OW21124   1.271   3.049  11.951 -0.3652 -0.6403 -0.6474
 3221SOL    HW121125   1.252   3.098  12.030 -0.6378  0.2827 -1.2862
 3221SOL    HW221126   1.304   2.972  11.998 -0.3569  0.3632  0.9486
 3222SOL     OW21127   3.186   1.982  12.099 -0.2003 -0.2865 -0.1718
 3222SOL    HW121128   3.134   1.987  12.179 -1.4386  3.1360 -1.1661
 3222SOL    HW221129   3.132   2.031  12.036 -2.0618 -0.8447  0.9809
 3223SOL     OW21130   1.506   0.206  12.933 -0.3035 -1.0269  0.3159
 3223SOL    HW121131   1.514   0.170  12.845  0.6680 -2.4430  0.9735
 3223SOL    HW221132   1.488   0.122  12.976 -0.8076 -0.4427  1.2406
 3224SOL     OW21133   4.481   0.769   2.139 -0.2382 -0.4141  0.3715
 3224SOL    HW121134   4.443   0.715   2.070 -0.4520  0.9661 -0.6006
 3224SOL    HW221135   4.562   0.719   2.148 -0.6729 -0.9173  1.4134
 3225SOL     OW21136   2.332   2.083  11.877 -0.4869  0.0929 -0.5356
 3225SOL    HW121137   2.395   2.106  11.946  0.3755 -1.4149 -0.8171
 3225SOL    HW221138   2.374   2.016  11.823  0.4152  0.9223 -0.8699
 3226SOL     OW21139   4.315   4.583   3.962 -0.6525  0.2876 -0.4189
 3226SOL    HW121140   4.365   4.578   4.044  0.9849  1.3827 -1.3497
 3226SOL    HW221141   4.226   4.610   3.985 -0.0358  0.1599  2.1040
 3227SOL     OW21142   2.000   4.236   0.598 -0.0082  0.3852 -0.7910
 3227SOL    HW121143   1.938   4.164   0.609  0.8787  0.2463  3.1572
 3227SOL    HW221144   1.944   4.311   0.577 -1.2406 -0.0712  0.8258
 3228SOL     OW21145   4.128   4.246   7.095 -0.0406  0.1111 -0.1470
 3228SOL    HW121146   4.212   4.268   7.053  1.3689 -0.4042  2.3860
 3228SOL    HW221147   4.157   4.224   7.183 -0.3752  0.7193  0.1140
 3229SOL     OW21148   3.209   2.082   4.997  0.1581 -0.1808 -0.6515
 3229SOL    HW121149   3.119   2.068   5.026  0.7099 -1.1727  0.6016
 3229SOL    HW221150   3.201   2.107   4.905  0.3913 -0.6510 -0.8046
 3230SOL     OW21151   3.280   3.889   6.542  0.6178 -0.6219 -0.7175
 3230SOL    HW121152   3.300   3.808   6.589 -0.2035  0.1522  0.9556
 3230SOL    HW221153   3.313   3.954   6.604 -0.7417 -0.9771  0.3810
 3231SOL     OW21154   2.635   1.774  10.180 -0.3526 -0.1147 -0.0674
 3231SOL    HW121155   2.570   1.705  10.163 -1.6761  0.3873  2.8998
 3231SOL    HW221156   2.663   1.814  10.097 -1.2256 -0.8566 -0.7164
 3232SOL     OW21157   3.187   2.476   5.611 -0.2151  0.2410 -0.2031
 3232SOL    HW121158   3.122   2.405   5.608 -0.6814  0.8172 -4.1441
 3232SOL    HW221159   3.182   2.517   5.524  0.9000  1.3106  0.2293
 3233SOL     OW21160   1.442   3.213  11.327  0.0969 -0.1210 -0.8841
 3233SOL    HW121161   1.465   3.156  11.401  2.1443  3.1888  1.0518
 3233SOL    HW221162   1.400   3.147  11.272  0.0739  0.2456 -1.3074
 3234SOL     OW21163   3.644   0.647   6.667 -0.3857 -0.6324  0.6399
 3234SOL    HW121164   3.717   0.652   6.729  0.8372  0.2377 -0.8863
 3234SOL    HW221165   3.688   0.644   6.582 -0.5381 -2.3022  0.6123
 3235SOL     OW21166   3.190   2.559  11.711  0.3576  0.3490  0.1200
 3235SOL    HW121167   3.157   2.649  11.716 -0.5515  0.0235 -0.0655
 3235SOL    HW221168   3.275   2.566  11.755 -0.8338 -0.2261  2.4897
 3236SOL     OW21169   4.698   1.913  11.141  0.7123  0.2860 -0.4294
 3236SOL    HW121170   4.643   1.967  11.198 -0.5165 -0.9887 -0.4007
 3236SOL    HW221171   4.646   1.835  11.124 -1.2026  0.9980  2.0896
 3237SOL     OW21172   1.363   4.132  15.729  0.5111 -0.2462  0.0786
 3237SOL    HW121173   1.457   4.125  15.747  0.5742 -1.2692 -0.6506
 3237SOL    HW221174   1.375   4.114  15.636  1.5967 -0.4826  0.2614
 3238SOL     OW21175   0.505   3.389   4.869  0.5201 -0.1231  0.7434
 3238SOL    HW121176   0.592   3.401   4.832  0.7535  1.4192  1.7831
 3238SOL    HW221177   0.445   3.427   4.804 -1.8180 -1.6668  1.9946
 3239SOL     OW21178   3.954   1.603  15.136 -0.0801 -0.0777  0.2545
 3239SOL    HW121179   3.969   1.523  15.186 -2.2190 -0.1616  0.7675
 3239SOL    HW221180   3.970   1.569  15.048 -0.1357  1.2751 -0.2720
 3240SOL     OW21181   1.769   3.261   4.203  0.1472 -0.0194 -0.5814
 3240SOL    HW121182   1.766   3.204   4.280 -1.4154 -0.0536 -0.6712
 3240SOL    HW221183   1.757   3.344   4.250 -2.9608 -0.0865 -1.2916
 3241SOL     OW21184   0.758   4.483   3.422  0.2236  0.4252 -0.3240
 3241SOL    HW121185   0.817   4.429   3.475  1.3418  2.9516  1.0154
 3241SOL    HW221186   0.708   4.522   3.494 -1.1777  0.5171 -1.3669
 3242SOL     OW21187   3.593   4.297   7.142 -0.4573  0.2772 -0.0690
 3242SOL    HW121188   3.678   4.296   7.098 -1.7764 -2.1605 -2.5908
 3242SOL    HW221189   3.583   4.204   7.164 -0.0893  0.5397  1.1806
 3243SOL     OW21190   4.699   1.851   9.966 -0.1436 -0.3649  0.1595
 3243SOL    HW121191   4.617   1.824  10.008 -1.2698  0.1538 -1.6393
 3243SOL    HW221192   4.699   1.801   9.884 -0.5700 -1.3827  0.7778
 3244SOL     OW21193   3.549   4.399   5.953 -0.0544  0.0891 -0.0951
 3244SOL    HW121194   3.490   4.442   6.014  0.5331 -0.5163  0.9091
 3244SOL    HW221195   3.602   4.368   6.026  0.3142 -1.6834 -1.1086
 3245SOL     OW21196   1.286   2.470   9.994 -0.1981  0.4924  0.2982
 3245SOL    HW121197   1.279   2.565  10.005  0.5959  0.8897 -2.5711
 3245SOL    HW221198   1.197   2.444   9.974 -0.3891  1.8073 -0.5858
 3246SOL     OW21199   4.555   4.075   0.780  0.5933 -0.3446 -0.3709
 3246SOL    HW121200   4.650   4.069   0.771  0.5760 -0.8507 -0.2078
 3246SOL    HW221201   4.526   3.984   0.772 -0.0234 -0.2690  0.8776
 3247SOL     OW21202   4.231   1.771   6.056  0.2081 -0.3214  0.2370
 3247SOL    HW121203   4.160   1.746   6.115 -0.5976 -0.8233 -0.9645
 3247SOL    HW221204   4.198   1.734   5.974 -1.6337 -0.3149  0.9821
 3248SOL     OW21205   0.152   2.027  10.973 -0.6150  0.1424 -0.3838
 3248SOL    HW121206   0.108   2.059  10.894 -2.2135  0.5303  0.6661
 3248SOL    HW221207   0.078   2.003  11.029  0.0335 -2.2932 -0.5559
 3249SOL     OW21208   2.980   4.689   2.479 -0.4587  0.0062  0.2681
 3249SOL    HW121209   2.963   4.685   2.385  2.1833  2.2535 -0.3253
 3249SOL    HW221210   2.896   4.655   2.510 -1.7995  1.2819 -2.0019
 3250SOL     OW21211   0.638   2.072  11.328 -0.0562 -0.1805 -0.5640
 3250SOL    HW121212   0.703   2.093  11.395  1.0701 -1.8675 -1.1276
 3250SOL    HW221213   0.558   2.073  11.380 -0.6373  0.1405 -1.4709
 3251SOL     OW21214   0.981   2.689   2.077  1.1712  0.0509  0.0156
 3251SOL    HW121215   0.923   2.613   2.077  1.1884  0.0326 -0.6993
 3251SOL    HW221216   1.034   2.663   2.152  1.2401 -0.0246 -0.0598
 3252SOL     OW21217   4.668   3.264   1.459 -0.2830  0.2219 -0.0032
 3252SOL    HW121218   4.580   3.234   1.438 -0.8942  1.6525  0.4665
 3252SOL    HW221219   4.655   3.356   1.435  0.5682 -0.0442 -1.5117
 3253SOL     OW21220   4.500   0.406   5.065  0.5145 -0.1532 -0.0231
 3253SOL    HW121221   4.507   0.389   5.159  1.1951  1.6616  0.2508
 3253SOL    HW221222   4.586   0.372   5.037  1.3725 -0.2137  2.6797
 3254SOL     OW21223   0.598   1.887   3.491 -0.1587 -0.7689  0.4242
 3254SOL    HW121224   0.513   1.930   3.487 -0.3638 -1.1662  0.4726
 3254SOL    HW221225   0.595   1.835   3.410  0.0414  1.5342 -1.0495
 3255SOL     OW21226   1.917   0.224   5.306  0.1639 -0.0416 -0.1762
 3255SOL    HW121227   1.857   0.150   5.310  0.4284 -0.2273  0.4338
 3255SOL    HW221228   1.868   0.296   5.346  0.6871 -0.7864  1.8203
 3256SOL     OW21229   2.617   0.876   5.784 -0.4200  0.0873 -0.2879
 3256SOL    HW121230   2.584   0.959   5.748 -0.5838 -0.0031 -0.3490
 3256SOL    HW221231   2.533   0.830   5.790 -0.9625  0.9080 -1.4844
 3257SOL     OW21232   0.914   3.155   3.092  0.1444  0.4327 -0.3378
 3257SOL    HW121233   0.940   3.196   3.009 -2.4586 -1.2166 -1.9686
 3257SOL    HW221234   0.973   3.080   3.093  1.2377  1.3132  1.1090
 3258SOL     OW21235   4.580   0.987   7.733  0.3118  0.3898  0.2227
 3258SOL    HW121236   4.556   1.025   7.649 -0.6542  1.2443  0.8864
 3258SOL    HW221237   4.635   1.051   7.778  0.7581  0.1919 -0.0372
 3259SOL     OW21238   2.067   2.415   9.816  0.2373 -0.3068 -0.6048
 3259SOL    HW121239   2.048   2.399   9.909 -0.7455 -0.2347 -0.7869
 3259SOL    HW221240   2.139   2.354   9.801 -0.1461 -1.0975  0.7315
 3260SOL     OW21241   0.560   4.176   4.157  0.1599 -0.1487 -0.2273
 3260SOL    HW121242   0.654   4.159   4.148  0.6135  1.7707  1.0079
 3260SOL    HW221243   0.526   4.133   4.235  2.3664 -0.0333  0.7847
 3261SOL     OW21244   4.503   3.662   4.000 -0.0429 -0.0613 -0.4042
 3261SOL    HW121245   4.482   3.608   3.924  0.0353 -0.1951 -0.3290
 3261SOL    HW221246   4.415   3.671   4.036 -0.1150  3.0649 -1.3234
 3262SOL     OW21247   1.213   0.309  13.007 -0.3567 -0.6751 -0.0313
 3262SOL    HW121248   1.289   0.258  13.032 -0.3512 -0.5130  0.2848
 3262SOL    HW221249   1.153   0.243  12.972  0.7957 -2.3187  1.0892
 3263SOL     OW21250   1.981   1.423  10.920 -0.4376  0.1561  0.3668
 3263SOL    HW121251   1.977   1.440  10.826 -1.8112 -2.4578 -0.0366
 3263SOL    HW221252   1.894   1.454  10.944 -0.6560  1.2011 -1.7723
 3264SOL     OW21253   0.728   1.925   6.266  0.1876 -0.3881  0.0318
 3264SOL    HW121254   0.817   1.927   6.230  0.1596 -0.6500 -0.0542
 3264SOL    HW221255   0.741   1.844   6.315 -2.7815 -0.1399  1.2215
 3265SOL     OW21256   3.390   1.679   3.908  0.2381  0.5876  0.5939
 3265SOL    HW121257   3.471   1.730   3.901 -0.6203  1.9529  0.4441
 3265SOL    HW221258   3.365   1.664   3.816 -0.4974  1.0589  0.7156
 3266SOL     OW21259   0.914   3.781   6.562 -0.2713 -0.0636 -0.1521
 3266SOL    HW121260   0.939   3.744   6.477 -1.0458  0.6793 -0.7062
 3266SOL    HW221261   0.819   3.786   6.572 -0.1582  0.6116  0.5409
 3267SOL     OW21262   2.818   3.066   0.085  0.7174 -0.8297  0.6378
 3267SOL    HW121263   2.763   3.006   0.135  2.1752 -1.7408  1.1406
 3267SOL    HW221264   2.831   3.136   0.149 -0.3472  0.4365 -0.5163
 3268SOL     OW21265   2.754   2.381   2.757 -0.3133 -0.0641  0.1085
 3268SOL    HW121266   2.769   2.473   2.736  1.2836  0.1908  2.3626
 3268SOL    HW221267   2.824   2.342   2.705  0.3902 -0.9627  1.7117
 3269SOL     OW21268   1.435   1.563   5.014 -0.2523 -0.3498  0.0711
 3269SOL    HW121269   1.450   1.468   5.014  0.6395 -0.2052  1.2482
 3269SOL    HW221270   1.366   1.571   5.080 -0.0993  1.6090 -0.0089
 3270SOL     OW21271   1.988   0.140   7.614 -0.1104 -0.1412 -0.6654
 3270SOL    HW121272   2.067   0.138   7.560 -0.1421 -0.8427 -0.6912
 3270SOL    HW221273   2.004   0.216   7.670  0.8096  0.0197 -1.1306
 3271SOL     OW21274   1.955   1.254   5.855  0.2114  0.0955 -0.0360
 3271SOL    HW121275   1.926   1.316   5.788 -0.8742  0.5483  0.8560
 3271SOL    HW221276   2.025   1.307   5.893 -0.6084  1.2253 -0.1096
 3272SOL     OW21277   1.756   1.094   8.972 -0.1923 -0.2461 -0.5194
 3272SOL    HW121278   1.718   1.154   9.037  1.8099 -0.2151  0.6335
 3272SOL    HW221279   1.742   1.148   8.895 -0.6566  0.6274  0.1722
 3273SOL     OW21280   0.412   2.586   3.104  0.3334 -0.9786  0.2348
 3273SOL    HW121281   0.453   2.531   3.037 -2.0801  0.3895 -2.3789
 3273SOL    HW221282   0.344   2.619   3.044 -0.5016 -1.6406  0.8176
 3274SOL     OW21283   1.880   0.890   7.978 -0.4531  0.3163  0.0155
 3274SOL    HW121284   1.964   0.921   7.945  1.2535 -4.8268 -0.5164
 3274SOL    HW221285   1.831   0.969   7.958 -1.3906 -0.0232  0.9338
 3275SOL     OW21286   1.274   3.894   3.160  0.7589  0.0968  0.0122
 3275SOL    HW121287   1.240   3.839   3.232 -1.8635  0.9168 -0.5959
 3275SOL    HW221288   1.191   3.929   3.127  0.6171 -0.0506  0.2054
 3276SOL     OW21289   0.279   1.003   5.993 -0.2013  0.2596  0.0032
 3276SOL    HW121290   0.316   1.055   6.065  1.7589  0.3970 -1.1155
 3276SOL    HW221291   0.338   1.025   5.921 -1.5490  2.0646 -0.5625
 3277SOL     OW21292   3.240   3.110   2.279  0.6135 -0.2060  0.6325
 3277SOL    HW121293   3.318   3.061   2.251  0.3913 -0.5127  0.5392
 3277SOL    HW221294   3.232   3.172   2.207 -0.6433 -0.6202  0.4156
 3278SOL     OW21295   1.094   3.763  14.080 -0.0995  0.6835  0.6131
 3278SOL    HW121296   1.021   3.792  14.025  0.6612  0.0914 -0.6988
 3278SOL    HW221297   1.163   3.827  14.063  0.2905  0.0524 -0.1526
 3279SOL     OW21298   4.207   0.136   3.407  0.1717 -0.1445  0.0684
 3279SOL    HW121299   4.177   0.125   3.317 -0.0562 -0.7340  0.2189
 3279SOL    HW221300   4.161   0.216   3.434  1.9688  1.1885 -0.8222
 3280SOL     OW21301   4.556   1.760   8.812  0.3331 -0.1662 -0.4801
 3280SOL    HW121302   4.592   1.672   8.800 -0.1407 -0.8141  2.7292
 3280SOL    HW221303   4.469   1.743   8.778  0.4810  0.1404 -1.0113
 3281SOL     OW21304   4.486   2.628   8.074  0.4130 -0.3299 -0.2943
 3281SOL    HW121305   4.578   2.601   8.066  0.6155 -0.5520  2.8041
 3281SOL    HW221306   4.484   2.654   8.166  2.0369 -0.3109 -0.2604
 3282SOL     OW21307   2.987   1.644   2.111 -0.0741 -0.1671 -0.0514
 3282SOL    HW121308   2.954   1.727   2.077  2.4888  1.3996  1.3512
 3282SOL    HW221309   2.966   1.581   2.042 -4.6564  0.7959  0.4256
 3283SOL     OW21310   2.978   1.980   7.886  0.9423  0.3852  0.7184
 3283SOL    HW121311   2.981   1.905   7.946 -0.7144  0.4293  0.8498
 3283SOL    HW221312   2.914   2.032   7.933 -0.4458 -0.8735  0.2069
 3284SOL     OW21313   4.359   3.050   8.914 -0.6891  0.2042  0.2557
 3284SOL    HW121314   4.266   3.074   8.910 -0.2153  2.2542  1.5691
 3284SOL    HW221315   4.350   2.961   8.948 -2.1127  0.2424 -0.0227
 3285SOL     OW21316   3.153   2.604   6.152 -0.2650  1.0407 -0.5274
 3285SOL    HW121317   3.109   2.647   6.225  0.9373 -0.4774  1.0889
 3285SOL    HW221318   3.104   2.633   6.075 -1.1606  0.5093 -0.1633
 3286SOL     OW21319   2.424   0.836  11.098 -0.4940  0.3014  0.8540
 3286SOL    HW121320   2.372   0.760  11.075 -1.2081  1.3397 -0.9425
 3286SOL    HW221321   2.363   0.909  11.102  1.3015  1.9190 -1.1773
 3287SOL     OW21322   3.955   2.001   9.935 -0.1547  0.1219  0.0335
 3287SOL    HW121323   3.927   1.916   9.902 -0.1215 -0.3726  1.2971
 3287SOL    HW221324   3.985   2.043   9.855  1.2463  0.5204  0.7600
 3288SOL     OW21325   3.742   1.227  11.135 -0.1213 -0.6812  0.5012
 3288SOL    HW121326   3.785   1.169  11.071  1.2121  0.8846 -0.0118
 3288SOL    HW221327   3.811   1.290  11.150 -0.7499  0.3771 -1.0437
 3289SOL     OW21328   0.675   0.222   3.650  0.1009  0.2490 -0.0804
 3289SOL    HW121329   0.740   0.167   3.605 -1.5793 -1.1742 -0.7954
 3289SOL    HW221330   0.646   0.161   3.718 -1.2527 -0.8487 -1.6290
 3290SOL     OW21331   1.727   3.326  17.137  0.5017 -0.2992 -0.2654
 3290SOL    HW121332   1.792   3.380  17.092  1.5838 -0.0490  1.5882
 3290SOL    HW221333   1.752   3.238  17.111 -0.0974 -1.2996  2.5334
 3291SOL     OW21334   4.162   3.223   8.684  0.8943  0.0047  0.3768
 3291SOL    HW121335   4.159   3.205   8.778  0.1953 -0.7380  0.2062
 3291SOL    HW221336   4.147   3.136   8.648  0.6744  0.0974  0.2471
 3292SOL     OW21337   3.102   4.322   6.162 -0.3849 -0.0560 -0.5629
 3292SOL    HW121338   3.160   4.388   6.201  0.4024 -1.0775 -0.0161
 3292SOL    HW221339   3.154   4.244   6.181  0.7132  1.0829  1.0500
 3293SOL     OW21340   3.703   1.201   3.328 -0.5104  0.5430  0.6732
 3293SOL    HW121341   3.635   1.162   3.384 -0.3718  0.8188  1.0311
 3293SOL    HW221342   3.756   1.123   3.309  1.3047  1.9005  0.2181
 3294SOL     OW21343   1.541   0.236   8.681  0.0398  0.0742  0.2398
 3294SOL    HW121344   1.630   0.234   8.715  0.1460  0.6302 -0.0126
 3294SOL    HW221345   1.551   0.316   8.630 -1.4260  0.2510  0.2128
 3295SOL     OW21346   4.326   0.824   5.589  0.1829 -0.3050 -0.8384
 3295SOL    HW121347   4.235   0.800   5.606 -0.0129 -0.4943 -2.0973
 3295SOL    HW221348   4.318   0.861   5.501 -0.2317 -1.0815 -1.1265
 3296SOL     OW21349   3.625   1.954   3.618  0.0686  0.1367 -0.2969
 3296SOL    HW121350   3.719   1.954   3.599 -0.3704  0.1234 -2.4023
 3296SOL    HW221351   3.603   1.980   3.529 -2.2695 -0.3201  0.1446
 3297SOL     OW21352   2.478   1.202   3.706 -0.2157 -0.2798  0.1066
 3297SOL    HW121353   2.528   1.164   3.633 -0.2529 -2.1022  1.0256
 3297SOL    HW221354   2.504   1.293   3.694 -3.2065  0.7726  1.6674
 3298SOL     OW21355   1.056   3.736  15.260 -0.1343 -0.3379 -0.6396
 3298SOL    HW121356   1.024   3.668  15.319 -0.9473  0.8914  0.3516
 3298SOL    HW221357   1.146   3.706  15.250  0.4989  1.0953  0.7304
 3299SOL     OW21358   3.478   2.297   3.935  0.7170 -0.1953  0.0720
 3299SOL    HW121359   3.540   2.251   3.879  0.6009  0.3064 -0.4636
 3299SOL    HW221360   3.412   2.319   3.869  0.8914  1.5540  0.4794
 3300SOL     OW21361   0.357   4.657   2.953  0.5203 -0.0995  0.4104
 3300SOL    HW121362   0.354   0.007   2.893 -0.3227  0.2900  0.9487
 3300SOL    HW221363   0.311   4.587   2.906  1.7517 -0.4710 -0.2419
 3301SOL     OW21364   1.157   0.418  12.530  0.4014  0.2401 -0.0504
 3301SOL    HW121365   1.075   0.428  12.482  1.0884 -0.7936 -1.4721
 3301SOL    HW221366   1.149   0.479  12.603  1.7028 -1.5736  1.6155
 3302SOL     OW21367   0.659   2.407   6.764 -0.3057 -0.0196 -0.5357
 3302SOL    HW121368   0.661   2.316   6.794 -0.6504  0.1287 -0.0568
 3302SOL    HW221369   0.590   2.401   6.698 -2.2491  0.3511  1.4551
 3303SOL     OW21370   1.973   2.656   9.732  0.1575  0.2115  1.0065
 3303SOL    HW121371   2.024   2.575   9.729  0.4778  0.3703  1.9884
 3303SOL    HW221372   2.023   2.706   9.667 -0.9051  0.1337  0.1384
 3304SOL     OW21373   1.151   3.126   5.304  0.0831  0.5068 -0.3215
 3304SOL    HW121374   1.159   3.057   5.238  0.1299  1.2758 -1.1317
 3304SOL    HW221375   1.214   3.189   5.268  0.9262 -1.5576 -2.4488
 3305SOL     OW21376   0.112   2.347  16.657  0.2655 -0.3354  0.6421
 3305SOL    HW121377   0.088   2.361  16.749 -1.0130 -1.8249  0.5241
 3305SOL    HW221378   0.088   2.428  16.614  1.7743  0.4446  1.2557
 3306SOL     OW21379   0.415   4.047   3.538 -0.0024 -0.4556 -0.3972
 3306SOL    HW121380   0.381   3.986   3.472  1.4180 -0.6585 -0.9370
 3306SOL    HW221381   0.337   4.057   3.593  0.8009 -1.4358  0.9278
 3307SOL     OW21382   3.374   1.414   2.578  0.3537  0.9356 -0.2621
 3307SOL    HW121383   3.367   1.444   2.488  2.0009  1.5328 -0.1997
 3307SOL    HW221384   3.419   1.492   2.611  1.8042  1.0014 -2.4094
 3308SOL     OW21385   4.676   1.545   2.709  0.3807  0.0154  0.1507
 3308SOL    HW121386   4.660   1.506   2.623 -0.4916 -0.4678  0.5217
 3308SOL    HW221387   0.041   1.576   2.701 -0.4278  2.3819  0.1344
 3309SOL     OW21388   0.259   2.821   4.676  0.1438 -0.5165  0.0860
 3309SOL    HW121389   0.211   2.904   4.667  0.9258 -0.0817 -0.0546
 3309SOL    HW221390   0.315   2.807   4.600  1.4110 -2.0425  1.3026
 3310SOL     OW21391   2.811   4.167   3.497 -0.1740  0.0318  0.0193
 3310SOL    HW121392   2.791   4.254   3.532 -0.0210 -1.2292  3.2950
 3310SOL    HW221393   2.840   4.174   3.406 -2.6637 -1.3183 -0.8908
 3311SOL     OW21394   0.146   2.777   8.652  0.3353 -0.4910  0.2715
 3311SOL    HW121395   0.062   2.764   8.607 -0.1628  0.6687  0.8759
 3311SOL    HW221396   0.108   2.792   8.738 -0.8718 -2.0619  0.0192
 3312SOL     OW21397   1.507   1.427   3.702 -0.2740  0.0873 -0.5027
 3312SOL    HW121398   1.515   1.407   3.795 -1.0637 -1.2891 -0.7304
 3312SOL    HW221399   1.591   1.403   3.662 -1.1010  0.0912 -2.2744
 3313SOL     OW21400   0.775   4.310   8.114  0.0973  0.6331 -0.2749
 3313SOL    HW121401   0.832   4.372   8.067 -0.6543 -0.4568 -2.6016
 3313SOL    HW221402   0.759   4.358   8.195  0.2043 -3.3967  2.1106
 3314SOL     OW21403   3.093   0.771   9.440  0.0668 -0.6104 -0.2840
 3314SOL    HW121404   3.110   0.713   9.366  2.3779 -3.4113  2.4488
 3314SOL    HW221405   3.070   0.701   9.502  0.3094 -1.0805 -0.7210
 3315SOL     OW21406   1.170   2.784   6.895  0.2622  0.4186  0.0740
 3315SOL    HW121407   1.076   2.796   6.879  0.3327  1.0142  0.1112
 3315SOL    HW221408   1.157   2.724   6.968 -0.5679  2.0533  1.2523
 3316SOL     OW21409   1.593   2.982  10.129  0.1593  0.0087 -0.3943
 3316SOL    HW121410   1.603   2.939  10.214 -0.6165  2.0279  0.7271
 3316SOL    HW221411   1.686   2.993  10.108  0.1784 -0.5452 -0.5996
 3317SOL     OW21412   1.912   2.667   2.131  0.4740  0.2940  0.6671
 3317SOL    HW121413   1.844   2.686   2.067  0.0043 -2.9102  0.1769
 3317SOL    HW221414   1.887   2.737   2.191 -2.9626 -3.2986  3.4248
 3318SOL     OW21415   2.736   2.438  11.183  0.2630  0.1192  0.2822
 3318SOL    HW121416   2.753   2.511  11.242 -1.3558  0.4339  0.3718
 3318SOL    HW221417   2.692   2.478  11.108 -0.5871 -1.0697  0.1451
 3319SOL     OW21418   3.507   3.779   8.684  0.0421 -0.2899 -0.0481
 3319SOL    HW121419   3.488   3.834   8.609  1.3636 -0.0944 -0.2303
 3319SOL    HW221420   3.426   3.793   8.734 -1.4118 -0.2183 -2.4442
 3320SOL     OW21421   4.630   4.196   9.165  0.2734  0.5152 -0.0702
 3320SOL    HW121422   4.647   4.288   9.143  2.2256  0.1500 -0.0841
 3320SOL    HW221423   4.665   4.205   9.254 -1.0064 -0.2262  0.5012
 3321SOL     OW21424   0.265   3.189  13.745 -0.0230 -0.3756  0.4134
 3321SOL    HW121425   0.176   3.193  13.710  0.4562  0.7932 -0.6655
 3321SOL    HW221426   0.248   3.160  13.834 -1.2056 -0.6893  0.0819
 3322SOL     OW21427   0.992   0.682   9.178 -0.3752 -0.3098 -0.5216
 3322SOL    HW121428   1.073   0.677   9.128 -0.2371 -0.1096 -0.3208
 3322SOL    HW221429   0.934   0.701   9.104 -2.9797 -2.6248  0.9619
 3323SOL     OW21430   1.180   4.438   5.581 -0.3997 -0.4584  0.2639
 3323SOL    HW121431   1.221   4.397   5.505 -0.4889  0.9281 -0.5379
 3323SOL    HW221432   1.110   4.488   5.538  0.0494 -1.7235 -1.9206
 3324SOL     OW21433   3.525   4.040   3.451 -0.2720  0.3284  0.5516
 3324SOL    HW121434   3.526   4.128   3.489 -0.3872  0.4282  0.3279
 3324SOL    HW221435   3.442   4.037   3.402  0.1439  1.1904 -0.1998
 3325SOL     OW21436   2.352   2.813   4.718 -0.2760 -0.0117  0.3904
 3325SOL    HW121437   2.436   2.782   4.752 -1.2178 -1.3534  1.5102
 3325SOL    HW221438   2.307   2.728   4.715  2.3580 -1.3486 -1.2825
 3326SOL     OW21439   2.552   0.035   7.870 -0.5366  0.2901 -0.0710
 3326SOL    HW121440   2.573   0.117   7.824  1.2855 -0.2525 -0.2425
 3326SOL    HW221441   2.528   4.700   7.799  1.1382  0.6160 -0.9332
 3327SOL     OW21442   3.213   4.140   4.496  0.4362 -0.4417 -0.0665
 3327SOL    HW121443   3.299   4.173   4.522  0.2275 -1.3391  1.7396
 3327SOL    HW221444   3.223   4.144   4.401 -0.4571 -3.7432 -0.2949
 3328SOL     OW21445   1.469   0.172  10.408 -0.5869 -0.0947  0.4168
 3328SOL    HW121446   1.463   0.080  10.383 -0.0492 -0.4681  1.6755
 3328SOL    HW221447   1.563   0.192  10.404 -0.8026  0.9731  0.5191
 3329SOL     OW21448   0.354   1.910  16.982 -0.4490  0.5213 -0.4198
 3329SOL    HW121449   0.292   1.980  16.959 -1.1156  0.4443  1.1298
 3329SOL    HW221450   0.289   1.844  17.004  0.4914 -0.1851  0.1801
 3330SOL     OW21451   4.115   1.267   1.591  0.1308  0.0141 -0.0170
 3330SOL    HW121452   4.189   1.208   1.608 -0.6522 -1.1536 -0.6277
 3330SOL    HW221453   4.063   1.245   1.668 -3.1861  0.8271 -2.0617
 3331SOL     OW21454   1.341   1.868   5.837 -0.0690 -0.2936 -0.6771
 3331SOL    HW121455   1.356   1.911   5.753 -0.9969  1.2450 -0.0480
 3331SOL    HW221456   1.340   1.934   5.906 -0.9538 -1.7310  0.6961
 3332SOL     OW21457   1.438   4.408   8.868  0.1803  0.2060 -0.0581
 3332SOL    HW121458   1.428   4.494   8.827  1.5861  0.8132  0.8641
 3332SOL    HW221459   1.508   4.431   8.930  0.9322 -1.7187 -0.1927
 3333SOL     OW21460   3.921   3.870   2.354  0.2707 -0.1337  0.0199
 3333SOL    HW121461   3.866   3.836   2.284  1.1262  0.5940 -1.0143
 3333SOL    HW221462   3.912   3.965   2.348 -0.0631 -0.0599  1.5115
 3334SOL     OW21463   1.547   4.366   6.845  0.0883 -0.2873  0.2873
 3334SOL    HW121464   1.556   4.349   6.751 -3.0873 -1.3839  0.2102
 3334SOL    HW221465   1.631   4.338   6.884 -0.6395 -4.1277 -0.9366
 3335SOL     OW21466   0.210   0.560   1.159 -0.2832  0.0443  0.3622
 3335SOL    HW121467   0.249   0.492   1.214 -2.5538 -1.3644  0.2290
 3335SOL    HW221468   0.116   0.541   1.155 -0.8237  2.6133  0.8484
 3336SOL     OW21469   2.875   0.579  10.080 -0.4090 -0.0167  0.4281
 3336SOL    HW121470   2.845   0.552  10.167  0.2003 -1.2513  0.2533
 3336SOL    HW221471   2.795   0.605  10.034 -0.8794 -1.2289  0.5394
 3337SOL     OW21472   0.223   0.480  11.934  0.5193  0.4583 -0.7731
 3337SOL    HW121473   0.270   0.398  11.915  1.0493  0.8174 -1.0131
 3337SOL    HW221474   0.253   0.499  12.023 -1.1995  1.1414 -0.3468
 3338SOL     OW21475   1.931   3.187   9.142  0.0650 -0.1077 -0.0140
 3338SOL    HW121476   1.882   3.238   9.206 -1.3571  0.3564 -1.4524
 3338SOL    HW221477   2.015   3.227   9.162  1.7812 -2.9438 -1.5075
 3339SOL     OW21478   2.895   0.397   9.855  0.3896  0.3072  0.6376
 3339SOL    HW121479   2.897   0.486   9.890 -0.4067  0.3766  0.4985
 3339SOL    HW221480   2.940   0.349   9.925 -0.3496  0.0393  0.9270
 3340SOL     OW21481   4.700   1.073   8.350 -0.5012 -0.2133 -0.5880
 3340SOL    HW121482   4.621   1.079   8.296 -1.4419  0.9347  0.8966
 3340SOL    HW221483   4.700   1.152   8.405 -1.5387 -2.4372  2.6121
 3341SOL     OW21484   3.491   4.657   2.876 -0.3381 -0.2063 -0.4322
 3341SOL    HW121485   3.524   4.608   2.800  0.9255  0.4025 -0.2901
 3341SOL    HW221486   3.576   4.692   2.903  0.0664 -1.0831 -0.5699
 3342SOL     OW21487   3.272   0.434   2.769 -0.3095 -0.0426  0.1339
 3342SOL    HW121488   3.278   0.346   2.732  3.4498  0.2957 -0.0486
 3342SOL    HW221489   3.297   0.479   2.688 -0.1760  0.9497  0.7359
 3343SOL     OW21490   4.711   3.708   7.034 -0.2197 -0.2414  0.0524
 3343SOL    HW121491   4.679   3.687   7.122 -2.6619 -0.9018 -1.0026
 3343SOL    HW221492   0.040   3.632   7.010 -1.0899 -1.0759  0.7714
 3344SOL     OW21493   3.046   2.695  15.414 -0.2140  0.6085 -0.2121
 3344SOL    HW121494   2.995   2.652  15.483 -1.1464  0.4108 -1.0282
 3344SOL    HW221495   3.043   2.786  15.443  0.1025  0.8403 -0.8976
 3345SOL     OW21496   0.083   3.540   7.889 -0.0720  0.1777  0.1618
 3345SOL    HW121497   0.104   3.497   7.972  1.4364 -0.6222 -0.6327
 3345SOL    HW221498   0.167   3.584   7.885 -0.0004  0.0077 -0.2309
 3346SOL     OW21499   2.968   2.057  12.614  0.1868  0.9187  0.5087
 3346SOL    HW121500   2.987   2.013  12.697  0.2450 -0.9749 -0.4956
 3346SOL    HW221501   3.050   2.101  12.594  1.1027 -1.2856 -0.6342
 3347SOL     OW21502   1.888   4.268   7.928  0.1938  0.4070  0.1625
 3347SOL    HW121503   1.898   4.364   7.929  3.8808  0.0363 -3.3035
 3347SOL    HW221504   1.950   4.250   7.999 -2.3651  0.8402  2.4997
 3348SOL     OW21505   1.573   1.370  10.812  0.0282 -0.1079 -0.1153
 3348SOL    HW121506   1.649   1.320  10.782  0.8727  2.1261 -1.6302
 3348SOL    HW221507   1.512   1.374  10.739 -0.8858 -2.8865  0.4707
 3349SOL     OW21508   2.170   1.378   6.611 -0.0579  0.7576 -0.3328
 3349SOL    HW121509   2.163   1.473   6.602 -0.1728  0.8334  0.5268
 3349SOL    HW221510   2.208   1.369   6.698 -1.0679 -0.6710 -0.0296
 3350SOL     OW21511   3.492   3.096   2.445  0.1064  0.0837 -0.2394
 3350SOL    HW121512   3.487   3.040   2.522  1.0759  0.0100 -0.2293
 3350SOL    HW221513   3.469   3.183   2.476  1.5896  0.7904 -1.1500
 3351SOL     OW21514   1.003   2.653   2.512 -0.5366 -0.1551 -0.6613
 3351SOL    HW121515   1.031   2.744   2.502 -2.4745  0.4863 -0.2458
 3351SOL    HW221516   0.914   2.666   2.545  0.2802  0.8895  1.1808
 3352SOL     OW21517   3.488   3.269   8.536 -0.4447  0.7519 -0.2530
 3352SOL    HW121518   3.463   3.177   8.526  2.0743 -0.1557  1.8589
 3352SOL    HW221519   3.579   3.254   8.511 -0.4769  1.1646 -0.6276
 3353SOL     OW21520   1.592   4.689   6.626  0.0167  0.0511  0.3154
 3353SOL    HW121521   1.513   4.644   6.656  0.0018  0.5614  1.0164
 3353SOL    HW221522   1.603   4.661   6.535  0.5196 -2.4142  1.1507
 3354SOL     OW21523   4.061   2.866  17.501 -0.1936 -0.4398  0.4578
 3354SOL    HW121524   4.091   2.846  17.412  0.3618  1.4124  0.2187
 3354SOL    HW221525   4.040   2.786  17.549 -0.9407 -1.0340 -0.8708
 3355SOL     OW21526   1.468   3.932   2.980 -0.6178 -0.1056 -0.3586
 3355SOL    HW121527   1.409   3.910   3.052 -0.8300  0.6537 -0.2983
 3355SOL    HW221528   1.416   4.000   2.938 -0.8271 -1.3101 -2.0658
 3356SOL     OW21529   4.605   3.862   0.532  0.0666 -0.0119  0.4369
 3356SOL    HW121530   4.669   3.885   0.465  0.5918 -1.3535  0.4886
 3356SOL    HW221531   4.534   3.926   0.526 -1.3611 -1.5912  0.2885
 3357SOL     OW21532   1.168   2.231  12.293  0.3136 -0.0536 -0.7738
 3357SOL    HW121533   1.091   2.220  12.348  2.2613  2.3498  2.4200
 3357SOL    HW221534   1.239   2.225  12.357 -2.6367 -2.3853  2.2153
 3358SOL     OW21535   0.476   1.301   1.894  0.4700 -0.2859  0.8398
 3358SOL    HW121536   0.382   1.285   1.897  0.2812  0.6766  0.0958
 3358SOL    HW221537   0.499   1.211   1.868 -0.1537 -0.0277 -0.5770
 3359SOL     OW21538   0.108   3.452   1.778 -0.0556 -0.8141 -0.1607
 3359SOL    HW121539   0.160   3.429   1.701 -1.1187 -0.1991 -1.0709
 3359SOL    HW221540   0.021   3.423   1.751  0.2423  0.3798 -2.3626
 3360SOL     OW21541   0.453   2.813   4.132  0.7891  0.0859  0.3578
 3360SOL    HW121542   0.418   2.895   4.097  0.6610 -0.5823 -1.0607
 3360SOL    HW221543   0.440   2.750   4.061 -3.8176 -1.0785  2.2590
 3361SOL     OW21544   2.047   2.277   7.646 -0.2028  0.1496  0.1623
 3361SOL    HW121545   2.111   2.253   7.713  0.0768  0.6500  0.0724
 3361SOL    HW221546   2.075   2.253   7.558  2.7980 -1.3892  1.5176
 3362SOL     OW21547   3.891   4.191   4.899  0.0958  0.8904 -0.2601
 3362SOL    HW121548   3.856   4.103   4.886  1.3779  0.4443 -0.6592
 3362SOL    HW221549   3.844   4.247   4.837  0.2469  0.1755 -1.0259
 3363SOL     OW21550   4.319   1.685   8.653  0.5658 -0.4515  0.0187
 3363SOL    HW121551   4.256   1.617   8.630  2.6464 -2.1884 -0.5219
 3363SOL    HW221552   4.280   1.756   8.603 -0.7834 -2.2968 -1.5590
 3364SOL     OW21553   4.667   4.403   4.363 -0.1969  0.3364  0.2027
 3364SOL    HW121554   4.704   4.324   4.324 -0.7628 -0.5504  1.4555
 3364SOL    HW221555   4.603   4.367   4.425 -0.5580 -1.0812 -1.0192
 3365SOL     OW21556   3.526   3.869   5.748  0.3043 -0.3913  0.5066
 3365SOL    HW121557   3.527   3.777   5.778 -0.2595 -0.8458 -0.8986
 3365SOL    HW221558   3.474   3.907   5.819  0.2815 -1.1881  0.9236
 3366SOL     OW21559   4.692   4.469   8.767 -0.3551  0.0193  0.1354
 3366SOL    HW121560   0.052   4.512   8.752 -0.3463 -0.6998 -1.8381
 3366SOL    HW221561   4.639   4.505   8.695 -0.4135 -0.8570 -0.2625
 3367SOL     OW21562   4.329   3.134   4.797  0.1591 -0.3138 -0.4552
 3367SOL    HW121563   4.337   3.184   4.716  1.5039 -0.9707 -0.7275
 3367SOL    HW221564   4.409   3.082   4.793  0.5563  0.1968  0.7962
 3368SOL     OW21565   3.855   1.771   6.665 -0.0228  0.4078  0.5955
 3368SOL    HW121566   3.767   1.793   6.695 -0.9942 -2.5546 -0.0843
 3368SOL    HW221567   3.900   1.753   6.747 -0.2971 -1.5267  0.3223
 3369SOL     OW21568   2.716   2.192  12.480 -0.0476  0.7901 -0.3451
 3369SOL    HW121569   2.764   2.241  12.414  1.0252  0.9911  0.5881
 3369SOL    HW221570   2.789   2.142  12.517 -0.7615 -1.4653 -1.9713
 3370SOL     OW21571   0.610   1.693   5.972  0.2482 -0.1307  0.1750
 3370SOL    HW121572   0.523   1.718   5.941 -0.7298 -0.2394  2.8465
 3370SOL    HW221573   0.658   1.775   5.963  1.1781 -0.7567 -0.6204
 3371SOL     OW21574   1.329   0.377   1.467 -0.3318 -0.0580  0.2118
 3371SOL    HW121575   1.253   0.378   1.409  0.0873 -0.1725 -0.3311
 3371SOL    HW221576   1.378   0.297   1.447 -0.2251 -0.6767  2.9350
 3372SOL     OW21577   2.079   2.077   2.460  0.2127  0.2308  0.0028
 3372SOL    HW121578   2.048   2.060   2.371 -0.8543 -4.5218  1.2784
 3372SOL    HW221579   2.033   2.159   2.477 -0.8934 -0.3895 -0.0016
 3373SOL     OW21580   1.090   2.710  16.694  0.5182  0.2488 -0.1599
 3373SOL    HW121581   1.021   2.761  16.735 -0.2686  0.4711 -1.7886
 3373SOL    HW221582   1.132   2.766  16.629  4.9294  0.5151  2.8671
 3374SOL     OW21583   2.630   4.507   0.652  0.4218 -0.4251 -0.1589
 3374SOL    HW121584   2.618   4.422   0.694 -0.4305  0.0523  0.5855
 3374SOL    HW221585   2.625   4.572   0.722  1.0323 -1.0233  0.4418
 3375SOL     OW21586   0.192   3.069   5.225  0.5229 -0.0435  0.6017
 3375SOL    HW121587   0.165   3.155   5.193  0.7926  0.8493  2.8024
 3375SOL    HW221588   0.144   3.006   5.170  2.4117 -0.1219 -0.9879
 3376SOL     OW21589   4.703   2.441   2.608  0.3283  0.4370  0.0647
 3376SOL    HW121590   4.659   2.472   2.529  2.7304  1.9555 -0.7036
 3376SOL    HW221591   4.643   2.470   2.677  1.9073  0.7512  1.3182
 3377SOL     OW21592   4.626   3.970  16.683  0.0625  0.5901 -0.0852
 3377SOL    HW121593   4.708   3.951  16.637 -0.4986 -1.6893 -0.1823
 3377SOL    HW221594   4.577   4.016  16.616 -0.8232 -0.7903 -0.3927
 3378SOL     OW21595   3.563   0.625   5.560  0.9922  0.1678 -0.9509
 3378SOL    HW121596   3.510   0.698   5.528  1.0791  0.9027  0.5767
 3378SOL    HW221597   3.639   0.663   5.605  1.9040 -1.5665 -1.0346
 3379SOL     OW21598   1.192   2.568   7.108 -0.4426 -0.3528  0.3157
 3379SOL    HW121599   1.185   2.586   7.201  0.4022 -1.7547  0.6571
 3379SOL    HW221600   1.275   2.521   7.103 -0.6279 -0.6429 -0.0267
 3380SOL     OW21601   3.388   2.386   8.177 -0.1923 -0.4274 -0.0244
 3380SOL    HW121602   3.363   2.343   8.259 -0.3883  0.3694  0.3366
 3380SOL    HW221603   3.462   2.327   8.163  0.0235 -0.3292  0.7051
 3381SOL     OW21604   1.579   3.374  15.790 -0.1748 -0.5602  0.2760
 3381SOL    HW121605   1.524   3.366  15.712 -0.1967  2.0397  0.0185
 3381SOL    HW221606   1.648   3.430  15.755  0.1880 -1.4172 -0.3479
 3382SOL     OW21607   2.327   3.720  14.773  0.0026  0.1337  0.3337
 3382SOL    HW121608   2.261   3.674  14.720  0.7236 -1.2744  0.6519
 3382SOL    HW221609   2.305   3.692  14.862 -0.4917  1.8903  0.7506
 3383SOL     OW21610   1.506   0.285   5.048  0.1835 -0.3310  0.0960
 3383SOL    HW121611   1.562   0.285   4.970 -1.5922  1.4370 -1.1797
 3383SOL    HW221612   1.435   0.229   5.014  0.7353 -0.0591 -1.5065
 3384SOL     OW21613   0.029   0.550  15.841  0.4515  0.0826 -0.0247
 3384SOL    HW121614   0.093   0.612  15.807  1.9809 -1.7268 -0.4145
 3384SOL    HW221615   4.690   0.604  15.887  0.7623 -1.5183  2.3149
 3385SOL     OW21616   1.260   4.338   6.608  0.6599  0.5395  0.1715
 3385SOL    HW121617   1.282   4.333   6.515 -0.3833 -0.1456 -0.0324
 3385SOL    HW221618   1.322   4.404   6.640  0.2833  0.2531  1.4943
 3386SOL     OW21619   0.326   2.593  10.247 -0.3317 -0.1247 -0.4360
 3386SOL    HW121620   0.307   2.568  10.338 -1.0203  0.7527 -0.3345
 3386SOL    HW221621   0.420   2.575  10.244 -0.2840 -0.0277  0.3464
 3387SOL     OW21622   1.949   0.117   7.184  0.3424 -0.0037  0.6464
 3387SOL    HW121623   1.898   0.067   7.120 -0.0676 -0.3501  1.2468
 3387SOL    HW221624   2.036   0.090   7.154  0.2685 -0.7701  1.1264
 3388SOL     OW21625   2.120   3.829   7.263 -0.0594  0.0553 -0.2192
 3388SOL    HW121626   2.027   3.810   7.248 -0.1883 -1.1379  2.1158
 3388SOL    HW221627   2.120   3.914   7.220 -1.3537  0.4980  0.6387
 3389SOL     OW21628   3.935   2.522   3.722  0.0008  0.3903 -0.1949
 3389SOL    HW121629   4.029   2.522   3.701  1.1378 -2.4297  4.7745
 3389SOL    HW221630   3.923   2.537   3.816 -1.5903  0.0276 -0.3353
 3390SOL     OW21631   4.498   1.728  16.717  0.4303 -0.3785  0.2965
 3390SOL    HW121632   4.428   1.778  16.759  1.8391  1.7253  0.1147
 3390SOL    HW221633   4.443   1.664  16.672  0.0999  0.4201 -0.4232
 3391SOL     OW21634   3.019   1.670  10.342 -0.3366 -0.5580  0.3126
 3391SOL    HW121635   3.089   1.614  10.375  0.8321  0.1476 -0.9741
 3391SOL    HW221636   2.955   1.666  10.414  0.7346  0.2447  1.3023
 3392SOL     OW21637   4.125   2.592   1.138  0.2225  0.0462 -0.1744
 3392SOL    HW121638   4.159   2.503   1.131  2.0822  0.7033  0.3523
 3392SOL    HW221639   4.064   2.584   1.065  0.9535 -2.4061 -0.5267
 3393SOL     OW21640   4.003   2.967  12.451 -0.2788  0.0677  0.4028
 3393SOL    HW121641   4.069   2.952  12.519 -0.8774 -0.3251  0.8904
 3393SOL    HW221642   4.033   2.917  12.375  0.1610  0.2744  0.4430
 3394SOL     OW21643   2.590   1.784  16.095  0.3100 -0.0991  0.0990
 3394SOL    HW121644   2.531   1.713  16.124  0.1772  0.5778  1.4863
 3394SOL    HW221645   2.537   1.850  16.050 -0.0008  0.5451  1.3963
 3395SOL     OW21646   4.671   4.206  16.297 -0.1141  0.0217  0.4374
 3395SOL    HW121647   0.037   4.177  16.291 -0.9066 -2.0094 -1.6993
 3395SOL    HW221648   4.662   4.300  16.278  0.0710  0.0449  0.4723
 3396SOL     OW21649   2.860   3.651   6.351  0.1370  0.7836 -0.0638
 3396SOL    HW121650   2.809   3.712   6.298 -2.2914 -0.6935  0.6036
 3396SOL    HW221651   2.795   3.635   6.419  1.5197 -0.9272  0.8477
 3397SOL     OW21652   2.421   4.709   9.260 -0.3013 -0.4174  0.6970
 3397SOL    HW121653   2.508   4.715   9.299  0.3438  1.4111 -1.0203
 3397SOL    HW221654   2.408   0.079   9.252 -0.2683 -0.7175 -2.8721
 3398SOL     OW21655   0.327   2.194   6.462 -0.3477 -0.2836  0.2720
 3398SOL    HW121656   0.407   2.144   6.447 -0.5490 -0.8626  1.1082
 3398SOL    HW221657   0.261   2.133   6.430 -0.3659 -0.0221 -0.1874
 3399SOL     OW21658   1.661   4.339   0.551 -0.4663 -0.0752  0.1263
 3399SOL    HW121659   1.714   4.263   0.578 -0.6052 -0.3428 -0.3438
 3399SOL    HW221660   1.721   4.411   0.573  1.5443 -1.7390  0.1405
 3400SOL     OW21661   1.335   3.195  15.004  0.0076 -0.0487 -0.1555
 3400SOL    HW121662   1.416   3.238  15.031 -1.1080  1.5339  0.6807
 3400SOL    HW221663   1.291   3.274  14.974  0.8860  0.5232  0.0584
 3401SOL     OW21664   1.594   0.865   2.641 -0.3325 -0.5504  0.7071
 3401SOL    HW121665   1.505   0.862   2.678 -0.0793  3.1740  1.5710
 3401SOL    HW221666   1.654   0.870   2.715  1.0800 -2.2834 -0.3216
 3402SOL     OW21667   0.141   3.626  14.641 -0.1692  0.7433 -0.5682
 3402SOL    HW121668   0.231   3.619  14.676 -0.4926  1.5231  0.4355
 3402SOL    HW221669   0.119   3.715  14.669 -0.6138 -0.3785  2.7435
 3403SOL     OW21670   2.355   0.708  10.755 -0.2632  0.1161  0.2223
 3403SOL    HW121671   2.285   0.643  10.756  2.2537 -2.5845  0.1153
 3403SOL    HW221672   2.346   0.737  10.846  2.4066  0.8556  0.2657
 3404SOL     OW21673   2.356   2.822   5.365 -0.1657  0.4068 -0.2905
 3404SOL    HW121674   2.321   2.752   5.420 -0.6825 -0.7169 -2.0636
 3404SOL    HW221675   2.434   2.847   5.415  0.0665  1.5932 -1.2431
 3405SOL     OW21676   3.763   0.998   1.743  0.4677  0.0147 -0.2020
 3405SOL    HW121677   3.804   0.969   1.661  1.2429 -1.8831  0.8580
 3405SOL    HW221678   3.703   0.926   1.762 -0.8550  1.1094 -0.2015
 3406SOL     OW21679   1.394   1.340   2.427 -0.0022 -0.3716 -0.2603
 3406SOL    HW121680   1.451   1.264   2.437  0.9193  0.5150  1.3915
 3406SOL    HW221681   1.435   1.397   2.362  0.3564  1.1137  1.2621
 3407SOL     OW21682   4.182   1.429  12.598  0.4040  0.1771 -0.1478
 3407SOL    HW121683   4.104   1.478  12.571 -0.8006 -1.2126  0.7956
 3407SOL    HW221684   4.163   1.337  12.578  0.3243 -0.5124  3.1819
 3408SOL     OW21685   0.142   0.723   5.844 -0.8123  0.2175  0.4563
 3408SOL    HW121686   0.133   0.788   5.913 -3.2861 -1.8447  2.0983
 3408SOL    HW221687   0.218   0.752   5.793 -0.0460 -0.2680  1.3238
 3409SOL     OW21688   1.545   0.548   3.064 -0.0400  0.0596  0.7380
 3409SOL    HW121689   1.465   0.516   3.105  0.0212 -0.4519  0.4576
 3409SOL    HW221690   1.512   0.592   2.986 -0.3954 -0.2906  0.6889
 3410SOL     OW21691   2.546   2.870   6.317 -0.3259  0.6324 -0.0397
 3410SOL    HW121692   2.550   2.965   6.327 -1.1036  0.8076 -1.2974
 3410SOL    HW221693   2.452   2.862   6.299 -0.3834  0.6754  0.2445
 3411SOL     OW21694   2.958   0.197  12.281  0.4885  0.1694  0.4771
 3411SOL    HW121695   3.011   0.134  12.332  0.8576  1.2445  1.4209
 3411SOL    HW221696   2.900   0.237  12.345 -1.0903  1.8506 -2.0339
 3412SOL     OW21697   1.855   3.020   0.024 -0.2435  0.1830  0.4225
 3412SOL    HW121698   1.812   3.054  17.646  1.3314  0.6213 -0.2532
 3412SOL    HW221699   1.802   2.945   0.051  0.9718 -1.0154 -0.5410
 3413SOL     OW21700   0.232   2.077  13.703 -0.2186  0.9079  0.3258
 3413SOL    HW121701   0.312   2.036  13.669  1.0387  2.4529  1.4248
 3413SOL    HW221702   0.261   2.159  13.742 -0.9628  0.7507  1.1977
 3414SOL     OW21703   3.592   3.612  15.241  0.2469 -0.4797  0.5158
 3414SOL    HW121704   3.685   3.617  15.219 -0.3649 -0.2944 -2.1106
 3414SOL    HW221705   3.589   3.597  15.335  1.2908 -1.1286  0.4524
 3415SOL     OW21706   2.975   0.051   1.865 -0.1407  0.6328 -0.1902
 3415SOL    HW121707   3.040   4.706   1.877 -1.5983 -0.0593  3.6850
 3415SOL    HW221708   2.914   0.021   1.798 -1.4499  0.5917  1.0189
 3416SOL     OW21709   0.443   2.969   5.255 -0.2384 -0.3715  0.2176
 3416SOL    HW121710   0.351   2.996   5.246  0.2932  1.2297 -0.3484
 3416SOL    HW221711   0.442   2.975   5.350 -0.6173 -0.5177  0.2247
 3417SOL     OW21712   4.090   0.067  14.085 -0.1221 -0.3414  0.4098
 3417SOL    HW121713   4.084   0.159  14.109  2.0827  0.9640 -3.9920
 3417SOL    HW221714   4.066   0.072  13.992 -0.0795 -0.2045  0.4056
 3418SOL     OW21715   3.625   2.337   7.014  0.1196 -0.3351 -0.5247
 3418SOL    HW121716   3.708   2.304   7.049 -0.6561  0.9294  2.5234
 3418SOL    HW221717   3.617   2.313   6.922 -1.2620 -0.9424 -0.2483
 3419SOL     OW21718   0.628   0.853   1.351  0.0705 -0.0497  0.5066
 3419SOL    HW121719   0.589   0.896   1.275 -2.1260 -0.6594  1.3042
 3419SOL    HW221720   0.563   0.843   1.420  0.8456  0.0863  1.2614
 3420SOL     OW21721   2.673   0.611   6.113  0.2480 -0.1731  0.1364
 3420SOL    HW121722   2.692   0.523   6.144  0.8906 -0.2920 -0.6160
 3420SOL    HW221723   2.731   0.630   6.039 -1.6501  1.9171 -0.8382
 3421SOL     OW21724   3.400   2.847   5.682  0.1449 -1.0015 -0.2341
 3421SOL    HW121725   3.476   2.809   5.726  0.9966 -0.1643 -0.9759
 3421SOL    HW221726   3.344   2.770   5.674 -0.4118 -0.5238 -0.8778
 3422SOL     OW21727   1.337   4.095   0.805 -0.8664  0.0759 -1.0199
 3422SOL    HW121728   1.413   4.153   0.796 -0.3046 -0.4977 -0.0464
 3422SOL    HW221729   1.383   4.024   0.849 -0.0771 -0.2752 -2.4091
 3423SOL     OW21730   3.854   3.147   7.743 -0.2027  0.4440 -0.7369
 3423SOL    HW121731   3.771   3.174   7.704 -2.2498  0.4319  3.6103
 3423SOL    HW221732   3.860   3.069   7.688  0.1793  1.1747 -1.7332
 3424SOL     OW21733   3.310   2.535   9.634  0.2108  0.0627 -0.1111
 3424SOL    HW121734   3.393   2.542   9.681  0.8881 -0.7417 -1.1756
 3424SOL    HW221735   3.288   2.443   9.647 -0.0702 -0.0343 -1.2575
 3425SOL     OW21736   1.232   4.041   5.757  0.1870  0.1861  0.1988
 3425SOL    HW121737   1.194   4.037   5.669 -1.9486 -3.5084  1.2667
 3425SOL    HW221738   1.280   4.123   5.747  1.0545 -0.3345  0.1046
 3426SOL     OW21739   3.143   0.353   9.387 -0.1706 -0.3507 -0.4025
 3426SOL    HW121740   3.100   0.422   9.438 -0.0297 -0.5445 -0.0208
 3426SOL    HW221741   3.108   0.377   9.302 -0.4147  1.4520  0.2141
 3427SOL     OW21742   4.509   1.734   6.177  0.2932 -0.4513 -0.1325
 3427SOL    HW121743   4.459   1.777   6.247 -2.3311 -0.1320 -2.2282
 3427SOL    HW221744   4.498   1.793   6.103 -0.1006 -0.0688  0.2290
 3428SOL     OW21745   3.273   3.438   1.864  0.3754 -0.3070  0.2901
 3428SOL    HW121746   3.221   3.484   1.798  0.2924 -2.1804 -0.9369
 3428SOL    HW221747   3.296   3.354   1.824  0.1438 -0.3635  0.2763
 3429SOL     OW21748   4.425   4.452   9.272 -0.3329 -0.5748  0.3606
 3429SOL    HW121749   4.444   4.361   9.293 -2.4351 -1.1719 -0.3275
 3429SOL    HW221750   4.367   4.477   9.344 -0.1967 -1.1840  0.6867
 3430SOL     OW21751   2.994   3.260   7.676 -0.7423 -0.0858 -0.4173
 3430SOL    HW121752   2.999   3.168   7.699  1.6121 -0.3566 -2.0147
 3430SOL    HW221753   3.021   3.267   7.585 -0.0499 -1.3981 -0.2991
 3431SOL     OW21754   0.968   3.006   3.758 -0.0074 -0.1607 -0.3778
 3431SOL    HW121755   0.890   2.951   3.761 -0.9208  1.1042 -0.4847
 3431SOL    HW221756   0.957   3.043   3.670 -2.9846 -1.7269 -0.6606
 3432SOL     OW21757   1.269   0.348   8.329 -0.1609  1.0124  0.2333
 3432SOL    HW121758   1.225   0.359   8.414 -1.5929 -1.5159 -0.1732
 3432SOL    HW221759   1.362   0.342   8.352  0.3743  1.4729 -1.8411
 3433SOL     OW21760   2.419   3.265   6.872  0.4350  0.0268  0.4963
 3433SOL    HW121761   2.483   3.336   6.874 -1.5500  1.9009 -2.0998
 3433SOL    HW221762   2.447   3.229   6.788  0.8415  2.4556 -0.3990
 3434SOL     OW21763   1.317   2.793   2.302  0.0489  0.7336  0.2900
 3434SOL    HW121764   1.284   2.729   2.240 -0.9233  1.3026  0.2155
 3434SOL    HW221765   1.399   2.755   2.332 -0.8011 -2.0623 -0.9659
 3435SOL     OW21766   1.404   1.284  12.220  0.3624  0.4114  0.2055
 3435SOL    HW121767   1.360   1.232  12.288  0.1759 -0.5868 -0.6730
 3435SOL    HW221768   1.494   1.277  12.254  0.6750  0.7336 -0.5665
 3436SOL     OW21769   2.609   1.280   5.783  0.4953 -0.1978  0.5056
 3436SOL    HW121770   2.525   1.246   5.814  1.0649 -0.5413  1.6858
 3436SOL    HW221771   2.606   1.368   5.818  0.5129 -0.1041  0.2712
 3437SOL     OW21772   0.015   3.635   2.489 -0.4940 -0.1427 -0.6366
 3437SOL    HW121773   0.059   3.556   2.519  0.5267 -0.3961 -2.8179
 3437SOL    HW221774   0.036   3.636   2.395  1.3414 -3.0802 -0.2652
 3438SOL     OW21775   4.691   2.560  11.413  0.5400  0.5686 -0.4860
 3438SOL    HW121776   4.635   2.628  11.377 -0.1216  0.0840 -0.3682
 3438SOL    HW221777   4.707   2.616  11.490 -1.0107 -1.3463  1.2412
 3439SOL     OW21778   1.363   4.693   0.074  0.4288  0.1385  0.6567
 3439SOL    HW121779   1.276   4.693   0.033  0.7769  0.9352 -0.0992
 3439SOL    HW221780   1.419   4.689  17.696  0.6889 -1.0351  0.9036
 3440SOL     OW21781   0.090   3.913   4.740  0.1289  0.2890  0.0313
 3440SOL    HW121782   0.001   3.879   4.733 -0.5253  1.7892  1.2029
 3440SOL    HW221783   0.150   3.857   4.690  0.4845  0.2045  0.5458
 3441SOL     OW21784   4.174   0.929   2.301  0.3160  0.3019 -0.0177
 3441SOL    HW121785   4.191   0.961   2.212 -0.4513 -1.8618 -0.9416
 3441SOL    HW221786   4.148   1.011   2.342  0.8080 -0.0706  1.0388
 3442SOL     OW21787   2.106   3.248  14.221 -0.0184  0.0848  0.4058
 3442SOL    HW121788   2.144   3.218  14.304  0.0465  0.0272  0.3550
 3442SOL    HW221789   2.185   3.272  14.173 -0.1326  0.9286  0.6418
 3443SOL     OW21790   2.247   1.971  15.190  0.7765 -0.5025  0.3857
 3443SOL    HW121791   2.238   1.881  15.161  0.1125  0.2053 -1.6203
 3443SOL    HW221792   2.305   1.965  15.265  0.2971  2.5667  1.0190
 3444SOL     OW21793   1.790   0.030   8.082  0.2259  0.4028  0.1174
 3444SOL    HW121794   1.847   0.107   8.075  0.6815 -0.0331 -1.0283
 3444SOL    HW221795   1.703   0.069   8.089  0.8871  2.2328 -1.7555
 3445SOL     OW21796   0.342   2.687   8.474  0.1774  0.5838  0.1508
 3445SOL    HW121797   0.299   2.723   8.397 -1.6093 -1.3736  0.2374
 3445SOL    HW221798   0.297   2.726   8.550 -1.4001 -0.5727 -0.1952
 3446SOL     OW21799   4.339   1.187   1.071 -0.4375  0.0372  0.2136
 3446SOL    HW121800   4.287   1.107   1.075 -1.0433  0.5392  2.1966
 3446SOL    HW221801   4.403   1.161   1.005 -1.6368 -1.6679 -0.2843
 3447SOL     OW21802   1.963   4.394   3.604  0.5598  0.6482 -0.5602
 3447SOL    HW121803   1.876   4.365   3.577  0.9244 -0.4003 -0.6059
 3447SOL    HW221804   1.996   4.318   3.651 -0.2659  1.1983  0.9361
 3448SOL     OW21805   1.645   4.058  15.794 -0.2471  0.2114 -0.3185
 3448SOL    HW121806   1.714   4.067  15.728 -0.7868  0.7119 -0.8043
 3448SOL    HW221807   1.683   3.981  15.836 -0.2448 -0.4051 -1.4580
 3449SOL     OW21808   4.111   3.053   6.166 -0.0797  0.5491  0.2585
 3449SOL    HW121809   4.194   3.083   6.203 -0.1826  1.5538 -0.3523
 3449SOL    HW221810   4.092   3.120   6.102 -1.7236 -2.0122 -1.9545
 3450SOL     OW21811   3.242   3.605   5.370  0.1677  0.2444 -0.2883
 3450SOL    HW121812   3.200   3.683   5.407  0.3123  1.0901 -1.9026
 3450SOL    HW221813   3.175   3.537   5.377  1.9175 -1.5832 -1.4431
 3451SOL     OW21814   1.066   1.163   7.912 -0.3735 -0.2684  0.1932
 3451SOL    HW121815   1.148   1.125   7.945 -0.1613  1.5612  1.7183
 3451SOL    HW221816   1.004   1.111   7.962  0.9199 -3.5415 -1.5599
 3452SOL     OW21817   2.016   0.566   4.693 -0.5775 -0.5095  0.2284
 3452SOL    HW121818   1.963   0.631   4.648  1.5458  0.1097 -1.3679
 3452SOL    HW221819   2.092   0.618   4.719 -2.0482  0.6522  2.2168
 3453SOL     OW21820   2.427   4.205   5.731  0.0880  0.9537 -0.1763
 3453SOL    HW121821   2.491   4.255   5.681  0.7182 -0.7502 -1.0714
 3453SOL    HW221822   2.355   4.203   5.668  1.6817 -0.1982 -1.9623
 3454SOL     OW21823   1.855   0.190  10.595 -0.0632  0.1265 -0.3354
 3454SOL    HW121824   1.825   0.186  10.504 -2.3442 -2.1991  0.5235
 3454SOL    HW221825   1.791   0.126  10.626  1.1333 -0.8365  0.1314
 3455SOL     OW21826   3.746   0.400  15.472 -0.3808  0.3181 -0.3492
 3455SOL    HW121827   3.732   0.381  15.379  1.4138  1.9661 -0.9578
 3455SOL    HW221828   3.753   0.314  15.513  1.0561 -0.4908 -2.2834
 3456SOL     OW21829   4.434   1.972   8.983  0.2905  0.0907  0.6680
 3456SOL    HW121830   4.359   1.913   8.994  0.1981  0.0618 -0.1106
 3456SOL    HW221831   4.491   1.917   8.929 -0.1106 -0.8819  1.2381
 3457SOL     OW21832   0.824   1.540   2.166 -0.6604 -0.7050 -0.0495
 3457SOL    HW121833   0.742   1.581   2.140  0.1509  1.3726  0.7026
 3457SOL    HW221834   0.869   1.614   2.206 -0.2048 -0.4117 -1.0993
 3458SOL     OW21835   3.716   3.552  16.826  0.1515 -0.5810  0.4574
 3458SOL    HW121836   3.746   3.560  16.917  0.6656  0.3543  0.2042
 3458SOL    HW221837   3.676   3.638  16.808  2.2624  0.6658  1.6425
 3459SOL     OW21838   4.149   3.101   1.091 -0.1685  0.6643  0.0554
 3459SOL    HW121839   4.128   3.132   1.179  2.1188  0.3529  0.7150
 3459SOL    HW221840   4.150   3.185   1.045 -0.5030  0.4732 -0.2917
 3460SOL     OW21841   1.376   2.568   1.681 -0.3388 -0.0827 -0.6535
 3460SOL    HW121842   1.359   2.507   1.609  1.7996  1.1545 -2.1996
 3460SOL    HW221843   1.460   2.533   1.710 -0.4225  0.4815  0.2433
 3461SOL     OW21844   2.089   0.923   4.165 -0.3394  0.0042 -0.1013
 3461SOL    HW121845   2.031   0.890   4.096 -0.8931  0.3765  0.1817
 3461SOL    HW221846   2.059   1.014   4.170  0.4739  0.1778  1.3569
 3462SOL     OW21847   0.992   4.586  12.279  0.5310  0.1306  0.5593
 3462SOL    HW121848   0.983   4.616  12.189  1.8734 -0.6349  0.1636
 3462SOL    HW221849   0.991   4.492  12.258 -0.2988 -0.0043  1.2103
 3463SOL     OW21850   2.719   3.769   8.873 -0.0385  0.4648  0.0420
 3463SOL    HW121851   2.659   3.748   8.802  1.2407 -0.4957 -0.7523
 3463SOL    HW221852   2.780   3.695   8.862 -2.1084 -1.3778  0.8724
 3464SOL     OW21853   4.298   2.642   1.368  0.1988  1.1641 -0.1282
 3464SOL    HW121854   4.330   2.553   1.353 -2.5034  0.1350  0.1380
 3464SOL    HW221855   4.244   2.650   1.289 -3.0854 -0.5290  1.9556
 3465SOL     OW21856   1.554   0.384   0.860 -0.3582  0.0412  0.5174
 3465SOL    HW121857   1.620   0.348   0.919  0.4698  1.8778  0.7037
 3465SOL    HW221858   1.590   0.471   0.842  0.0090 -0.3826 -0.7714
 3466SOL     OW21859   3.035   1.577  14.781  0.7510  0.0166 -0.5219
 3466SOL    HW121860   2.954   1.599  14.827 -0.4375  1.3880 -3.3099
 3466SOL    HW221861   3.099   1.618  14.839  0.2303 -2.0962  1.5679
 3467SOL     OW21862   3.546   3.351   3.448 -0.4202 -0.1013 -0.0120
 3467SOL    HW121863   3.534   3.295   3.524 -0.1017 -2.1311 -1.4529
 3467SOL    HW221864   3.454   3.362   3.422 -0.5343  0.6825  0.7320
 3468SOL     OW21865   3.218   2.275   2.181 -0.1063  0.2862 -0.1081
 3468SOL    HW121866   3.137   2.225   2.182 -0.8175  1.4000 -2.3197
 3468SOL    HW221867   3.176   2.357   2.208  0.2590  0.2445  0.5858
 3469SOL     OW21868   1.292   1.134   2.880  0.3118  0.3885 -0.1365
 3469SOL    HW121869   1.366   1.188   2.851 -0.3794  0.7268 -1.2466
 3469SOL    HW221870   1.221   1.156   2.820  0.8902  0.4750 -0.7892
 3470SOL     OW21871   1.628   1.366   3.958 -0.3152  0.1738 -0.5975
 3470SOL    HW121872   1.662   1.279   3.941  2.7717  1.0590  0.9153
 3470SOL    HW221873   1.690   1.425   3.915 -0.7285 -0.0601 -1.5041
 3471SOL     OW21874   2.974   1.694  12.629 -0.3253  0.1113 -0.2862
 3471SOL    HW121875   2.959   1.765  12.567 -0.5423  0.6272  0.3694
 3471SOL    HW221876   2.951   1.743  12.708  1.6778  1.8117 -0.7595
 3472SOL     OW21877   4.692   2.391  16.912  0.0462  0.1899 -0.2232
 3472SOL    HW121878   4.717   2.359  16.999 -1.4560 -1.5324 -0.4352
 3472SOL    HW221879   4.678   2.483  16.934 -1.7030 -0.0059 -0.5437
 3473SOL     OW21880   2.957   2.969   8.621 -0.0859  0.0454  0.4099
 3473SOL    HW121881   2.977   2.880   8.649 -0.8113  0.3798  2.0174
 3473SOL    HW221882   2.943   3.010   8.706  2.3537 -0.2810  0.9857
 3474SOL     OW21883   3.943   1.278  13.119 -0.5494  0.1954  0.7035
 3474SOL    HW121884   4.014   1.282  13.055 -0.4099  3.7449  1.0754
 3474SOL    HW221885   3.875   1.318  13.065 -1.6495 -0.5314  1.5720
 3475SOL     OW21886   2.609   1.197   6.552 -0.4849  0.1041 -0.3428
 3475SOL    HW121887   2.611   1.101   6.547 -0.1345  0.1014 -0.1372
 3475SOL    HW221888   2.564   1.222   6.471  1.0302  0.6841 -0.9947
 3476SOL     OW21889   0.312   2.470   9.666  0.2760 -0.3668  0.8905
 3476SOL    HW121890   0.391   2.516   9.638 -1.3318  0.9808 -1.4633
 3476SOL    HW221891   0.327   2.464   9.760 -1.0037 -1.1506  1.0452
 3477SOL     OW21892   3.583   3.499   1.334  0.2701 -0.0116  0.3263
 3477SOL    HW121893   3.574   3.423   1.391 -0.1398 -1.4675 -1.7047
 3477SOL    HW221894   3.509   3.553   1.361 -0.0502 -0.0717 -0.4305
 3478SOL     OW21895   3.802   3.992   0.562 -0.4497  0.3993  0.1622
 3478SOL    HW121896   3.786   3.980   0.656 -1.4804 -2.1726 -0.3406
 3478SOL    HW221897   3.710   4.005   0.538 -1.5516 -4.0346  1.8478
 3479SOL     OW21898   3.088   1.803  13.204  0.9387 -0.1605 -0.1437
 3479SOL    HW121899   3.002   1.769  13.180  0.6364  0.4493  0.0560
 3479SOL    HW221900   3.140   1.731  13.169 -1.6493 -1.4879 -1.2331
 3480SOL     OW21901   1.551   3.937   6.835  0.5050 -0.2777 -0.2940
 3480SOL    HW121902   1.550   3.994   6.758 -1.7351  1.2044  0.8405
 3480SOL    HW221903   1.469   3.957   6.879  0.3052 -0.3448 -0.6374
 3481SOL     OW21904   2.806   0.929   9.045  0.0367  0.0354  0.1618
 3481SOL    HW121905   2.854   0.958   9.122 -1.4891  1.1066  0.7172
 3481SOL    HW221906   2.876   0.910   8.982 -0.6355  0.3736 -0.6996
 3482SOL     OW21907   2.602   1.370   3.219  0.3745  0.4573 -0.0702
 3482SOL    HW121908   2.535   1.361   3.288 -0.7435 -2.5212 -1.5508
 3482SOL    HW221909   2.552   1.419   3.154  1.1496  1.9864  0.4863
 3483SOL     OW21910   2.924   1.256  15.642  0.7214  0.0687 -0.4688
 3483SOL    HW121911   2.989   1.300  15.696  1.7708 -2.6573  0.5302
 3483SOL    HW221912   2.934   1.311  15.565 -0.9469 -1.0029 -1.4615
 3484SOL     OW21913   2.329   4.545   3.791  0.0024  0.2544 -0.3076
 3484SOL    HW121914   2.340   4.553   3.696 -0.4041 -1.0928 -0.4704
 3484SOL    HW221915   2.277   4.465   3.785 -1.6670  1.3316 -0.2678
 3485SOL     OW21916   3.800   1.952   9.620 -0.3189 -0.5142  0.2337
 3485SOL    HW121917   3.765   1.865   9.600  0.7825 -1.1556  1.0839
 3485SOL    HW221918   3.724   1.993   9.660 -0.0323  1.3677 -1.1398
 3486SOL     OW21919   4.382   2.885   9.897 -0.2322  0.1536  0.3844
 3486SOL    HW121920   4.399   2.968   9.941  1.4017  0.0404 -0.0105
 3486SOL    HW221921   4.344   2.929   9.821  1.6524 -1.4785 -1.4965
 3487SOL     OW21922   2.707   3.616  13.387 -0.9817  0.2696  0.5898
 3487SOL    HW121923   2.798   3.641  13.369 -0.2749 -2.8625 -0.1836
 3487SOL    HW221924   2.692   3.566  13.306  0.0661 -1.0794  1.2337
 3488SOL     OW21925   3.545   2.529   2.893  0.3194 -0.7396 -0.1334
 3488SOL    HW121926   3.576   2.496   2.809  1.5222  0.1099 -0.0162
 3488SOL    HW221927   3.616   2.512   2.955  1.2967  1.1140 -0.7379
 3489SOL     OW21928   3.451   0.920   3.990 -0.4271  0.7957 -0.1352
 3489SOL    HW121929   3.436   0.847   4.050  1.3905 -1.5448 -2.4924
 3489SOL    HW221930   3.506   0.882   3.921  0.0056  2.0230 -0.4699
 3490SOL     OW21931   1.498   2.450   4.662 -0.2322 -0.2238  0.1624
 3490SOL    HW121932   1.562   2.473   4.729 -0.4861  1.0299 -0.0307
 3490SOL    HW221933   1.498   2.355   4.677  1.8594 -0.5218 -1.6834
 3491SOL     OW21934   4.673   3.608   3.241  0.3670  0.2898 -0.4835
 3491SOL    HW121935   0.015   3.660   3.196 -0.4322  1.2454 -0.5544
 3491SOL    HW221936   4.723   3.549   3.297 -3.1874 -2.4161 -0.1065
 3492SOL     OW21937   0.676   1.118   6.677 -0.1857 -0.1099 -1.0779
 3492SOL    HW121938   0.660   1.213   6.674 -3.1238 -0.5850 -0.4522
 3492SOL    HW221939   0.644   1.101   6.589 -0.1934  0.3977 -1.1762
 3493SOL     OW21940   0.202   2.303   2.919 -0.1829  0.1346  0.5473
 3493SOL    HW121941   0.185   2.397   2.915 -0.2248  0.0114 -2.7102
 3493SOL    HW221942   0.115   2.272   2.941  0.1949 -1.1540  0.2550
 3494SOL     OW21943   0.146   0.207   3.191  0.2314 -0.0131  0.2688
 3494SOL    HW121944   0.180   0.121   3.215  0.8889 -0.5802 -2.6910
 3494SOL    HW221945   0.153   0.216   3.096 -0.3274  0.9716  0.3210
 3495SOL     OW21946   4.113   3.252   7.101 -0.1598  0.1739 -0.4485
 3495SOL    HW121947   4.069   3.233   7.184  2.1175 -1.4997  0.3553
 3495SOL    HW221948   4.073   3.335   7.072 -0.0399 -0.9880 -4.0040
 3496SOL     OW21949   0.257   4.210  15.982  0.4928 -0.2459 -0.4216
 3496SOL    HW121950   0.278   4.136  15.924  2.7333 -0.4728  0.6682
 3496SOL    HW221951   0.345   4.246  15.994  0.1188 -0.1369  1.8339
 3497SOL     OW21952   3.813   2.114  13.614 -0.3932 -0.2783  0.0555
 3497SOL    HW121953   3.833   2.034  13.566 -0.7995  0.6859 -1.6942
 3497SOL    HW221954   3.753   2.082  13.682  0.3339 -1.9945 -0.1158
 3498SOL     OW21955   0.032   2.691   2.431 -0.4562 -0.3605 -0.4353
 3498SOL    HW121956   0.043   2.782   2.458  2.3252 -1.4398  2.1594
 3498SOL    HW221957   4.667   2.695   2.397 -1.1213 -0.4213  1.3082
 3499SOL     OW21958   1.839   0.821  17.399  0.0630 -0.2162 -0.1508
 3499SOL    HW121959   1.783   0.870  17.340 -1.7622 -1.4902  0.5170
 3499SOL    HW221960   1.920   0.809  17.349 -0.0283 -4.2873  0.6732
 3500SOL     OW21961   3.368   4.068   7.469  0.3065  0.6271  0.0606
 3500SOL    HW121962   3.283   4.024   7.462  0.2805  0.2276  3.1317
 3500SOL    HW221963   3.351   4.129   7.540 -1.3939 -1.2231  1.2654
 3501SOL     OW21964   3.434   3.026  14.331  0.0828  0.4321 -0.0690
 3501SOL    HW121965   3.402   3.115  14.318  1.5358  0.9780  0.0685
 3501SOL    HW221966   3.391   3.006  14.414 -1.1251 -0.0168 -0.8089
 3502SOL     OW21967   4.516   2.522  16.708  0.0593  0.0256 -0.5779
 3502SOL    HW121968   4.582   2.459  16.736 -0.1860  1.6007  3.4138
 3502SOL    HW221969   4.432   2.480  16.725  0.2471 -0.2662 -0.3921
 3503SOL     OW21970   4.568   1.152   9.063 -0.0585 -0.1070  0.1161
 3503SOL    HW121971   4.533   1.111   9.142  0.8321 -2.0516 -0.4835
 3503SOL    HW221972   4.575   1.242   9.092  0.5839 -0.2258  0.3360
 3504SOL     OW21973   3.687   2.140   4.256 -0.2375  0.4355 -0.5315
 3504SOL    HW121974   3.715   2.132   4.348 -1.3712  1.1133 -0.1365
 3504SOL    HW221975   3.678   2.235   4.255 -0.9041  0.4058  2.2509
 3505SOL     OW21976   0.206   4.395   8.585 -0.0708 -0.1396 -0.2334
 3505SOL    HW121977   0.287   4.350   8.609  0.8354  2.3711  1.3739
 3505SOL    HW221978   0.234   4.484   8.604  3.7181 -1.5411  0.8161
 3506SOL     OW21979   0.998   0.097  11.765 -0.0993 -0.2033 -0.0164
 3506SOL    HW121980   1.058   0.094  11.691 -0.8278  0.5317 -0.6505
 3506SOL    HW221981   1.049   0.131  11.838 -2.5002 -1.6661  2.3394
 3507SOL     OW21982   3.407   2.224  13.314  0.4417  0.4281  0.9022
 3507SOL    HW121983   3.436   2.308  13.280 -1.2583  0.3596 -0.7301
 3507SOL    HW221984   3.444   2.225  13.402  0.9071 -0.9558  0.7134
 3508SOL     OW21985   0.725   1.453  11.738  0.1791  0.0057  0.8682
 3508SOL    HW121986   0.718   1.454  11.834 -1.9952 -0.8607  0.7028
 3508SOL    HW221987   0.670   1.379  11.715  1.9697 -0.4516 -1.8784
 3509SOL     OW21988   0.542   4.671  16.927  0.2696  0.2901  0.1693
 3509SOL    HW121989   0.495   4.641  16.849 -0.9990 -1.7566  1.7229
 3509SOL    HW221990   0.497   0.030  16.941 -0.3715 -0.0884  0.3475
 3510SOL     OW21991   0.078   1.253  16.036  0.2441  0.2098  0.4464
 3510SOL    HW121992   0.044   1.307  15.964  3.1609 -1.4385 -2.1491
 3510SOL    HW221993   0.009   1.271  16.100 -0.6866 -0.6144 -0.3324
 3511SOL     OW21994   3.272   4.485   4.374 -0.2733 -0.0225  0.6227
 3511SOL    HW121995   3.282   4.446   4.287 -1.5247 -1.0315  0.9282
 3511SOL    HW221996   3.179   4.471   4.391 -0.2453 -0.2218  0.6205
 3512SOL     OW21997   4.715   4.184   8.713  0.5794  0.5887  0.6513
 3512SOL    HW121998   0.028   4.243   8.648  1.0236 -0.8203 -0.3890
 3512SOL    HW221999   4.687   4.250   8.776 -0.3072 -0.5327  1.4324
 3513SOL     OW22000   4.536   1.870   7.316 -0.0327  0.6718 -0.1812
 3513SOL    HW122001   4.534   1.963   7.291  3.5158  0.4055 -1.4091
 3513SOL    HW222002   4.482   1.875   7.395  1.3774  2.1278  0.6816
 3514SOL     OW22003   3.088   3.527   4.758  0.3955 -0.3035 -0.1704
 3514SOL    HW122004   3.098   3.467   4.684  0.6606 -0.3613 -0.0872
 3514SOL    HW222005   3.160   3.591   4.759 -0.7263  0.9827 -1.3956
 3515SOL     OW22006   1.347   3.239   5.827  0.4305 -0.1229 -0.7795
 3515SOL    HW122007   1.325   3.174   5.894 -1.3136  0.1695 -1.0626
 3515SOL    HW222008   1.315   3.195   5.748 -0.9116  0.5884 -0.6339
 3516SOL     OW22009   3.414   2.010   5.297  0.0562 -0.2839  0.1812
 3516SOL    HW122010   3.408   1.934   5.356 -0.9045 -0.2575  0.1175
 3516SOL    HW222011   3.328   2.002   5.256  0.7355 -0.4875 -1.1810
 3517SOL     OW22012   0.214   0.623   6.327  0.5225  0.3653  0.1866
 3517SOL    HW122013   0.155   0.681   6.279  0.0927 -0.6207 -0.4696
 3517SOL    HW222014   0.277   0.688   6.359 -0.4251  1.1309  0.5007
 3518SOL     OW22015   2.986   1.858   8.518  0.0049 -0.2626 -0.2144
 3518SOL    HW122016   2.933   1.782   8.541  0.4674 -0.2365  0.9515
 3518SOL    HW222017   2.922   1.906   8.466 -1.3483 -0.4240  1.3047
 3519SOL     OW22018   2.050   0.919   0.761  0.1298  0.5110  0.6644
 3519SOL    HW122019   2.132   0.880   0.728  0.4748 -0.1655  2.3416
 3519SOL    HW222020   2.071   1.012   0.747  3.1584 -0.2518  0.2127
 3520SOL     OW22021   4.317   0.712   0.330 -0.2568 -0.2928 -0.3797
 3520SOL    HW122022   4.354   0.625   0.341 -2.4312 -0.7649  3.1019
 3520SOL    HW222023   4.230   0.703   0.291 -1.4554  0.4339  2.0839
 3521SOL     OW22024   3.758   2.543  15.112  0.3784  0.1841  0.1775
 3521SOL    HW122025   3.830   2.480  15.108 -1.0234 -1.3843 -0.6279
 3521SOL    HW222026   3.803   2.627  15.116 -0.2301  0.5157 -0.0175
 3522SOL     OW22027   3.496   2.545   2.348  0.2834  0.1144  0.1636
 3522SOL    HW122028   3.542   2.519   2.268  0.8034 -0.0826  0.5205
 3522SOL    HW222029   3.540   2.630   2.357 -0.3882  0.5541 -0.6783
 3523SOL     OW22030   4.512   4.057   6.325 -0.4770 -0.3531  0.2073
 3523SOL    HW122031   4.514   3.970   6.364  0.5702 -0.0488  0.8393
 3523SOL    HW222032   4.462   4.096   6.396  1.7895  0.3962  1.4095
 3524SOL     OW22033   0.915   0.121  13.455  0.3853  0.1070  0.4379
 3524SOL    HW122034   0.953   0.097  13.371  2.0510 -0.4310  1.3428
 3524SOL    HW222035   0.993   0.121  13.512  0.8951  0.0639 -0.2560
 3525SOL     OW22036   0.686   1.977   4.507 -0.4709  0.6206  0.1216
 3525SOL    HW122037   0.665   2.055   4.455  0.3234  0.1740 -0.8778
 3525SOL    HW222038   0.611   1.967   4.566 -2.0968 -1.3758 -2.2979
 3526SOL     OW22039   0.524   1.432  14.801  0.4437 -0.7125 -0.1411
 3526SOL    HW122040   0.445   1.486  14.803 -0.2389 -1.7488  0.7554
 3526SOL    HW222041   0.553   1.435  14.709 -2.1885 -0.8119 -0.9780
 3527SOL     OW22042   2.645   3.541   0.392  0.3590 -0.0629  0.6237
 3527SOL    HW122043   2.628   3.450   0.416 -1.9657  0.1742 -0.1688
 3527SOL    HW222044   2.722   3.559   0.446  1.0838 -1.1166 -0.0381
 3528SOL     OW22045   1.790   2.327  11.354  0.6958 -0.4289  0.2579
 3528SOL    HW122046   1.861   2.300  11.412  1.4491  1.4696  0.2336
 3528SOL    HW222047   1.807   2.419  11.330 -0.1244 -0.5596 -0.7810
 3529SOL     OW22048   0.139   2.425   7.294  0.0853 -0.1846 -0.1869
 3529SOL    HW122049   0.140   2.468   7.379 -2.1359 -1.2023  0.3338
 3529SOL    HW222050   0.054   2.444   7.255  0.8934  2.4822 -0.7053
 3530SOL     OW22051   1.639   4.339   2.007  0.4576 -0.4714 -0.2137
 3530SOL    HW122052   1.576   4.361   1.939  0.8478  0.8746 -0.1471
 3530SOL    HW222053   1.601   4.257   2.039 -0.8974  0.4409  0.5112
 3531SOL     OW22054   3.249   0.290   4.303 -0.3582 -0.4530  0.1186
 3531SOL    HW122055   3.155   0.297   4.287 -0.1077  2.2717 -0.1626
 3531SOL    HW222056   3.275   0.378   4.331  0.2607 -0.7710  0.5583
 3532SOL     OW22057   2.981   1.988   2.620  0.0826 -0.4227 -0.2598
 3532SOL    HW122058   2.937   1.909   2.652 -2.6075  1.5489  0.7803
 3532SOL    HW222059   3.040   2.003   2.694  1.2655 -0.9501 -1.0885
 3533SOL     OW22060   0.672   1.530   5.737  0.3737 -0.4941  0.0461
 3533SOL    HW122061   0.768   1.525   5.738  0.4815  1.5034 -2.0119
 3533SOL    HW222062   0.656   1.551   5.829  3.1628 -0.6571  0.5674
 3534SOL     OW22063   4.389   3.876   5.790 -0.3096  0.0147  0.1211
 3534SOL    HW122064   4.317   3.939   5.789 -1.5467 -1.3828  0.4123
 3534SOL    HW222065   4.467   3.929   5.807 -0.9578  0.6185  1.1698
 3535SOL     OW22066   1.402   3.498   4.353  0.3528  0.1009 -0.3938
 3535SOL    HW122067   1.432   3.565   4.292  0.0527 -0.2264 -0.8951
 3535SOL    HW222068   1.364   3.430   4.298 -1.9149  1.2318 -0.2011
 3536SOL     OW22069   2.085   2.135   3.109  0.1862 -0.3305  0.2787
 3536SOL    HW122070   2.000   2.177   3.124 -0.9501 -2.1524 -1.1362
 3536SOL    HW222071   2.101   2.158   3.018  1.1264  1.4729  0.8865
 3537SOL     OW22072   0.748   3.927   4.896 -0.1287  0.6624  0.5887
 3537SOL    HW122073   0.792   3.943   4.979 -0.1723  1.9030  0.3681
 3537SOL    HW222074   0.667   3.968   4.926 -0.4102  0.8884 -0.4803
 3538SOL     OW22075   2.235   0.624   2.873 -0.7964 -0.4392 -0.2953
 3538SOL    HW122076   2.265   0.534   2.888  0.7123 -0.2716 -2.2871
 3538SOL    HW222077   2.299   0.645   2.804 -0.1858  0.9674  0.6991
 3539SOL     OW22078   4.657   0.499   1.172 -0.0582  0.2557 -1.1519
 3539SOL    HW122079   4.578   0.515   1.224  0.7235 -1.4948  0.5668
 3539SOL    HW222080   4.644   0.414   1.132  2.7648 -2.0188  2.7458
 3540SOL     OW22081   1.058   2.774   8.854  0.2926  0.0811  0.3229
 3540SOL    HW122082   1.086   2.720   8.781  1.3426  0.4275  0.4602
 3540SOL    HW222083   1.013   2.706   8.904 -0.6877  1.0472  0.7456
 3541SOL     OW22084   1.021   2.205   6.669 -0.0054 -0.1165 -0.6064
 3541SOL    HW122085   1.091   2.263   6.639 -2.1808  2.2978 -1.0364
 3541SOL    HW222086   1.016   2.233   6.761 -0.9733  1.2450 -1.0804
 3542SOL     OW22087   0.192   4.017   6.698  0.6072 -0.4180  0.0347
 3542SOL    HW122088   0.182   4.005   6.792  0.8170 -0.2087  0.0831
 3542SOL    HW222089   0.099   4.014   6.675  0.5923 -0.0560  0.0523
 3543SOL     OW22090   2.473   1.203   2.488 -0.5758 -0.4174 -0.5786
 3543SOL    HW122091   2.469   1.108   2.493 -0.0040 -0.2529  3.1557
 3543SOL    HW222092   2.520   1.209   2.404 -0.6147 -0.8327 -0.6250
 3544SOL     OW22093   3.672   4.383  11.573 -0.4046  0.0184 -0.0465
 3544SOL    HW122094   3.585   4.407  11.605 -0.1655  0.4032  0.3113
 3544SOL    HW222095   3.659   4.377  11.478 -1.5594 -1.4042  0.1902
 3545SOL     OW22096   3.469   1.402   6.277 -0.2112  0.8313  0.1087
 3545SOL    HW122097   3.555   1.438   6.256 -0.0387  0.8328  0.7980
 3545SOL    HW222098   3.422   1.410   6.194  1.4925  2.6272 -0.6727
 3546SOL     OW22099   2.763   1.288   3.455 -0.0756  0.7368 -0.0416
 3546SOL    HW122100   2.787   1.365   3.507  0.0795  2.3214 -2.4738
 3546SOL    HW222101   2.745   1.332   3.372 -1.9507  0.6142  0.3031
 3547SOL     OW22102   3.824   2.570  10.027  0.5360  0.2102  0.1427
 3547SOL    HW122103   3.745   2.532  10.065  1.3582 -0.4820  1.1569
 3547SOL    HW222104   3.855   2.633  10.092  1.7342  0.2471 -0.4606
 3548SOL     OW22105   2.392   3.329   5.638  0.1351 -0.3076 -0.2328
 3548SOL    HW122106   2.300   3.320   5.614 -0.0185 -2.7459  1.2284
 3548SOL    HW222107   2.411   3.237   5.658 -1.0312 -0.7568 -1.2197
 3549SOL     OW22108   2.959   2.898   3.663 -0.3162 -0.6788 -0.3094
 3549SOL    HW122109   2.935   2.970   3.721  1.5767  1.5168 -2.2528
 3549SOL    HW222110   2.998   2.958   3.599  0.4734 -1.3747 -0.4728
 3550SOL     OW22111   4.319   1.163  17.342 -0.3665  0.2248  0.3085
 3550SOL    HW122112   4.256   1.093  17.361 -1.0991  0.7639 -0.1279
 3550SOL    HW222113   4.375   1.156  17.419  1.8261 -2.4721 -1.5222
 3551SOL     OW22114   2.531   4.263  12.742 -0.3498  0.8442  0.3361
 3551SOL    HW122115   2.453   4.318  12.733 -1.0468 -0.1774  0.0895
 3551SOL    HW222116   2.483   4.181  12.751 -2.6560  2.1219 -0.2232
 3552SOL     OW22117   1.879   2.738   8.042 -0.1973  0.1211 -0.7614
 3552SOL    HW122118   1.877   2.815   8.098 -1.8982 -0.0905 -0.5372
 3552SOL    HW222119   1.919   2.774   7.963 -1.5011  0.9210 -1.0446
 3553SOL     OW22120   0.731   3.565  14.074  0.5046 -0.0738 -0.2068
 3553SOL    HW122121   0.647   3.545  14.114  0.5401  0.5973  0.2003
 3553SOL    HW222122   0.773   3.479  14.078 -0.9206 -0.6642  2.2001
 3554SOL     OW22123   2.741   2.848   5.142  0.7779  0.5087 -0.5819
 3554SOL    HW122124   2.784   2.910   5.202 -0.0681  0.5898 -0.0478
 3554SOL    HW222125   2.660   2.892   5.115 -0.0258 -1.9509 -2.1210
 3555SOL     OW22126   0.380   2.854   1.614  0.3778 -0.4951  0.4975
 3555SOL    HW122127   0.317   2.835   1.544  0.8012 -0.9822  0.2518
 3555SOL    HW222128   0.426   2.928   1.574  0.4316 -1.1714 -0.6733
 3556SOL     OW22129   1.732   2.456   1.912 -0.2398  0.0697  0.0940
 3556SOL    HW122130   1.688   2.519   1.855 -1.7308 -1.4108 -0.3858
 3556SOL    HW222131   1.826   2.471   1.899 -1.0945  4.0745 -1.4346
 3557SOL     OW22132   0.049   2.971  13.982 -0.0991  0.3877 -0.4362
 3557SOL    HW122133   0.122   3.033  13.990 -1.0756  1.1796  2.4403
 3557SOL    HW222134   0.084   2.894  14.026  1.5924  0.6867 -1.2337
 3558SOL     OW22135   1.219   1.694   7.503 -0.6911 -0.0532  0.5514
 3558SOL    HW122136   1.303   1.721   7.466 -1.1389  2.9296  1.7188
 3558SOL    HW222137   1.161   1.712   7.429  0.3443 -0.1171 -0.2716
 3559SOL     OW22138   3.619   1.127   2.196 -0.2148  0.3540  0.4990
 3559SOL    HW122139   3.665   1.199   2.154  0.9172 -1.4395 -1.3436
 3559SOL    HW222140   3.541   1.121   2.141  1.1564 -1.0002 -1.2796
 3560SOL     OW22141   2.352   0.955   6.653 -0.9729 -0.0217 -0.1732
 3560SOL    HW122142   2.339   0.869   6.615  0.9825  0.4274 -1.8476
 3560SOL    HW222143   2.447   0.966   6.662 -0.8644 -0.8851 -0.2941
 3561SOL     OW22144   1.607   3.612   4.605  0.0926 -0.2200 -0.1762
 3561SOL    HW122145   1.548   3.682   4.579 -0.1023  0.5195  2.2195
 3561SOL    HW222146   1.552   3.533   4.606  0.1245 -0.2541 -2.1253
 3562SOL     OW22147   4.327   2.042   6.125 -0.2458  0.1749 -0.5844
 3562SOL    HW122148   4.262   1.978   6.098  0.4364 -1.4650  1.7178
 3562SOL    HW222149   4.287   2.082   6.203  0.6303 -0.3590  0.1412
 3563SOL     OW22150   4.008   1.712  12.866 -0.0542  0.1199 -0.5672
 3563SOL    HW122151   4.020   1.755  12.951 -4.6895  0.9796 -0.2941
 3563SOL    HW222152   4.096   1.681  12.846 -0.3468 -1.4310  0.5658
 3564SOL     OW22153   4.663   0.261   2.033  0.1874  0.2053  0.1163
 3564SOL    HW122154   4.714   0.276   2.112  0.1033 -0.4493  0.2904
 3564SOL    HW222155   0.003   0.235   1.967  0.9039  0.1418  0.8427
 3565SOL     OW22156   0.106   2.149   4.742 -0.2745 -0.0057  0.0333
 3565SOL    HW122157   0.135   2.237   4.717 -0.4998 -0.1335 -0.6460
 3565SOL    HW222158   0.022   2.177   4.778 -0.1392 -0.2603  0.5451
 3566SOL     OW22159   0.245   1.282   6.145 -0.2439 -0.0661  0.6660
 3566SOL    HW122160   0.202   1.363   6.119  1.8934  1.6280  2.4142
 3566SOL    HW222161   0.317   1.277   6.082 -0.5040 -0.9218  0.4298
 3567SOL     OW22162   1.862   1.406   9.434  0.1532 -0.7736  0.3197
 3567SOL    HW122163   1.915   1.460   9.494  1.3989 -0.9604 -0.6061
 3567SOL    HW222164   1.874   1.316   9.464  0.4278 -1.0103 -0.4873
 3568SOL     OW22165   0.229   1.877   7.887  0.2847 -0.3685  0.0263
 3568SOL    HW122166   0.137   1.853   7.880  0.3781 -0.8387  0.4944
 3568SOL    HW222167   0.268   1.821   7.819 -2.9749 -0.6658 -1.6033
 3569SOL     OW22168   0.973   0.990  12.535  0.0486 -0.4289  0.1380
 3569SOL    HW122169   0.999   1.000  12.627  0.6964 -0.6126 -0.0265
 3569SOL    HW222170   1.023   1.064  12.500  2.0983 -0.5926  2.7093
 3570SOL     OW22171   1.159   1.484  17.560 -0.5611 -0.4324 -0.0740
 3570SOL    HW122172   1.080   1.434  17.539 -0.8452  0.3958 -0.9768
 3570SOL    HW222173   1.117   1.560  17.600  2.8552  2.3200 -1.7876
 3571SOL     OW22174   1.717   2.971   6.489  0.4700  0.2137 -0.1090
 3571SOL    HW122175   1.763   2.889   6.468  0.0542 -0.2813  0.8901
 3571SOL    HW222176   1.787   3.033   6.468  0.5960  1.0764  2.8229
 3572SOL     OW22177   2.938   1.669   7.407  0.6708  0.3325 -0.2751
 3572SOL    HW122178   3.005   1.694   7.470  0.9342 -1.6770  0.2525
 3572SOL    HW222179   2.860   1.707   7.449  0.8336  0.2712  0.0780
 3573SOL     OW22180   3.500   1.809   2.253 -0.1871 -0.0590 -0.1192
 3573SOL    HW122181   3.578   1.778   2.206 -0.7259 -1.7906  0.1261
 3573SOL    HW222182   3.493   1.889   2.202 -0.1529  0.6593  1.0189
 3574SOL     OW22183   4.579   2.762   3.781 -0.1130  0.1877  0.1251
 3574SOL    HW122184   4.651   2.764   3.718 -0.4315  1.1270 -0.2094
 3574SOL    HW222185   4.528   2.840   3.761  0.0564  0.2055 -0.2415
 3575SOL     OW22186   1.209   2.682   4.675 -0.2180 -0.1712 -0.7018
 3575SOL    HW122187   1.265   2.660   4.749  1.3831  1.4203 -1.4291
 3575SOL    HW222188   1.131   2.632   4.699  0.7918 -1.0990  0.6173
 3576SOL     OW22189   2.953   3.073   8.876  0.4978 -0.1613 -0.1501
 3576SOL    HW122190   3.024   3.136   8.887 -0.4505  0.2038  3.7528
 3576SOL    HW222191   2.980   3.005   8.937  0.0708 -1.2981 -1.2245
 3577SOL     OW22192   1.860   3.817   7.151  0.7741 -0.4672  0.6100
 3577SOL    HW122193   1.850   3.793   7.059 -0.7535  0.7092  0.4697
 3577SOL    HW222194   1.851   3.912   7.140 -2.3533 -0.8619 -0.1533
 3578SOL     OW22195   4.302   3.987   2.634  0.9708  0.5614 -0.4306
 3578SOL    HW122196   4.360   3.961   2.563  0.0909  1.4763 -1.4875
 3578SOL    HW222197   4.361   3.998   2.709  1.6523 -1.7194 -0.6504
 3579SOL     OW22198   0.847   4.670   8.301  0.5722 -0.1034  0.0831
 3579SOL    HW122199   0.801   4.668   8.217 -1.9398 -2.2652  1.4974
 3579SOL    HW222200   0.875   0.036   8.310 -2.0816  0.7324  0.0469
 3580SOL     OW22201   3.137   3.726  10.677 -0.0070  0.5882 -0.0337
 3580SOL    HW122202   3.080   3.802  10.682 -2.1000 -1.0651  1.2278
 3580SOL    HW222203   3.225   3.762  10.666 -0.6314  2.4371  1.0449
 3581SOL     OW22204   3.845   3.331  10.853  0.4852 -0.2069  0.7209
 3581SOL    HW122205   3.807   3.321  10.766 -0.3051 -0.5698  1.1101
 3581SOL    HW222206   3.915   3.265  10.856  0.0113 -0.7683 -0.5098
 3582SOL     OW22207   3.722   3.984   3.631  0.2458 -0.0694 -0.0307
 3582SOL    HW122208   3.660   3.970   3.558 -0.9961  0.3937  0.9396
 3582SOL    HW222209   3.796   3.966   3.573 -0.7505 -0.3372 -1.2305
 3583SOL     OW22210   0.332   1.146   2.511  0.3666 -0.1666 -0.5950
 3583SOL    HW122211   0.372   1.113   2.592 -1.9352 -1.8537 -0.1609
 3583SOL    HW222212   0.358   1.238   2.507  2.6190 -0.7434  0.6164
 3584SOL     OW22213   1.921   3.277   1.674  0.2943 -0.0057  0.4375
 3584SOL    HW122214   1.981   3.246   1.605  1.6383 -1.2110  2.1687
 3584SOL    HW222215   1.923   3.371   1.656 -3.2627  0.2357  1.4576
 3585SOL     OW22216   0.707   3.446   2.580  0.4158 -0.1322  0.3366
 3585SOL    HW122217   0.698   3.397   2.662 -2.6290  0.8126  0.5719
 3585SOL    HW222218   0.760   3.382   2.532 -3.0484 -1.4881 -1.6997
 3586SOL     OW22219   4.089   3.834  10.948  0.1471  0.4852 -0.4884
 3586SOL    HW122220   4.103   3.756  11.003 -0.6902  1.3217  0.9209
 3586SOL    HW222221   4.114   3.800  10.862 -0.5520  0.8227 -0.8219
 3587SOL     OW22222   3.623   2.407   6.186 -0.2281 -0.2723  0.4925
 3587SOL    HW122223   3.606   2.313   6.174  1.7035 -0.6053  0.2630
 3587SOL    HW222224   3.633   2.412   6.281 -1.1142 -2.0702  0.6867
 3588SOL     OW22225   1.584   0.940   5.106 -0.0584 -0.2581  0.3928
 3588SOL    HW122226   1.628   0.870   5.154 -0.5844 -2.3192 -2.1110
 3588SOL    HW222227   1.552   0.885   5.034 -2.8224  0.4165  1.1147
 3589SOL     OW22228   4.402   3.337  16.941 -0.3656  0.1977  0.1204
 3589SOL    HW122229   4.324   3.391  16.935  0.9514  1.9782 -0.8038
 3589SOL    HW222230   4.467   3.388  16.989  0.6777 -0.9622 -0.0533
 3590SOL     OW22231   3.804   1.250   8.438 -0.2305 -0.1432  0.1084
 3590SOL    HW122232   3.814   1.268   8.531 -0.8661 -1.9168  0.5175
 3590SOL    HW222233   3.784   1.159   8.417  0.4183 -0.2313 -0.1132
 3591SOL     OW22234   4.103   3.897   8.971  1.0158 -0.1551  0.1703
 3591SOL    HW122235   4.184   3.931   9.010  1.0149  0.8738 -0.7250
 3591SOL    HW222236   4.033   3.960   8.985 -0.7218 -1.8849 -0.7131
 3592SOL     OW22237   1.691   2.371   2.156 -0.1200 -0.1925 -0.4931
 3592SOL    HW122238   1.708   2.410   2.071  2.2404  1.2462  0.6416
 3592SOL    HW222239   1.734   2.286   2.152  0.2465 -0.0058 -0.4653
 3593SOL     OW22240   1.187   4.100   9.301 -0.2668 -0.0635 -0.3984
 3593SOL    HW122241   1.187   4.069   9.210 -1.1856  2.8179 -1.3627
 3593SOL    HW222242   1.278   4.128   9.314 -0.4885  1.5246 -2.3025
 3594SOL     OW22243   2.452   2.700   4.369  0.2273 -0.1937  1.0321
 3594SOL    HW122244   2.359   2.707   4.392 -0.8719 -0.0195 -3.2997
 3594SOL    HW222245   2.461   2.608   4.344  0.9007  0.2322 -0.3136
 3595SOL     OW22246   3.969   4.680   5.740  0.1959 -0.5683 -0.2190
 3595SOL    HW122247   3.974   4.585   5.737  0.8644 -0.5148 -0.8136
 3595SOL    HW222248   3.929   4.703   5.656 -1.3448 -1.8896  0.1775
 3596SOL     OW22249   1.600   1.348   5.284  0.0021  0.2149  0.3635
 3596SOL    HW122250   1.547   1.284   5.237 -0.7704 -1.5071  3.6091
 3596SOL    HW222251   1.679   1.296   5.299  0.0882  0.2574  0.0588
 3597SOL     OW22252   0.807   2.299  16.364  0.3881 -0.1174 -0.2085
 3597SOL    HW122253   0.889   2.325  16.321 -0.7955  0.0340 -2.3822
 3597SOL    HW222254   0.842   2.221  16.408  1.1657  0.6147  0.4615
 3598SOL     OW22255   3.569   3.634   6.751  0.6603 -0.1441 -0.1839
 3598SOL    HW122256   3.478   3.628   6.720  1.1427 -1.9446 -1.2009
 3598SOL    HW222257   3.575   3.728   6.733 -2.1232 -0.1844 -1.4519
 3599SOL     OW22258   2.554   2.371  11.940 -0.1228 -0.5213  0.0151
 3599SOL    HW122259   2.633   2.408  11.979 -0.3706  1.7118 -1.5775
 3599SOL    HW222260   2.484   2.392  12.002  0.1687  1.2272 -0.2354
 3600SOL     OW22261   2.354   2.297   7.267  0.1156 -0.3487 -0.6592
 3600SOL    HW122262   2.408   2.345   7.330  2.0150 -1.0015 -1.7657
 3600SOL    HW222263   2.395   2.321   7.184 -0.3675  0.1454 -0.7505
 3601SOL     OW22264   4.218   1.726   4.356  0.2535 -0.2624  0.0821
 3601SOL    HW122265   4.183   1.793   4.297 -0.4298 -0.9224 -0.2598
 3601SOL    HW222266   4.309   1.748   4.371  0.3345 -1.4238  1.2270
 3602SOL     OW22267   1.938   0.824   3.342  0.2067  0.5886  0.5093
 3602SOL    HW122268   1.981   0.788   3.264 -0.0816 -0.4191  0.8176
 3602SOL    HW222269   1.995   0.899   3.357  0.4088  0.4989  0.1874
 3603SOL     OW22270   3.609   3.082   6.002 -1.0423 -0.4104 -0.1246
 3603SOL    HW122271   3.698   3.049   6.013 -0.4357  0.7496 -1.4947
 3603SOL    HW222272   3.558   3.001   6.008 -0.0373 -1.0293 -0.0927
 3604SOL     OW22273   0.182   0.925   3.054 -0.2225 -0.0167  0.1923
 3604SOL    HW122274   0.194   0.867   3.130  2.2961  0.8235  0.4237
 3604SOL    HW222275   0.265   0.896   3.016  0.3451 -2.5057  3.2519
 3605SOL     OW22276   2.718   1.015   2.605  0.0345 -0.1332 -0.0556
 3605SOL    HW122277   2.785   1.073   2.639  0.7291 -1.2077  0.4228
 3605SOL    HW222278   2.655   1.014   2.677 -0.8944  3.2504 -0.8567
 3606SOL     OW22279   3.470   0.748  12.509  0.6491  0.5538 -0.0041
 3606SOL    HW122280   3.443   0.782  12.423  2.2713  0.2781 -0.6246
 3606SOL    HW222281   3.396   0.696  12.541  0.9078 -0.2145 -0.6480
 3607SOL     OW22282   0.848   3.779   6.056  0.3201 -0.1885  0.1025
 3607SOL    HW122283   0.820   3.822   5.975  4.0888  2.6937  0.3648
 3607SOL    HW222284   0.929   3.825   6.077  0.1325 -0.1795  0.7969
 3608SOL     OW22285   3.321   3.221   9.684  0.3081 -0.4674  0.1800
 3608SOL    HW122286   3.307   3.253   9.773  3.8186 -1.2603  1.0114
 3608SOL    HW222287   3.300   3.128   9.691  0.7543 -0.4239  2.0207
 3609SOL     OW22288   2.684   0.001   5.904  0.2842 -0.1407  0.1109
 3609SOL    HW122289   2.755   4.684   5.855 -0.5900 -1.0814 -0.3661
 3609SOL    HW222290   2.659   4.658   5.967  0.6643  2.1584  2.7570
 3610SOL     OW22291   0.263   2.658   7.460 -0.4505  0.0287  0.2000
 3610SOL    HW122292   0.196   2.706   7.412  0.7049  1.0316 -0.3754
 3610SOL    HW222293   0.212   2.599   7.517 -0.1897 -2.6026 -2.2920
 3611SOL     OW22294   2.989   0.081   5.654  0.1865  0.5023 -0.0261
 3611SOL    HW122295   2.959   0.014   5.715  0.8937 -1.3108 -1.6656
 3611SOL    HW222296   3.067   0.109   5.703  0.8860 -1.1038 -0.2153
 3612SOL     OW22297   1.609   0.955   6.902 -0.3804  0.0447  0.2341
 3612SOL    HW122298   1.697   0.992   6.902 -1.2058  2.0223  0.5827
 3612SOL    HW222299   1.624   0.861   6.900 -0.5654  0.0622 -1.8786
 3613SOL     OW22300   1.013   1.432  15.146 -0.4886  0.1495 -0.3266
 3613SOL    HW122301   0.935   1.478  15.177  0.6724  1.3190  0.8761
 3613SOL    HW222302   1.023   1.370  15.218  0.8532 -1.5315 -1.9652
 3614SOL     OW22303   4.586   3.669   8.368 -0.4766  0.1040  0.0852
 3614SOL    HW122304   4.521   3.692   8.435 -0.8523 -0.8005  0.0358
 3614SOL    HW222305   4.658   3.660   8.431 -0.0156 -0.5174 -0.5324
 3615SOL     OW22306   0.309   4.711   2.649  0.0531 -0.0931 -0.1089
 3615SOL    HW122307   0.213   4.707   2.643 -0.0721 -0.9659  2.4147
 3615SOL    HW222308   0.324   0.074   2.616 -2.4845 -0.1368 -1.3437
 3616SOL     OW22309   3.885   4.045  17.346  0.5854 -0.1624  0.4564
 3616SOL    HW122310   3.866   4.132  17.309  2.1379 -0.0070  0.0187
 3616SOL    HW222311   3.971   4.030  17.305 -0.5937 -2.3814 -1.1610
 3617SOL     OW22312   1.092   0.022   5.691  0.2067 -0.1552  0.2793
 3617SOL    HW122313   1.077   0.106   5.648 -0.2894 -0.4266 -0.0920
 3617SOL    HW222314   1.187   0.020   5.685  0.3421  0.2898  2.4297
 3618SOL     OW22315   1.252   1.365   4.687  0.0767 -0.4457 -0.4869
 3618SOL    HW122316   1.157   1.347   4.687 -0.3014  1.5544 -0.4858
 3618SOL    HW222317   1.271   1.351   4.595  0.0506 -0.5794 -0.4719
 3619SOL     OW22318   3.761   0.334   6.495 -0.1302 -0.1138  0.3123
 3619SOL    HW122319   3.671   0.357   6.474 -0.5893 -0.9588  1.3177
 3619SOL    HW222320   3.791   0.292   6.414 -0.1239  1.9713 -0.7538
 3620SOL     OW22321   0.222   1.268   7.078 -0.0581 -0.2274 -0.3319
 3620SOL    HW122322   0.168   1.190   7.067  0.5512 -0.8492  1.2148
 3620SOL    HW222323   0.307   1.238   7.048 -0.0248  0.4620 -0.9456
 3621SOL     OW22324   2.008   0.929  11.090  0.2366  0.4963  0.2976
 3621SOL    HW122325   2.096   0.964  11.100  0.1803  1.1352 -1.3068
 3621SOL    HW222326   1.965   0.994  11.033 -0.5469  1.3161  1.8417
 3622SOL     OW22327   0.811   1.427  16.953 -0.1352 -0.2360  0.0607
 3622SOL    HW122328   0.784   1.519  16.952 -1.4837 -0.5964  2.6444
 3622SOL    HW222329   0.733   1.375  16.933 -0.7621  0.0595  1.6684
 3623SOL     OW22330   4.659   2.814   1.474  0.5501  0.1358 -0.1652
 3623SOL    HW122331   0.015   2.861   1.497  0.1581  0.4859  0.5096
 3623SOL    HW222332   4.660   2.746   1.541 -1.7141  0.1354 -0.1557
 3624SOL     OW22333   3.925   3.196  12.322  0.2854  0.0104  0.2480
 3624SOL    HW122334   3.965   3.268  12.370  1.0711 -1.7092  2.1689
 3624SOL    HW222335   3.954   3.117  12.367 -0.2808 -0.3490 -0.0210
 3625SOL     OW22336   0.854   2.724  17.100  0.3670 -0.1202  0.6604
 3625SOL    HW122337   0.841   2.640  17.055 -0.2390 -0.0915  0.7826
 3625SOL    HW222338   0.772   2.767  17.078  0.8882 -0.7819 -2.6205
 3626SOL     OW22339   3.669   2.872   0.531  0.3124 -0.2085  0.1678
 3626SOL    HW122340   3.602   2.811   0.559  0.3717  0.6461  2.1487
 3626SOL    HW222341   3.732   2.819   0.481  0.0564 -1.0408  0.7522
 3627SOL     OW22342   0.402   0.697   1.546  0.1570 -0.1424 -0.1896
 3627SOL    HW122343   0.383   0.632   1.613  1.1522 -1.3590 -1.0775
 3627SOL    HW222344   0.320   0.725   1.505  0.9052  0.9411 -0.9513
 3628SOL     OW22345   4.283   2.111   1.518 -0.4683 -0.5700 -0.5049
 3628SOL    HW122346   4.353   2.120   1.453 -0.1629 -2.6081 -0.4822
 3628SOL    HW222347   4.213   2.165   1.483 -0.7586  0.7311  2.0237
 3629SOL     OW22348   3.399   2.408   9.019  0.3639  0.2918 -0.1190
 3629SOL    HW122349   3.414   2.428   8.927 -0.0671  2.9779  0.3731
 3629SOL    HW222350   3.350   2.327   9.015  0.0882  0.4761 -0.4560
 3630SOL     OW22351   4.273   3.664   7.255 -0.4908 -0.3206 -0.5871
 3630SOL    HW122352   4.260   3.675   7.349 -0.6829  0.0894 -0.6641
 3630SOL    HW222353   4.368   3.667   7.241 -0.6614 -2.4139 -2.1303
 3631SOL     OW22354   1.723   0.485   4.599  0.1199  0.5500  0.8369
 3631SOL    HW122355   1.759   0.502   4.686  1.0965  0.4058  0.4567
 3631SOL    HW222356   1.785   0.527   4.539  2.5501  0.5264  3.3249
 3632SOL     OW22357   3.724   3.431   0.741 -0.1675 -0.1799 -0.2011
 3632SOL    HW122358   3.727   3.436   0.645  2.2153 -1.1677 -0.1767
 3632SOL    HW222359   3.633   3.458   0.754  0.2690  2.4009 -2.3683
 3633SOL     OW22360   4.475   1.780   4.417  0.6005 -0.7103  0.1461
 3633SOL    HW122361   4.514   1.839   4.481  0.8112 -1.3782  0.6361
 3633SOL    HW222362   4.544   1.714   4.422 -0.8664 -2.2835 -0.2836
 3634SOL     OW22363   4.434   2.606  10.334 -0.1142  0.1472 -0.4624
 3634SOL    HW122364   4.360   2.650  10.376 -1.2149 -0.3759 -1.8710
 3634SOL    HW222365   4.407   2.514  10.336 -0.1990  0.2376  2.0027
 3635SOL     OW22366   4.422   2.674   7.819 -0.0030  0.3628  0.0632
 3635SOL    HW122367   4.462   2.676   7.906 -2.2157 -0.4990  1.1136
 3635SOL    HW222368   4.361   2.604   7.842  1.0817 -1.7260 -3.3891
 3636SOL     OW22369   0.780   3.437   8.365  0.5169 -0.0820 -0.5585
 3636SOL    HW122370   0.848   3.469   8.424 -0.0162  0.5787 -0.3043
 3636SOL    HW222371   0.722   3.404   8.434  0.2600  1.5071 -0.0100
 3637SOL     OW22372   2.171   0.194  11.198  0.1668 -0.3021 -0.2248
 3637SOL    HW122373   2.077   0.205  11.184 -0.1422  0.2051  2.2450
 3637SOL    HW222374   2.180   0.099  11.191 -2.7858 -0.6619  1.0900
 3638SOL     OW22375   3.444   1.314   8.915  0.2339 -0.5116 -0.5931
 3638SOL    HW122376   3.491   1.374   8.858 -0.1669 -0.6400 -1.0641
 3638SOL    HW222377   3.484   1.333   9.000  1.9487 -0.1466 -1.4912
 3639SOL     OW22378   4.588   0.075   7.273 -0.2238 -0.2456  0.8473
 3639SOL    HW122379   4.614   0.025   7.351 -2.0019 -1.2085  0.8324
 3639SOL    HW222380   4.497   0.066   7.302 -1.6770  1.9784 -3.0920
 3640SOL     OW22381   2.660   1.711   5.263  0.2396  0.4709 -0.3362
 3640SOL    HW122382   2.721   1.638   5.257 -1.5312 -1.1076  0.6066
 3640SOL    HW222383   2.686   1.763   5.188 -1.2629  1.1828 -0.3770
 3641SOL     OW22384   2.545   0.060   5.271 -0.2102 -0.7954  0.8621
 3641SOL    HW122385   2.504   0.113   5.202  0.3634 -0.2379  0.9500
 3641SOL    HW222386   2.593   4.722   5.216  1.2663 -0.0395  1.2966
 3642SOL     OW22387   2.941   4.607   7.474  0.2857  0.2883  0.1908
 3642SOL    HW122388   3.012   4.644   7.526  1.3719 -0.5062 -0.7313
 3642SOL    HW222389   2.974   4.520   7.451  0.5139  0.3288  0.3624
 3643SOL     OW22390   4.685   0.309   6.507  0.1681  0.3755  0.4003
 3643SOL    HW122391   4.721   0.288   6.593  1.2118 -2.7465 -0.8396
 3643SOL    HW222392   4.616   0.243   6.502 -0.5623  1.0669  1.1887
 3644SOL     OW22393   2.330   3.886   1.930 -0.6060 -0.2151  0.0030
 3644SOL    HW122394   2.337   3.849   1.842  0.7791  0.7026 -0.2743
 3644SOL    HW222395   2.256   3.946   1.940 -0.9655 -0.6971  0.1876
 3645SOL     OW22396   4.484   1.209  13.503 -0.1037 -0.2225  0.3263
 3645SOL    HW122397   4.488   1.178  13.413  1.6066 -3.0669  1.3809
 3645SOL    HW222398   4.391   1.209  13.525 -0.7686  2.5663 -2.5833
 3646SOL     OW22399   1.184   2.935   7.244  0.5692 -0.1052  0.7884
 3646SOL    HW122400   1.114   2.994   7.217 -0.1087 -0.9705  0.6689
 3646SOL    HW222401   1.144   2.905   7.325 -1.3547 -0.1725 -0.1795
 3647SOL     OW22402   3.248   0.295  14.735 -0.0998 -0.0771  0.1275
 3647SOL    HW122403   3.183   0.245  14.784  1.1114 -0.3324  1.4684
 3647SOL    HW222404   3.205   0.380  14.726 -0.3175 -0.2884 -0.7867
 3648SOL     OW22405   2.842   4.138  11.063 -0.1214 -0.1713 -0.5072
 3648SOL    HW122406   2.810   4.141  11.153  0.7167  2.1893 -0.2980
 3648SOL    HW222407   2.912   4.075  11.082 -1.4100 -1.8015 -1.1968
 3649SOL     OW22408   1.490   3.186   6.888  0.3064 -0.4101  0.6103
 3649SOL    HW122409   1.418   3.192   6.825 -0.6471  1.0434  1.8338
 3649SOL    HW222410   1.438   3.220   6.960 -0.0669  0.3677 -0.0247
 3650SOL     OW22411   1.927   1.128  13.907 -0.3415  0.3551  0.1098
 3650SOL    HW122412   1.925   1.097  13.817 -2.3606 -1.6164  0.8396
 3650SOL    HW222413   1.847   1.180  13.912 -0.7927 -0.4638  1.4116
 3651SOL     OW22414   1.948   2.383  10.442 -0.1003  0.0689 -0.0259
 3651SOL    HW122415   2.039   2.361  10.425  0.7842  1.3899  3.0781
 3651SOL    HW222416   1.913   2.294  10.439 -1.2248  0.5108 -0.1608
 3652SOL     OW22417   2.606   2.002   2.666  0.4970  0.4126 -0.1671
 3652SOL    HW122418   2.545   2.058   2.617 -0.0963 -1.6466 -1.7843
 3652SOL    HW222419   2.630   2.055   2.742  1.8861  0.4073 -0.6024
 3653SOL     OW22420   3.743   0.904  14.189 -0.6388  0.1517 -0.0865
 3653SOL    HW122421   3.666   0.861  14.152 -2.2620  2.5417  0.5203
 3653SOL    HW222422   3.695   0.986  14.191  0.0611  0.5413  1.4127
 3654SOL     OW22423   2.866   3.385   9.758 -0.0368 -0.3571 -0.1860
 3654SOL    HW122424   2.926   3.384   9.833  1.2881 -0.0553 -1.2469
 3654SOL    HW222425   2.922   3.402   9.682  0.5977  0.4863  0.4785
 3655SOL     OW22426   2.552   0.108   2.316 -0.1509  0.3395 -0.1611
 3655SOL    HW122427   2.586   0.048   2.383  0.3460 -0.4586 -1.1294
 3655SOL    HW222428   2.464   0.115   2.353 -0.8643 -1.3753 -1.4945
 3656SOL     OW22429   1.175   1.720   3.390  0.5809  0.0820  0.5838
 3656SOL    HW122430   1.089   1.716   3.432 -0.5660  1.8200 -1.5983
 3656SOL    HW222431   1.194   1.807   3.425 -0.4446  0.4027  0.3347
 3657SOL     OW22432   3.166   3.726   4.083  0.4110  0.2678 -0.2698
 3657SOL    HW122433   3.145   3.809   4.041  0.1876  0.4844  0.2640
 3657SOL    HW222434   3.175   3.753   4.175  0.3140  0.1312 -0.2196
 3658SOL     OW22435   3.909   3.868   0.360  0.1486 -0.1913  0.0689
 3658SOL    HW122436   3.872   3.903   0.441 -0.0146 -3.5051  1.4161
 3658SOL    HW222437   3.954   3.793   0.399  0.0479  0.4234  1.3734
 3659SOL     OW22438   3.775   2.730   6.112 -0.3620 -0.4901  0.0991
 3659SOL    HW122439   3.705   2.753   6.173 -0.0320  0.5649  0.0853
 3659SOL    HW222440   3.846   2.714   6.174  1.6262  0.6658 -1.8239
 3660SOL     OW22441   1.826   4.191   7.412  0.1064 -0.4592  0.1795
 3660SOL    HW122442   1.819   4.241   7.494  0.0991  1.8490 -1.2392
 3660SOL    HW222443   1.887   4.123   7.440  3.4964  2.7234  0.5113
 3661SOL     OW22444   4.483   1.727  15.354  0.3433  0.2149 -0.0018
 3661SOL    HW122445   4.470   1.799  15.292  1.1150 -2.0758 -2.8453
 3661SOL    HW222446   4.426   1.652  15.335  0.2355  1.2209 -3.7308
 3662SOL     OW22447   2.752   1.743   6.383  0.3746 -0.0496  0.3176
 3662SOL    HW122448   2.690   1.811   6.409  0.8850  0.9557 -1.0483
 3662SOL    HW222449   2.697   1.666   6.369  0.8503 -1.0218  3.9184
 3663SOL     OW22450   0.240   3.678   3.937  0.0865 -0.5668  0.2608
 3663SOL    HW122451   0.212   3.749   3.995 -0.6968 -0.7338  0.0861
 3663SOL    HW222452   0.334   3.689   3.952 -0.0651  0.4934  0.4541
 3664SOL     OW22453   2.828   4.002   8.599  0.0131  0.4785 -0.0089
 3664SOL    HW122454   2.895   3.935   8.592  0.3710  0.8480 -0.1486
 3664SOL    HW222455   2.863   4.073   8.545  0.9216  0.0167 -0.0225
 3665SOL     OW22456   3.294   4.613   8.273  1.0485 -0.7556 -0.4345
 3665SOL    HW122457   3.211   4.573   8.297  1.3210 -1.0723 -0.0186
 3665SOL    HW222458   3.338   4.642   8.353 -2.0136  0.3019  0.8559
 3666SOL     OW22459   3.852   4.219   1.691  0.0425 -1.0997  0.1638
 3666SOL    HW122460   3.907   4.161   1.638  0.4408 -0.6039  0.0335
 3666SOL    HW222461   3.835   4.163   1.766  1.7247 -1.3367  0.3709
 3667SOL     OW22462   4.080   3.243   3.794 -0.3670 -0.2924  0.0100
 3667SOL    HW122463   4.027   3.308   3.749  0.0884  0.6362  0.8226
 3667SOL    HW222464   4.166   3.276   3.820 -1.1791  2.0998 -0.4037
 3668SOL     OW22465   4.085   3.443   5.402  0.1771  0.1366  0.4728
 3668SOL    HW122466   4.026   3.368   5.393 -0.8296  1.4424 -3.9272
 3668SOL    HW222467   4.023   3.500   5.449  0.2315 -0.7805  1.6459
 3669SOL     OW22468   4.364   3.283   0.159 -0.2729 -0.1742  0.7917
 3669SOL    HW122469   4.429   3.342   0.120 -0.8030 -1.1419 -1.5465
 3669SOL    HW222470   4.378   3.200   0.112 -3.2335  0.1412 -0.6558
 3670SOL     OW22471   2.170   2.602   2.342 -0.0769  0.0763  0.8686
 3670SOL    HW122472   2.208   2.578   2.257 -2.4442 -1.6913  0.3274
 3670SOL    HW222473   2.081   2.572   2.328 -0.1924  0.7262  0.1893
 3671SOL     OW22474   2.036   0.186  10.068  0.2838 -1.1332 -0.1241
 3671SOL    HW122475   2.089   0.219  10.141 -0.8692 -0.3289  0.3485
 3671SOL    HW222476   1.948   0.222  10.081  0.4398 -0.3400 -1.2498
 3672SOL     OW22477   3.461   0.056  11.965 -0.7913 -0.3794  0.1098
 3672SOL    HW122478   3.375   0.038  12.004  0.7330 -3.4657  2.0799
 3672SOL    HW222479   3.475   0.150  11.974 -1.0773 -0.4825  1.7142
 3673SOL     OW22480   2.948   1.656   1.363  0.1623 -0.6227  0.5074
 3673SOL    HW122481   2.916   1.688   1.279  0.9235 -1.4636 -0.1139
 3673SOL    HW222482   2.914   1.721   1.425 -2.0975 -0.7725 -0.5884
 3674SOL     OW22483   0.333   2.055   4.344 -0.3911  0.1035  0.2371
 3674SOL    HW122484   0.351   2.037   4.437  1.6431  0.0583 -0.1710
 3674SOL    HW222485   0.255   2.001   4.331 -0.3651 -0.1516  1.1425
 3675SOL     OW22486   1.126   1.858   4.954  0.2422 -0.4936 -0.1138
 3675SOL    HW122487   1.137   1.856   5.050 -0.4725  1.9534  0.0129
 3675SOL    HW222488   1.044   1.810   4.949 -0.3145  0.2980  1.2810
 3676SOL     OW22489   3.361   1.637  13.258  0.8857  0.4744  0.5799
 3676SOL    HW122490   3.291   1.582  13.292  1.1693 -0.3646 -0.1966
 3676SOL    HW222491   3.410   1.564  13.221  1.8761  1.3997  0.0408
 3677SOL     OW22492   0.585   1.306   7.338 -0.3566  0.3359 -0.4376
 3677SOL    HW122493   0.609   1.214   7.326  3.0443  1.3660 -1.5425
 3677SOL    HW222494   0.650   1.345   7.279  0.9348 -0.5216  0.4196
 3678SOL     OW22495   2.134   3.896   8.024 -0.2510  0.0419 -0.4537
 3678SOL    HW122496   2.091   3.979   8.041  1.9914  0.3450  3.9353
 3678SOL    HW222497   2.110   3.879   7.933 -2.0931 -0.0062  0.0381
 3679SOL     OW22498   0.456   3.639   8.517 -0.4409  0.4264 -0.8009
 3679SOL    HW122499   0.362   3.647   8.531 -0.7316 -2.0995 -1.2455
 3679SOL    HW222500   0.469   3.544   8.516  3.7810  0.9752  1.4559
 3680SOL     OW22501   1.246   2.982   8.907  0.1751  0.0367  0.3660
 3680SOL    HW122502   1.197   2.900   8.910  0.2854 -0.0294  0.3432
 3680SOL    HW222503   1.258   3.002   8.999 -1.1128  2.1975  0.0606
 3681SOL     OW22504   1.714   2.790   9.724  0.7957 -0.0655 -0.0983
 3681SOL    HW122505   1.778   2.722   9.703 -0.3099 -1.5390  1.2770
 3681SOL    HW222506   1.688   2.761   9.812 -0.8240 -1.0941 -0.9089
 3682SOL     OW22507   0.318   1.657   2.381  0.9110  0.0908 -0.0965
 3682SOL    HW122508   0.368   1.692   2.454  0.8994  2.3859 -1.1758
 3682SOL    HW222509   0.248   1.722   2.390 -0.0383 -0.9181 -0.2957
 3683SOL     OW22510   3.307   3.401   8.199  0.2664 -0.5432 -0.2885
 3683SOL    HW122511   3.306   3.370   8.109 -0.7994 -0.2641 -0.3724
 3683SOL    HW222512   3.317   3.315   8.238  1.1083 -0.7110 -0.8683
 3684SOL     OW22513   0.495   3.272   2.926 -0.4100  0.0113 -0.3155
 3684SOL    HW122514   0.565   3.279   2.861  0.4924  1.1610  0.7907
 3684SOL    HW222515   0.544   3.220   2.990  0.5337  1.7663  0.3905
 3685SOL     OW22516   4.407   2.731   8.664 -0.4706 -0.2722  0.4325
 3685SOL    HW122517   4.455   2.794   8.610  1.3504 -1.7680  0.3261
 3685SOL    HW222518   4.479   2.683   8.705 -0.7696 -0.8557  0.2665
 3686SOL     OW22519   2.930   1.327   8.311 -0.6139 -0.3438 -0.4982
 3686SOL    HW122520   2.927   1.271   8.234 -0.2062 -1.5761  0.3774
 3686SOL    HW222521   2.872   1.281   8.372 -1.2630  0.2079 -0.6960
 3687SOL     OW22522   2.101   1.860   4.211 -0.5299 -0.1255 -0.5129
 3687SOL    HW122523   2.038   1.911   4.262 -0.6672 -0.2242 -0.5840
 3687SOL    HW222524   2.150   1.824   4.285 -1.3609 -2.7217 -1.2306
 3688SOL     OW22525   0.821   1.077   7.037  0.4073  0.1019 -0.3136
 3688SOL    HW122526   0.843   1.140   7.106 -1.9294 -3.3364  3.5703
 3688SOL    HW222527   0.766   1.138   6.988  0.4249  0.1018 -0.3335
 3689SOL     OW22528   2.406   2.185   6.520 -0.4392  0.0916 -0.3316
 3689SOL    HW122529   2.328   2.157   6.568 -0.8384  0.0719 -0.9952
 3689SOL    HW222530   2.442   2.102   6.491 -1.3333 -0.4875  0.2323
 3690SOL     OW22531   0.589   2.154   9.960 -0.4182  0.0882 -0.1545
 3690SOL    HW122532   0.585   2.118   9.872 -2.1951 -0.1010  0.0035
 3690SOL    HW222533   0.660   2.219   9.955  0.1377 -0.5690 -0.7678
 3691SOL     OW22534   1.336   4.135  13.309 -0.3188  0.5477 -0.2453
 3691SOL    HW122535   1.427   4.156  13.331 -1.5009  1.6308  3.5649
 3691SOL    HW222536   1.335   4.040  13.298 -0.2586  0.5344 -0.1331
 3692SOL     OW22537   1.300   1.345   6.363 -0.0583  0.7170  0.5181
 3692SOL    HW122538   1.309   1.267   6.418  1.2505  0.6481  0.1981
 3692SOL    HW222539   1.344   1.415   6.410 -0.1651  0.7045  0.6384
 3693SOL     OW22540   3.533   1.784   4.208 -0.6269 -0.4323 -0.0244
 3693SOL    HW122541   3.496   1.833   4.281  2.0367 -1.1780  1.8382
 3693SOL    HW222542   3.489   1.831   4.137 -1.7076 -0.4166  0.6590
 3694SOL     OW22543   0.985   0.807   9.424  0.5007 -0.1216 -0.0484
 3694SOL    HW122544   1.010   0.757   9.502  1.3577  0.2001 -0.1075
 3694SOL    HW222545   1.012   0.754   9.349  3.1653 -0.0131  0.8032
 3695SOL     OW22546   0.765   3.591   3.138 -0.4195  0.4961  0.2338
 3695SOL    HW122547   0.712   3.548   3.071  0.3243  1.6887 -1.1270
 3695SOL    HW222548   0.707   3.598   3.214 -2.1718  0.2583 -1.0800
 3696SOL     OW22549   4.499   1.147   4.111 -0.2658 -0.1380 -0.3311
 3696SOL    HW122550   4.439   1.212   4.074 -0.7626 -0.0867  0.5610
 3696SOL    HW222551   4.511   1.175   4.202 -1.1166 -1.9159  0.3191
 3697SOL     OW22552   4.289   1.370   5.869  0.6610  0.3488  0.2267
 3697SOL    HW122553   4.359   1.434   5.858 -0.1875  1.5040  1.5442
 3697SOL    HW222554   4.246   1.398   5.950 -0.7149 -0.0556 -0.3516
 3698SOL     OW22555   3.211   1.334   1.242 -0.2019 -0.0861  0.8732
 3698SOL    HW122556   3.160   1.366   1.315  1.0184  1.3446  1.1085
 3698SOL    HW222557   3.161   1.267   1.196  0.2976 -0.2364  0.5377
 3699SOL     OW22558   4.235   4.263  17.084 -0.6726 -0.0393  0.0329
 3699SOL    HW122559   4.262   4.297  16.999 -1.9944  1.5920  0.2700
 3699SOL    HW222560   4.317   4.219  17.108 -0.9727  0.0540  1.2739
 3700SOL     OW22561   3.243   1.192   5.905  0.0506  0.1648  0.4014
 3700SOL    HW122562   3.254   1.097   5.910  1.3078  0.2155 -1.4394
 3700SOL    HW222563   3.193   1.194   5.823  0.7048  1.3601  0.0204
 3701SOL     OW22564   3.752   3.984  15.168 -0.5623 -0.1812  0.2039
 3701SOL    HW122565   3.710   4.041  15.103  2.1191  2.5978  0.9276
 3701SOL    HW222566   3.845   3.997  15.151 -0.1170 -2.1166  1.2614
 3702SOL     OW22567   2.387   3.090  12.588  0.0824 -0.3073 -0.4741
 3702SOL    HW122568   2.334   3.021  12.627  1.3119 -0.1987  1.3840
 3702SOL    HW222569   2.472   3.049  12.574  0.8658  1.1677 -0.1251
 3703SOL     OW22570   3.304   1.168   8.360  0.0543  0.0754  0.2556
 3703SOL    HW122571   3.374   1.171   8.425  1.0529 -0.0516 -0.8166
 3703SOL    HW222572   3.235   1.205   8.415 -1.8828  0.3349 -2.3104
 3704SOL     OW22573   3.641   0.412   3.982 -0.2854  0.2290  0.3350
 3704SOL    HW122574   3.714   0.429   3.923 -1.5801 -0.9205 -1.6073
 3704SOL    HW222575   3.565   0.455   3.943 -1.2694 -2.2535 -0.4088
 3705SOL     OW22576   3.649   2.747   5.524 -0.0685  0.5368 -0.0202
 3705SOL    HW122577   3.666   2.768   5.615 -0.0188 -2.4522  0.6500
 3705SOL    HW222578   3.641   2.652   5.519 -0.8911  0.6438 -0.9773
 3706SOL     OW22579   1.754   4.101   2.471  0.3650  0.0295 -0.1397
 3706SOL    HW122580   1.752   4.014   2.431 -0.7317  0.2615 -0.5974
 3706SOL    HW222581   1.823   4.089   2.536 -1.2165 -0.3373  1.4450
 3707SOL     OW22582   3.630   2.955   3.700  0.5185 -0.0325  0.4759
 3707SOL    HW122583   3.702   3.004   3.740  0.8720 -1.5556  1.6803
 3707SOL    HW222584   3.658   2.868   3.727 -0.1475 -1.0385 -2.0701
 3708SOL     OW22585   1.322   4.354  12.421  0.7568 -0.3791 -0.5783
 3708SOL    HW122586   1.242   4.398  12.391 -0.1744 -0.9620  1.0279
 3708SOL    HW222587   1.277   4.293  12.479  0.3074 -2.6188 -3.3136
 3709SOL     OW22588   1.127   1.366   3.984 -0.0714 -0.0933 -0.4171
 3709SOL    HW122589   1.061   1.391   3.919  1.2267  0.1562 -1.6370
 3709SOL    HW222590   1.086   1.377   4.070 -0.1747  0.4386 -0.5387
 3710SOL     OW22591   1.045   2.915   1.978 -0.2632  0.2070 -0.2408
 3710SOL    HW122592   1.022   2.831   2.020 -2.7574  0.6299 -0.7168
 3710SOL    HW222593   0.981   2.980   2.008  1.4221  0.4743  2.7660
 3711SOL     OW22594   1.698   2.508   5.121  0.2233 -0.0955  0.2942
 3711SOL    HW122595   1.709   2.492   5.027  1.3208  1.9701  0.0817
 3711SOL    HW222596   1.724   2.600   5.131 -1.0574  0.3984 -0.8430
 3712SOL     OW22597   2.718   2.533   9.662  0.4086 -0.5368  0.2201
 3712SOL    HW122598   2.658   2.587   9.715  0.8309 -0.8069  0.9628
 3712SOL    HW222599   2.720   2.451   9.710  0.3111 -0.7059 -0.0661
 3713SOL     OW22600   3.888   1.801   3.006  0.3497 -0.0423 -0.1089
 3713SOL    HW122601   3.810   1.770   3.053  1.8412 -2.4835  0.7819
 3713SOL    HW222602   3.951   1.730   3.021  1.3173  1.0091  0.7562
 3714SOL     OW22603   4.232   2.584   8.549 -0.2934  0.2880 -0.4716
 3714SOL    HW122604   4.297   2.639   8.593 -0.0439  1.2774 -2.0786
 3714SOL    HW222605   4.283   2.508   8.521  0.1941  0.4877 -0.1235
 3715SOL     OW22606   2.652   1.398  16.913  0.2199  0.0172  0.2420
 3715SOL    HW122607   2.579   1.366  16.966 -0.9487  0.8278 -0.8995
 3715SOL    HW222608   2.711   1.431  16.982 -0.2569 -0.4528  0.8820
 3716SOL     OW22609   1.415   3.760   9.067 -0.1335  0.1665 -0.7787
 3716SOL    HW122610   1.357   3.708   9.123 -1.2634 -0.5237 -2.5968
 3716SOL    HW222611   1.370   3.845   9.068 -1.0268 -0.3303  0.9077
 3717SOL     OW22612   2.582   2.343   5.750 -0.3063 -0.7265  0.2488
 3717SOL    HW122613   2.607   2.293   5.673  1.4393  0.5630 -0.0154
 3717SOL    HW222614   2.615   2.286   5.821  1.1485 -0.5210 -0.2543
 3718SOL     OW22615   4.696   3.284  12.101 -0.0726 -0.1328 -0.2501
 3718SOL    HW122616   4.605   3.260  12.082 -0.4523 -1.1785  3.0005
 3718SOL    HW222617   4.672   3.354  12.161 -1.6400 -0.7268 -0.1869
 3719SOL     OW22618   4.113   3.134  16.669 -0.4691 -0.4501  0.7571
 3719SOL    HW122619   4.067   3.206  16.714 -1.3032 -1.7039  1.9085
 3719SOL    HW222620   4.183   3.185  16.627  1.5740 -2.6016  1.5615
 3720SOL     OW22621   1.020   0.031  10.561 -0.0777 -0.3909  0.6829
 3720SOL    HW122622   1.089   0.068  10.614  1.3178 -1.4925 -0.3586
 3720SOL    HW222623   0.947   0.058  10.616 -1.9271 -1.5355 -1.1879
 3721SOL     OW22624   3.617   1.929   8.776 -0.2768  0.2767 -0.3885
 3721SOL    HW122625   3.523   1.934   8.760 -0.0205 -1.3523 -2.3639
 3721SOL    HW222626   3.620   1.983   8.855  0.3488 -1.1754  0.5791
 3722SOL     OW22627   1.428   2.119   2.746 -0.2599 -0.4407  0.5955
 3722SOL    HW122628   1.456   2.135   2.655  1.3037 -2.3068  0.7326
 3722SOL    HW222629   1.366   2.047   2.738 -1.2125  0.4575 -0.0451
 3723SOL     OW22630   0.491   3.614  15.506  0.6707 -0.6859  0.2715
 3723SOL    HW122631   0.422   3.620  15.439 -0.6287 -2.4589  1.4551
 3723SOL    HW222632   0.469   3.535  15.556  1.6715 -0.9965  0.2194
 3724SOL     OW22633   0.883   1.591   3.866  0.3366 -0.1609 -0.9662
 3724SOL    HW122634   0.834   1.568   3.946  2.0859 -0.9459 -0.1255
 3724SOL    HW222635   0.867   1.685   3.874 -1.0921 -0.4102 -0.8279
 3725SOL     OW22636   3.039   4.068  10.865 -0.3257 -0.3589  0.2136
 3725SOL    HW122637   3.014   3.996  10.807  2.1842  0.8138 -2.2827
 3725SOL    HW222638   3.009   4.025  10.945 -2.2357  2.3605  0.9559
 3726SOL     OW22639   2.497   2.125  12.963 -0.2520 -0.4645 -0.2011
 3726SOL    HW122640   2.404   2.136  12.940 -0.3843 -2.3928 -0.5740
 3726SOL    HW222641   2.522   2.110  12.872 -1.5082  0.3865 -0.6934
 3727SOL     OW22642   1.659   2.992   7.239  0.0287 -0.4224 -0.1909
 3727SOL    HW122643   1.573   2.957   7.261  1.3215 -2.2121  1.9067
 3727SOL    HW222644   1.640   3.085   7.222  1.3797 -0.2500 -0.7856
 3728SOL     OW22645   2.475   0.520   9.134 -0.4639  0.1089  0.6210
 3728SOL    HW122646   2.416   0.576   9.083 -1.3310  0.8373  2.4140
 3728SOL    HW222647   2.560   0.560   9.114 -0.6591  0.3587  0.2915
 3729SOL     OW22648   4.318   1.084   1.579  0.2183  0.5283 -0.2976
 3729SOL    HW122649   4.399   1.069   1.627  0.3768 -1.3783 -1.1655
 3729SOL    HW222650   4.323   1.017   1.511  0.1282  1.4411 -1.1905
 3730SOL     OW22651   3.168   0.814   9.893 -0.3265  0.2953 -0.2006
 3730SOL    HW122652   3.138   0.886   9.949 -1.2254  0.0067 -0.3266
 3730SOL    HW222653   3.233   0.774   9.951 -0.7321  0.3907  0.3178
 3731SOL     OW22654   2.534   3.741   7.647  0.3393  0.5160 -0.0761
 3731SOL    HW122655   2.518   3.647   7.636 -1.2746  0.6094  1.5621
 3731SOL    HW222656   2.551   3.738   7.741 -0.3913  0.2481  0.0467
 3732SOL     OW22657   2.487   0.523   7.567 -0.5360 -0.3187  0.8246
 3732SOL    HW122658   2.426   0.573   7.619 -1.5134  0.2663 -0.8776
 3732SOL    HW222659   2.436   0.518   7.486 -2.5337  2.8106  1.9269
 3733SOL     OW22660   2.969   4.290  14.018  0.1728 -0.1764  0.5565
 3733SOL    HW122661   2.982   4.226  14.088  1.6621  0.3110  0.7269
 3733SOL    HW222662   3.036   4.352  14.049  0.0054  0.1496  0.2721
 3734SOL     OW22663   2.006   4.143   8.152 -0.4763 -0.2632 -0.5607
 3734SOL    HW122664   1.951   4.172   8.225 -0.9494 -4.3451  0.6765
 3734SOL    HW222665   2.085   4.149   8.205  0.1363  0.1711 -1.5118
 3735SOL     OW22666   0.221   3.559   2.003  0.5567  0.2142 -0.4999
 3735SOL    HW122667   0.257   3.640   1.967  1.7964 -0.3322 -0.4901
 3735SOL    HW222668   0.190   3.515   1.924  0.0352 -0.5577  0.1392
 3736SOL     OW22669   0.079   3.921   5.636  0.3723  0.4140  0.1530
 3736SOL    HW122670   0.054   3.994   5.578  0.7154  0.6914  0.3571
 3736SOL    HW222671   0.116   3.856   5.576 -1.9364 -1.0956  0.3681
 3737SOL     OW22672   4.184   1.840   7.331 -0.4821  0.2972 -0.4112
 3737SOL    HW122673   4.232   1.836   7.414  0.0401  4.1104 -0.5163
 3737SOL    HW222674   4.094   1.861   7.355 -0.9142 -1.2879 -0.6640
 3738SOL     OW22675   1.870   0.002  12.498  0.0734  0.0794  1.4638
 3738SOL    HW122676   1.798   0.018  12.560 -2.3334  1.0939 -1.5778
 3738SOL    HW222677   1.821   4.668  12.440  0.0974  0.5267  0.9878
 3739SOL     OW22678   4.374   0.694  11.874 -0.1214 -0.1832 -0.0272
 3739SOL    HW122679   4.345   0.645  11.797 -3.0691  1.4264  0.0595
 3739SOL    HW222680   4.371   0.625  11.940 -0.9309  0.4900  0.6344
 3740SOL     OW22681   1.598   4.470   9.068 -0.1257 -0.1126 -0.9415
 3740SOL    HW122682   1.682   4.462   9.113 -0.8403 -1.0088  0.2233
 3740SOL    HW222683   1.613   4.549   9.016  0.7922  0.0408 -0.4404
 3741SOL     OW22684   2.312   1.237   8.956  0.2288 -0.0133  0.5481
 3741SOL    HW122685   2.307   1.319   8.906  0.4024  1.0959  2.3572
 3741SOL    HW222686   2.358   1.278   9.030  2.7518  0.6504 -1.3638
 3742SOL     OW22687   1.779   4.292   3.265 -0.2606  0.1552 -0.2087
 3742SOL    HW122688   1.823   4.208   3.278 -1.4321 -0.0991  2.0534
 3742SOL    HW222689   1.764   4.316   3.357 -2.1861  0.5470 -0.6289
 3743SOL     OW22690   4.714   0.232   4.993  0.5295 -0.1248  0.3295
 3743SOL    HW122691   0.042   0.254   5.070 -0.9161  1.0505  0.9918
 3743SOL    HW222692   0.048   0.174   4.944 -1.3265 -1.9669  0.2951
 3744SOL     OW22693   0.181   1.257   1.813  0.2659 -0.0991  0.1764
 3744SOL    HW122694   0.191   1.349   1.838  0.0754  0.3225 -1.2407
 3744SOL    HW222695   0.153   1.248   1.721  0.3884 -0.7517  0.2016
 3745SOL     OW22696   3.528   2.527   4.853 -0.6473 -0.8211  0.0135
 3745SOL    HW122697   3.544   2.526   4.947 -0.2181  1.1340 -0.0299
 3745SOL    HW222698   3.556   2.619   4.846 -2.3901 -0.1564  1.9355
 3746SOL     OW22699   4.326   1.494   2.498 -0.3405 -0.0741  0.3349
 3746SOL    HW122700   4.244   1.514   2.453 -0.1886  0.1174  0.1476
 3746SOL    HW222701   4.384   1.529   2.431  1.6856 -2.2255  0.9270
 3747SOL     OW22702   4.176   2.846  12.239 -0.0872 -0.0552 -0.2159
 3747SOL    HW122703   4.241   2.795  12.192 -1.3607 -1.4173 -0.5013
 3747SOL    HW222704   4.224   2.859  12.320 -2.9424  1.6228  1.2248
 3748SOL     OW22705   0.342   1.833   1.255 -1.0136 -0.0560  0.2838
 3748SOL    HW122706   0.418   1.792   1.212 -1.8645  1.0589 -2.2982
 3748SOL    HW222707   0.353   1.792   1.341 -2.4012  0.4912  0.7087
 3749SOL     OW22708   1.882   3.829   8.658  0.3593  0.0573 -0.1892
 3749SOL    HW122709   1.821   3.761   8.687 -0.0815  0.9549  0.9795
 3749SOL    HW222710   1.828   3.871   8.591  2.4773 -0.7773 -2.3972
 3750SOL     OW22711   0.133   2.951  15.061 -0.6867 -0.1846 -0.1884
 3750SOL    HW122712   0.072   2.988  15.126 -0.4544 -1.4147  0.7446
 3750SOL    HW222713   0.075   2.892  15.013 -0.0893 -1.0976  0.2107
 3751SOL     OW22714   2.766   3.901   7.213  0.2009 -0.0727 -0.0816
 3751SOL    HW122715   2.782   3.989   7.178 -1.9585  0.1228 -0.5840
 3751SOL    HW222716   2.794   3.850   7.137 -1.9140  0.0631 -0.9695
 3752SOL     OW22717   0.404   0.962   6.602  0.2969 -0.0429 -0.5298
 3752SOL    HW122718   0.352   0.933   6.527  0.1939 -1.2660  0.0082
 3752SOL    HW222719   0.367   1.043   6.635  0.8397  0.3864 -0.9666
 3753SOL     OW22720   3.819   2.128  11.743 -0.2555 -0.6659  0.8714
 3753SOL    HW122721   3.870   2.061  11.699 -0.9802 -0.0676 -0.8527
 3753SOL    HW222722   3.757   2.073  11.791  0.4215  0.1867  2.7474
 3754SOL     OW22723   0.238   3.215   7.542  0.2798 -0.3030  0.2659
 3754SOL    HW122724   0.153   3.256   7.526  0.4378 -0.5293 -1.0824
 3754SOL    HW222725   0.265   3.170   7.462 -2.3516  0.1363 -0.8551
 3755SOL     OW22726   1.272   0.505  13.355 -1.0393  0.1599 -0.5506
 3755SOL    HW122727   1.199   0.443  13.343 -0.0834 -1.0284 -0.2428
 3755SOL    HW222728   1.266   0.514  13.450 -0.0660  1.4470 -0.6101
 3756SOL     OW22729   1.983   3.900   4.275 -0.4058  0.4680  0.0131
 3756SOL    HW122730   2.044   3.970   4.299  1.2563 -1.5701  1.7261
 3756SOL    HW222731   2.048   3.839   4.240 -0.0825 -0.8505  2.9046
 3757SOL     OW22732   1.466   2.427   9.788  0.0893  0.3823 -0.2191
 3757SOL    HW122733   1.544   2.405   9.838 -1.7030  0.1734  2.4624
 3757SOL    HW222734   1.396   2.443   9.852  2.2531  1.3175  1.8707
 3758SOL     OW22735   2.117   3.540   4.083 -0.4178  0.7957  0.6517
 3758SOL    HW122736   2.060   3.587   4.021  0.1346 -0.2665 -0.6595
 3758SOL    HW222737   2.186   3.507   4.026 -0.9169  0.6698  0.1175
 3759SOL     OW22738   2.776   3.884   0.943  0.0859 -0.1673  0.2019
 3759SOL    HW122739   2.857   3.885   0.892 -0.1782  1.7775 -0.2032
 3759SOL    HW222740   2.813   3.878   1.031  1.8633 -0.4734 -0.5725
 3760SOL     OW22741   3.871   3.790  10.579 -0.5829 -0.5056 -0.5621
 3760SOL    HW122742   3.931   3.853  10.618 -0.5207  0.2931 -1.9371
 3760SOL    HW222743   3.867   3.724  10.648 -1.2423  0.1763  0.0514
 3761SOL     OW22744   1.168   1.733   6.807 -0.2244  0.1771  0.4415
 3761SOL    HW122745   1.145   1.640   6.797 -0.8356  0.1222  2.2471
 3761SOL    HW222746   1.146   1.742   6.900  0.9582  0.0376  0.7366
 3762SOL     OW22747   3.393   4.444   7.381  0.0098 -0.2307  0.1701
 3762SOL    HW122748   3.443   4.372   7.342  0.0158 -0.6612  0.9492
 3762SOL    HW222749   3.312   4.398   7.404 -1.1198  1.5499 -0.2438
 3763SOL     OW22750   0.109   3.117   8.545  0.1756  0.7541  0.2070
 3763SOL    HW122751   0.020   3.094   8.520  0.5903 -0.0390 -0.5367
 3763SOL    HW222752   0.154   3.101   8.462  1.6794  0.3692  1.1029
 3764SOL     OW22753   3.258   2.640   3.606  0.1787 -0.1947  0.3398
 3764SOL    HW122754   3.242   2.724   3.561 -0.1435 -0.2043  0.4329
 3764SOL    HW222755   3.168   2.607   3.605  0.6030 -1.3669  1.7266
 3765SOL     OW22756   4.037   3.070   9.918  0.2191  0.0106 -0.0279
 3765SOL    HW122757   3.984   3.123   9.858  1.1598  1.0571  0.0521
 3765SOL    HW222758   4.115   3.052   9.867  0.1052 -1.1780  0.2260
 3766SOL     OW22759   2.366   2.286  10.536  0.0544 -0.2401 -0.3408
 3766SOL    HW122760   2.301   2.246  10.593  0.0730 -1.5858 -1.2888
 3766SOL    HW222761   2.408   2.215  10.488 -0.7713 -0.4859 -0.7002
 3767SOL     OW22762   2.972   0.187   8.985  0.1720 -0.4845  1.0788
 3767SOL    HW122763   2.981   0.143   8.900 -0.7609  0.5534  0.4335
 3767SOL    HW222764   3.037   0.136   9.034  0.4914 -0.1988  0.9567
 3768SOL     OW22765   3.881   3.198   4.362 -0.3458 -0.5587 -0.2934
 3768SOL    HW122766   3.847   3.270   4.415  2.0406 -0.2052  0.7404
 3768SOL    HW222767   3.888   3.228   4.272  0.1778  1.4098  0.4112
 3769SOL     OW22768   1.425   1.932  12.811  0.4219  0.2502  0.0570
 3769SOL    HW122769   1.339   1.974  12.806 -0.0135 -0.5603  0.6941
 3769SOL    HW222770   1.481   2.006  12.834  2.3059  0.1141 -3.9773
 3770SOL     OW22771   1.163   3.177   7.905 -0.1805  0.0191  0.3367
 3770SOL    HW122772   1.089   3.130   7.943 -0.6146  1.0090  0.7255
 3770SOL    HW222773   1.150   3.262   7.948 -0.7417 -0.5204  1.2295
 3771SOL     OW22774   4.447   2.854   2.466  0.6186 -0.2378 -0.7609
 3771SOL    HW122775   4.461   2.937   2.420 -2.4605  1.9545  2.2371
 3771SOL    HW222776   4.481   2.794   2.400  2.0938 -0.9769  0.6751
 3772SOL     OW22777   3.937   3.316   8.585 -0.4970 -0.6869  0.4192
 3772SOL    HW122778   4.017   3.282   8.626 -1.0863 -1.7576  0.6734
 3772SOL    HW222779   3.912   3.388   8.643 -0.3973  0.8501 -1.4569
 3773SOL     OW22780   0.449   2.352   7.087  0.1623  0.5059  0.0256
 3773SOL    HW122781   0.428   2.372   7.178  1.5678  1.1770  0.2082
 3773SOL    HW222782   0.376   2.296   7.060 -0.7894  0.9464  1.6859
 3774SOL     OW22783   0.105   3.032   3.502 -0.0673  0.2759 -0.4531
 3774SOL    HW122784   0.182   3.080   3.534 -0.8163  0.4344  1.0992
 3774SOL    HW222785   0.045   3.104   3.485 -0.7975 -0.1678  0.2432
 3775SOL     OW22786   3.805   0.425   9.057  0.0420 -0.1623 -0.2107
 3775SOL    HW122787   3.756   0.499   9.093  2.2581  1.7741 -1.1466
 3775SOL    HW222788   3.844   0.394   9.139  1.3570 -0.1778 -0.8292
 3776SOL     OW22789   1.505   3.912  16.215  0.2170  0.4520  0.3353
 3776SOL    HW122790   1.415   3.884  16.195  0.0966  0.0070  1.4592
 3776SOL    HW222791   1.552   3.884  16.137 -1.2463 -2.0939  0.3362
 3777SOL     OW22792   1.452   4.488  10.754 -0.2662  0.1670 -0.5543
 3777SOL    HW122793   1.427   4.411  10.703 -2.2317 -0.1071  0.8342
 3777SOL    HW222794   1.368   4.517  10.791 -0.8958 -1.9587 -0.2870
 3778SOL     OW22795   0.217   0.406  15.953 -0.1877 -0.4567 -0.3790
 3778SOL    HW122796   0.172   0.375  16.032 -0.7344 -0.5133 -0.7087
 3778SOL    HW222797   0.141   0.438  15.905 -1.2453 -0.6880  1.1543
 3779SOL     OW22798   1.988   0.679   2.787 -0.3579 -0.4312 -0.3732
 3779SOL    HW122799   1.991   0.767   2.824  0.1494  0.3783 -2.3412
 3779SOL    HW222800   2.078   0.649   2.797  0.4621  1.5569 -1.7087
 3780SOL     OW22801   4.712   1.980   4.544  0.2411 -0.1581 -0.0511
 3780SOL    HW122802   0.007   1.952   4.455  1.9451  0.6225  0.0792
 3780SOL    HW222803   0.027   2.066   4.546  0.7387 -0.3346 -2.2515
 3781SOL     OW22804   1.419   0.901  10.426  0.2146 -0.1270  0.2850
 3781SOL    HW122805   1.397   0.994  10.427  1.3547  0.1422 -0.3691
 3781SOL    HW222806   1.512   0.915  10.441 -0.3147  0.8500  2.7464
 3782SOL     OW22807   3.942   4.521   4.376  0.2259  0.1110 -0.2944
 3782SOL    HW122808   3.868   4.583   4.371  0.6991  0.7194  0.2338
 3782SOL    HW222809   3.898   4.441   4.405 -1.6136  0.3593 -2.3198
 3783SOL     OW22810   3.326   0.232   3.967  0.5129 -0.6003 -0.2753
 3783SOL    HW122811   3.376   0.208   4.045  0.6643  0.2036 -0.1277
 3783SOL    HW222812   3.353   0.324   3.968  0.9508 -0.7528  2.1230
 3784SOL     OW22813   1.276   2.012   1.193  0.2073 -0.5243  0.0293
 3784SOL    HW122814   1.333   2.066   1.247  0.5181 -1.7155  0.8919
 3784SOL    HW222815   1.197   2.066   1.188 -0.1348 -1.0654 -0.4816
 3785SOL     OW22816   1.150   2.313   7.507  0.3211 -0.2316 -0.1855
 3785SOL    HW122817   1.245   2.323   7.518  0.3805 -1.0219  0.0093
 3785SOL    HW222818   1.120   2.371   7.577 -0.7246 -1.3335  0.2895
 3786SOL     OW22819   2.666   2.609   3.054 -0.2114 -0.0261  0.2314
 3786SOL    HW122820   2.759   2.619   3.077 -0.3112 -2.0168  1.5299
 3786SOL    HW222821   2.648   2.532   3.107 -3.4941  1.3051  1.0300
 3787SOL     OW22822   3.849   1.260   0.666 -0.1600 -0.3844 -0.1320
 3787SOL    HW122823   3.802   1.301   0.738 -0.8115 -1.2246 -0.0679
 3787SOL    HW222824   3.891   1.185   0.708 -1.2081 -0.7846  0.1938
 3788SOL     OW22825   1.302   0.365   3.503  0.2220 -0.3781  0.0192
 3788SOL    HW122826   1.275   0.434   3.565  1.2715 -0.6044  0.7321
 3788SOL    HW222827   1.395   0.387   3.504 -0.0800  0.9303  1.6045
 3789SOL     OW22828   1.034   3.202   0.021 -0.9054 -0.4446  0.3932
 3789SOL    HW122829   1.113   3.153   0.043  1.3375  1.4518 -3.4154
 3789SOL    HW222830   0.964   3.164   0.074 -0.0240 -1.0079  1.1540
 3790SOL     OW22831   2.518   1.317   5.056 -0.0685  0.4572  0.3443
 3790SOL    HW122832   2.499   1.407   5.031  1.1828  0.0838 -1.9502
 3790SOL    HW222833   2.599   1.306   5.006 -0.5105  1.9945 -0.7215
 3791SOL     OW22834   2.428   1.543  12.952  0.3020 -0.0355 -0.0111
 3791SOL    HW122835   2.413   1.483  12.879 -1.3888 -0.2506  0.5018
 3791SOL    HW222836   2.456   1.481  13.019 -0.8929  0.2658  0.7760
 3792SOL     OW22837   1.498   4.496  11.051 -0.4255  0.2206  0.1670
 3792SOL    HW122838   1.542   4.498  10.966  0.9394 -0.5069  0.8584
 3792SOL    HW222839   1.571   4.532  11.101 -0.0660  0.3811 -0.4629
 3793SOL     OW22840   2.930   0.453  13.806 -0.1068 -0.2013  0.1862
 3793SOL    HW122841   2.849   0.403  13.792  0.1804 -1.5562  3.3828
 3793SOL    HW222842   2.899   0.541  13.787  1.9759  0.5733  0.4227
 3794SOL     OW22843   3.632   3.533  13.664 -0.1315  0.1257 -0.1874
 3794SOL    HW122844   3.702   3.468  13.657  1.1560  1.4259  0.6130
 3794SOL    HW222845   3.643   3.573  13.578  1.8476  0.0561  0.0227
 3795SOL     OW22846   0.488   1.236  17.543  0.2452 -0.3295 -0.8025
 3795SOL    HW122847   0.444   1.154  17.562  1.3158 -0.1670  2.4218
 3795SOL    HW222848   0.487   1.249  17.448  0.1901 -1.0135 -0.8922
 3796SOL     OW22849   3.744   0.044   3.809  0.3778 -0.6165 -0.0692
 3796SOL    HW122850   3.774   0.000   3.729  1.7099 -0.2252  0.2077
 3796SOL    HW222851   3.651   0.054   3.788  0.7485  0.2398 -1.2911
 3797SOL     OW22852   0.792   3.185  15.716  0.2129  0.4501  0.6432
 3797SOL    HW122853   0.725   3.127  15.753  0.7155 -0.4017  0.2162
 3797SOL    HW222854   0.860   3.168  15.782 -2.6459 -0.2182  3.4482
 3798SOL     OW22855   3.893   3.196   5.064  0.2025  0.9515 -0.1358
 3798SOL    HW122856   3.956   3.188   4.992  2.3344  2.2648  1.6086
 3798SOL    HW222857   3.866   3.287   5.050  0.7202  1.0806 -0.3024
 3799SOL     OW22858   0.094   4.213   5.951  0.2461  0.0459  0.3917
 3799SOL    HW122859   0.123   4.156   6.023  0.1772 -0.0274  0.3610
 3799SOL    HW222860   0.032   4.270   5.996 -0.3285 -0.8145  0.6898
 3800SOL     OW22861   4.573   3.079   4.488  0.2495  0.1722 -0.2530
 3800SOL    HW122862   4.574   3.020   4.413  0.0005 -0.6296  0.3727
 3800SOL    HW222863   4.604   3.161   4.448 -0.4656 -0.4993 -2.1805
 3801SOL     OW22864   2.762   0.635   0.290 -0.1783  0.2010  0.0602
 3801SOL    HW122865   2.702   0.703   0.320 -2.7465 -1.3318 -1.6450
 3801SOL    HW222866   2.708   0.558   0.278  2.4595 -1.9398  1.8116
 3802SOL     OW22867   0.069   4.680   9.987 -0.0501 -0.6180  0.0466
 3802SOL    HW122868   0.083   0.047   9.964 -3.4062 -0.3207 -0.8724
 3802SOL    HW222869   0.149   4.653  10.032  2.1010  1.2261 -2.6576
 3803SOL     OW22870   4.681   4.679   7.814 -0.0366 -0.1430  0.2884
 3803SOL    HW122871   4.704   0.012   7.741  0.8355 -0.3195  0.4212
 3803SOL    HW222872   0.044   4.671   7.851 -1.0664 -0.9368  2.5847
 3804SOL     OW22873   4.437   2.868   6.212  0.1931  0.2133  0.6219
 3804SOL    HW122874   4.517   2.911   6.182 -0.4314  0.3193 -0.9347
 3804SOL    HW222875   4.382   2.940   6.245 -0.1531  0.7116 -1.0260
 3805SOL     OW22876   0.325   3.311   6.174 -0.3751  0.2645 -0.2002
 3805SOL    HW122877   0.417   3.335   6.167  0.2524 -2.2472 -0.6831
 3805SOL    HW222878   0.311   3.267   6.089 -1.1695  1.0965 -0.4987
 3806SOL     OW22879   1.443   4.410   9.284 -0.2286  0.6590 -0.5398
 3806SOL    HW122880   1.383   4.484   9.300 -1.3657 -0.1140 -1.1788
 3806SOL    HW222881   1.508   4.452   9.229  0.3972  1.2634  0.6537
 3807SOL     OW22882   1.624   2.640  15.694 -0.3075 -0.3988  0.4743
 3807SOL    HW122883   1.677   2.591  15.756  0.6595 -0.2893 -0.2535
 3807SOL    HW222884   1.555   2.575  15.679 -0.0869 -1.0584  2.3678
 3808SOL     OW22885   3.479   4.249   2.203 -0.4579  0.2465 -0.3244
 3808SOL    HW122886   3.471   4.333   2.157  1.2185  0.4415 -0.2832
 3808SOL    HW222887   3.493   4.280   2.292 -0.8287  0.7497 -0.4416
 3809SOL     OW22888   4.120   2.136   3.537 -0.7127 -0.1449 -0.1586
 3809SOL    HW122889   4.131   2.078   3.462  0.9609  1.5028 -1.2016
 3809SOL    HW222890   4.071   2.079   3.596  1.5495 -4.0476 -2.0577
 3810SOL     OW22891   0.396   1.050   8.214 -0.3757 -0.4885 -0.5939
 3810SOL    HW122892   0.332   1.112   8.180  0.8602  0.0760 -1.9163
 3810SOL    HW222893   0.364   1.040   8.304 -0.1460 -1.3161 -0.5990
 3811SOL     OW22894   1.943   2.706  16.803  0.6101  0.0687 -0.1382
 3811SOL    HW122895   1.972   2.797  16.792 -3.0640  1.6533  3.0576
 3811SOL    HW222896   1.914   2.682  16.715  0.9232  1.9450 -0.7450
 3812SOL     OW22897   2.213   1.705   8.493 -0.0684  0.2159  0.0941
 3812SOL    HW122898   2.211   1.775   8.427 -1.5828  0.9473  0.9084
 3812SOL    HW222899   2.182   1.633   8.438 -0.8032 -0.2554  1.1302
 3813SOL     OW22900   0.931   0.933  10.583 -0.2981  0.2739  0.0752
 3813SOL    HW122901   0.979   0.912  10.664 -0.6442  1.7049  0.6517
 3813SOL    HW222902   0.845   0.906  10.615  0.2299 -1.1322  0.3244
 3814SOL     OW22903   1.639   4.362   6.579  0.3894  0.0403  0.9120
 3814SOL    HW122904   1.613   4.339   6.490 -0.2075  0.8797  0.8816
 3814SOL    HW222905   1.712   4.422   6.566  0.0793 -0.0485 -1.3614
 3815SOL     OW22906   1.847   1.843   9.110  0.0893  0.1905 -0.6783
 3815SOL    HW122907   1.875   1.880   9.194  0.2562  1.3211 -1.2295
 3815SOL    HW222908   1.866   1.911   9.046 -1.1109  1.7674  0.6225
 3816SOL     OW22909   0.980   1.823  12.859  0.0139 -0.1912  0.0840
 3816SOL    HW122910   1.074   1.828  12.843 -0.4852  1.7430 -2.2765
 3816SOL    HW222911   0.969   1.906  12.906  2.7234 -0.9651  2.0567
 3817SOL     OW22912   0.747   1.352   2.365 -0.2437 -0.2567  0.1505
 3817SOL    HW122913   0.793   1.395   2.293 -1.1082 -0.3415 -0.4575
 3817SOL    HW222914   0.717   1.271   2.324 -0.2289 -0.9731  1.5569
 3818SOL     OW22915   4.238   4.214   3.483 -0.7476  0.4703  0.1604
 3818SOL    HW122916   4.302   4.284   3.469  2.0875 -2.0175  0.7145
 3818SOL    HW222917   4.184   4.257   3.550  0.3154 -0.2254  1.4660
 3819SOL     OW22918   1.822   3.091  16.908 -0.8755  0.2366 -0.3756
 3819SOL    HW122919   1.877   3.034  16.853  2.7072  1.8427  1.5362
 3819SOL    HW222920   1.801   3.144  16.831  2.5909  0.7330 -0.9789
 3820SOL     OW22921   3.650   1.455   1.775 -0.4753 -0.5337 -0.1526
 3820SOL    HW122922   3.578   1.502   1.818  0.2577  0.6056 -0.1566
 3820SOL    HW222923   3.616   1.367   1.760 -0.1535 -0.6812 -0.0179
 3821SOL     OW22924   2.521   1.577   8.232 -0.3952 -0.4686  0.4688
 3821SOL    HW122925   2.614   1.557   8.219 -0.6106 -2.0606  1.3692
 3821SOL    HW222926   2.483   1.497   8.269 -0.6434 -0.4302  0.2981
 3822SOL     OW22927   1.538   1.192   7.259 -0.1326  0.0508  0.4204
 3822SOL    HW122928   1.490   1.266   7.222  2.2414  0.6687 -1.4266
 3822SOL    HW222929   1.504   1.203   7.347 -0.5913 -1.1874  0.3897
 3823SOL     OW22930   3.323   4.046  14.964  0.0793  0.4093 -0.5248
 3823SOL    HW122931   3.300   4.129  15.007  2.2961  0.0142  1.4458
 3823SOL    HW222932   3.376   4.009  15.035  1.1917  0.1808 -1.4719
 3824SOL     OW22933   3.453   1.952   0.670  0.3481 -0.1065  0.4797
 3824SOL    HW122934   3.477   1.911   0.753 -1.4166  3.7486  2.8996
 3824SOL    HW222935   3.484   2.041   0.687  1.6570 -0.5155  0.2549
 3825SOL     OW22936   1.066   0.529   5.811 -0.1984  0.4973 -0.7651
 3825SOL    HW122937   1.015   0.607   5.831 -0.3822  1.0312 -3.3647
 3825SOL    HW222938   1.112   0.512   5.893 -1.4011 -2.6187 -0.7520
 3826SOL     OW22939   1.720   2.396   7.101  0.3310  0.5851  0.0325
 3826SOL    HW122940   1.809   2.372   7.076  0.2514  1.2494 -0.8856
 3826SOL    HW222941   1.708   2.479   7.055 -2.0474  0.8699  1.1418
 3827SOL     OW22942   1.592   1.900   7.175  0.6814  0.4904  0.1014
 3827SOL    HW122943   1.673   1.936   7.138  1.9414  0.5867  2.9356
 3827SOL    HW222944   1.549   1.866   7.097 -2.9782  0.7733  1.9774
 3828SOL     OW22945   0.728   3.573   9.432 -0.0407  0.4781 -0.0981
 3828SOL    HW122946   0.728   3.482   9.404 -1.9037  0.6888 -0.7960
 3828SOL    HW222947   0.649   3.589   9.484 -0.4434  0.5049 -0.7185
 3829SOL     OW22948   3.190   1.143   4.131  1.0617  0.6112  0.8474
 3829SOL    HW122949   3.275   1.120   4.167  0.5743 -2.3385  0.1242
 3829SOL    HW222950   3.222   1.138   4.040 -2.3495  0.5300 -0.3690
 3830SOL     OW22951   1.883   3.547   1.615 -0.2528  0.1829 -0.0580
 3830SOL    HW122952   1.791   3.572   1.608 -0.0602  1.2535  1.3028
 3830SOL    HW222953   1.910   3.589   1.696  0.1465  0.9289 -0.5725
 3831SOL     OW22954   1.426   4.670   7.801 -0.1692  0.4979 -0.6021
 3831SOL    HW122955   1.403   4.619   7.879  0.0947  0.1307 -0.7675
 3831SOL    HW222956   1.515   4.700   7.821 -1.9436  2.6165  4.1757
 3832SOL     OW22957   0.283   4.645   5.915 -0.0316  0.1698 -0.0196
 3832SOL    HW122958   0.321   4.610   5.996  0.2013 -4.4440 -2.1532
 3832SOL    HW222959   0.301   0.014   5.929  0.3409  0.0123  0.5755
 3833SOL     OW22960   3.680   1.442  15.180  0.2629 -0.3397 -0.1658
 3833SOL    HW122961   3.709   1.533  15.170  2.0478 -0.9415 -0.5502
 3833SOL    HW222962   3.761   1.390  15.178  0.6808  0.2120  2.3565
 3834SOL     OW22963   3.588   3.262   7.671 -0.3375  0.0455 -0.0291
 3834SOL    HW122964   3.609   3.313   7.750  3.1622  0.6400 -1.3858
 3834SOL    HW222965   3.494   3.278   7.665 -0.2532  0.8803  0.7140
 3835SOL     OW22966   2.677   0.143  13.393  0.4137  0.5364  0.4719
 3835SOL    HW122967   2.729   0.175  13.466 -1.1062  0.6176  1.5155
 3835SOL    HW222968   2.700   0.210  13.329 -1.8423  0.4425 -0.4585
 3836SOL     OW22969   4.637   0.860   2.986  0.0542  0.2463 -0.5710
 3836SOL    HW122970   4.717   0.902   3.018 -0.2555 -1.1647  2.1308
 3836SOL    HW222971   4.668   0.791   2.927  0.2346 -0.8963  0.8582
 3837SOL     OW22972   2.431   1.843   2.849 -0.1830 -1.0928  0.6844
 3837SOL    HW122973   2.489   1.869   2.777  1.2865 -1.1177  1.8620
 3837SOL    HW222974   2.428   1.921   2.904 -0.3766  0.5593 -1.6839
 3838SOL     OW22975   4.519   0.342   5.321  0.4613 -0.0911 -0.1001
 3838SOL    HW122976   4.586   0.314   5.383  0.9208  0.3796 -0.3921
 3838SOL    HW222977   4.451   0.367   5.384  0.8710  0.3958  0.1401
 3839SOL     OW22978   4.355   0.289   0.070  0.0432 -0.1605 -0.1911
 3839SOL    HW122979   4.391   0.292  17.682  0.3833 -1.7528 -0.0936
 3839SOL    HW222980   4.328   0.198   0.064 -0.2759  0.1724 -3.9879
 3840SOL     OW22981   1.196   1.994  15.365  0.1600 -0.0619 -0.2187
 3840SOL    HW122982   1.242   2.019  15.285  1.8794 -1.1524  0.4441
 3840SOL    HW222983   1.134   2.066  15.376  1.6538  1.1466  0.2019
 3841SOL     OW22984   1.276   4.391  11.139 -0.2896 -0.2652 -0.3702
 3841SOL    HW122985   1.305   4.304  11.112 -1.6565 -0.1860 -2.1082
 3841SOL    HW222986   1.352   4.439  11.108  0.3120 -1.4148 -0.6642
 3842SOL     OW22987   4.102   2.152   7.298 -0.1599 -0.2652  0.0421
 3842SOL    HW122988   4.075   2.061   7.306 -2.8117  0.3132 -2.3343
 3842SOL    HW222989   4.109   2.169   7.393 -1.9150 -0.0807  0.1371
 3843SOL     OW22990   3.693   0.573   9.244 -0.1321 -0.0307 -0.4660
 3843SOL    HW122991   3.738   0.542   9.322  0.4841  1.6633 -0.1455
 3843SOL    HW222992   3.601   0.574   9.271 -0.4895  0.8860 -1.7379
 3844SOL     OW22993   3.933   0.874   7.444 -0.1188 -0.4944  0.4295
 3844SOL    HW122994   3.894   0.935   7.382 -0.0478 -1.0407 -0.1513
 3844SOL    HW222995   3.966   0.812   7.378  2.0679  1.9267 -0.7384
 3845SOL     OW22996   2.892   1.349   1.975  0.3913 -0.4172  0.3440
 3845SOL    HW122997   2.856   1.393   1.898  1.3409  0.8046  0.5827
 3845SOL    HW222998   2.984   1.331   1.956  0.5670  0.9807 -0.1361
 3846SOL     OW22999   2.407   3.492   9.110  0.2191  0.0544  0.1205
 3846SOL    HW123000   2.428   3.431   9.039  0.5046 -2.3069  2.2148
 3846SOL    HW223001   2.314   3.477   9.127  0.6999 -1.1888  1.7125
 3847SOL     OW23002   1.159   0.520  17.281 -0.1575 -0.4362  0.8252
 3847SOL    HW123003   1.168   0.606  17.241 -0.6767 -0.7129  0.1096
 3847SOL    HW223004   1.194   0.462  17.213  0.7129  1.8170 -0.6445
 3848SOL     OW23005   3.025   0.014   2.928 -0.2819  0.0448  0.3004
 3848SOL    HW123006   2.995   4.664   2.878 -2.7253  2.2649 -1.5350
 3848SOL    HW223007   3.049   0.074   2.858  0.3676 -1.2880 -0.6095
 3849SOL     OW23008   4.454   3.352   3.904  0.6621  0.1121 -0.0030
 3849SOL    HW123009   4.368   3.386   3.880  0.4440 -0.7291 -0.4020
 3849SOL    HW223010   4.428   3.261   3.918  0.3912  0.1320 -0.3986
 3850SOL     OW23011   0.093   2.273   8.413 -0.2891  0.4054  0.0335
 3850SOL    HW123012   0.183   2.257   8.384 -0.2084  0.1946  0.3993
 3850SOL    HW223013   0.060   2.187   8.388 -2.1359  1.0333  0.3556
 3851SOL     OW23014   2.260   1.317  17.616 -0.0936  0.2259  0.0341
 3851SOL    HW123015   2.166   1.313  17.598 -0.1884  0.3347  0.5039
 3851SOL    HW223016   2.301   1.287  17.535  0.2995  0.7129  0.0541
 3852SOL     OW23017   0.093   4.559   5.730 -0.4054 -0.0994 -0.0149
 3852SOL    HW123018   0.116   4.633   5.675  1.2228 -1.0726 -0.6317
 3852SOL    HW223019   0.175   4.559   5.779 -1.0655  1.4556  1.0563
 3853SOL     OW23020   3.393   2.403   8.735  0.1614 -0.1734 -0.4673
 3853SOL    HW123021   3.421   2.324   8.688 -0.0707 -0.5293 -0.0080
 3853SOL    HW223022   3.298   2.389   8.727 -0.2977  1.1155  2.6054
 3854SOL     OW23023   0.219   2.792  14.102 -0.3560 -0.3188 -0.1496
 3854SOL    HW123024   0.143   2.762  14.152  0.9728 -1.5139  1.1662
 3854SOL    HW223025   0.287   2.767  14.166  0.3514 -0.4529 -0.9479
 3855SOL     OW23026   1.564   2.914  17.558  0.0776 -0.0607  0.1354
 3855SOL    HW123027   1.612   2.831  17.554 -0.5329 -0.3456 -1.1628
 3855SOL    HW223028   1.521   2.924  17.473  1.5100 -1.2389 -0.7282
 3856SOL     OW23029   1.964   0.869  15.073  0.7128 -0.2236  0.5347
 3856SOL    HW123030   2.013   0.914  15.005  0.3960 -1.8019 -0.7393
 3856SOL    HW223031   1.955   0.781  15.035 -0.1051 -0.7418  1.9056
 3857SOL     OW23032   3.812   4.067   8.782 -0.1899  0.1364  0.4233
 3857SOL    HW123033   3.849   4.147   8.745  1.6944 -0.7202  0.4163
 3857SOL    HW223034   3.836   4.077   8.874  1.9380  1.2688 -0.2456
 3858SOL     OW23035   0.558   4.307  15.938 -0.2990 -0.2650  0.4454
 3858SOL    HW123036   0.626   4.240  15.940  0.2427  0.2494 -1.2153
 3858SOL    HW223037   0.547   4.308  15.843  0.8038 -1.3439  0.3092
 3859SOL     OW23038   2.612   0.503   7.252 -0.0560  0.4894 -0.0040
 3859SOL    HW123039   2.550   0.511   7.180  0.7784  1.9436 -0.5592
 3859SOL    HW223040   2.685   0.557   7.224 -0.2735  1.0128  0.4289
 3860SOL     OW23041   1.971   3.189   0.476  0.1347 -0.3660  0.7003
 3860SOL    HW123042   2.020   3.232   0.406  1.6146  0.5173  2.2555
 3860SOL    HW223043   1.904   3.144   0.425  0.7976 -0.0289 -0.4514
 3861SOL     OW23044   2.512   3.862   1.654  0.4717 -0.2038 -0.2284
 3861SOL    HW123045   2.582   3.801   1.677 -1.0094 -1.0603  2.0630
 3861SOL    HW223046   2.442   3.803   1.679 -0.1275 -0.5499 -2.8239
 3862SOL     OW23047   3.879   3.773   5.130 -0.0473 -0.2754  0.3827
 3862SOL    HW123048   3.854   3.745   5.218 -0.1358  0.5954  0.6335
 3862SOL    HW223049   3.943   3.708   5.103  3.3900  2.6762  1.3578
 3863SOL     OW23050   1.553   1.185  16.693 -0.4260  0.6080  0.2100
 3863SOL    HW123051   1.602   1.112  16.656  0.6908  1.0225  0.8767
 3863SOL    HW223052   1.474   1.186  16.638 -0.4498 -1.1564  0.2127
 3864SOL     OW23053   1.390   4.445   3.819  0.4354 -0.3183  0.3109
 3864SOL    HW123054   1.456   4.441   3.750 -1.1791 -1.9102 -1.1507
 3864SOL    HW223055   1.419   4.526   3.860  1.6818 -0.8167  0.4054
 3865SOL     OW23056   4.265   0.867   1.435  0.0284  0.2917  0.2749
 3865SOL    HW123057   4.175   0.899   1.424  0.1027  0.9116  1.4546
 3865SOL    HW223058   4.285   0.804   1.366 -0.3930  0.5635 -0.0897
 3866SOL     OW23059   0.454   1.283  17.279  0.0508 -0.0409  0.2021
 3866SOL    HW123060   0.403   1.225  17.223  1.7784 -1.2178 -0.1600
 3866SOL    HW223061   0.541   1.268  17.241 -0.4317  0.1950 -0.9942
 3867SOL     OW23062   1.201   3.969   6.249  0.0242 -0.8379  0.0109
 3867SOL    HW123063   1.110   3.993   6.267  0.6072  3.1599 -2.4856
 3867SOL    HW223064   1.193   3.885   6.203  3.6304  0.3965 -2.8380
 3868SOL     OW23065   1.832   2.130   6.413 -0.6149 -0.2313 -0.0762
 3868SOL    HW123066   1.751   2.101   6.455 -0.7543 -0.1754 -0.3119
 3868SOL    HW223067   1.799   2.210   6.373 -0.5896  0.1369  0.6280
 3869SOL     OW23068   4.253   3.410   9.865 -0.3235 -0.0504  0.4380
 3869SOL    HW123069   4.315   3.410   9.938  0.9149  1.1046 -0.6277
 3869SOL    HW223070   4.218   3.321   9.870  0.6470 -0.4707 -0.3017
 3870SOL     OW23071   4.588   4.221  16.873  0.1831 -0.0807  0.2936
 3870SOL    HW123072   4.612   4.160  16.802  1.4018  2.6036 -1.6032
 3870SOL    HW223073   4.512   4.178  16.913  1.5340 -1.9107  0.8868
 3871SOL     OW23074   3.214   2.459  16.828  0.0336 -0.0329 -0.0775
 3871SOL    HW123075   3.147   2.515  16.786  0.1698  0.3089  0.1618
 3871SOL    HW223076   3.229   2.508  16.909 -1.3394  0.2407  0.0098
 3872SOL     OW23077   4.060   0.229  16.945  0.3607 -0.5600  0.4242
 3872SOL    HW123078   4.010   0.228  17.027 -0.6527 -1.0397 -0.2029
 3872SOL    HW223079   4.110   0.148  16.956  2.3876  0.2898 -2.4846
 3873SOL     OW23080   2.866   2.956   7.851 -0.0847 -0.4831  0.0407
 3873SOL    HW123081   2.894   3.042   7.883  1.3533 -0.2698 -1.8455
 3873SOL    HW223082   2.834   2.972   7.763 -1.2772 -3.9175 -0.1349
 3874SOL     OW23083   0.754   4.384   3.163  0.4825 -0.8854 -0.3978
 3874SOL    HW123084   0.723   4.451   3.102  2.0439 -0.3111 -0.5355
 3874SOL    HW223085   0.730   4.426   3.246  1.6349 -0.3848 -0.3315
 3875SOL     OW23086   3.702   3.748   2.128 -0.1270  0.2294 -0.0279
 3875SOL    HW123087   3.657   3.826   2.160  0.6466  0.5579  0.2686
 3875SOL    HW223088   3.635   3.688   2.097 -0.3356  0.4605 -0.0213
 3876SOL     OW23089   2.709   2.693   1.143  0.3830 -0.3935 -0.0333
 3876SOL    HW123090   2.781   2.640   1.110 -0.4070 -1.4746  0.0098
 3876SOL    HW223091   2.701   2.659   1.231  2.6803 -0.0913  0.2939
 3877SOL     OW23092   1.933   0.646   5.360 -0.4749 -0.1262 -0.4941
 3877SOL    HW123093   1.910   0.570   5.413  0.0519 -0.2733 -0.4780
 3877SOL    HW223094   1.932   0.717   5.425 -1.5510  0.2387 -0.9183
 3878SOL     OW23095   1.404   3.474   5.158  0.1313  0.0731  0.0919
 3878SOL    HW123096   1.354   3.492   5.239  0.0424 -2.1569  0.5421
 3878SOL    HW223097   1.365   3.541   5.102 -0.8102  1.8318  2.7924
 3879SOL     OW23098   1.523   3.051   0.290 -0.6391 -0.1946  0.1490
 3879SOL    HW123099   1.428   3.042   0.300 -0.7821  0.6919 -0.4279
 3879SOL    HW223100   1.530   3.087   0.201 -2.5700  1.5164  0.6889
 3880SOL     OW23101   1.108   0.803  13.273  0.5172 -0.0762  0.4486
 3880SOL    HW123102   1.031   0.860  13.266  0.7204  0.3435  1.5964
 3880SOL    HW223103   1.082   0.746  13.345 -2.7078 -0.2863 -0.9220
 3881SOL     OW23104   2.478   4.307   3.299 -0.2972 -0.6254  0.7114
 3881SOL    HW123105   2.521   4.372   3.355  2.6741 -2.1417  0.1728
 3881SOL    HW223106   2.393   4.316   3.340 -0.3666  0.6206  0.3009
 3882SOL     OW23107   0.251   0.514   3.399 -0.4257  0.2881 -0.0459
 3882SOL    HW123108   0.222   0.453   3.467  0.7925  0.9931  1.1129
 3882SOL    HW223109   0.345   0.502   3.404 -0.2255  1.0709 -2.0783
 3883SOL     OW23110   1.074   4.474  14.592  0.0136  0.1164  0.6577
 3883SOL    HW123111   1.163   4.500  14.569 -0.4162  2.5445  1.6855
 3883SOL    HW223112   1.095   4.412  14.661  0.4798 -0.5521 -0.0851
 3884SOL     OW23113   1.744   4.688   2.959 -0.3283 -0.4050 -0.0258
 3884SOL    HW123114   1.740   0.014   3.040  1.3584  0.8755 -0.7556
 3884SOL    HW223115   1.705   0.022   2.895 -0.4212 -1.1744 -0.6745
 3885SOL     OW23116   3.950   1.768   8.197 -0.1442 -0.1400  0.4918
 3885SOL    HW123117   3.978   1.773   8.288 -0.6122 -0.8885  0.6772
 3885SOL    HW223118   3.874   1.827   8.199 -0.3145 -0.4311  2.3726
 3886SOL     OW23119   1.529   2.945  16.448  0.0909  0.3474  0.1651
 3886SOL    HW123120   1.615   2.917  16.478  1.0833  2.2262 -0.9115
 3886SOL    HW223121   1.553   2.996  16.370  2.6717 -1.8867 -0.4813
 3887SOL     OW23122   2.464   0.216   0.360  0.0124 -0.5502  0.0117
 3887SOL    HW123123   2.540   0.158   0.354  0.1427 -0.2083 -1.7320
 3887SOL    HW223124   2.417   0.193   0.279  1.5640 -1.3644 -0.6590
 3888SOL     OW23125   2.696   3.490   4.338  0.3933  0.0458 -0.2655
 3888SOL    HW123126   2.623   3.436   4.366  0.6948 -0.1789  0.0856
 3888SOL    HW223127   2.719   3.450   4.254 -1.3485 -1.5807  0.0537
 3889SOL     OW23128   0.302   2.136   9.159  0.3095  1.1505 -0.2755
 3889SOL    HW123129   0.241   2.069   9.188  1.2652  0.1568 -0.5455
 3889SOL    HW223130   0.388   2.124   9.199 -0.0229 -1.7483 -0.4486
 3890SOL     OW23131   3.351   3.990   5.315 -0.0689 -0.3562 -0.1963
 3890SOL    HW123132   3.305   3.972   5.233  0.6057  0.3725 -0.7373
 3890SOL    HW223133   3.278   4.009   5.373  0.3325 -1.3520  0.6322
 3891SOL     OW23134   0.017   3.639   4.148  0.6214 -0.4355 -0.0423
 3891SOL    HW123135   0.019   3.545   4.132 -1.9026 -0.7718  1.5885
 3891SOL    HW223136   4.660   3.654   4.100  1.0339  1.7683 -0.0662
 3892SOL     OW23137   0.586   2.885  17.305  0.3238  0.5266 -0.7252
 3892SOL    HW123138   0.680   2.883  17.326  0.8424  0.4192 -3.1140
 3892SOL    HW223139   0.573   2.791  17.292  1.8247  0.3372 -0.7987
 3893SOL     OW23140   2.780   2.731   0.286 -0.0598 -0.4967 -0.3303
 3893SOL    HW123141   2.743   2.819   0.289  1.6901  0.2547 -1.2021
 3893SOL    HW223142   2.790   2.718   0.191 -0.7929  3.3230 -0.9102
 3894SOL     OW23143   4.458   3.011   9.243 -0.3717 -0.6471  0.3851
 3894SOL    HW123144   4.433   3.093   9.286  0.6544  0.1359 -0.5088
 3894SOL    HW223145   4.457   3.038   9.151 -1.2323 -2.3821 -0.1136
 3895SOL     OW23146   4.615   2.535  17.321  0.0889 -0.1812 -0.3437
 3895SOL    HW123147   4.681   2.474  17.289 -0.7267 -0.9307 -0.5848
 3895SOL    HW223148   4.610   2.602  17.254 -2.7295 -0.4468 -0.3896
 3896SOL     OW23149   2.482   3.235   9.011 -0.2467  0.4071 -0.1343
 3896SOL    HW123150   2.563   3.194   9.040 -1.0934  0.0018  1.7014
 3896SOL    HW223151   2.505   3.240   8.919  1.4548 -1.1975  0.2093
 3897SOL     OW23152   0.487   1.080   6.175  0.5334 -0.1140  0.9626
 3897SOL    HW123153   0.539   1.031   6.112 -0.3782  0.3098 -0.1029
 3897SOL    HW223154   0.501   1.168   6.140 -2.2023 -0.6626 -1.4447
 3898SOL     OW23155   3.157   0.869   8.127 -0.4087 -0.5219  0.0377
 3898SOL    HW123156   3.087   0.919   8.169 -0.4754 -0.5712 -0.0157
 3898SOL    HW223157   3.228   0.888   8.189 -1.0147 -1.1155  0.9159
 3899SOL     OW23158   1.078   1.357   3.349  0.4602 -0.1545  0.3631
 3899SOL    HW123159   1.149   1.311   3.304  1.9792  0.4231  2.1761
 3899SOL    HW223160   1.122   1.371   3.433 -0.9191 -0.9427  1.2160
 3900SOL     OW23161   0.858   1.173   4.125  0.3656 -0.3119  0.1166
 3900SOL    HW123162   0.839   1.174   4.031 -1.8792 -0.2981  0.5695
 3900SOL    HW223163   0.772   1.143   4.152 -0.1862  0.1330 -1.1398
 3901SOL     OW23164   0.055   2.584   8.075 -0.8850 -0.5921  0.0074
 3901SOL    HW123165   0.129   2.535   8.039 -0.2073 -0.6057  1.4212
 3901SOL    HW223166   0.068   2.673   8.041 -0.7210 -0.0523  1.5048
 3902SOL     OW23167   3.173   0.708  17.672  0.4683 -0.2737  0.4323
 3902SOL    HW123168   3.187   0.625  17.628 -2.6613 -3.2447  5.0509
 3902SOL    HW223169   3.194   0.689   0.063  0.3848  2.2119  0.9932
 3903SOL     OW23170   1.622   0.385  11.436 -0.1939 -0.0631 -0.0749
 3903SOL    HW123171   1.624   0.353  11.526  0.9640  0.7289  0.1811
 3903SOL    HW223172   1.618   0.480  11.451 -2.2768  0.1073 -1.7089
 3904SOL     OW23173   2.852   1.556   5.610  0.1191 -0.7629 -0.3144
 3904SOL    HW123174   2.823   1.465   5.608  0.3633 -0.8694  0.7190
 3904SOL    HW223175   2.864   1.575   5.517 -0.4257 -0.8316 -0.3955
 3905SOL     OW23176   2.774   1.468   4.275  0.2373 -0.1877 -0.0133
 3905SOL    HW123177   2.767   1.427   4.189 -0.7025 -2.5871  1.2004
 3905SOL    HW223178   2.811   1.553   4.254 -1.7684 -0.0266 -2.8839
 3906SOL     OW23179   4.247   0.183  11.712  0.2339  0.7635 -0.6983
 3906SOL    HW123180   4.170   0.126  11.723  0.9389 -0.3494 -1.4926
 3906SOL    HW223181   4.296   0.132  11.647 -2.8395 -0.8090 -1.8139
 3907SOL     OW23182   3.432   2.615   6.187 -0.1641 -0.6193 -0.7381
 3907SOL    HW123183   3.348   2.587   6.151 -1.0881  0.6082  0.4442
 3907SOL    HW223184   3.496   2.545   6.177 -0.3889 -0.8369 -0.6652
 3908SOL     OW23185   1.019   2.619   5.179  0.0549 -0.1005  0.1360
 3908SOL    HW123186   0.982   2.699   5.215  2.3356  1.4587 -0.9955
 3908SOL    HW223187   1.104   2.615   5.224  0.4273  1.1124 -0.4640
 3909SOL     OW23188   2.735   3.763   2.238  0.4208  0.3463 -0.2946
 3909SOL    HW123189   2.748   3.802   2.151 -2.9895  1.3617 -0.3408
 3909SOL    HW223190   2.807   3.701   2.229 -0.2268 -0.3423 -0.7428
 3910SOL     OW23191   0.742   2.783   9.245  0.2843  0.1840  0.3178
 3910SOL    HW123192   0.686   2.707   9.260  1.0984 -0.2637  1.1180
 3910SOL    HW223193   0.779   2.764   9.159 -0.1819  2.3260 -0.3504
 3911SOL     OW23194   3.812   3.455   8.825 -0.2124 -0.0938  0.2726
 3911SOL    HW123195   3.859   3.520   8.773 -1.1082  0.5335  0.2489
 3911SOL    HW223196   3.729   3.502   8.828 -0.6667 -0.7809 -1.7740
 3912SOL     OW23197   1.569   4.424   2.344  0.4624  0.0224 -0.5973
 3912SOL    HW123198   1.548   4.497   2.286 -1.8974  3.1972  4.2100
 3912SOL    HW223199   1.653   4.402   2.304  0.5792  0.2897 -0.5044
 3913SOL     OW23200   1.455   3.103  13.190 -0.4507  0.7583 -0.5328
 3913SOL    HW123201   1.543   3.083  13.222 -0.9233  1.3664  1.1229
 3913SOL    HW223202   1.483   3.068  13.105  0.5620 -0.9277  0.4957
 3914SOL     OW23203   1.543   4.354   3.099  0.3301  0.0254  0.0938
 3914SOL    HW123204   1.563   4.359   3.006  1.4206  0.1304  0.3348
 3914SOL    HW223205   1.629   4.332   3.136 -0.0787 -1.1639  0.3235
 3915SOL     OW23206   0.980   0.829  10.845  0.2629 -0.4190  0.0361
 3915SOL    HW123207   1.050   0.772  10.877 -1.8895 -2.5471  0.9940
 3915SOL    HW223208   0.912   0.813  10.911 -0.5326  1.6708 -0.2863
 3916SOL     OW23209   1.446   3.657   1.785 -0.6663  0.1660  0.2791
 3916SOL    HW123210   1.450   3.744   1.825 -1.9849  1.0578 -1.5047
 3916SOL    HW223211   1.353   3.653   1.765 -1.0625  0.5723  2.0591
 3917SOL     OW23212   1.239   4.579  16.909  0.3932 -0.3062 -0.5667
 3917SOL    HW123213   1.211   4.495  16.946 -0.5570  0.2930  0.0758
 3917SOL    HW223214   1.177   4.643  16.943  0.6706 -1.4519  2.1215
 3918SOL     OW23215   2.282   1.783   1.802 -0.4437 -0.0723  0.1777
 3918SOL    HW123216   2.288   1.788   1.897  3.7076 -1.6828 -0.0163
 3918SOL    HW223217   2.369   1.745   1.796  0.6652  2.3434  0.8742
 3919SOL     OW23218   4.450   1.498   1.895  0.2954  0.0448 -0.1890
 3919SOL    HW123219   4.479   1.431   1.956  0.7010  0.4635  0.0790
 3919SOL    HW223220   4.432   1.443   1.818 -1.6611  1.1636 -0.5466
 3920SOL     OW23221   3.555   3.327   5.541 -0.0253  0.4153 -0.3629
 3920SOL    HW123222   3.561   3.402   5.601 -0.2674  0.6553 -0.6355
 3920SOL    HW223223   3.463   3.330   5.514  0.8747  1.5801 -3.3317
 3921SOL     OW23224   3.904   0.385   7.621 -0.0594 -0.4176  0.4407
 3921SOL    HW123225   3.911   0.308   7.565 -0.5253 -0.7290  0.8159
 3921SOL    HW223226   3.999   0.391   7.631 -0.1213  0.1435  0.7546
 3922SOL     OW23227   4.535   2.086   5.714  0.2987 -0.3180  0.1419
 3922SOL    HW123228   4.504   2.173   5.688  1.8074  0.3822  0.6494
 3922SOL    HW223229   4.563   2.102   5.804  0.1953  0.2628  0.0729
 3923SOL     OW23230   0.320   1.802   6.426  0.3491  0.1007 -0.4705
 3923SOL    HW123231   0.318   1.706   6.427  4.2101  0.0269  1.0470
 3923SOL    HW223232   0.271   1.819   6.345 -1.7762  1.7995  1.1923
 3924SOL     OW23233   3.232   2.595   4.015 -0.1344  0.4355 -0.6517
 3924SOL    HW123234   3.166   2.554   3.959 -1.2981  0.9701  0.3429
 3924SOL    HW223235   3.174   2.650   4.067 -2.5872 -2.0384 -0.8143
 3925SOL     OW23236   3.124   4.486   2.149  0.1128  0.1438 -0.1139
 3925SOL    HW123237   3.149   4.495   2.057 -3.9082  0.2415 -1.2085
 3925SOL    HW223238   3.193   4.524   2.204 -0.1911  0.3039  0.1601
 3926SOL     OW23239   2.187   0.501   4.084 -0.0600 -0.0064 -0.1333
 3926SOL    HW123240   2.236   0.582   4.076  0.5750 -0.3857 -0.0901
 3926SOL    HW223241   2.150   0.504   4.173  0.9131 -1.4035  0.3300
 3927SOL     OW23242   2.238   1.774   4.424 -0.5937  0.2587 -0.0423
 3927SOL    HW123243   2.237   1.770   4.520 -0.6327 -2.4341 -0.1445
 3927SOL    HW223244   2.304   1.706   4.413 -0.3092  0.3406  1.1557
 3928SOL     OW23245   0.928   0.499   1.085  0.2890  0.1995 -0.2541
 3928SOL    HW123246   0.894   0.560   1.150 -2.6955 -0.5063 -1.1482
 3928SOL    HW223247   0.910   0.544   1.002  1.4323 -0.9069 -1.1069
 3929SOL     OW23248   1.713   2.353   6.286 -0.0798 -0.7338 -0.2248
 3929SOL    HW123249   1.692   2.430   6.339  3.2314  0.3810 -0.5162
 3929SOL    HW223250   1.733   2.396   6.203  0.2796 -2.8874 -1.2690
 3930SOL     OW23251   2.900   0.672   5.648 -0.8509 -0.0763  0.3956
 3930SOL    HW123252   2.892   0.617   5.570 -0.1739  1.2134 -0.6043
 3930SOL    HW223253   2.837   0.643   5.714 -1.6454  2.8576  0.9394
 3931SOL     OW23254   0.356   4.700   3.909 -0.1710 -0.4097 -0.1884
 3931SOL    HW123255   0.444   4.692   3.946 -0.2998  0.0843  0.2358
 3931SOL    HW223256   0.365   4.663   3.821  0.3236  1.5441 -0.9821
 3932SOL     OW23257   4.674   4.150   8.201  0.3630  0.0814 -0.5916
 3932SOL    HW123258   4.709   4.068   8.166 -0.7605 -0.7658  0.2860
 3932SOL    HW223259   0.017   4.179   8.262 -0.6837  1.5337 -0.1330
 3933SOL     OW23260   3.586   2.448  13.263 -0.3592  0.6117 -0.3864
 3933SOL    HW123261   3.590   2.486  13.176  0.2913  0.8692 -0.2447
 3933SOL    HW223262   3.590   2.525  13.319 -1.1240 -0.9940  1.8859
 3934SOL     OW23263   4.063   2.626   0.690 -0.5014 -0.2383  0.4314
 3934SOL    HW123264   4.082   2.714   0.659  0.4749 -0.1918  1.1669
 3934SOL    HW223265   4.034   2.582   0.610  1.6125 -1.8229  0.5326
 3935SOL     OW23266   4.106   0.878   4.159  0.3421 -0.5283 -0.1252
 3935SOL    HW123267   4.193   0.882   4.119 -0.5713  0.5880 -1.9960
 3935SOL    HW223268   4.091   0.972   4.169  0.1637 -0.6142  0.4204
 3936SOL     OW23269   4.079   0.364   5.629 -0.5685  0.7209  0.6548
 3936SOL    HW123270   4.046   0.421   5.560 -0.4236  0.0683  0.0497
 3936SOL    HW223271   4.026   0.287   5.607 -0.7887  1.3628 -1.0936
 3937SOL     OW23272   1.940   2.045  11.290 -0.1802  0.6448  0.1365
 3937SOL    HW123273   1.966   1.971  11.345  0.7124  1.2040  0.4545
 3937SOL    HW223274   1.978   2.112  11.347  2.3335  0.0087 -0.8342
 3938SOL     OW23275   1.851   0.543   3.703 -0.2819  0.7905 -0.1962
 3938SOL    HW123276   1.859   0.520   3.610  1.0396  1.1965 -0.1812
 3938SOL    HW223277   1.821   0.634   3.706 -0.0713  0.8209  1.0755
 3939SOL     OW23278   2.421   1.329   8.311 -0.0489 -0.0248 -0.5675
 3939SOL    HW123279   2.386   1.252   8.266  1.3540 -2.2330  2.0876
 3939SOL    HW223280   2.382   1.304   8.395 -0.9375 -0.4433 -1.1062
 3940SOL     OW23281   3.271   2.615   4.824  0.2911  0.3331 -0.1484
 3940SOL    HW123282   3.355   2.570   4.827 -1.8855 -3.6162  2.1512
 3940SOL    HW223283   3.222   2.542   4.787 -0.1103  0.7760 -0.4936
 3941SOL     OW23284   3.265   3.128   8.251  0.0313  0.2492 -0.1882
 3941SOL    HW123285   3.302   3.083   8.326  0.1543 -0.1193 -0.4657
 3941SOL    HW223286   3.205   3.059   8.220 -1.3598  1.7553 -0.8731
 3942SOL     OW23287   0.788   0.472   5.458  0.0069  0.0154  0.2531
 3942SOL    HW123288   0.787   0.566   5.442 -0.5224 -0.1578 -0.6999
 3942SOL    HW223289   0.793   0.437   5.369 -0.0792  1.0086 -0.1373
 3943SOL     OW23290   0.579   4.400   4.480  0.1803  0.2468  0.2223
 3943SOL    HW123291   0.612   4.316   4.447 -0.0223 -0.4997  1.9158
 3943SOL    HW223292   0.538   4.390   4.567  1.5819 -2.2274  0.6066
 3944SOL     OW23293   2.390   3.130   0.416  0.1979 -0.0920  0.0606
 3944SOL    HW123294   2.331   3.196   0.454  0.3116  0.1595 -0.2038
 3944SOL    HW223295   2.420   3.094   0.499  1.8272  0.5479 -0.2540
 3945SOL     OW23296   1.275   4.122   8.008  0.3436 -0.2277 -0.1972
 3945SOL    HW123297   1.340   4.062   8.044  0.3199  1.0645  1.9976
 3945SOL    HW223298   1.299   4.204   8.052 -1.7865  0.2842 -0.0051
 3946SOL     OW23299   3.900   2.718   1.288 -0.2726 -0.0495 -0.0230
 3946SOL    HW123300   3.963   2.679   1.227 -1.5750 -0.5103 -1.0813
 3946SOL    HW223301   3.887   2.640   1.341  0.9086  0.2430  0.6881
 3947SOL     OW23302   4.455   3.048  11.267  0.3782 -0.3680 -0.6964
 3947SOL    HW123303   4.395   3.112  11.306 -0.2568 -2.0418  1.0672
 3947SOL    HW223304   4.463   3.087  11.180  1.3009  1.6589  0.2944
 3948SOL     OW23305   4.056   3.603   5.046  0.0020 -0.5530  0.2361
 3948SOL    HW123306   4.118   3.593   5.119 -1.3801 -2.0125  1.2119
 3948SOL    HW223307   4.112   3.633   4.974 -0.3359 -0.7794 -0.1207
 3949SOL     OW23308   2.251   3.748   4.282 -0.4966 -0.6016 -0.7227
 3949SOL    HW123309   2.314   3.818   4.264 -0.5442 -0.1333  0.9558
 3949SOL    HW223310   2.279   3.680   4.221  2.0426 -1.1141  0.9949
 3950SOL     OW23311   4.564   3.107   8.766  0.1860  0.3146 -0.0574
 3950SOL    HW123312   4.481   3.072   8.799  0.6692 -0.6556  0.1290
 3950SOL    HW223313   4.624   3.062   8.825 -2.0408 -1.2751  1.0177
 3951SOL     OW23314   3.934   0.317  15.943 -0.0981  0.4091  0.1910
 3951SOL    HW123315   3.973   0.230  15.938 -2.5760 -0.6460 -0.8742
 3951SOL    HW223316   4.012   0.363  15.914  0.7179 -1.8410 -1.1560
 3952SOL     OW23317   3.996   3.353   2.430 -0.3783  0.4700 -0.5447
 3952SOL    HW123318   4.011   3.269   2.386 -0.0424 -1.1034  2.5571
 3952SOL    HW223319   4.030   3.330   2.516  1.0078  0.5807 -1.0682
 3953SOL     OW23320   1.814   1.944  16.270  0.8367 -0.2925 -0.2485
 3953SOL    HW123321   1.777   1.941  16.358 -1.4907  0.2375 -1.2161
 3953SOL    HW223322   1.790   2.036  16.258  0.5996 -0.5162 -1.5142
 3954SOL     OW23323   3.368   1.072   7.866 -0.0277 -0.3850 -0.2819
 3954SOL    HW123324   3.422   1.009   7.916  2.7479  1.4383 -0.9720
 3954SOL    HW223325   3.325   1.120   7.937 -0.0288  0.4002 -0.8179
 3955SOL     OW23326   3.145   3.812   8.089  0.2012 -0.4361  0.4325
 3955SOL    HW123327   3.082   3.745   8.064 -0.3692  0.0919  0.4539
 3955SOL    HW223328   3.224   3.768   8.060  0.4314  2.8019 -3.9545
 3956SOL     OW23329   3.434   0.041   3.341  0.2058  0.1452 -0.2364
 3956SOL    HW123330   3.486   0.102   3.393  0.4494  0.1658 -0.5076
 3956SOL    HW223331   3.373   0.096   3.291 -1.8634 -3.1055 -1.2866
 3957SOL     OW23332   2.836   2.319   8.506 -0.1508 -0.4641 -0.1840
 3957SOL    HW123333   2.867   2.288   8.591  0.8002  1.4422  0.1721
 3957SOL    HW223334   2.786   2.398   8.526  2.2389  0.9481  0.1895
 3958SOL     OW23335   2.374   0.491   7.097  0.3681  0.1617 -0.6763
 3958SOL    HW123336   2.408   0.463   7.012 -2.1892 -2.9389 -0.6881
 3958SOL    HW223337   2.291   0.532   7.073 -0.6738 -2.0566 -0.9305
 3959SOL     OW23338   0.144   4.034   2.815  0.1422  0.6045  0.0674
 3959SOL    HW123339   0.235   4.013   2.791 -0.0322  0.6035 -0.5850
 3959SOL    HW223340   0.140   4.097   2.743  1.3483 -3.1882 -3.3282
 3960SOL     OW23341   1.129   3.901   1.970  0.4182 -0.0551 -0.4238
 3960SOL    HW123342   1.148   3.957   2.045 -1.5115  1.4111 -1.0247
 3960SOL    HW223343   1.079   3.957   1.911 -0.2447 -1.0105 -0.7850
 3961SOL     OW23344   1.175   3.465  15.063 -0.4538  0.0488 -0.3701
 3961SOL    HW123345   1.244   3.483  15.000 -1.6068  0.0556 -1.6360
 3961SOL    HW223346   1.120   3.399  15.021 -1.8477  2.0007 -1.5997
 3962SOL     OW23347   1.173   3.810   5.877  0.0300 -0.3592 -1.3112
 3962SOL    HW123348   1.153   3.870   5.805  0.0745  0.6701 -0.4623
 3962SOL    HW223349   1.269   3.810   5.873  0.0707 -1.5676 -0.1343
 3963SOL     OW23350   2.159   2.010   3.559  0.0624 -0.0775 -0.0150
 3963SOL    HW123351   2.245   2.031   3.597 -0.5460 -0.1239  1.4095
 3963SOL    HW223352   2.109   2.070   3.613  1.6359  0.6480  0.6407
 3964SOL     OW23353   3.216   1.322   7.692  0.2066  0.4093 -0.2350
 3964SOL    HW123354   3.149   1.283   7.636 -0.6495 -0.7999  1.6492
 3964SOL    HW223355   3.168   1.382   7.748 -0.0792 -0.6647  0.6722
 3965SOL     OW23356   3.099   1.001   7.451 -0.2751  0.3609  0.4672
 3965SOL    HW123357   3.074   1.079   7.502 -0.2762  1.0113 -0.5207
 3965SOL    HW223358   3.044   0.939   7.499 -1.1872 -0.0093 -1.0635
 3966SOL     OW23359   0.745   0.371   3.372  0.0823 -0.1113 -0.0701
 3966SOL    HW123360   0.820   0.331   3.327 -0.8703 -1.9870  0.0374
 3966SOL    HW223361   0.760   0.360   3.466  2.9051 -0.4449 -0.5653
 3967SOL     OW23362   2.560   0.198   1.133 -0.7736 -0.1299 -0.3138
 3967SOL    HW123363   2.652   0.225   1.139 -1.2031  1.3450 -0.3902
 3967SOL    HW223364   2.561   0.103   1.128  2.1155 -0.1399  0.4180
 3968SOL     OW23365   3.874   1.482  13.842 -0.0389 -0.1002 -0.1178
 3968SOL    HW123366   3.900   1.569  13.812  2.4652 -0.7850  0.0500
 3968SOL    HW223367   3.814   1.450  13.775 -1.3290 -2.4510  2.1124
 3969SOL     OW23368   0.997   3.762  14.361  0.2890  0.9877  0.3309
 3969SOL    HW123369   0.991   3.803  14.275 -0.4021  0.0585 -0.0663
 3969SOL    HW223370   0.974   3.673  14.335  3.3026  0.5669 -1.0095
 3970SOL     OW23371   2.487   1.131   7.164  0.3739  0.9458  0.1871
 3970SOL    HW123372   2.511   1.038   7.162 -0.8553  0.5930  1.5022
 3970SOL    HW223373   2.391   1.128   7.163  0.4346 -0.4460 -2.1096
 3971SOL     OW23374   1.001   3.221   4.774 -0.1459 -0.3704  0.6330
 3971SOL    HW123375   1.008   3.129   4.799 -0.1650 -0.2757  0.9840
 3971SOL    HW223376   1.062   3.255   4.839  0.6782 -1.0141  0.1950
 3972SOL     OW23377   2.878   2.947   6.258 -0.2607 -0.2377  0.2235
 3972SOL    HW123378   2.914   3.002   6.189 -1.4827 -1.7921 -1.6194
 3972SOL    HW223379   2.847   2.870   6.211 -1.0776 -0.9670  1.9197
 3973SOL     OW23380   0.471   0.052   4.486  0.1035 -0.6225 -0.2479
 3973SOL    HW123381   0.399   0.084   4.433  1.7638 -1.1111 -2.8124
 3973SOL    HW223382   0.452   4.684   4.500  0.8734 -0.7357  0.0289
 3974SOL     OW23383   2.879   1.195   6.554 -0.1791  0.1838  0.4893
 3974SOL    HW123384   2.789   1.169   6.570 -0.1466  0.5993  1.3172
 3974SOL    HW223385   2.917   1.161   6.634 -0.4107  1.3593  1.1021
 3975SOL     OW23386   2.928   3.372  16.191 -0.3221 -0.5844 -0.6292
 3975SOL    HW123387   2.853   3.421  16.224 -0.0081 -1.6613  1.6571
 3975SOL    HW223388   2.999   3.431  16.216 -3.0149  2.0724  0.7633
 3976SOL     OW23389   4.488   0.428  11.229  0.1536 -0.0505  0.2287
 3976SOL    HW123390   4.392   0.422  11.228  0.1239  0.4872 -0.2171
 3976SOL    HW223391   4.498   0.508  11.178  0.5874  0.4153  1.0463
 3977SOL     OW23392   3.004   3.485   0.218  0.1920 -0.0817  0.1797
 3977SOL    HW123393   2.925   3.438   0.244 -0.1618  0.0695 -0.6166
 3977SOL    HW223394   3.040   3.494   0.306  1.8771 -0.0085 -0.5157
 3978SOL     OW23395   0.920   3.208   6.875  0.4899 -0.1904  1.0245
 3978SOL    HW123396   0.921   3.152   6.798  1.6775  2.8212 -1.1668
 3978SOL    HW223397   0.825   3.219   6.885  0.2517 -1.1768 -0.1467
 3979SOL     OW23398   3.663   1.173   3.753  0.1070 -0.0821  0.0287
 3979SOL    HW123399   3.733   1.214   3.703 -0.0226 -2.4682 -2.1047
 3979SOL    HW223400   3.657   1.228   3.831  1.3384  0.1628 -0.0505
 3980SOL     OW23401   0.011   3.758  11.425 -0.1009  0.0888 -0.3663
 3980SOL    HW123402   4.689   3.822  11.479 -0.7205 -0.2448 -0.5011
 3980SOL    HW223403   0.091   3.805  11.401 -2.0402  2.6483 -1.7704
 3981SOL     OW23404   0.572   3.000   1.121  0.7721  0.1308 -0.2578
 3981SOL    HW123405   0.545   3.060   1.051  2.1517  0.6403 -0.3402
 3981SOL    HW223406   0.626   3.066   1.163  0.1358 -0.3418  1.2900
 3982SOL     OW23407   2.505   3.467   7.624 -0.4039 -0.4158  0.6310
 3982SOL    HW123408   2.484   3.457   7.532 -0.0424  0.4990  0.4558
 3982SOL    HW223409   2.598   3.447   7.631 -0.1651  0.4816 -0.1291
 3983SOL     OW23410   4.477   2.318   9.705  0.4154 -0.0069  0.4604
 3983SOL    HW123411   4.540   2.263   9.659 -0.5538 -2.0571  1.5946
 3983SOL    HW223412   4.400   2.261   9.695  1.0414 -1.1815  2.2919
 3984SOL     OW23413   2.164   3.529   2.945  0.0744  0.4171  0.3528
 3984SOL    HW123414   2.183   3.570   2.861  0.1798 -1.6273 -0.6201
 3984SOL    HW223415   2.144   3.443   2.910  0.4453  0.0112  1.1508
 3985SOL     OW23416   3.876   1.214   5.649 -0.1076 -0.4781 -0.2178
 3985SOL    HW123417   3.871   1.154   5.723  1.6669  0.2561  0.4980
 3985SOL    HW223418   3.794   1.261   5.664 -0.0807  0.1428 -2.0676
 3986SOL     OW23419   1.388   4.532   8.062 -0.3355  0.4859  0.1631
 3986SOL    HW123420   1.450   4.562   8.129  0.9009  1.0736 -1.2428
 3986SOL    HW223421   1.367   4.446   8.098 -1.8302 -0.2680 -2.5088
 3987SOL     OW23422   3.596   3.013   2.701 -0.6743  0.1442  0.4564
 3987SOL    HW123423   3.656   3.017   2.627 -0.8255  0.7570  0.3665
 3987SOL    HW223424   3.633   2.932   2.735  0.1170  1.9682  3.9077
 3988SOL     OW23425   4.126   3.701   3.574 -0.3682  0.3311 -0.0839
 3988SOL    HW123426   4.104   3.766   3.508 -0.6512 -1.5877 -1.8851
 3988SOL    HW223427   4.048   3.646   3.575 -0.9884  1.1891 -3.0035
 3989SOL     OW23428   2.661   2.875  10.376  0.0952 -0.8776 -0.0935
 3989SOL    HW123429   2.642   2.923  10.457  0.7257  1.8863 -1.6001
 3989SOL    HW223430   2.687   2.793  10.418 -0.9188 -0.2026  1.8810
 3990SOL     OW23431   3.597   2.270   5.029  0.2661  0.0880  0.5842
 3990SOL    HW123432   3.585   2.356   5.071 -1.5454 -0.1068  0.4296
 3990SOL    HW223433   3.579   2.288   4.937 -1.5210  1.1384  1.1545
 3991SOL     OW23434   1.774   1.201   8.198  0.5392  0.1182  0.2385
 3991SOL    HW123435   1.809   1.286   8.171  0.0323  0.1453 -0.3283
 3991SOL    HW223436   1.765   1.212   8.293  1.0139  1.7074  0.1101
 3992SOL     OW23437   2.551   4.688   8.751 -0.5393  0.0849 -0.8436
 3992SOL    HW123438   2.517   0.035   8.805  1.4324  0.3694  0.0011
 3992SOL    HW223439   2.558   0.003   8.664 -0.1125  0.7921 -0.4819
 3993SOL     OW23440   0.370   4.678   5.374  0.2521 -0.0688  0.4432
 3993SOL    HW123441   0.311   4.640   5.309 -2.1730  0.9936  2.0233
 3993SOL    HW223442   0.308   4.724   5.430  0.4811  1.3716 -0.4514
 3994SOL     OW23443   0.254   3.821   4.545  0.1285 -0.6873 -0.5252
 3994SOL    HW123444   0.227   3.738   4.505 -2.4961 -1.5448  3.0250
 3994SOL    HW223445   0.335   3.790   4.585 -1.2317 -1.9957  1.2295
 3995SOL     OW23446   0.129   3.534   6.097  0.0483 -0.5873  0.1483
 3995SOL    HW123447   0.180   3.456   6.121  1.0029  0.2093  0.6861
 3995SOL    HW223448   0.189   3.608   6.106  1.6804 -1.9354  0.4125
 3996SOL     OW23449   2.859   4.130   6.153 -0.1663  0.0525  0.4399
 3996SOL    HW123450   2.951   4.106   6.148 -0.1781  0.2995 -0.8576
 3996SOL    HW223451   2.867   4.203   6.092  0.0281  1.1308  1.7563
 3997SOL     OW23452   2.643   3.274   0.715  0.0161  0.3965  0.0038
 3997SOL    HW123453   2.587   3.350   0.728  1.2418  1.3695 -0.3680
 3997SOL    HW223454   2.641   3.237   0.803 -1.7407 -0.4535 -0.3917
 3998SOL     OW23455   2.312   1.422   5.487 -0.2176 -0.4830  0.3776
 3998SOL    HW123456   2.397   1.408   5.445 -1.0872  0.1809 -1.5898
 3998SOL    HW223457   2.299   1.517   5.484  2.1294 -0.1308  0.9310
 3999SOL     OW23458   3.760   2.905   1.738  0.2556 -0.2084  0.0424
 3999SOL    HW123459   3.692   2.896   1.804 -1.3083  0.1858 -1.5171
 3999SOL    HW223460   3.833   2.861   1.781 -1.2870 -2.2986  0.5389
 4000SOL     OW23461   1.731   0.064   5.948 -0.4653 -0.3314  0.5144
 4000SOL    HW123462   1.795   0.124   5.986 -1.8224 -0.2651  2.6466
 4000SOL    HW223463   1.760   0.063   5.857  0.0533 -2.5582  0.7014
 4001SOL     OW23464   4.455   0.548   2.828  0.0950 -0.5441 -0.3052
 4001SOL    HW123465   4.437   0.470   2.881  1.8107 -1.6002 -1.2716
 4001SOL    HW223466   4.426   0.511   2.745 -1.8045  1.0179 -0.3352
 4002SOL     OW23467   1.327   2.643  15.467  0.6562 -0.8269  0.3079
 4002SOL    HW123468   1.366   2.564  15.505  0.4998 -1.5704 -1.0399
 4002SOL    HW223469   1.248   2.605  15.428  1.9277 -0.9258 -2.1821
 4003SOL     OW23470   3.607   3.146   2.198  0.1262  0.1658 -0.0016
 4003SOL    HW123471   3.562   3.120   2.279  1.4482 -1.1461  0.3229
 4003SOL    HW223472   3.663   3.217   2.228 -2.5635  1.8282  1.1475
 4004SOL     OW23473   1.765   3.625   6.284 -0.1411 -0.2825  0.2067
 4004SOL    HW123474   1.852   3.615   6.322  0.3432 -1.2943 -1.1415
 4004SOL    HW223475   1.726   3.653   6.366  0.1278 -1.9594  0.9129
 4005SOL     OW23476   0.126   1.918   5.965 -0.1060  0.4763 -0.2301
 4005SOL    HW123477   0.059   1.884   5.906  0.0976  0.2474 -0.3334
 4005SOL    HW223478   0.158   1.995   5.918  0.9571 -0.6193 -1.3149
 4006SOL     OW23479   1.839   2.231   4.058  0.0615 -0.3744 -0.0766
 4006SOL    HW123480   1.881   2.221   4.144  0.5251  0.3767 -0.2180
 4006SOL    HW223481   1.844   2.144   4.019 -0.7734 -0.6738  0.4969
 4007SOL     OW23482   0.346   3.882   3.364 -0.2045 -0.1797  0.6253
 4007SOL    HW123483   0.321   3.928   3.284 -1.2736 -2.6369 -0.4615
 4007SOL    HW223484   0.363   3.792   3.335 -2.7511 -0.4157 -0.2168
 4008SOL     OW23485   0.214   3.410   4.406  0.0714  0.1018 -0.4702
 4008SOL    HW123486   0.290   3.359   4.434 -0.2208  1.5367  2.8854
 4008SOL    HW223487   0.233   3.441   4.317  1.6644  0.0897 -0.1441
 4009SOL     OW23488   4.707   3.256   3.429  0.4347  0.4031 -0.2167
 4009SOL    HW123489   4.625   3.284   3.469  1.0062  1.8322 -0.0598
 4009SOL    HW223490   0.026   3.338   3.406  0.4723  0.0483 -1.4409
 4010SOL     OW23491   4.307   2.336   6.054 -0.2271 -0.4266  0.7069
 4010SOL    HW123492   4.249   2.262   6.036  0.1926 -0.7879  0.8138
 4010SOL    HW223493   4.325   2.319   6.147 -1.6817  1.0713  1.2663
 4011SOL     OW23494   3.904   0.720   5.953  0.3209  0.0209  0.1330
 4011SOL    HW123495   3.949   0.670   5.884 -0.3504  0.0740 -0.3456
 4011SOL    HW223496   3.972   0.780   5.984 -0.2401  0.0418  1.3171
 4012SOL     OW23497   3.532   0.436   0.176  0.2333 -0.1544 -0.4683
 4012SOL    HW123498   3.544   0.504   0.243  1.4582 -1.7803  0.9513
 4012SOL    HW223499   3.439   0.413   0.173  0.2695 -0.2306 -0.9846
 4013SOL     OW23500   1.912   1.442   5.620 -0.0792  0.7189  0.4851
 4013SOL    HW123501   1.968   1.508   5.661  2.3730 -1.0840  0.0780
 4013SOL    HW223502   1.832   1.493   5.617 -1.5169 -1.6639 -1.8496
 4014SOL     OW23503   4.475   3.424   2.440 -0.3985  0.1961  0.5083
 4014SOL    HW123504   4.434   3.449   2.523 -0.5308 -0.9489  0.7951
 4014SOL    HW223505   4.460   3.505   2.391 -2.2528  0.2118  1.1094
 4015SOL     OW23506   4.694   3.257  17.117  0.2913  0.2043 -0.8772
 4015SOL    HW123507   4.631   3.191  17.089  0.6524 -0.2596 -0.6020
 4015SOL    HW223508   4.633   3.327  17.139  0.7454 -0.4958  2.6695
 4016SOL     OW23509   0.693   1.862   5.615 -0.2955 -0.5409 -0.1908
 4016SOL    HW123510   0.649   1.777   5.622  1.0833 -1.0959  1.5810
 4016SOL    HW223511   0.727   1.865   5.704  1.8126 -2.7653 -0.9367
 4017SOL     OW23512   1.660   3.281   2.573 -0.3055 -0.4388  0.0612
 4017SOL    HW123513   1.683   3.373   2.583 -0.2482 -0.2520 -1.8259
 4017SOL    HW223514   1.657   3.288   2.478  1.5316 -0.7517 -0.0191
 4018SOL     OW23515   0.320   3.923   2.582 -0.0506 -0.6045 -0.0765
 4018SOL    HW123516   0.385   3.927   2.512 -0.2164  0.4591 -0.1642
 4018SOL    HW223517   0.312   4.014   2.611  0.6535 -1.4544  2.7814
 4019SOL     OW23518   1.383   0.063  11.270 -0.9513 -0.0796  0.0684
 4019SOL    HW123519   1.411   0.003  11.340 -1.2230 -0.5701 -0.2447
 4019SOL    HW223520   1.405   0.148  11.309  1.5159 -0.4718 -0.4964
 4020SOL     OW23521   1.866   4.066  15.623  1.1143 -0.5407  0.4852
 4020SOL    HW123522   1.840   4.125  15.553 -1.9717  1.1160  3.0259
 4020SOL    HW223523   1.961   4.075  15.630  1.2204 -0.8970 -0.5392
 4021SOL     OW23524   4.246   3.273   6.739  0.1342 -0.5538 -0.1553
 4021SOL    HW123525   4.181   3.207   6.763  0.2739  0.1821  2.2475
 4021SOL    HW223526   4.220   3.348   6.793  0.0629  0.5451 -1.6874
 4022SOL     OW23527   1.033   3.458  14.059  0.5065 -0.1491  0.3575
 4022SOL    HW123528   1.027   3.369  14.094 -0.0069 -0.0940  0.4055
 4022SOL    HW223529   0.958   3.451  14.000  0.9476  2.6430 -0.5433
 4023SOL     OW23530   1.377   4.669  15.304 -0.3644  0.0033 -0.6835
 4023SOL    HW123531   1.285   4.694  15.297  0.1268  1.6678 -1.1344
 4023SOL    HW223532   1.421   0.018  15.346 -2.8566  0.0705  1.8434
 4024SOL     OW23533   2.350   4.219   7.489 -0.5183 -0.1647  0.1992
 4024SOL    HW123534   2.406   4.142   7.492 -0.1413  0.0408 -1.7576
 4024SOL    HW223535   2.328   4.231   7.582 -1.7413  0.5980 -0.1849
 4025SOL     OW23536   4.383   4.575   2.484  0.0777 -0.5322  0.3937
 4025SOL    HW123537   4.443   4.617   2.423  0.7119  0.3736  1.6623
 4025SOL    HW223538   4.411   4.483   2.481 -1.8511 -1.1742  1.4845
 4026SOL     OW23539   3.399   2.175   2.376 -0.0907  0.1424 -0.6554
 4026SOL    HW123540   3.353   2.092   2.371  2.2205 -1.0854 -1.7566
 4026SOL    HW223541   3.355   2.224   2.306  0.4196  2.1788  0.4596
 4027SOL     OW23542   1.575   0.298   1.146 -0.3125  0.1970  1.1772
 4027SOL    HW123543   1.660   0.257   1.160  0.3619  0.7783 -1.3194
 4027SOL    HW223544   1.579   0.354   1.224  1.6201 -2.0550  2.6764
 4028SOL     OW23545   2.094   3.455  15.649  0.5196 -0.0134 -0.5422
 4028SOL    HW123546   2.164   3.506  15.691 -2.2135  0.9930  2.8150
 4028SOL    HW223547   2.115   3.365  15.671 -0.6891  0.1826  1.4032
 4029SOL     OW23548   0.864   1.267   7.209 -0.3899  0.0451  0.3881
 4029SOL    HW123549   0.882   1.348   7.161 -2.4221  0.4567  0.3178
 4029SOL    HW223550   0.909   1.282   7.292  0.5052  0.2951 -0.1339
 4030SOL     OW23551   0.054   3.494  13.638 -0.0220 -0.0100 -0.1370
 4030SOL    HW123552   0.041   3.530  13.726  0.3318  0.9858 -0.4927
 4030SOL    HW223553   4.686   3.486  13.615  0.7214  0.6348 -3.3250
 4031SOL     OW23554   1.890   3.466  16.906  0.2903 -0.0690  0.3514
 4031SOL    HW123555   1.895   3.561  16.916  0.7418 -0.0968  0.3510
 4031SOL    HW223556   1.896   3.452  16.811  1.2326  2.3333  0.0536
 4032SOL     OW23557   1.195   3.466   8.352 -0.2914  0.7703 -0.4291
 4032SOL    HW123558   1.149   3.519   8.417 -2.1642 -4.7812  2.7357
 4032SOL    HW223559   1.286   3.464   8.381  0.1463  3.3655 -1.6364
 4033SOL     OW23560   0.988   0.325  11.307 -0.4975  0.0037 -0.0648
 4033SOL    HW123561   0.896   0.298  11.312  0.1519 -2.3777 -1.3915
 4033SOL    HW223562   1.029   0.256  11.255 -2.1662 -0.9901 -0.0827
 4034SOL     OW23563   0.140   2.959   6.654 -0.7440  0.1191  0.0781
 4034SOL    HW123564   0.192   2.964   6.574 -0.3004  1.9189  0.4982
 4034SOL    HW223565   0.075   2.892   6.632  0.1611 -0.4775 -0.7370
 4035SOL     OW23566   4.336   4.019   3.232 -0.0236  0.6749 -0.4288
 4035SOL    HW123567   4.350   3.933   3.194 -0.1692  1.0026 -1.2241
 4035SOL    HW223568   4.257   3.997   3.282  0.3432 -1.7924 -0.9535
 4036SOL     OW23569   0.041   2.950   5.702  0.3289  0.3351 -0.0830
 4036SOL    HW123570   0.029   2.897   5.623 -2.9225  2.0826 -0.7444
 4036SOL    HW223571   4.688   2.925   5.751 -1.5073  2.2439 -2.0143
 4037SOL     OW23572   1.738   3.581   0.610  0.1582  0.2595 -0.0500
 4037SOL    HW123573   1.724   3.502   0.559 -0.5587 -0.4748  1.2857
 4037SOL    HW223574   1.654   3.627   0.607  0.5020  0.9818  1.3716
 4038SOL     OW23575   1.595   0.422  10.854  0.3305  0.9487  0.0722
 4038SOL    HW123576   1.517   0.417  10.910  0.3701 -1.3860 -0.1027
 4038SOL    HW223577   1.659   0.386  10.915 -0.9341  1.1212  1.5282
 4039SOL     OW23578   1.774   4.447  13.590 -0.2024  0.1294  0.7295
 4039SOL    HW123579   1.802   4.536  13.571 -2.8728  0.4225 -1.8706
 4039SOL    HW223580   1.824   4.391  13.532 -0.1814 -0.0690  0.9372
 4040SOL     OW23581   1.019   1.728   4.210 -0.5431  0.4188 -0.1930
 4040SOL    HW123582   1.039   1.785   4.135 -0.2822 -2.5190 -2.3570
 4040SOL    HW223583   1.005   1.801   4.270  2.3227  1.2462 -0.5271
 4041SOL     OW23584   2.386   4.025   8.686 -0.7328 -0.6204  0.1990
 4041SOL    HW123585   2.298   4.006   8.652 -0.1463  2.2078 -2.9141
 4041SOL    HW223586   2.446   3.993   8.619 -0.1949  1.2235 -0.2069
 4042SOL     OW23587   2.080   0.703   1.691 -0.2177  0.1466 -0.1799
 4042SOL    HW123588   2.154   0.657   1.728  0.2190  1.4559  0.5847
 4042SOL    HW223589   2.096   0.680   1.600  0.1075  1.3677 -0.4314
 4043SOL     OW23590   4.279   0.207   6.131  0.8222  0.1053  0.2899
 4043SOL    HW123591   4.340   0.139   6.161 -0.2502  0.2498  2.7234
 4043SOL    HW223592   4.227   0.225   6.209  1.4204 -1.4615  1.0592
 4044SOL     OW23593   1.552   0.698  10.772 -0.0438  0.0125  0.1571
 4044SOL    HW123594   1.584   0.714  10.860 -1.8091 -1.5794  1.1021
 4044SOL    HW223595   1.570   0.604  10.765 -1.4333 -0.0848 -2.4956
 4045SOL     OW23596   2.144   3.334   7.488  0.0372  0.0370  0.1158
 4045SOL    HW123597   2.169   3.386   7.564  1.3261  0.6152 -0.7027
 4045SOL    HW223598   2.194   3.357   7.410  0.3438 -0.4861  0.1613
 4046SOL     OW23599   1.328   0.954   3.357 -0.0666 -0.0453 -0.0166
 4046SOL    HW123600   1.283   1.034   3.330  1.1328 -0.1399 -2.2731
 4046SOL    HW223601   1.278   0.891   3.305  0.3505 -1.4314  1.2424
 4047SOL     OW23602   1.304   3.555   7.402 -0.1056 -0.4759 -0.3298
 4047SOL    HW123603   1.223   3.604   7.414  0.1151  0.5625 -3.2066
 4047SOL    HW223604   1.376   3.610   7.433  1.4782 -1.8700 -1.5421
 4048SOL     OW23605   1.198   0.107  10.803  0.0556 -0.1943  0.5014
 4048SOL    HW123606   1.242   0.074  10.881 -1.4591 -1.5867  0.7634
 4048SOL    HW223607   1.274   0.135  10.751 -0.3387 -2.1907 -1.1485
 4049SOL     OW23608   1.791   4.048   6.187  0.2941 -0.0721  0.3292
 4049SOL    HW123609   1.764   4.047   6.279 -1.8511  2.2023 -0.2702
 4049SOL    HW223610   1.884   4.058   6.209  0.4976 -0.5929 -0.2997
 4050SOL     OW23611   4.378   3.241   0.871 -0.0610  0.5092 -0.4240
 4050SOL    HW123612   4.374   3.311   0.937  0.5002 -1.4941  1.7467
 4050SOL    HW223613   4.283   3.234   0.870 -0.0795  0.7111 -0.1586
 4051SOL     OW23614   0.446   0.644   4.493 -1.0174 -0.9709 -0.0037
 4051SOL    HW123615   0.370   0.672   4.443 -0.6682  2.1048  1.1466
 4051SOL    HW223616   0.467   0.559   4.456 -0.4938  0.3040 -2.6672
 4052SOL     OW23617   0.650   4.020   2.124 -0.0051 -1.2410 -0.0350
 4052SOL    HW123618   0.668   3.992   2.034 -2.3187  0.5860 -1.0865
 4052SOL    HW223619   0.562   4.057   2.115  0.9728  1.3374  1.0687
 4053SOL     OW23620   2.227   0.115   5.133  0.6935 -0.4006  0.2283
 4053SOL    HW123621   2.313   0.155   5.146  0.1544  0.3988  1.2980
 4053SOL    HW223622   2.224   0.066   5.215  0.2549 -0.8868 -0.0853
 4054SOL     OW23623   0.252   2.406   7.998 -1.0461 -0.3032  0.2164
 4054SOL    HW123624   0.330   2.358   7.971 -1.0744  0.0070 -0.4005
 4054SOL    HW223625   0.197   2.332   8.026 -0.1383 -1.3135 -0.7011
 4055SOL     OW23626   1.446   4.541   7.026  0.0864 -0.1274 -0.0288
 4055SOL    HW123627   1.521   4.598   7.011 -0.9886  1.0599 -0.8928
 4055SOL    HW223628   1.464   4.472   6.963 -0.6934 -0.0841 -0.2985
 4056SOL     OW23629   3.728   2.544  16.492  0.6721  0.0574  0.1120
 4056SOL    HW123630   3.791   2.471  16.497  0.1762 -0.3712  0.0685
 4056SOL    HW223631   3.747   2.578  16.404 -0.7628 -0.5061 -0.4085
 4057SOL     OW23632   1.127   2.775  10.798 -0.3230 -0.1897 -0.4858
 4057SOL    HW123633   1.149   2.771  10.891 -1.2966 -0.9455 -0.2955
 4057SOL    HW223634   1.032   2.775  10.796 -0.3042 -0.8370 -1.5424
 4058SOL     OW23635   0.747   4.409  16.451 -0.1758  0.2424 -0.6124
 4058SOL    HW123636   0.767   4.490  16.405  1.3082 -0.0239 -0.4449
 4058SOL    HW223637   0.822   4.350  16.436 -1.6007 -0.8678 -3.4438
 4059SOL     OW23638   0.184   0.277   5.175  0.2129  0.0322  0.2032
 4059SOL    HW123639   0.271   0.238   5.180 -0.1155 -0.6086  0.9451
 4059SOL    HW223640   0.133   0.219   5.232  2.1000 -2.3297 -0.5296
 4060SOL     OW23641   2.841   1.158  10.991 -0.1688 -0.1556 -0.5247
 4060SOL    HW123642   2.784   1.107  10.934  0.9883 -1.7913 -0.2152
 4060SOL    HW223643   2.882   1.089  11.044 -0.3160 -1.2941 -1.9015
 4061SOL     OW23644   0.930   0.275  14.290  0.0774 -0.0671 -0.0272
 4061SOL    HW123645   0.846   0.250  14.328 -1.1944  1.3746 -1.9015
 4061SOL    HW223646   0.981   0.205  14.331  1.3208  0.6257 -0.3892
 4062SOL     OW23647   0.209   2.350   6.751 -0.3041 -0.1228 -0.4526
 4062SOL    HW123648   0.181   2.259   6.747  0.5276 -0.4225  0.6423
 4062SOL    HW223649   0.257   2.343   6.668  0.6063  2.5145 -0.1814
 4063SOL     OW23650   1.960   3.024  14.862 -0.0703  0.1581  1.1308
 4063SOL    HW123651   1.915   2.944  14.888  0.0918  0.0399  1.0470
 4063SOL    HW223652   1.891   3.088  14.844  0.0033 -0.1609 -0.2419
 4064SOL     OW23653   4.497   4.686   3.224  0.3881  0.2813 -0.4990
 4064SOL    HW123654   4.556   4.625   3.267 -0.0528  0.3157  0.1644
 4064SOL    HW223655   4.493   0.027   3.294  3.2200  1.8617 -1.8348
 4065SOL     OW23656   0.894   4.201   3.753  0.0795  0.2406 -0.7097
 4065SOL    HW123657   0.986   4.198   3.779 -1.1580 -0.6854  3.5836
 4065SOL    HW223658   0.857   4.154   3.828 -1.7558  0.8712 -1.2119
 4066SOL     OW23659   1.946   3.732  15.220 -0.1476  0.1628 -0.3505
 4066SOL    HW123660   1.930   3.669  15.290  0.7564 -0.1326 -0.4133
 4066SOL    HW223661   1.888   3.803  15.247  0.4178 -0.0304  1.3974
 4067SOL     OW23662   2.925   4.490   6.041  0.4642 -0.0580 -0.0374
 4067SOL    HW123663   2.904   4.552   6.111  1.7954 -1.6631  1.7665
 4067SOL    HW223664   2.965   4.417   6.088  0.0230  0.0204  0.4550
 4068SOL     OW23665   2.242   2.734   8.025 -0.0516 -0.2996  0.0592
 4068SOL    HW123666   2.210   2.702   8.110  2.1147 -1.2481  0.5169
 4068SOL    HW223667   2.273   2.822   8.045 -1.2151  0.2508 -0.5427
 4069SOL     OW23668   0.275   4.553  14.993 -0.6093  0.4553  0.2808
 4069SOL    HW123669   0.281   4.568  15.087  2.9881  0.5279  0.0691
 4069SOL    HW223670   0.362   4.516  14.975 -0.5063  0.9174 -0.1738
 4070SOL     OW23671   4.250   2.023   8.523 -0.3105 -0.2552  0.1153
 4070SOL    HW123672   4.273   2.059   8.438 -0.9691  1.2235  0.5626
 4070SOL    HW223673   4.157   2.011   8.504 -1.1281  2.8759  2.0998
 4071SOL     OW23674   3.146   0.974   9.654 -0.1660 -0.4403  0.1690
 4071SOL    HW123675   3.121   0.896   9.604 -0.7119  0.3247 -0.7454
 4071SOL    HW223676   3.167   0.937   9.740  2.0053  0.5063  0.0633
 4072SOL     OW23677   1.787   2.150   5.967 -0.2849 -0.0514 -0.9113
 4072SOL    HW123678   1.841   2.173   6.043  1.6890  1.7162 -2.8426
 4072SOL    HW223679   1.775   2.056   5.973  3.3239 -0.2197  3.3331
 4073SOL     OW23680   2.446   0.363   2.005  0.4133  0.1856 -0.1033
 4073SOL    HW123681   2.469   0.270   1.999  0.9412  0.4188 -1.6341
 4073SOL    HW223682   2.498   0.390   2.080 -1.0279  0.1039  0.9228
 4074SOL     OW23683   2.005   3.887   1.749 -0.5216 -0.4295  0.4668
 4074SOL    HW123684   2.065   3.959   1.771 -0.5443  0.3341 -2.0569
 4074SOL    HW223685   1.963   3.923   1.671  0.7958  0.6953  0.2875
 4075SOL     OW23686   1.073   3.385   8.674 -0.1293 -0.3771  0.3135
 4075SOL    HW123687   1.141   3.405   8.738  0.6224 -3.0989  0.3715
 4075SOL    HW223688   1.120   3.324   8.616  1.1431 -1.1605  2.1554
 4076SOL     OW23689   4.258   2.020   4.150 -0.0710 -0.2486 -0.1986
 4076SOL    HW123690   4.296   2.096   4.195 -0.0835 -0.7185  0.5937
 4076SOL    HW223691   4.169   2.013   4.183  0.2606 -3.3467  0.0372
 4077SOL     OW23692   0.034   0.826   7.355 -0.3913 -0.3352 -0.1944
 4077SOL    HW123693   4.689   0.775   7.314  1.1417 -1.0266 -1.9760
 4077SOL    HW223694   0.073   0.760   7.413  2.0826 -0.8421 -2.4062
 4078SOL     OW23695   2.937   3.837   9.039 -0.2428 -0.1609  0.7257
 4078SOL    HW123696   2.936   3.928   9.008 -0.6303 -1.5026 -3.1809
 4078SOL    HW223697   2.849   3.810   9.014  0.2869  0.9877 -2.3465
 4079SOL     OW23698   0.423   0.329   3.225  0.5821  0.4138 -0.1869
 4079SOL    HW123699   0.403   0.344   3.318  0.0271  0.3007 -0.2892
 4079SOL    HW223700   0.340   0.301   3.187 -0.5109 -0.1064  2.5618
 4080SOL     OW23701   2.544   4.577   6.124  0.1263  0.1021  0.5830
 4080SOL    HW123702   2.523   4.486   6.146  1.2220 -0.5312 -1.0025
 4080SOL    HW223703   2.631   4.578   6.166 -0.3010  1.2740  1.4512
 4081SOL     OW23704   1.960   3.986  17.389  0.0269  0.1882 -0.2874
 4081SOL    HW123705   1.975   4.068  17.437  2.4031 -1.5385  1.9568
 4081SOL    HW223706   1.876   3.999  17.347 -0.7113 -0.4560  0.9849
 4082SOL     OW23707   2.825   1.014  15.266 -0.5106 -0.2688 -0.4150
 4082SOL    HW123708   2.829   0.954  15.191  1.0294 -0.7117  0.0287
 4082SOL    HW223709   2.907   0.992  15.311 -0.8152 -1.6145 -0.5004
 4083SOL     OW23710   1.328   0.302   0.631 -0.3610 -0.2721 -0.0250
 4083SOL    HW123711   1.328   0.285   0.726  0.7791  2.2598  0.4470
 4083SOL    HW223712   1.343   0.214   0.597  1.9671  0.3443 -0.6031
 4084SOL     OW23713   1.541   0.980   5.389  0.6313 -0.2303  0.0375
 4084SOL    HW123714   1.553   1.042   5.317  0.8476 -2.5237 -1.8589
 4084SOL    HW223715   1.573   0.898   5.353  0.5049 -0.1471 -0.2655
 4085SOL     OW23716   3.011   0.481   5.303 -0.1285 -0.2896  0.4512
 4085SOL    HW123717   2.930   0.502   5.349 -2.0834 -1.4774 -2.4383
 4085SOL    HW223718   3.042   0.400   5.344  0.1528 -1.1771 -1.4972
 4086SOL     OW23719   4.009   4.266   6.832  0.6975 -0.5597 -1.0657
 4086SOL    HW123720   4.049   4.302   6.910 -1.0110  0.4669 -0.6791
 4086SOL    HW223721   4.080   4.235   6.775 -0.3644 -0.1862 -2.6069
 4087SOL     OW23722   3.563   3.406   4.364  0.0598 -0.0798  0.0548
 4087SOL    HW123723   3.476   3.429   4.332 -0.3970 -1.3006  0.4567
 4087SOL    HW223724   3.565   3.311   4.352  3.7027  0.2751 -2.1994
 4088SOL     OW23725   0.181   2.947  10.419 -0.5604 -0.1065  0.4803
 4088SOL    HW123726   0.142   2.937  10.506 -2.2997  1.5442 -0.1045
 4088SOL    HW223727   0.270   2.914  10.425 -0.9582 -1.2654  0.1344
 4089SOL     OW23728   0.151   1.640   0.501  0.2498  0.1859  0.0911
 4089SOL    HW123729   0.173   1.730   0.526 -3.4243  0.8063  1.0914
 4089SOL    HW223730   0.068   1.653   0.456  0.1289 -1.7555 -0.2561
 4090SOL     OW23731   4.298   1.475   8.978  0.0900  0.1197 -0.1415
 4090SOL    HW123732   4.361   1.497   9.046 -0.8316 -3.0394  1.7240
 4090SOL    HW223733   4.356   1.460   8.903  0.7415 -2.3408  0.8668
 4091SOL     OW23734   3.580   0.680  14.116  0.7046  0.4350  0.3553
 4091SOL    HW123735   3.617   0.632  14.042 -0.2962 -2.0680  1.4971
 4091SOL    HW223736   3.490   0.694  14.088  0.4809  1.8754  1.7748
 4092SOL     OW23737   4.093   2.546   5.558 -0.1227  0.4416  0.3378
 4092SOL    HW123738   4.023   2.522   5.498 -0.3001  1.1962  0.2416
 4092SOL    HW223739   4.058   2.520   5.644  0.8943 -0.8306  0.3604
 4093SOL     OW23740   2.496   3.244   7.248 -0.1235 -0.4529  0.2391
 4093SOL    HW123741   2.527   3.328   7.281  0.2104 -0.9018  1.0673
 4093SOL    HW223742   2.405   3.266   7.229 -0.3921 -2.2105 -0.5364
 4094SOL     OW23743   0.771   1.595   4.567  0.1383 -0.7137 -0.5189
 4094SOL    HW123744   0.811   1.682   4.571  1.9841 -1.6726  1.7443
 4094SOL    HW223745   0.780   1.569   4.658 -0.6797 -1.8031 -0.7520
 4095SOL     OW23746   4.293   2.875  17.050 -0.2021  0.3662 -0.1948
 4095SOL    HW123747   4.259   2.964  17.037  1.6440  1.2138  0.9405
 4095SOL    HW223748   4.244   2.845  16.973  1.1127  0.4185 -1.0539
 4096SOL     OW23749   3.106   3.466   0.492 -0.4476  0.0491  0.1940
 4096SOL    HW123750   3.141   3.483   0.580  2.5157  1.7067 -1.3086
 4096SOL    HW223751   3.036   3.404   0.511 -0.3866 -0.6804 -2.0222
 4097SOL     OW23752   0.338   0.588   3.691  0.0591 -0.1053  0.3085
 4097SOL    HW123753   0.424   0.610   3.726  1.2385 -1.3748 -1.7453
 4097SOL    HW223754   0.362   0.502   3.654  3.1532  0.7672  0.2582
 4098SOL     OW23755   3.871   4.268  11.728  0.5632  0.6245  0.5008
 4098SOL    HW123756   3.858   4.337  11.793 -1.1490  3.9931 -3.4660
 4098SOL    HW223757   3.818   4.289  11.651  2.5311  2.6944 -0.2449
 4099SOL     OW23758   0.652   3.560   3.738  0.0168 -0.6549  0.3909
 4099SOL    HW123759   0.741   3.589   3.719  0.6023 -2.0336  1.0257
 4099SOL    HW223760   0.619   3.634   3.790 -2.3399 -0.5683 -1.2130
 4100SOL     OW23761   0.136   4.233   3.121 -0.0095 -0.0626  0.6521
 4100SOL    HW123762   0.181   4.290   3.185  2.4103  0.1621 -1.2755
 4100SOL    HW223763   0.202   4.164   3.122  1.2707  1.1580  1.5248
 4101SOL     OW23764   1.878   2.501   3.579 -0.1780 -0.2308  0.3965
 4101SOL    HW123765   1.931   2.564   3.628 -0.5449 -0.6023  1.2787
 4101SOL    HW223766   1.794   2.520   3.621 -1.2503  1.2297 -2.4041
 4102SOL     OW23767   0.893   0.731  12.619 -0.7928 -0.2405  0.1100
 4102SOL    HW123768   0.897   0.694  12.531  3.7748  1.7068 -0.4780
 4102SOL    HW223769   0.914   0.821  12.593 -2.7251 -1.2609 -5.0193
 4103SOL     OW23770   1.992   1.961   3.336 -0.4374 -0.1353  0.1234
 4103SOL    HW123771   2.031   2.007   3.411 -0.7717  1.0488 -0.4188
 4103SOL    HW223772   2.024   2.024   3.272  1.0190  0.8872  1.8661
 4104SOL     OW23773   0.823   4.260  10.024  0.1248  0.3600 -0.1473
 4104SOL    HW123774   0.756   4.298  10.080  1.2423  0.2024  1.3133
 4104SOL    HW223775   0.838   4.166  10.037 -1.2545 -0.2616 -2.9495
 4105SOL     OW23776   0.961   4.206   3.224 -0.3272  0.7191 -0.1983
 4105SOL    HW123777   0.957   4.224   3.318  0.5016  3.2954 -0.6582
 4105SOL    HW223778   0.898   4.271   3.193 -0.6375  0.2084 -0.6426
 4106SOL     OW23779   2.224   2.929   7.578  0.7519  0.2261  0.1245
 4106SOL    HW123780   2.156   2.987   7.544 -0.0604 -1.1499 -0.5891
 4106SOL    HW223781   2.253   2.991   7.646 -2.3286 -0.9348  2.4906
 4107SOL     OW23782   0.411   4.611   7.479  0.3732 -0.0003 -0.8270
 4107SOL    HW123783   0.395   4.517   7.488 -0.0739  0.0002 -1.6000
 4107SOL    HW223784   0.446   4.622   7.390 -0.1172  0.0073 -1.0230
 4108SOL     OW23785   1.564   0.687   3.325  0.1615 -0.4056  0.1591
 4108SOL    HW123786   1.640   0.740   3.351 -0.3886 -0.5103  1.9618
 4108SOL    HW223787   1.580   0.663   3.233  2.3354  0.2170  0.3604
 4109SOL     OW23788   1.541   4.530   7.597  0.1105 -0.4804  0.3435
 4109SOL    HW123789   1.494   4.553   7.517  1.6297 -0.5957 -0.5876
 4109SOL    HW223790   1.484   4.571   7.662 -0.1385  1.8077 -1.3371
 4110SOL     OW23791   4.120   1.439  12.238  0.5753  0.7233 -0.4742
 4110SOL    HW123792   4.059   1.411  12.170  0.9209 -2.4383  0.5242
 4110SOL    HW223793   4.110   1.534  12.232  0.7447  0.6705 -1.5774
 4111SOL     OW23794   2.576   3.664  12.600  0.1576  0.3225  0.7246
 4111SOL    HW123795   2.556   3.740  12.546  0.3341 -2.2023 -2.8422
 4111SOL    HW223796   2.542   3.696  12.684  0.8503  2.0799  0.3268
 4112SOL     OW23797   0.781   3.514   5.974  0.7146  0.2461  0.2198
 4112SOL    HW123798   0.788   3.599   6.018  1.5079  0.7282 -0.8579
 4112SOL    HW223799   0.691   3.525   5.942  1.0098  0.6365 -0.4695
 4113SOL     OW23800   4.114   1.762   6.552 -0.4722  0.6361 -0.1104
 4113SOL    HW123801   4.059   1.841   6.558 -0.1131  0.8466  0.3809
 4113SOL    HW223802   4.053   1.704   6.597  0.4862 -0.6506 -0.4867
 4114SOL     OW23803   2.246   3.712   4.580  0.1162 -0.0863  0.2507
 4114SOL    HW123804   2.221   3.768   4.506  2.3939  0.0307 -0.4302
 4114SOL    HW223805   2.161   3.698   4.621  1.4948 -0.2294  3.0447
 4115SOL     OW23806   2.159   2.405  13.864 -0.4054 -0.0118  0.2073
 4115SOL    HW123807   2.174   2.497  13.842  0.4308 -0.1936  0.0024
 4115SOL    HW223808   2.225   2.381  13.930 -0.7438 -1.0317  0.1828
 4116SOL     OW23809   1.097   0.219  16.505  0.2139  0.1952 -0.0878
 4116SOL    HW123810   1.136   0.134  16.524 -3.3461 -1.4275 -0.1024
 4116SOL    HW223811   1.029   0.198  16.441 -0.6730  0.3937  0.8001
 4117SOL     OW23812   3.929   0.634  16.086  0.3553 -0.0479 -0.2324
 4117SOL    HW123813   3.955   0.637  16.178 -2.2576 -1.2413  0.5265
 4117SOL    HW223814   3.859   0.569  16.078 -0.5829  0.8984  0.3310
 4118SOL     OW23815   3.304   1.494   5.658 -0.2258  0.3384 -0.1163
 4118SOL    HW123816   3.234   1.479   5.594 -0.9587 -3.2450  1.5453
 4118SOL    HW223817   3.366   1.422   5.641 -0.5598  0.0179  0.0239
 4119SOL     OW23818   1.923   1.539   0.340 -0.2739 -0.3161  0.0405
 4119SOL    HW123819   1.910   1.444   0.334 -0.3166 -0.5581  3.8264
 4119SOL    HW223820   1.882   1.563   0.257  1.5773 -1.1275 -1.1199
 4120SOL     OW23821   1.565   2.573  17.578 -0.4129  0.6593 -0.4268
 4120SOL    HW123822   1.507   2.641  17.613  0.6365  0.9016  0.8360
 4120SOL    HW223823   1.520   2.494  17.607 -1.2005  2.1307  2.3809
 4121SOL     OW23824   3.879   3.914   0.060 -0.3779  0.1530 -0.3491
 4121SOL    HW123825   3.942   3.923   0.132 -1.8724 -1.0926  1.1367
 4121SOL    HW223826   3.931   3.864  17.697  2.3339 -1.1646  2.9243
 4122SOL     OW23827   4.553   3.240   4.947 -0.1403  0.3647  0.1784
 4122SOL    HW123828   4.473   3.288   4.966 -1.0197 -1.0657  0.1082
 4122SOL    HW223829   4.565   3.212   5.038  1.8525  0.0480 -0.1823
 4123SOL     OW23830   1.641   3.016  15.754 -0.1602 -0.5400 -0.1270
 4123SOL    HW123831   1.710   2.951  15.742  0.8717  0.6408 -0.6490
 4123SOL    HW223832   1.568   2.965  15.720  0.1823 -0.5366 -0.8707
 4124SOL     OW23833   3.404   1.896   1.664 -0.1166  0.4563 -0.3837
 4124SOL    HW123834   3.433   1.815   1.623 -1.7635  0.7566 -2.1892
 4124SOL    HW223835   3.459   1.958   1.617  0.9093 -1.1353 -1.2906
 4125SOL     OW23836   1.587   1.782   6.889 -0.3335  0.5218  0.2788
 4125SOL    HW123837   1.503   1.746   6.917  0.5238 -0.9873  0.9532
 4125SOL    HW223838   1.635   1.708   6.851 -1.2687 -0.1350  0.3914
 4126SOL     OW23839   4.446   0.406   7.842 -0.2158  0.0675  0.0055
 4126SOL    HW123840   4.536   0.439   7.839 -0.5789  0.9972 -0.6405
 4126SOL    HW223841   4.400   0.482   7.878 -0.8988 -1.0697  1.5348
 4127SOL     OW23842   3.947   0.707   0.504 -0.0076 -0.0017 -0.3067
 4127SOL    HW123843   3.953   0.802   0.513 -0.0135  0.2153 -2.4689
 4127SOL    HW223844   3.998   0.676   0.579 -1.1304 -1.0948  0.0046
 4128SOL     OW23845   3.471   2.427   7.233  0.4122  0.3135  0.4415
 4128SOL    HW123846   3.473   2.523   7.229 -1.7123  0.3294 -0.4556
 4128SOL    HW223847   3.546   2.407   7.177 -0.1591  0.4762 -0.3859
 4129SOL     OW23848   1.032   0.195   4.290  0.6691  0.3040 -0.4739
 4129SOL    HW123849   1.051   0.106   4.320 -1.9277  0.0971  0.5625
 4129SOL    HW223850   1.109   0.248   4.311  0.0588  0.7635  0.6366
 4130SOL     OW23851   2.030   1.428   4.557 -0.0401  0.9362  0.0237
 4130SOL    HW123852   2.094   1.477   4.610 -0.7351 -0.0914  1.8247
 4130SOL    HW223853   1.984   1.505   4.524 -2.0361 -1.8776 -3.6057
 4131SOL     OW23854   3.328   3.951  16.788 -0.3295 -0.1027  0.4697
 4131SOL    HW123855   3.396   4.009  16.822 -0.4879  0.2546  0.1685
 4131SOL    HW223856   3.251   4.006  16.802 -2.1843 -2.5732  0.0010
 4132SOL     OW23857   2.133   3.664   6.674 -0.4536  0.6106 -0.2023
 4132SOL    HW123858   2.186   3.589   6.701 -2.3255 -0.0534  1.6622
 4132SOL    HW223859   2.044   3.649   6.706  0.6084 -4.2444  0.4888
 4133SOL     OW23860   3.508   1.096   2.453  0.0969  0.3242 -0.4844
 4133SOL    HW123861   3.562   1.140   2.520  2.2290 -2.8224 -0.1456
 4133SOL    HW223862   3.576   1.098   2.385 -4.3931 -0.7988 -4.9633
 4134SOL     OW23863   4.181   2.869   3.485  0.6084  0.2330 -0.1782
 4134SOL    HW123864   4.116   2.936   3.506  2.7713  1.8288  1.4674
 4134SOL    HW223865   4.130   2.810   3.429 -0.5049 -0.2244  1.3260
 4135SOL     OW23866   1.592   1.517   7.646 -0.3429  0.8737  0.0830
 4135SOL    HW123867   1.638   1.571   7.582 -2.0947  0.1202 -1.8121
 4135SOL    HW223868   1.610   1.425   7.626 -0.7112  0.8409 -0.1048
 4136SOL     OW23869   2.298   2.780   0.846 -0.1178  0.5075 -0.2630
 4136SOL    HW123870   2.381   2.738   0.869  0.1538  0.5670 -1.1256
 4136SOL    HW223871   2.263   2.704   0.799 -1.3528 -0.0059  1.5077
 4137SOL     OW23872   0.145   0.743   3.578  0.1744  0.0340 -0.3332
 4137SOL    HW123873   0.186   0.824   3.607 -0.0886 -0.0497  0.2741
 4137SOL    HW223874   0.200   0.688   3.633  0.0706  0.6204  0.3471
 4138SOL     OW23875   3.761   2.535  15.548  0.6280 -0.2408  0.1079
 4138SOL    HW123876   3.689   2.562  15.490  0.3445 -2.6872 -0.6749
 4138SOL    HW223877   3.812   2.616  15.541  0.4891 -0.1598  0.0292
 4139SOL     OW23878   0.339   2.742   3.330 -0.3299 -0.0485 -0.0712
 4139SOL    HW123879   0.369   2.702   3.249 -0.8761 -1.4016  0.3984
 4139SOL    HW223880   0.276   2.803   3.290 -0.0423 -0.2382 -0.8160
 4140SOL     OW23881   4.723   1.226   4.851  0.2688 -0.2566  0.8958
 4140SOL    HW123882   0.092   1.246   4.844  0.1674 -1.1287 -3.3569
 4140SOL    HW223883   4.724   1.149   4.908 -3.5878  0.4344  1.8717
 4141SOL     OW23884   1.405   2.725   9.848  0.8029 -0.3040  0.7753
 4141SOL    HW123885   1.354   2.656   9.805  1.1249 -0.3281  0.4353
 4141SOL    HW223886   1.469   2.680   9.902  1.2262 -1.9660 -1.1606
 4142SOL     OW23887   1.999   4.517   4.675  0.1353  0.6124 -0.0453
 4142SOL    HW123888   2.016   4.435   4.629  1.6483  1.6511 -1.3565
 4142SOL    HW223889   2.066   4.573   4.635 -0.3534  1.5034  0.3826
 4143SOL     OW23890   2.710   4.298  14.291 -0.0544 -0.7197 -0.3185
 4143SOL    HW123891   2.780   4.354  14.256  0.2023 -0.3587  0.7687
 4143SOL    HW223892   2.744   4.277  14.378 -2.7006 -1.6993  0.4678
 4144SOL     OW23893   2.964   3.314  14.921 -0.3820 -0.6027  0.0256
 4144SOL    HW123894   2.869   3.312  14.929 -0.2538  1.5078  2.3868
 4144SOL    HW223895   2.978   3.402  14.957 -0.8075 -0.2285 -0.7249
 4145SOL     OW23896   1.685   3.807   1.878  0.3109  0.2658 -0.0653
 4145SOL    HW123897   1.694   3.888   1.828  1.2670  0.9698  1.2301
 4145SOL    HW223898   1.595   3.812   1.910  0.8054  3.0858  0.8842
 4146SOL     OW23899   1.172   2.825  17.485 -0.3892 -0.1584 -0.1338
 4146SOL    HW123900   1.137   2.825  17.395 -1.1872 -0.9290  0.1845
 4146SOL    HW223901   1.250   2.881  17.486 -0.1872 -0.4901  1.9870
 4147SOL     OW23902   0.773   0.085  17.402  0.6192  0.1922 -0.2079
 4147SOL    HW123903   0.817   0.168  17.420 -2.8318  1.4470  2.2463
 4147SOL    HW223904   0.854   0.033  17.406 -0.7278 -1.9051 -0.1705
 4148SOL     OW23905   3.467   1.235   1.255  0.5547  0.0698 -0.2993
 4148SOL    HW123906   3.379   1.237   1.218  0.4367 -0.7273 -0.0725
 4148SOL    HW223907   3.488   1.328   1.246 -1.6547  0.5092 -0.8440
 4149SOL     OW23908   0.209   4.655   0.201 -0.8262  0.4309 -0.1064
 4149SOL    HW123909   0.197   4.597   0.276 -0.0717 -0.2012 -0.4677
 4149SOL    HW223910   0.139   4.625   0.144 -0.1473 -1.1604 -0.1146
 4150SOL     OW23911   0.335   2.213  10.772  0.4075 -0.2428 -0.4086
 4150SOL    HW123912   0.415   2.174  10.807  1.7904  1.6283 -1.5331
 4150SOL    HW223913   0.277   2.227  10.846  1.8563  0.2211  0.6314
 4151SOL     OW23914   2.602   3.180   8.764 -0.5633  0.4758  1.2760
 4151SOL    HW123915   2.691   3.144   8.767 -1.2898 -1.5581 -1.2125
 4151SOL    HW223916   2.596   3.169   8.669  0.4557 -3.2865  1.6364
 4152SOL     OW23917   2.504   3.189   6.633 -0.2857  0.8051  0.1708
 4152SOL    HW123918   2.488   3.247   6.559 -0.7107 -1.2751 -1.3842
 4152SOL    HW223919   2.584   3.142   6.607 -0.9293  0.1133 -0.5397
 4153SOL     OW23920   3.457   1.531  15.545 -0.1442  0.3613 -0.1619
 4153SOL    HW123921   3.462   1.618  15.506  1.2971  0.0381 -0.6989
 4153SOL    HW223922   3.548   1.525  15.573  0.1359 -1.7867 -1.5680
 4154SOL     OW23923   1.045   3.836   9.656 -0.0152 -0.3653 -0.3443
 4154SOL    HW123924   1.124   3.804   9.612 -0.4829 -0.3624 -1.1852
 4154SOL    HW223925   1.042   3.765   9.720  1.2787 -0.2736 -0.1710
 4155SOL     OW23926   2.051   4.325   5.640  0.2497  0.2276  0.3457
 4155SOL    HW123927   2.071   4.302   5.549  0.1093  3.0565 -0.4037
 4155SOL    HW223928   2.103   4.406   5.640 -2.9531  2.2977  0.2227
 4156SOL     OW23929   4.196   4.594   0.791  0.7765 -0.3233  0.4351
 4156SOL    HW123930   4.291   4.602   0.800  1.1071 -0.0086 -3.1537
 4156SOL    HW223931   4.177   4.519   0.736  3.5208 -0.4577 -0.3528
 4157SOL     OW23932   2.201   1.665  15.417  0.1277  0.3313  0.2542
 4157SOL    HW123933   2.197   1.760  15.430 -1.2038  0.1516  1.1199
 4157SOL    HW223934   2.249   1.630  15.492  0.7457 -1.3011 -0.8922
 4158SOL     OW23935   0.757   4.493   7.242  0.5922  0.7258 -0.6023
 4158SOL    HW123936   0.716   4.437   7.177  2.8013  1.2642 -2.4726
 4158SOL    HW223937   0.693   4.563   7.257 -3.1544 -3.2367  1.9177
 4159SOL     OW23938   1.881   4.202  15.044  0.1311  0.0493  0.2925
 4159SOL    HW123939   1.807   4.261  15.033  1.5302  1.8708  0.6580
 4159SOL    HW223940   1.840   4.116  15.049  0.5282 -0.1014  0.9862
 4160SOL     OW23941   2.207   2.999   3.885 -0.2296 -0.0057 -0.0665
 4160SOL    HW123942   2.188   2.905   3.883  0.1361 -0.0249 -2.6576
 4160SOL    HW223943   2.156   3.014   3.964 -0.4337 -1.9744  0.1792
 4161SOL     OW23944   3.556   0.795   2.416  0.5170  0.7151  0.2357
 4161SOL    HW123945   3.470   0.828   2.388  0.5530  0.1436 -0.5189
 4161SOL    HW223946   3.578   0.852   2.490 -0.2284 -0.1809  1.1571
 4162SOL     OW23947   1.627   3.240   7.588 -0.5860  0.0802 -0.2340
 4162SOL    HW123948   1.701   3.295   7.613 -1.4614  0.6531  1.1332
 4162SOL    HW223949   1.630   3.245   7.492  0.7424 -1.8466 -0.3040
 4163SOL     OW23950   1.990   2.892   6.062 -0.2183  0.6528 -0.0255
 4163SOL    HW123951   1.975   2.953   5.989  0.0538  0.6777 -0.0590
 4163SOL    HW223952   1.982   2.808   6.018  1.1459  0.6962 -0.3401
 4164SOL     OW23953   1.976   1.908   4.547  0.0598  0.7154  0.4533
 4164SOL    HW123954   2.044   1.953   4.596 -0.4106  1.8341  0.0648
 4164SOL    HW223955   1.962   1.972   4.477 -1.2204  0.7996  0.7897
 4165SOL     OW23956   1.463   2.712   4.994 -0.2487  0.0199  0.0203
 4165SOL    HW123957   1.379   2.665   4.996  0.0773 -0.4849  2.1088
 4165SOL    HW223958   1.524   2.654   5.039 -1.5461 -1.1053  0.3077
 4166SOL     OW23959   1.206   1.944   2.477 -0.1494 -0.5868  0.6962
 4166SOL    HW123960   1.257   1.889   2.417  0.7652 -0.2928  1.2063
 4166SOL    HW223961   1.236   2.033   2.464  0.4297 -0.7302  1.0060
 4167SOL     OW23962   1.661   0.695  13.060  0.5524 -0.4167  0.0027
 4167SOL    HW123963   1.609   0.616  13.068 -0.4401  0.6675  4.4861
 4167SOL    HW223964   1.631   0.738  12.979  0.3204  0.6540  0.6505
 4168SOL     OW23965   4.271   2.027   9.967 -0.3029 -0.1312 -0.0630
 4168SOL    HW123966   4.182   2.046   9.937  0.1773  0.2282 -1.2576
 4168SOL    HW223967   4.309   2.003   9.883  0.9163  1.3096  0.0617
 4169SOL     OW23968   4.683   2.639   4.169  0.3256 -0.4635 -0.0475
 4169SOL    HW123969   0.010   2.694   4.228 -2.0113  0.4762  1.1298
 4169SOL    HW223970   0.006   2.642   4.086 -0.7258 -1.3208 -0.6757
 4170SOL     OW23971   0.040   4.296  13.302  0.0007 -0.4591 -0.2176
 4170SOL    HW123972   4.677   4.332  13.313  0.8840  1.4429  0.4914
 4170SOL    HW223973   0.018   4.216  13.350 -0.3847 -1.1880 -1.5962
 4171SOL     OW23974   3.388   3.015  10.432  0.0165 -0.4826  0.2120
 4171SOL    HW123975   3.357   2.943  10.487  0.8963 -2.2242 -1.5417
 4171SOL    HW223976   3.467   2.976  10.393 -1.5219 -0.1679 -3.2851
 4172SOL     OW23977   2.650   1.713  10.445 -0.2849 -0.1342  0.2782
 4172SOL    HW123978   2.632   1.744  10.356  0.1647  0.3545  0.3633
 4172SOL    HW223979   2.560   1.706  10.478 -0.5117 -0.4816 -0.4199
 4173SOL     OW23980   3.749   1.390   3.122 -0.3818  0.0870 -0.0867
 4173SOL    HW123981   3.711   1.334   3.189  0.5643 -0.3078  0.1153
 4173SOL    HW223982   3.676   1.401   3.060  0.0294 -0.0883 -0.5975
 4174SOL     OW23983   0.917   0.011   2.273 -0.2804 -0.0686  0.2238
 4174SOL    HW123984   0.831   0.053   2.279 -1.0983 -1.6468 -0.4014
 4174SOL    HW223985   0.894   4.645   2.294  1.8839 -0.3616  1.3434
 4175SOL     OW23986   2.296   2.429  14.099  1.0558 -0.2129  0.0935
 4175SOL    HW123987   2.295   2.380  14.181 -2.3292  0.2200  0.2952
 4175SOL    HW223988   2.241   2.502  14.126  0.3528 -0.1990 -1.3610
 4176SOL     OW23989   0.760   3.636  16.688 -0.1201  0.1369 -0.7516
 4176SOL    HW123990   0.665   3.647  16.687 -0.4162 -2.3808  0.2518
 4176SOL    HW223991   0.769   3.646  16.783 -2.1046 -2.5600 -0.2867
 4177SOL     OW23992   1.841   0.452   8.998  0.3603 -0.4517 -0.0947
 4177SOL    HW123993   1.763   0.442   8.943  0.0243 -1.4796  0.5743
 4177SOL    HW223994   1.798   0.428   9.081 -3.6151  0.4425 -1.8857
 4178SOL     OW23995   0.997   4.038  14.856  0.1036  0.0058  0.0644
 4178SOL    HW123996   1.021   4.026  14.764 -1.0448 -3.6907  0.2461
 4178SOL    HW223997   0.972   3.948  14.874  1.6830 -0.5516 -0.4617
 4179SOL     OW23998   4.052   4.124   0.485 -0.0464  0.1781 -0.4569
 4179SOL    HW123999   3.963   4.091   0.500  0.5834  0.3504  3.6691
 4179SOL    HW224000   4.107   4.049   0.510  2.3058  1.8983 -0.4633
 4180SOL     OW24001   4.584   0.725   7.673 -0.7096 -0.3825 -0.9858
 4180SOL    HW124002   4.616   0.815   7.670  0.7848 -0.8895 -0.1859
 4180SOL    HW224003   4.531   0.724   7.753 -2.3204 -1.2013 -2.0472
 4181SOL     OW24004   2.476   1.484  12.218  0.1235 -0.0703 -0.4258
 4181SOL    HW124005   2.431   1.520  12.141  0.8663  0.4736 -0.6000
 4181SOL    HW224006   2.474   1.389  12.205  0.2217 -0.4455  2.4238
 4182SOL     OW24007   3.014   2.083   6.918 -0.3483  0.0369  0.4760
 4182SOL    HW124008   3.053   1.996   6.916  4.4824  2.2635 -2.0011
 4182SOL    HW224009   3.023   2.122   6.831 -2.3489 -0.7137 -0.0727
 4183SOL     OW24010   4.173   2.843   4.060 -0.2043 -0.0735  0.2644
 4183SOL    HW124011   4.266   2.844   4.037  0.1779 -0.5251  1.8034
 4183SOL    HW224012   4.177   2.906   4.133  2.7974 -1.1324  1.0155
 4184SOL     OW24013   1.883   0.749  16.471 -0.1674 -0.3958 -0.8715
 4184SOL    HW124014   1.883   0.686  16.543  0.3260  0.3914 -0.1794
 4184SOL    HW224015   1.849   0.827  16.515  1.8337 -0.9718  1.6630
 4185SOL     OW24016   2.365   1.082   5.386 -0.2838 -0.7634 -0.4420
 4185SOL    HW124017   2.347   1.105   5.295  0.6182  0.3769 -0.3312
 4185SOL    HW224018   2.423   1.153   5.414 -1.3596 -0.0496  0.0052
 4186SOL     OW24019   1.733   1.873   5.278 -0.1780  0.1877  0.0973
 4186SOL    HW124020   1.690   1.907   5.356 -2.7744 -1.0223 -0.8158
 4186SOL    HW224021   1.668   1.895   5.211  1.0665  0.1697 -1.1348
 4187SOL     OW24022   2.131   3.792  10.691  0.5840 -0.0295 -0.0005
 4187SOL    HW124023   2.195   3.753  10.631  0.2416 -1.9833  0.8941
 4187SOL    HW224024   2.191   3.828  10.757  2.1376 -3.0843  0.2773
 4188SOL     OW24025   2.437   3.924  12.513 -0.8139 -0.0371  0.6874
 4188SOL    HW124026   2.495   3.970  12.573  0.3484 -0.1226 -0.3800
 4188SOL    HW224027   2.364   3.898  12.569 -0.9299 -1.2827 -0.0478
 4189SOL     OW24028   1.450   4.157   9.327 -0.1264  0.5227 -0.0361
 4189SOL    HW124029   1.501   4.151   9.246 -0.6800  0.8768 -0.4066
 4189SOL    HW224030   1.440   4.252   9.337 -0.3186  0.4637  0.3264
 4190SOL     OW24031   1.696   3.567   0.297 -0.2279  0.5305  0.8333
 4190SOL    HW124032   1.700   3.586   0.203  1.6719  1.2012  1.0490
 4190SOL    HW224033   1.702   3.472   0.288 -0.3654  0.7465 -1.4155
 4191SOL     OW24034   4.504   1.161   6.117  0.0711 -0.0311 -0.4061
 4191SOL    HW124035   4.489   1.255   6.109 -0.1410 -0.0180  0.1955
 4191SOL    HW224036   4.578   1.149   6.176 -0.5080  0.0594  0.3379
 4192SOL     OW24037   4.489   0.207  14.465  0.8074 -0.5281  0.7431
 4192SOL    HW124038   4.585   0.208  14.474  1.0732 -0.2148 -2.2112
 4192SOL    HW224039   4.475   0.225  14.558 -2.0655  2.1789 -0.2439
 4193SOL     OW24040   3.064   1.308  16.735  0.1286 -0.6159 -0.5654
 4193SOL    HW124041   3.034   1.331  16.823  0.8235 -0.6314 -0.3234
 4193SOL    HW224042   2.984   1.264  16.709  0.3808 -0.9229 -0.8278
 4194SOL     OW24043   0.981   1.371   4.721  0.6064  0.1706 -0.3724
 4194SOL    HW124044   0.916   1.429   4.760  0.5659 -0.5327  0.6273
 4194SOL    HW224045   0.931   1.305   4.673  0.5944  1.7907 -2.5251
 4195SOL     OW24046   2.519   4.531   9.572 -0.5695  0.0946 -0.5273
 4195SOL    HW124047   2.590   4.479   9.609 -1.6963 -2.4478 -1.9481
 4195SOL    HW224048   2.444   4.481   9.604 -0.2186 -1.0886 -1.5502
 4196SOL     OW24049   2.651   2.390   8.196 -0.8551  0.0613  0.2917
 4196SOL    HW124050   2.591   2.448   8.148 -0.8790  0.7745  1.1991
 4196SOL    HW224051   2.728   2.447   8.195 -2.9058  2.7879 -1.9688
 4197SOL     OW24052   0.226   1.950  17.336  0.7837  0.1494 -0.2308
 4197SOL    HW124053   0.317   1.955  17.363  1.1420 -1.6959 -1.0900
 4197SOL    HW224054   0.194   1.868  17.374 -1.4729  0.8379 -0.5998
 4198SOL     OW24055   3.798   1.298   9.260 -0.4289  0.1848 -0.4855
 4198SOL    HW124056   3.755   1.286   9.344  1.9603 -1.4251  0.5154
 4198SOL    HW224057   3.888   1.298   9.294 -0.2165 -0.3409 -1.0338
 4199SOL     OW24058   0.759   4.472   7.763 -0.0701  0.4361  0.0152
 4199SOL    HW124059   0.829   4.445   7.823  0.0163  0.4437 -0.0837
 4199SOL    HW224060   0.799   4.554   7.736 -0.4111  0.0713 -1.5842
 4200SOL     OW24061   3.842   0.501  14.527 -0.0896 -0.1081 -0.5678
 4200SOL    HW124062   3.935   0.479  14.537 -0.4209 -1.2368  0.1016
 4200SOL    HW224063   3.802   0.416  14.547  0.9419 -0.1913  1.1761
 4201SOL     OW24064   3.304   2.823   7.352  0.3816 -0.1932 -0.0771
 4201SOL    HW124065   3.240   2.888   7.323 -0.0773 -0.3063  0.6904
 4201SOL    HW224066   3.378   2.851   7.298  0.1152 -0.0731 -0.3800
 4202SOL     OW24067   3.566   4.158   8.807  0.6974 -0.2141  0.1937
 4202SOL    HW124068   3.646   4.132   8.761  0.1837 -3.0497  0.8589
 4202SOL    HW224069   3.511   4.191   8.736 -0.2180  0.3138  1.1492
 4203SOL     OW24070   2.231   1.076  15.009  0.3705  0.4686 -0.7603
 4203SOL    HW124071   2.177   1.150  14.981 -1.4328 -0.5022  0.1018
 4203SOL    HW224072   2.316   1.107  14.979  0.6800  1.4973  1.1445
 4204SOL     OW24073   0.210   1.558   1.871  0.3758  0.0064 -0.1575
 4204SOL    HW124074   0.194   1.647   1.839  2.6821  0.4001 -0.2172
 4204SOL    HW224075   0.208   1.566   1.966  1.2849 -0.4108 -0.1032
 4205SOL     OW24076   4.411   3.377   8.691  0.2312  0.3585 -0.0561
 4205SOL    HW124077   4.416   3.362   8.597 -1.3148  0.8492 -0.2058
 4205SOL    HW224078   4.339   3.319   8.714  1.1265 -0.2030  1.3773
 4206SOL     OW24079   1.770   2.856  16.519  0.0752 -0.1539 -0.3279
 4206SOL    HW124080   1.863   2.838  16.505  0.2307  0.4898 -0.1671
 4206SOL    HW224081   1.750   2.813  16.602  0.1693 -1.0515 -0.7730
 4207SOL     OW24082   3.418   0.464   8.997 -0.4015 -0.6371  0.4116
 4207SOL    HW124083   3.472   0.533   8.956  1.2938 -1.7334  0.7847
 4207SOL    HW224084   3.336   0.498   8.961 -0.8529 -0.7014  1.3822
 4208SOL     OW24085   4.620   2.587   5.721 -0.4767 -0.0408  0.8692
 4208SOL    HW124086   4.603   2.677   5.747 -0.9989  0.7899 -2.3463
 4208SOL    HW224087   4.555   2.552   5.782  0.4452  1.5542  2.7787
 4209SOL     OW24088   0.712   4.070   8.303 -0.2303 -0.4983  0.2254
 4209SOL    HW124089   0.752   4.018   8.233 -1.4030 -0.0920 -0.7487
 4209SOL    HW224090   0.786   4.127   8.323  0.0636  0.2495 -3.0263
 4210SOL     OW24091   0.625   1.399   6.716  0.1062  0.4921  0.3147
 4210SOL    HW124092   0.639   1.424   6.625 -0.2183  1.1782  0.4529
 4210SOL    HW224093   0.579   1.473   6.756  0.1080  0.0753  1.0911
 4211SOL     OW24094   4.089   3.815   4.367  0.1840  0.3147 -0.4565
 4211SOL    HW124095   4.104   3.752   4.437  0.8051 -2.1397 -2.7945
 4211SOL    HW224096   4.140   3.777   4.296 -0.3900 -2.4012  0.6096
 4212SOL     OW24097   4.422   1.138   5.868  0.0102  0.2204 -0.3356
 4212SOL    HW124098   4.373   1.220   5.864  0.1262  0.2749 -0.5777
 4212SOL    HW224099   4.453   1.135   5.959  1.1407 -0.5913 -0.7500
 4213SOL     OW24100   3.949   2.049   1.633 -0.7899 -0.2369  0.3994
 4213SOL    HW124101   3.985   2.041   1.545  1.5082  1.4141  1.2075
 4213SOL    HW224102   3.858   2.078   1.622 -1.3314 -2.0993 -0.1023
 4214SOL     OW24103   1.456   1.302   6.927 -0.6042  0.4266  0.2739
 4214SOL    HW124104   1.418   1.255   7.001 -0.8705  0.1220 -0.0552
 4214SOL    HW224105   1.429   1.242   6.857 -0.0974 -0.7832  1.1224
 4215SOL     OW24106   0.469   2.075  17.469  0.0365 -0.0836 -0.0507
 4215SOL    HW124107   0.491   2.114  17.554  0.3608 -0.1026 -0.1269
 4215SOL    HW224108   0.555   2.043  17.444 -0.8263 -1.7819 -0.8272
 4216SOL     OW24109   2.266   2.828   0.548  0.6664  1.2917  0.0223
 4216SOL    HW124110   2.185   2.778   0.542  1.4516 -0.2126  1.9235
 4216SOL    HW224111   2.329   2.783   0.492  2.9625  6.0418 -1.2433
 4217SOL     OW24112   3.784   2.384   3.252  0.3535 -0.3863 -0.3594
 4217SOL    HW124113   3.871   2.415   3.278  0.8298 -1.0343 -1.1593
 4217SOL    HW224114   3.718   2.448   3.280  2.2997  0.0696  3.2385
 4218SOL     OW24115   3.215   0.779   3.778 -0.2077  0.0041  0.1710
 4218SOL    HW124116   3.187   0.688   3.773  1.7357 -0.5612 -0.1569
 4218SOL    HW224117   3.310   0.770   3.776  0.0051  2.0372  1.0388
 4219SOL     OW24118   0.453   0.096   8.633 -0.4316  0.2638 -0.7963
 4219SOL    HW124119   0.401   0.177   8.639  1.7388  1.4270  2.1495
 4219SOL    HW224120   0.546   0.118   8.639 -0.1209 -1.0901 -0.7670
 4220SOL     OW24121   0.379   2.311   8.369 -0.6395 -0.2195 -0.0044
 4220SOL    HW124122   0.414   2.389   8.413 -1.8118  1.1259 -1.4494
 4220SOL    HW224123   0.448   2.245   8.377 -0.1436  0.0764 -1.8233
 4221SOL     OW24124   4.147   2.396   6.388 -0.4841 -0.1698 -0.3006
 4221SOL    HW124125   4.186   2.475   6.352 -1.3202 -0.8289 -2.6568
 4221SOL    HW224126   4.088   2.446   6.444  0.2872  1.5064 -0.9730
 4222SOL     OW24127   4.189   4.030   5.825 -0.1768  0.3395 -0.2941
 4222SOL    HW124128   4.134   4.045   5.748  1.0316 -2.1901 -1.6595
 4222SOL    HW224129   4.121   4.049   5.889  0.1872 -3.8967  1.3597
 4223SOL     OW24130   3.281   1.936   2.437  0.1904 -0.2628 -0.3914
 4223SOL    HW124131   3.228   1.872   2.390  1.3487 -0.5326 -1.3349
 4223SOL    HW224132   3.299   1.890   2.519 -2.2032  0.3954  0.4987
 4224SOL     OW24133   1.622   2.183  12.628  0.6822  1.0110 -0.3635
 4224SOL    HW124134   1.605   2.192  12.722  2.2137 -2.0435  0.2072
 4224SOL    HW224135   1.700   2.128  12.632 -0.4810 -0.7075 -1.1535
 4225SOL     OW24136   2.024   2.208  11.470  0.1791 -0.0689  0.2335
 4225SOL    HW124137   2.074   2.289  11.481 -2.2182  1.3877  0.3644
 4225SOL    HW224138   1.989   2.204  11.559 -0.6619 -0.3719 -0.1112
 4226SOL     OW24139   0.325   0.732   8.674  0.2976  0.7566 -0.2466
 4226SOL    HW124140   0.294   0.713   8.762 -0.0675  0.7030 -0.3884
 4226SOL    HW224141   0.377   0.808   8.699 -2.3165  2.3303  0.4132
 4227SOL     OW24142   4.077   0.946   7.672 -0.3339 -0.3583  0.0679
 4227SOL    HW124143   4.121   1.021   7.634 -1.2354 -1.3418 -2.9158
 4227SOL    HW224144   4.014   0.923   7.603 -0.0619 -2.1808  0.4332
 4228SOL     OW24145   0.947   3.641   1.492  0.0950 -0.0632 -0.0030
 4228SOL    HW124146   0.964   3.735   1.493  0.6931 -0.1811  0.5353
 4228SOL    HW224147   0.862   3.632   1.448  0.0622 -1.5237  0.3887
 4229SOL     OW24148   2.186   2.278  12.534  0.0586 -0.4223  0.6927
 4229SOL    HW124149   2.211   2.356  12.584 -0.2372  0.4300 -0.5114
 4229SOL    HW224150   2.267   2.226  12.530  0.8969  0.9338  0.1147
 4230SOL     OW24151   4.405   3.929   8.502 -0.1541  0.4154 -0.0120
 4230SOL    HW124152   4.413   3.834   8.510  0.3442  0.4504 -0.0677
 4230SOL    HW224153   4.409   3.968   8.589  1.0790 -0.8961  0.5100
 4231SOL     OW24154   2.726   1.999  12.958 -0.0670  0.0194  0.2631
 4231SOL    HW124155   2.649   2.035  13.002 -1.5782  0.1063 -2.4450
 4231SOL    HW224156   2.757   2.081  12.919 -1.5117 -0.4582 -1.8539
 4232SOL     OW24157   4.085   0.593   4.784  0.1040 -0.3156 -0.0290
 4232SOL    HW124158   4.154   0.572   4.847 -0.7261  2.3790  1.8303
 4232SOL    HW224159   4.138   0.582   4.706 -0.2988  0.4791 -0.4167
 4233SOL     OW24160   2.597   0.832  11.988  0.1280  0.3937  0.5184
 4233SOL    HW124161   2.624   0.740  11.995 -0.8583  0.0976  0.5696
 4233SOL    HW224162   2.504   0.813  11.973  1.1302 -4.4359  0.2044
 4234SOL     OW24163   4.423   0.931   6.505  0.2011 -0.1927  0.0792
 4234SOL    HW124164   4.438   1.018   6.542  0.7320 -0.9160  1.5921
 4234SOL    HW224165   4.512   0.897   6.511 -0.5503 -1.5477  3.8221
 4235SOL     OW24166   4.276   0.499   3.654  0.0048 -1.0243 -0.1254
 4235SOL    HW124167   4.310   0.520   3.567 -0.2585 -0.5212 -0.1091
 4235SOL    HW224168   4.194   0.454   3.633 -1.7576  2.6827 -1.1644
 4236SOL     OW24169   0.723   0.836   4.153  0.1463  0.8642 -0.0300
 4236SOL    HW124170   0.814   0.840   4.124  0.1586  0.3487 -0.0685
 4236SOL    HW224171   0.741   0.773   4.223  0.2185 -0.4258 -1.2019
 4237SOL     OW24172   1.635   0.115   7.787  0.7612  0.2570 -0.4639
 4237SOL    HW124173   1.571   0.186   7.790  0.4067 -0.2280  3.4067
 4237SOL    HW224174   1.715   0.150   7.826 -0.4592  1.3020  1.1296
 4238SOL     OW24175   2.643   4.615   6.994  0.1319  0.2776 -0.2788
 4238SOL    HW124176   2.704   4.601   7.066  0.0135 -2.5037 -0.6881
 4238SOL    HW224177   2.673   4.531   6.958 -0.3780 -0.1597  0.3230
 4239SOL     OW24178   2.222   3.607   7.529 -0.0605 -0.2653  0.1572
 4239SOL    HW124179   2.126   3.611   7.532 -0.0348  1.6944 -2.2876
 4239SOL    HW224180   2.243   3.658   7.607 -0.9950  0.8891 -0.3536
 4240SOL     OW24181   2.884   2.137   6.038 -0.0697 -1.1592 -0.5975
 4240SOL    HW124182   2.801   2.093   6.021  0.3120 -1.3460 -1.9989
 4240SOL    HW224183   2.943   2.093   5.978  2.1381  1.2128 -0.1588
 4241SOL     OW24184   4.588   4.545   6.901 -0.2284 -0.1623  0.6193
 4241SOL    HW124185   4.515   4.575   6.847  0.7609 -0.3793 -0.8426
 4241SOL    HW224186   4.652   4.513   6.838  0.0656 -1.3946  1.5441
 4242SOL     OW24187   1.364   4.721   9.168  0.2458 -0.4358 -0.3206
 4242SOL    HW124188   1.339   4.711   9.260  1.2644 -0.3371 -0.0417
 4242SOL    HW224189   1.284   4.681   9.132 -0.8182  1.0326  0.4314
 4243SOL     OW24190   2.300   1.268   1.266  0.1862  0.2250 -0.5971
 4243SOL    HW124191   2.319   1.362   1.271  1.8535 -0.0037 -2.8983
 4243SOL    HW224192   2.372   1.234   1.319  1.2084 -0.2316 -2.2922
 4244SOL     OW24193   3.544   2.192   6.709 -0.1947 -0.0094 -0.0837
 4244SOL    HW124194   3.472   2.189   6.646  0.7758  2.0265 -1.2990
 4244SOL    HW224195   3.516   2.142   6.786  0.3413  0.8195  0.6526
 4245SOL     OW24196   0.149   0.566   7.455  0.1221 -0.3153 -0.0162
 4245SOL    HW124197   0.140   0.583   7.361 -1.7593 -0.4645  0.1298
 4245SOL    HW224198   0.174   0.474   7.456  1.4215  0.0503  0.2832
 4246SOL     OW24199   3.050   3.620   2.899  0.5274  0.0825 -0.2110
 4246SOL    HW124200   3.023   3.530   2.880  0.7323  0.5197 -2.6599
 4246SOL    HW224201   2.975   3.666   2.860  0.3590 -0.2803 -0.3139
 4247SOL     OW24202   2.378   2.285   2.375  0.0683  0.1139  0.2418
 4247SOL    HW124203   2.371   2.335   2.294  1.1240 -0.3691 -0.1557
 4247SOL    HW224204   2.385   2.198   2.336 -1.4641 -0.1851  0.6482
 4248SOL     OW24205   1.096   3.447  14.353  0.3363 -0.2077  0.0485
 4248SOL    HW124206   1.011   3.441  14.396 -1.0909 -2.8491 -3.0935
 4248SOL    HW224207   1.109   3.364  14.307  0.5648  0.4530 -1.0818
 4249SOL     OW24208   2.934   3.170   2.608 -0.3450 -0.4304 -0.9256
 4249SOL    HW124209   3.011   3.222   2.587 -1.4419  0.3080 -3.0462
 4249SOL    HW224210   2.954   3.089   2.562  1.0672  0.7471 -2.3556
 4250SOL     OW24211   3.467   1.125   3.005 -0.0870 -0.4305  0.3954
 4250SOL    HW124212   3.481   1.085   2.919 -1.5028  2.1886 -1.0478
 4250SOL    HW224213   3.478   1.051   3.064  4.3016  0.6407  0.8886
 4251SOL     OW24214   2.421   3.909   8.087  0.5357 -0.5203  0.1790
 4251SOL    HW124215   2.426   3.931   7.994 -0.3177 -2.0096 -0.2189
 4251SOL    HW224216   2.326   3.905   8.096  0.4925 -1.1030 -0.6314
 4252SOL     OW24217   1.680   2.576   7.490  0.0752 -0.2477  0.0206
 4252SOL    HW124218   1.714   2.662   7.515  0.2814 -0.2602 -0.2156
 4252SOL    HW224219   1.708   2.533   7.571  0.3164  0.1364  0.1452
 4253SOL     OW24220   1.037   0.027   3.322 -0.4185  0.2208 -0.2260
 4253SOL    HW124221   1.132   0.035   3.323 -0.1807 -2.7993  0.0737
 4253SOL    HW224222   1.024   4.657   3.317 -0.9076  0.2119  1.2348
 4254SOL     OW24223   1.708   4.215   3.929  0.6938  0.3846  0.9017
 4254SOL    HW124224   1.707   4.305   3.961  0.2280  0.1922  1.4355
 4254SOL    HW224225   1.657   4.171   3.997  0.0182  1.8652  1.3503
 4255SOL     OW24226   3.394   0.704   0.169  0.1925 -0.0115  0.4044
 4255SOL    HW124227   3.364   0.614   0.155  1.0983 -0.1834 -0.4652
 4255SOL    HW224228   3.439   0.693   0.253  0.8242 -0.4937  0.0036
 4256SOL     OW24229   1.399   3.773  11.996  0.6513  0.2885 -1.0230
 4256SOL    HW124230   1.366   3.725  12.072  0.3008 -0.1725 -1.4596
 4256SOL    HW224231   1.400   3.860  12.035  1.1349 -0.4395  0.5440
 4257SOL     OW24232   3.448   0.730   9.175 -0.4911 -0.0322 -0.1518
 4257SOL    HW124233   3.459   0.772   9.260 -3.7466 -0.8089  0.6373
 4257SOL    HW224234   3.531   0.759   9.136 -1.6395  0.2830 -2.3400
 4258SOL     OW24235   3.463   2.119  12.183 -0.4679 -0.2213 -0.0597
 4258SOL    HW124236   3.390   2.087  12.131  1.3251  0.7133 -3.1637
 4258SOL    HW224237   3.509   2.153  12.106 -0.2518 -0.6773 -0.1296
 4259SOL     OW24238   3.306   2.374  16.596 -0.2563 -0.1970 -0.2081
 4259SOL    HW124239   3.274   2.405  16.681 -1.5826  2.4749 -1.6633
 4259SOL    HW224240   3.389   2.330  16.615  0.2843  1.4552  1.2752
 4260SOL     OW24241   2.147   2.335  16.940  0.2220 -0.0778  0.2638
 4260SOL    HW124242   2.130   2.421  16.978 -0.7212  0.3209 -1.0725
 4260SOL    HW224243   2.062   2.293  16.934  0.1799 -0.1022  1.0378
 4261SOL     OW24244   1.424   3.805   3.447 -0.3460  0.4092 -0.0105
 4261SOL    HW124245   1.428   3.732   3.386  1.0234  2.4027 -2.3464
 4261SOL    HW224246   1.439   3.885   3.396  2.5716  0.3899  0.8235
 4262SOL     OW24247   3.957   2.159   3.949 -0.1797  0.1280 -0.9301
 4262SOL    HW124248   3.907   2.078   3.958 -2.8556  1.9697  0.9241
 4262SOL    HW224249   4.040   2.120   3.922 -0.0510 -2.2637  2.8247
 4263SOL     OW24250   1.404   1.900  12.098  0.4627 -0.2427  0.4612
 4263SOL    HW124251   1.410   1.995  12.103  0.4289 -0.0691 -2.3735
 4263SOL    HW224252   1.499   1.893  12.098  0.3363 -1.9565  0.7926
 4264SOL     OW24253   1.782   1.983   7.899 -0.5302 -0.4714 -0.4421
 4264SOL    HW124254   1.827   2.007   7.818  1.2983 -1.3889  0.3066
 4264SOL    HW224255   1.692   2.005   7.874 -0.0903 -0.5046 -1.9987
 4265SOL     OW24256   0.997   1.297   5.167 -0.4333 -0.2801  0.1863
 4265SOL    HW124257   1.053   1.342   5.104 -0.0313  0.9110  1.4065
 4265SOL    HW224258   1.058   1.233   5.205  2.1686  1.1605 -1.6141
 4266SOL     OW24259   2.237   1.033   7.142 -0.0375 -0.2592 -0.0655
 4266SOL    HW124260   2.195   1.070   7.219 -1.9432 -1.0771 -0.7248
 4266SOL    HW224261   2.168   1.016   7.078 -1.3329  1.8563  0.7693
 4267SOL     OW24262   1.208   2.817   3.479 -0.0975  0.1811  0.0943
 4267SOL    HW124263   1.165   2.890   3.434  1.3146  0.1245 -1.3641
 4267SOL    HW224264   1.299   2.846   3.471 -0.3784 -0.4011 -4.5943
 4268SOL     OW24265   4.100   1.766   5.796 -0.1159  0.2698 -0.3244
 4268SOL    HW124266   4.036   1.829   5.763 -1.7801 -1.9683 -1.3611
 4268SOL    HW224267   4.062   1.686   5.761 -0.4180 -0.0208  0.6703
 4269SOL     OW24268   4.310   3.144  11.030 -0.3505 -0.0720 -0.0560
 4269SOL    HW124269   4.355   3.227  11.049 -1.5234  1.0813 -2.3281
 4269SOL    HW224270   4.219   3.165  11.049 -0.3853  0.0346 -0.3467
 4270SOL     OW24271   4.596   3.649   6.081  0.1880 -0.0513 -0.1815
 4270SOL    HW124272   4.658   3.583   6.110 -1.5064 -1.2897  0.6324
 4270SOL    HW224273   4.652   3.707   6.028 -1.1737  0.4758 -1.0530
 4271SOL     OW24274   3.839   4.458  11.913 -0.1173  0.8974 -0.4469
 4271SOL    HW124275   3.805   4.547  11.906 -2.0616  0.3900  2.5773
 4271SOL    HW224276   3.777   4.418  11.973  0.7531 -0.4278 -0.4258
 4272SOL     OW24277   3.002   1.295   4.788  0.1489 -0.0879 -0.4073
 4272SOL    HW124278   2.998   1.224   4.852 -0.3813  2.8344  2.8170
 4272SOL    HW224279   3.042   1.242   4.719 -1.7870 -0.3414 -1.3456
 4273SOL     OW24280   0.714   1.664   1.719 -0.2384 -0.9048  0.2430
 4273SOL    HW124281   0.773   1.668   1.644  1.1720  0.6229  1.4183
 4273SOL    HW224282   0.724   1.572   1.743 -0.3858 -1.2984 -1.2418
 4274SOL     OW24283   1.482   0.214   3.103 -0.6184 -0.2876  0.0970
 4274SOL    HW124284   1.526   0.184   3.024 -0.2527  0.2803  0.0808
 4274SOL    HW224285   1.535   0.167   3.168  2.3119  1.9441 -0.6910
 4275SOL     OW24286   2.522   0.931   0.135 -0.3037 -0.6145  0.6239
 4275SOL    HW124287   2.497   0.882   0.056 -0.8106  1.2409 -0.3560
 4275SOL    HW224288   2.465   1.007   0.124  0.8700  0.2798  0.6604
 4276SOL     OW24289   3.079   3.668  16.413 -0.4517 -0.2500 -0.0621
 4276SOL    HW124290   3.026   3.591  16.434  0.6163 -1.2223 -0.9078
 4276SOL    HW224291   3.140   3.621  16.356  0.1107  0.7301 -0.2736
 4277SOL     OW24292   0.091   3.397  12.372 -0.1266  0.2229  0.2253
 4277SOL    HW124293   0.091   3.305  12.396 -2.5393  0.5935  1.5633
 4277SOL    HW224294   0.168   3.400  12.314  0.6025  0.3779  1.1887
 4278SOL     OW24295   1.287   2.903  16.563 -0.5721 -0.1058 -0.2506
 4278SOL    HW124296   1.381   2.891  16.550 -0.1197 -0.0807  2.8314
 4278SOL    HW224297   1.259   2.901  16.472 -1.4235 -0.2176  0.0132
 4279SOL     OW24298   1.333   0.641  14.458 -0.1228  0.0839 -0.2692
 4279SOL    HW124299   1.401   0.600  14.512 -0.3484 -1.3128 -1.0430
 4279SOL    HW224300   1.394   0.665  14.388 -0.9873  1.3813 -0.5747
 4280SOL     OW24301   1.795   4.608   8.835 -0.6548  0.6833  0.4598
 4280SOL    HW124302   1.842   4.671   8.780  0.4775 -1.5294 -1.1275
 4280SOL    HW224303   1.744   4.664   8.894 -1.3369  1.1017 -0.5239
 4281SOL     OW24304   2.318   3.408   2.663 -0.0629  0.0778  0.0000
 4281SOL    HW124305   2.308   3.503   2.669  0.9117  0.1293  0.8477
 4281SOL    HW224306   2.345   3.388   2.752  1.3400 -0.0526 -0.4611
 4282SOL     OW24307   4.040   3.168  11.067 -0.3160 -0.2528 -0.0614
 4282SOL    HW124308   4.018   3.254  11.102 -0.8573 -0.3071 -0.2579
 4282SOL    HW224309   3.966   3.113  11.093 -1.3800  0.1265 -2.2857
 4283SOL     OW24310   3.128   1.602  13.004 -0.0312 -0.0345  0.5497
 4283SOL    HW124311   3.080   1.528  13.041 -1.5086  0.1514 -0.9937
 4283SOL    HW224312   3.126   1.582  12.911  0.4925 -0.9777  0.7424
 4284SOL     OW24313   3.571   2.965  10.916 -0.0755 -0.4676  0.0749
 4284SOL    HW124314   3.623   2.958  10.835 -1.1161 -2.4507 -0.4167
 4284SOL    HW224315   3.518   3.042  10.896  1.0254  0.4770  0.7476
 4285SOL     OW24316   1.164   3.782  10.506 -0.4132 -0.1045 -0.2747
 4285SOL    HW124317   1.151   3.802  10.599 -0.8641 -0.1922 -0.3175
 4285SOL    HW224318   1.074   3.765  10.478  0.0943 -0.4826 -1.6497
 4286SOL     OW24319   0.334   1.401   5.781  0.0158 -0.5147 -0.2729
 4286SOL    HW124320   0.244   1.370   5.773  0.6756 -1.3387 -4.5245
 4286SOL    HW224321   0.335   1.421   5.875 -1.0713 -1.2390 -0.1069
 4287SOL     OW24322   3.165   3.816   5.766 -0.1827 -0.5393  0.5083
 4287SOL    HW124323   3.215   3.877   5.821 -0.3218  1.3151 -1.4447
 4287SOL    HW224324   3.135   3.746   5.824 -0.2203 -0.3863  0.6730
 4288SOL     OW24325   1.824   1.413  17.300 -0.0792 -0.3666 -0.3147
 4288SOL    HW124326   1.886   1.409  17.227  1.0928  1.0281  0.5959
 4288SOL    HW224327   1.771   1.337  17.277 -1.2056  1.0056 -2.2756
 4289SOL     OW24328   0.718   1.982   8.759  0.1293  0.1689  0.2743
 4289SOL    HW124329   0.747   1.900   8.718  0.4642  1.2882 -1.7238
 4289SOL    HW224330   0.728   2.041   8.684 -0.6473 -0.5145 -0.3753
 4290SOL     OW24331   1.612   0.396  16.561 -0.8556  0.1213 -0.3147
 4290SOL    HW124332   1.604   0.301  16.551 -1.3832  0.1207  0.0865
 4290SOL    HW224333   1.528   0.427  16.528 -0.3047  1.3519 -0.5537
 4291SOL     OW24334   4.642   2.163  10.467 -0.8796 -0.1992 -0.2236
 4291SOL    HW124335   4.648   2.088  10.408  1.5922 -2.1426  2.5139
 4291SOL    HW224336   4.687   2.223  10.408 -1.6402 -1.7242 -2.3328
 4292SOL     OW24337   0.155   3.364   2.540 -0.3259 -0.0497  0.6362
 4292SOL    HW124338   0.214   3.334   2.609 -1.1066 -2.7098  0.1456
 4292SOL    HW224339   0.212   3.387   2.466 -3.1779  0.9943 -1.2662
 4293SOL     OW24340   1.222   1.075   5.942  0.2287 -0.1246 -0.0817
 4293SOL    HW124341   1.270   1.105   6.019 -0.4945  0.6989  0.0505
 4293SOL    HW224342   1.283   1.018   5.896 -1.0300 -2.3934  1.0276
 4294SOL     OW24343   1.492   1.086  12.947 -0.0897 -0.0135 -0.2325
 4294SOL    HW124344   1.504   1.180  12.936  2.0591 -0.2344  0.2530
 4294SOL    HW224345   1.398   1.091  12.930 -0.2872 -0.0680  0.8559
 4295SOL     OW24346   3.899   2.485  10.316 -0.0453 -0.2110 -0.2149
 4295SOL    HW124347   3.964   2.533  10.265 -0.3290  1.5283  1.0554
 4295SOL    HW224348   3.923   2.398  10.284  1.5969 -0.3045  1.2791
 4296SOL     OW24349   3.569   2.807   2.347 -0.4215  0.0722 -0.0978
 4296SOL    HW124350   3.625   2.766   2.413 -1.8208 -2.6298 -0.5822
 4296SOL    HW224351   3.558   2.897   2.378  1.0566 -0.0879  0.8933
 4297SOL     OW24352   4.655   4.389   6.114 -0.7743 -0.1010 -0.0735
 4297SOL    HW124353   4.649   4.449   6.188  1.6943 -0.0588  0.0981
 4297SOL    HW224354   4.584   4.330   6.138 -0.1772 -0.8274 -0.0986
 4298SOL     OW24355   1.084   4.341  12.192  0.1250  0.3272 -0.1279
 4298SOL    HW124356   1.104   4.376  12.105  1.0916 -0.0541 -0.0597
 4298SOL    HW224357   1.126   4.256  12.181 -0.6854 -0.1925  0.7603
 4299SOL     OW24358   0.123   3.626  17.332 -0.1443  0.1404  0.5059
 4299SOL    HW124359   0.141   3.719  17.347  0.8747  0.1068 -0.4575
 4299SOL    HW224360   0.177   3.597  17.406 -0.0674  0.9250  0.7613
 4300SOL     OW24361   1.632   2.455   1.618 -0.8372  0.4219 -0.0749
 4300SOL    HW124362   1.597   2.425   1.534 -3.1094  0.5667  0.8234
 4300SOL    HW224363   1.721   2.473   1.587 -0.3420  0.2136  1.2342
 4301SOL     OW24364   3.684   4.382   6.254  0.3788 -0.1395  0.3496
 4301SOL    HW124365   3.720   4.419   6.335 -1.7813  1.2572  0.6754
 4301SOL    HW224366   3.766   4.346   6.221  0.1675 -0.1157 -0.2025
 4302SOL     OW24367   3.462   4.249   4.578 -0.6741  0.0204  0.4738
 4302SOL    HW124368   3.474   4.342   4.596 -0.6863 -0.3599  2.4309
 4302SOL    HW224369   3.523   4.226   4.508 -0.1818  0.7394  0.6704
 4303SOL     OW24370   2.566   4.206  14.053 -0.0992 -0.2296  0.5192
 4303SOL    HW124371   2.603   4.265  14.118 -1.2000 -0.9872  1.8242
 4303SOL    HW224372   2.596   4.116  14.071 -0.1716 -0.3301  0.1551
 4304SOL     OW24373   3.576   3.041   6.482  0.2764  0.0753  0.3929
 4304SOL    HW124374   3.649   3.049   6.543  0.1901 -0.8699  0.6318
 4304SOL    HW224375   3.496   3.075   6.523  0.6271 -1.0770  2.0086
 4305SOL     OW24376   1.070   2.472   2.917 -0.2227 -0.4683 -0.5866
 4305SOL    HW124377   1.149   2.430   2.952  0.0468 -0.2910 -0.9781
 4305SOL    HW224378   1.000   2.406   2.917 -0.8358  0.1851 -0.7989
 4306SOL     OW24379   3.365   3.035   9.030 -0.2686  0.4377  0.4729
 4306SOL    HW124380   3.306   3.109   9.014  0.2516  0.9572  0.9736
 4306SOL    HW224381   3.318   2.980   9.093 -1.4636  0.3818 -0.4665
 4307SOL     OW24382   3.642   1.845   3.897  0.0012 -0.2573 -0.2336
 4307SOL    HW124383   3.633   1.887   3.811  1.8941 -0.4421 -0.5161
 4307SOL    HW224384   3.737   1.842   3.909 -0.1235 -0.1957  0.7044
 4308SOL     OW24385   2.775   0.555   2.795 -0.0037  0.2443  0.6368
 4308SOL    HW124386   2.856   0.584   2.752  1.5933  1.4612  4.4310
 4308SOL    HW224387   2.743   0.503   2.722 -1.6332  1.2956  0.5924
 4309SOL     OW24388   4.200   2.930   6.667  0.0518 -0.4907 -0.1289
 4309SOL    HW124389   4.139   2.986   6.619 -0.8196 -1.5596 -0.2550
 4309SOL    HW224390   4.174   2.951   6.757  0.5677 -1.2604  0.2023
 4310SOL     OW24391   3.306   4.404  14.555 -0.2619 -0.2647  0.1499
 4310SOL    HW124392   3.300   4.482  14.609  0.7524 -0.7301  0.9445
 4310SOL    HW224393   3.400   4.386  14.566 -0.9706 -2.5028  2.4654
 4311SOL     OW24394   2.516   1.966  16.441 -0.2166 -0.1095 -0.1705
 4311SOL    HW124395   2.561   2.045  16.411  0.8390 -1.2446 -1.5721
 4311SOL    HW224396   2.588   1.903  16.447 -0.7688 -0.9123 -2.0723
 4312SOL     OW24397   3.486   3.810   1.848  0.3710  0.4360  0.0755
 4312SOL    HW124398   3.500   3.745   1.916  0.6302  1.2081  0.7472
 4312SOL    HW224399   3.500   3.894   1.890 -0.2505  1.7725 -2.3707
 4313SOL     OW24400   4.591   0.007  10.190 -0.0148 -0.0361 -0.2682
 4313SOL    HW124401   4.587   4.645  10.231 -2.1539 -0.2100 -0.8404
 4313SOL    HW224402   4.664   0.000  10.129  0.0281  2.6236 -0.4975
 4314SOL     OW24403   2.210   1.775   8.102  0.9537  0.8591 -0.3044
 4314SOL    HW124404   2.215   1.694   8.153  1.2603  2.1002  1.6582
 4314SOL    HW224405   2.135   1.752   8.048 -0.0241  0.6760  1.1243
 4315SOL     OW24406   2.911   0.505   1.761  0.5441  0.1659 -0.5861
 4315SOL    HW124407   2.843   0.462   1.812  1.8716 -1.5072 -0.1857
 4315SOL    HW224408   2.947   0.431   1.711  1.7493  0.7533 -0.6044
 4316SOL     OW24409   3.681   3.557   4.166  0.1978  0.2201 -0.6008
 4316SOL    HW124410   3.605   3.608   4.140 -0.2184  0.4449  1.0113
 4316SOL    HW224411   3.648   3.499   4.236 -0.7129 -1.2651 -2.2673
 4317SOL     OW24412   4.244   4.180  12.688  0.0840 -0.3163 -0.2162
 4317SOL    HW124413   4.288   4.096  12.677  0.0126 -0.4506  0.5443
 4317SOL    HW224414   4.304   4.242  12.646 -0.1616  0.5889  0.7796
 4318SOL     OW24415   4.441   3.422   9.667 -0.6878 -0.5689  0.5369
 4318SOL    HW124416   4.413   3.513   9.658  1.3661  0.2076  2.0438
 4318SOL    HW224417   4.382   3.407   9.741 -1.7209 -1.0939 -0.3816
 4319SOL     OW24418   3.115   4.531   1.836  0.2324 -0.3776  1.0203
 4319SOL    HW124419   3.202   4.514   1.801 -1.0766 -3.4350 -0.7221
 4319SOL    HW224420   3.066   4.462   1.791 -2.0821  0.6916  1.9081
 4320SOL     OW24421   1.465   1.727   2.533  0.1677  0.3749  0.0088
 4320SOL    HW124422   1.441   1.770   2.450  1.8404 -2.0538 -1.7083
 4320SOL    HW224423   1.547   1.769   2.559  0.6736 -1.3166  1.1082
 4321SOL     OW24424   3.126   3.499   2.287  0.2750 -0.5750  0.1440
 4321SOL    HW124425   3.178   3.573   2.319  2.1927 -1.1183 -1.6814
 4321SOL    HW224426   3.134   3.437   2.358  1.3447 -0.5084  0.0855
 4322SOL     OW24427   3.212   2.926   3.168  0.4627 -0.8357  0.0474
 4322SOL    HW124428   3.243   2.996   3.225  0.3543 -0.6622 -0.1112
 4322SOL    HW224429   3.267   2.944   3.091 -0.8035  0.8789 -0.4415
 4323SOL     OW24430   3.638   1.672   7.611  0.1252  0.0839 -0.2927
 4323SOL    HW124431   3.682   1.623   7.680  0.1822 -0.5085 -0.7556
 4323SOL    HW224432   3.677   1.759   7.605 -0.3540  0.3786  0.9307
 4324SOL     OW24433   0.883   3.753   2.029 -0.0317  0.6318 -0.1734
 4324SOL    HW124434   0.915   3.795   1.949  2.7116 -1.8212 -0.3782
 4324SOL    HW224435   0.801   3.802   2.023 -1.8881 -1.8229  4.9707
 4325SOL     OW24436   1.570   0.194   3.391 -1.1059 -0.0811  0.1497
 4325SOL    HW124437   1.600   0.163   3.476 -2.5246 -0.3105  0.5646
 4325SOL    HW224438   1.565   0.288   3.411  1.2329  0.5118 -2.0052
 4326SOL     OW24439   3.016   1.209   8.052  0.0816 -0.1990 -0.3536
 4326SOL    HW124440   3.020   1.144   7.982 -1.2021 -0.4598 -0.1720
 4326SOL    HW224441   3.110   1.207   8.071  0.3884  1.0479 -1.7050
 4327SOL     OW24442   1.003   0.880   4.068 -0.0275  0.2279  0.1093
 4327SOL    HW124443   0.952   0.884   3.986 -0.2735  0.6854  0.2813
 4327SOL    HW224444   1.060   0.956   4.057  0.4724 -0.2526 -0.6472
 4328SOL     OW24445   1.425   0.719   0.983  0.0791 -0.0429 -0.5847
 4328SOL    HW124446   1.405   0.674   0.901  1.4693  1.0056 -1.4914
 4328SOL    HW224447   1.384   0.663   1.050  2.1558 -0.1255  0.6033
 4329SOL     OW24448   2.941   1.820   0.412 -0.1222 -0.2305  0.2479
 4329SOL    HW124449   2.919   1.761   0.484  0.1932  2.2179  2.3245
 4329SOL    HW224450   2.856   1.855   0.385  0.5995  0.5165 -1.0797
 4330SOL     OW24451   4.286   2.112   8.267 -0.5924 -0.3189  0.0286
 4330SOL    HW124452   4.346   2.177   8.230 -0.8265 -0.2086 -0.1616
 4330SOL    HW224453   4.255   2.073   8.185  0.3438 -0.9447 -0.0248
 4331SOL     OW24454   1.454   1.341   0.929 -0.0541 -0.1019 -0.5684
 4331SOL    HW124455   1.498   1.258   0.914 -1.6980 -1.0363 -0.2214
 4331SOL    HW224456   1.521   1.404   0.957  1.1687 -1.2830 -0.8646
 4332SOL     OW24457   1.819   2.204   3.752 -0.3779 -0.7233  0.1241
 4332SOL    HW124458   1.889   2.250   3.798 -0.8327 -0.2157  0.3061
 4332SOL    HW224459   1.833   2.234   3.662  1.3371 -0.4974  0.4678
 4333SOL     OW24460   4.520   0.794   1.166 -0.3794  0.2451 -0.1097
 4333SOL    HW124461   4.549   0.703   1.167 -0.4930  0.2002 -1.0546
 4333SOL    HW224462   4.583   0.846   1.216 -0.2319 -0.8725  0.8844
 4334SOL     OW24463   4.117   4.701   3.069  0.3341 -0.4613 -0.2683
 4334SOL    HW124464   4.171   4.622   3.070  1.3053  0.1802 -2.5052
 4334SOL    HW224465   4.171   0.037   3.018 -1.0364  2.1101  1.3479
 4335SOL     OW24466   1.149   3.352   5.550  0.5111 -0.2145 -0.1472
 4335SOL    HW124467   1.174   3.419   5.613 -1.0290 -2.3015  2.7039
 4335SOL    HW224468   1.123   3.278   5.606  0.2775 -0.7644 -0.9770
 4336SOL     OW24469   3.042   3.485   4.049  0.1728  0.0659  0.2071
 4336SOL    HW124470   3.072   3.458   3.962  0.9741 -0.1489  0.5465
 4336SOL    HW224471   3.085   3.570   4.057  3.4856 -1.3871 -1.7204
 4337SOL     OW24472   1.391   4.358  17.671 -0.0776  0.0831 -0.0651
 4337SOL    HW124473   1.475   4.399  17.688 -0.7527  1.5101 -0.2013
 4337SOL    HW224474   1.409   4.277  17.623  2.2640 -0.0547  1.0445
 4338SOL     OW24475   2.469   1.290   8.605  0.5281 -0.2466  0.7333
 4338SOL    HW124476   2.429   1.330   8.682  0.0351  0.3190  0.1911
 4338SOL    HW224477   2.541   1.351   8.587 -1.6218  2.0638 -0.0313
 4339SOL     OW24478   2.079   0.708   6.365  0.1252  0.3830  0.4767
 4339SOL    HW124479   1.987   0.692   6.345  0.4645 -0.5222 -0.3603
 4339SOL    HW224480   2.075   0.803   6.357 -3.0713  0.1853 -0.3487
 4340SOL     OW24481   3.818   2.045   2.981 -0.0457  0.3130  0.1573
 4340SOL    HW124482   3.847   1.954   2.988  0.1283  0.2208 -2.0065
 4340SOL    HW224483   3.881   2.078   2.917 -0.1249 -0.9123 -0.5386
 4341SOL     OW24484   1.794   1.040   0.729 -0.3733  0.2524 -0.0518
 4341SOL    HW124485   1.864   0.977   0.748 -0.1687  0.6474  0.4852
 4341SOL    HW224486   1.730   0.990   0.678 -0.3133 -0.5969  0.6949
 4342SOL     OW24487   1.032   0.974   8.846 -0.7970 -0.4120  0.4023
 4342SOL    HW124488   1.112   1.012   8.810  0.2736 -0.1216  3.1554
 4342SOL    HW224489   1.057   0.953   8.936  1.9143  1.2419 -0.0035
 4343SOL     OW24490   1.625   0.594   6.309 -0.2541 -0.3673  0.0411
 4343SOL    HW124491   1.540   0.635   6.329  0.6506  1.1022  0.8647
 4343SOL    HW224492   1.691   0.663   6.312  0.5396 -1.1595  0.4772
 4344SOL     OW24493   1.391   0.557   2.280  0.3490 -0.3696 -0.2740
 4344SOL    HW124494   1.402   0.565   2.185  0.0772 -0.0958 -0.2833
 4344SOL    HW224495   1.481   0.556   2.312  0.7445  0.4090 -1.3688
 4345SOL     OW24496   2.558   2.999   6.976 -0.6518  0.6101 -0.0671
 4345SOL    HW124497   2.513   3.074   6.937 -0.4193  0.7885  0.0105
 4345SOL    HW224498   2.519   2.925   6.928 -0.6958  0.1106  0.7393
 4346SOL     OW24499   0.239   4.119   9.145  0.2494 -0.9806 -0.4603
 4346SOL    HW124500   0.245   4.214   9.154  0.0760 -0.8250 -2.0081
 4346SOL    HW224501   0.326   4.094   9.177  0.1522 -0.3311  0.3281
 4347SOL     OW24502   2.274   0.816   0.694  0.8389  0.0579 -0.0748
 4347SOL    HW124503   2.342   0.883   0.700 -0.0704  0.9706  0.0155
 4347SOL    HW224504   2.300   0.775   0.611 -0.6162 -1.8481  0.4048
 4348SOL     OW24505   1.202   4.010   4.783 -0.2140  0.8825  0.2010
 4348SOL    HW124506   1.119   3.971   4.811  0.2600 -0.4092 -0.1692
 4348SOL    HW224507   1.176   4.101   4.773  1.5048  1.1452 -1.9038
 4349SOL     OW24508   3.873   2.529   4.005  0.0949 -0.8022 -0.1773
 4349SOL    HW124509   3.796   2.494   4.048 -0.5675 -0.1580 -0.8285
 4349SOL    HW224510   3.945   2.491   4.056  0.4771  0.1494  0.0008
 4350SOL     OW24511   3.006   3.797   0.807  0.4420 -0.2895  0.3395
 4350SOL    HW124512   3.065   3.800   0.731  0.5703 -1.5192  0.3787
 4350SOL    HW224513   2.999   3.703   0.826 -0.9120 -0.1771  0.4122
 4351SOL     OW24514   1.417   2.676  14.651 -0.1578  0.2605  0.0361
 4351SOL    HW124515   1.408   2.768  14.625 -2.0619 -0.2748 -1.1830
 4351SOL    HW224516   1.487   2.651  14.590 -1.5204 -0.3546 -1.2786
 4352SOL     OW24517   3.622   1.488  16.648  0.4284  0.2348 -0.5792
 4352SOL    HW124518   3.701   1.447  16.683 -0.1826  0.2189  0.7623
 4352SOL    HW224519   3.586   1.410  16.605  2.4767 -1.3444  0.5599
 4353SOL     OW24520   3.936   1.936   7.396 -0.2952  0.2252  0.1657
 4353SOL    HW124521   3.863   1.903   7.345  1.4981 -1.6466 -1.1756
 4353SOL    HW224522   3.919   1.906   7.485 -1.1327 -3.0642 -1.1297
 4354SOL     OW24523   2.171   2.584  16.700 -0.1051 -0.0416 -0.2348
 4354SOL    HW124524   2.098   2.591  16.639  1.3540  2.3563 -1.6638
 4354SOL    HW224525   2.125   2.607  16.781  0.3638 -0.8234  0.2548
 4355SOL     OW24526   3.426   2.484  13.606 -0.1750  0.4503  0.3114
 4355SOL    HW124527   3.449   2.393  13.587  3.4722  0.5887  3.9189
 4355SOL    HW224528   3.504   2.511  13.654  0.2460 -3.5946  1.8729
 4356SOL     OW24529   3.729   1.971   0.489  0.4394  0.2429 -0.4380
 4356SOL    HW124530   3.702   2.011   0.571 -2.0681 -0.1104 -1.1050
 4356SOL    HW224531   3.642   1.945   0.459  1.2451 -1.8077 -1.0112
 4357SOL     OW24532   0.375   2.896   6.493  0.0191 -0.0433  0.3816
 4357SOL    HW124533   0.393   2.883   6.400  0.3917  1.6590  0.2100
 4357SOL    HW224534   0.378   2.805   6.523  0.5697  0.4098  1.7244
 4358SOL     OW24535   4.344   4.659   2.737 -0.4604  0.2192 -0.8090
 4358SOL    HW124536   4.414   4.602   2.768  1.1578  0.8904 -3.2198
 4358SOL    HW224537   4.335   4.615   2.653 -3.0301  0.2507 -0.5527
 4359SOL     OW24538   1.872   3.984   9.842 -0.1062  0.3757 -0.4872
 4359SOL    HW124539   1.864   3.973   9.748 -3.7333  0.6013 -0.1826
 4359SOL    HW224540   1.879   3.891   9.863  1.4267  0.2390 -1.6207
 4360SOL     OW24541   3.423   3.371   4.899  0.7882 -0.4276  0.0400
 4360SOL    HW124542   3.498   3.376   4.959  2.5465  0.6831 -2.2604
 4360SOL    HW224543   3.404   3.460   4.869 -1.6006 -1.0662 -0.3619
 4361SOL     OW24544   1.136   2.633   4.120 -0.1109 -0.5579 -0.1805
 4361SOL    HW124545   1.065   2.676   4.073  0.1790 -0.9572 -0.9863
 4361SOL    HW224546   1.212   2.639   4.063 -0.6856  3.0783 -0.5356
 4362SOL     OW24547   4.505   2.965  13.496  0.1835  1.2064  0.3030
 4362SOL    HW124548   4.510   2.871  13.514 -0.7677  1.5806  2.5384
 4362SOL    HW224549   4.526   2.967  13.403 -1.2467  0.8523 -0.0255
 4363SOL     OW24550   1.151   4.667  12.511 -0.0530  0.5952  0.2681
 4363SOL    HW124551   1.230   4.654  12.458  0.6176  0.7292  1.2335
 4363SOL    HW224552   1.090   4.622  12.452  0.2097  1.0863 -0.3772
 4364SOL     OW24553   2.093   4.099   8.539 -0.2346  0.2224  0.3070
 4364SOL    HW124554   2.155   4.117   8.468  0.1569  0.6214  0.7500
 4364SOL    HW224555   2.097   4.004   8.540  0.0668  0.2530  1.4288
 4365SOL     OW24556   1.506   4.226  13.108 -0.2785 -0.2077  0.3516
 4365SOL    HW124557   1.592   4.242  13.068 -1.2231 -0.1482 -1.6718
 4365SOL    HW224558   1.529   4.201  13.197  1.3015 -0.4563 -0.1338
 4366SOL     OW24559   0.883   2.405  15.291  0.2052 -0.0869  0.1075
 4366SOL    HW124560   0.912   2.410  15.200  0.3240  0.6583  0.1826
 4366SOL    HW224561   0.799   2.361  15.280  1.1383 -1.3981 -1.6637
 4367SOL     OW24562   3.538   3.906  15.953 -0.0351 -0.3050 -0.0737
 4367SOL    HW124563   3.455   3.899  15.906 -0.4454  1.9544  0.3025
 4367SOL    HW224564   3.519   3.848  16.027  0.7749 -0.3080  0.1353
 4368SOL     OW24565   3.060   0.713   6.264  0.0351 -0.0491  0.1258
 4368SOL    HW124566   3.013   0.690   6.345 -0.2837 -1.4911 -0.4795
 4368SOL    HW224567   3.058   0.809   6.274  1.2192  0.0370 -0.4813
 4369SOL     OW24568   0.143   3.569   5.832  0.0592 -0.1626  0.0027
 4369SOL    HW124569   0.106   3.533   5.913  2.9921 -0.2297  1.3159
 4369SOL    HW224570   0.188   3.492   5.797  0.2794 -1.1859  2.5055
 4370SOL     OW24571   4.291   0.186   7.886  0.3653  0.2290  0.0922
 4370SOL    HW124572   4.265   0.232   7.966 -0.3084  0.2809 -0.1584
 4370SOL    HW224573   4.353   0.247   7.847  1.0329  0.8252  2.0685
 4371SOL     OW24574   1.308   1.170  16.416 -0.1377  0.1999 -0.4745
 4371SOL    HW124575   1.292   1.155  16.323  1.9969 -1.3230 -0.6132
 4371SOL    HW224576   1.384   1.115  16.437  0.3385  2.2944  3.3155
 4372SOL     OW24577   0.419   3.677  14.460 -0.3281 -0.5216 -0.0940
 4372SOL    HW124578   0.340   3.731  14.462  0.6270  0.9270 -1.5697
 4372SOL    HW224579   0.435   3.680  14.554 -0.4437  1.9896 -0.1510
 4373SOL     OW24580   1.305   2.911   9.448 -0.6033 -0.2607  0.2828
 4373SOL    HW124581   1.373   2.876   9.506  0.7383  0.9133 -0.5656
 4373SOL    HW224582   1.360   2.941   9.376  0.4113  1.4302  1.7820
 4374SOL     OW24583   1.721   0.913   2.261  0.0772 -0.0132 -0.2786
 4374SOL    HW124584   1.743   0.840   2.203  1.4136 -0.4288  0.7515
 4374SOL    HW224585   1.743   0.991   2.210 -1.4309 -0.2361 -1.2531
 4375SOL     OW24586   1.389   1.065  12.048 -0.3491  0.0146  0.8760
 4375SOL    HW124587   1.477   1.038  12.076 -0.6041 -1.8397 -0.0856
 4375SOL    HW224588   1.373   1.150  12.088 -2.6652  0.0959 -0.2400
 4376SOL     OW24589   1.286   2.714   7.642 -0.5750 -0.4391  0.0878
 4376SOL    HW124590   1.244   2.800   7.649  0.2120 -0.1800  1.5572
 4376SOL    HW224591   1.359   2.738   7.699  0.9100 -1.9407 -1.1770
 4377SOL     OW24592   2.645   4.541   8.014  0.0157 -0.0581  0.3021
 4377SOL    HW124593   2.581   4.487   7.968 -0.1205  1.0628 -0.8291
 4377SOL    HW224594   2.640   4.623   7.964  1.2043 -0.2168 -0.0814
 4378SOL     OW24595   0.956   3.520   1.883  0.3502  0.7744 -0.4395
 4378SOL    HW124596   0.892   3.507   1.813  0.3562 -1.8724  0.0312
 4378SOL    HW224597   0.925   3.598   1.928  1.7029  1.1704 -0.1801
 4379SOL     OW24598   1.867   1.930  10.223 -0.1149  0.0685  0.4130
 4379SOL    HW124599   1.799   1.871  10.253 -0.0691  0.0937  0.5650
 4379SOL    HW224600   1.942   1.885  10.262  0.9558  1.2799 -0.2273
 4380SOL     OW24601   2.773   3.964   7.532 -0.0812 -0.4283  0.2748
 4380SOL    HW124602   2.759   4.051   7.495 -1.7976 -0.5653  0.6085
 4380SOL    HW224603   2.689   3.936   7.568 -0.9938  3.4278  1.1855
 4381SOL     OW24604   4.061   3.997   7.875  0.6377 -0.0881  0.7297
 4381SOL    HW124605   4.075   3.963   7.786  0.2795  0.2304  0.5504
 4381SOL    HW224606   4.151   4.010   7.905  0.3432  0.9604  1.1715
 4382SOL     OW24607   0.968   4.194   8.366  0.0223 -0.1819  0.4315
 4382SOL    HW124608   0.928   4.280   8.355  1.5011  0.1450 -2.3652
 4382SOL    HW224609   0.924   4.163   8.445 -0.2540  0.0680  0.3763
 4383SOL     OW24610   0.132   0.516  13.575 -0.1880  0.0045  0.5368
 4383SOL    HW124611   0.062   0.473  13.526  1.6922 -0.9102 -1.3600
 4383SOL    HW224612   0.126   0.466  13.656 -1.0078  1.4954  1.3714
 4384SOL     OW24613   2.799   3.430   7.584 -0.6319  0.6382 -0.2735
 4384SOL    HW124614   2.858   3.472   7.521 -0.1357  1.9143  1.0605
 4384SOL    HW224615   2.852   3.364   7.628 -0.9756  0.1578 -0.5776
 4385SOL     OW24616   0.068   2.478   9.585 -0.0232  0.0596 -0.0192
 4385SOL    HW124617   0.162   2.469   9.601 -0.6407 -0.6447  3.1621
 4385SOL    HW224618   0.051   2.572   9.598  1.6377  0.4162 -0.4108
 4386SOL     OW24619   2.597   2.230   8.706  0.9139  0.1493  0.1276
 4386SOL    HW124620   2.615   2.321   8.729 -2.9557  0.9583  0.0109
 4386SOL    HW224621   2.670   2.179   8.740  1.0174  0.8064  0.8752
 4387SOL     OW24622   0.551   2.583   9.260 -0.6723  0.6102 -0.3173
 4387SOL    HW124623   0.556   2.522   9.187 -2.3532 -0.1530  0.1911
 4387SOL    HW224624   0.488   2.647   9.227 -1.5061 -0.5809 -1.0087
 4388SOL     OW24625   2.795   4.590   4.049 -0.2053 -0.4718 -0.5241
 4388SOL    HW124626   2.812   4.646   4.125  0.4740 -0.6633 -0.5400
 4388SOL    HW224627   2.750   4.647   3.986  0.7532 -0.4698 -1.2005
 4389SOL     OW24628   3.195   3.130  16.684  0.1659 -0.0037 -0.5338
 4389SOL    HW124629   3.285   3.109  16.660 -0.2184 -0.4955 -1.5022
 4389SOL    HW224630   3.186   3.129  16.779 -2.0208 -3.2334 -0.8076
 4390SOL     OW24631   2.828   1.570   8.264 -0.3757  0.2410 -0.3491
 4390SOL    HW124632   2.884   1.494   8.246 -0.3174 -0.2655  1.8889
 4390SOL    HW224633   2.876   1.604   8.340 -2.0996 -0.7471  1.1890
 4391SOL     OW24634   4.569   3.805   4.783 -0.1910 -0.7581  0.5688
 4391SOL    HW124635   4.567   3.836   4.873  3.2424 -0.9411  0.7012
 4391SOL    HW224636   4.563   3.710   4.796  0.8537 -0.7269  1.3151
 4392SOL     OW24637   1.178   3.715   3.349  0.4981  0.3651 -1.1637
 4392SOL    HW124638   1.085   3.708   3.369  0.6273  0.0342 -0.6854
 4392SOL    HW224639   1.213   3.664   3.422 -0.9047  0.6691 -0.2903
 4393SOL     OW24640   1.837   1.926   7.422 -0.1506 -0.0267  0.0311
 4393SOL    HW124641   1.803   2.015   7.410 -0.3238 -0.3610 -1.9766
 4393SOL    HW224642   1.892   1.916   7.344 -0.9639  0.0889 -0.5537
 4394SOL     OW24643   1.331   1.993   4.839 -0.5877  0.3642  0.1427
 4394SOL    HW124644   1.256   1.954   4.884  0.6644 -2.9823 -0.6084
 4394SOL    HW224645   1.383   1.918   4.807 -1.5019 -0.3143  0.2353
 4395SOL     OW24646   0.493   3.635  17.282  0.2432 -0.7626 -0.8917
 4395SOL    HW124647   0.454   3.555  17.318 -0.9365  0.0502 -0.3907
 4395SOL    HW224648   0.438   3.706  17.313  1.5383 -1.0869  2.0895
 4396SOL     OW24649   1.221   2.169   2.917 -0.0548  0.1613  0.1807
 4396SOL    HW124650   1.306   2.172   2.873  0.9527 -1.1416  2.0353
 4396SOL    HW224651   1.227   2.226   2.993 -0.2952  0.2307  0.1450
 4397SOL     OW24652   0.338   2.530   6.901 -0.1266 -0.0297 -0.6938
 4397SOL    HW124653   0.292   2.470   6.843 -1.8141 -1.0778  1.7459
 4397SOL    HW224654   0.366   2.469   6.970 -0.8708  0.7560  0.3055
 4398SOL     OW24655   3.909   3.128  14.224 -0.4399 -0.1525  0.5462
 4398SOL    HW124656   3.929   3.044  14.183  2.0180  1.8280 -2.3283
 4398SOL    HW224657   3.829   3.108  14.272 -0.2259 -1.5343  0.3150
 4399SOL     OW24658   2.178   3.849   5.677 -0.3419 -0.1244  0.1253
 4399SOL    HW124659   2.164   3.868   5.584 -0.0207 -1.0405 -0.1123
 4399SOL    HW224660   2.084   3.840   5.694 -0.5533 -1.5882 -1.8307
 4400SOL     OW24661   4.687   1.057   9.922 -0.3378  0.0612  0.1833
 4400SOL    HW124662   0.004   1.139   9.897 -0.3386  0.0642  0.1921
 4400SOL    HW224663   0.039   1.000   9.923  1.2765  2.2855  3.3415
 4401SOL     OW24664   4.461   2.557   3.229  0.7047  0.0342 -0.2562
 4401SOL    HW124665   4.373   2.568   3.191  0.4370  0.3835  0.4798
 4401SOL    HW224666   4.451   2.592   3.317 -1.3820 -1.4813  0.1205
 4402SOL     OW24667   2.305   0.589   9.466  0.2065 -0.4084  0.6535
 4402SOL    HW124668   2.253   0.565   9.543  0.1269 -2.1252  0.0697
 4402SOL    HW224669   2.232   0.615   9.410 -0.0326 -3.4992 -0.4619
 4403SOL     OW24670   2.616   0.668   7.006 -0.2681  0.1299 -0.1303
 4403SOL    HW124671   2.562   0.625   6.940 -0.3970 -2.2368  1.4972
 4403SOL    HW224672   2.704   0.633   6.991 -0.8611 -1.0615 -0.8415
 4404SOL     OW24673   3.703   0.269  14.599 -0.0077  0.0762 -0.1741
 4404SOL    HW124674   3.721   0.179  14.626  1.4147  1.1160  2.3950
 4404SOL    HW224675   3.611   0.254  14.582 -0.6010 -0.4676  3.3636
 4405SOL     OW24676   3.751   0.044   4.669  0.4445 -0.5651 -0.1925
 4405SOL    HW124677   3.737   0.136   4.648 -2.2560 -1.2318 -1.3161
 4405SOL    HW224678   3.741   0.013   4.578 -0.6155  1.3981 -0.7313
 4406SOL     OW24679   3.281   1.601  11.034  0.3418 -0.0933  0.0141
 4406SOL    HW124680   3.336   1.679  11.046 -0.6399  0.4857  0.6943
 4406SOL    HW224681   3.325   1.546  11.098 -1.3923 -1.7330 -0.2243
 4407SOL     OW24682   3.335   4.387   7.075  0.0243  0.1516  0.2945
 4407SOL    HW124683   3.329   4.301   7.117  0.1968  0.0842  0.1792
 4407SOL    HW224684   3.430   4.401   7.074 -0.1350  1.2671  0.6231
 4408SOL     OW24685   1.119   3.842   6.728 -0.3105  0.3580  0.0723
 4408SOL    HW124686   1.035   3.852   6.683 -0.3674 -0.6952 -0.0515
 4408SOL    HW224687   1.129   3.749   6.710  1.4141  0.3804  0.8851
 4409SOL     OW24688   0.786   0.652   3.848 -0.9717  0.3019 -0.2189
 4409SOL    HW124689   0.810   0.589   3.780  0.8079  0.2195  0.4883
 4409SOL    HW224690   0.832   0.614   3.923 -1.2079 -2.0385 -1.2728
 4410SOL     OW24691   3.442   3.011   2.981  0.1194  0.3795  0.5100
 4410SOL    HW124692   3.472   3.033   2.893  0.0953 -0.8737  0.1938
 4410SOL    HW224693   3.477   2.923   2.994  0.4320  0.2726 -1.0419
 4411SOL     OW24694   1.462   0.790   0.284  0.1321  0.2978 -0.1698
 4411SOL    HW124695   1.492   0.702   0.305 -0.9286 -0.7265 -2.9285
 4411SOL    HW224696   1.409   0.799   0.363  1.2360  2.2645  0.3301
 4412SOL     OW24697   1.086   3.891   8.460  0.1404  0.2857 -0.1461
 4412SOL    HW124698   1.148   3.828   8.422  0.7632  0.8331 -0.0341
 4412SOL    HW224699   1.142   3.934   8.525  0.0856 -0.0844  0.1449
 4413SOL     OW24700   1.931   3.117   8.861  0.0566  0.3872  0.0605
 4413SOL    HW124701   1.998   3.175   8.826 -0.6310  1.4981  0.5951
 4413SOL    HW224702   1.914   3.158   8.946 -0.9566 -1.0356  0.5412
 4414SOL     OW24703   0.431   4.032   1.256 -0.6024  0.1724  0.1022
 4414SOL    HW124704   0.419   4.108   1.200 -0.2498 -0.3231 -0.6564
 4414SOL    HW224705   0.488   4.066   1.326  0.7236 -0.6385 -0.5654
 4415SOL     OW24706   3.085   4.219   2.264  0.0289 -0.0875  0.2975
 4415SOL    HW124707   3.157   4.266   2.306  2.1294 -1.5534 -1.6162
 4415SOL    HW224708   3.039   4.292   2.223  2.6909  1.4623  0.0615
 4416SOL     OW24709   3.411   2.860  12.457 -0.3344  0.5630  0.4314
 4416SOL    HW124710   3.459   2.928  12.409  0.8917 -0.6493 -0.0475
 4416SOL    HW224711   3.332   2.859  12.404 -0.3265  1.4208  0.4048
 4417SOL     OW24712   0.754   3.096   5.813 -0.3879 -0.2723 -0.0542
 4417SOL    HW124713   0.783   3.163   5.875 -0.7905  0.3428 -0.5318
 4417SOL    HW224714   0.690   3.050   5.868  0.2560 -0.0718  0.8652
 4418SOL     OW24715   2.630   4.633   2.968  0.6899 -0.0017 -0.3123
 4418SOL    HW124716   2.564   4.569   2.944 -1.0064  1.3657  0.7012
 4418SOL    HW224717   2.658   4.663   2.882 -1.9186  0.2324 -1.0604
 4419SOL     OW24718   2.584   1.214   9.367 -0.2020  0.5557  0.6725
 4419SOL    HW124719   2.541   1.298   9.385  0.0860  0.6260  1.0321
 4419SOL    HW224720   2.550   1.207   9.278 -0.4597  0.7942  0.7529
 4420SOL     OW24721   3.655   2.456   7.477 -0.2501  0.1810  0.2628
 4420SOL    HW124722   3.575   2.438   7.427 -1.3889 -2.5886  3.0703
 4420SOL    HW224723   3.711   2.400   7.423 -2.5794 -2.0014  0.1179
 4421SOL     OW24724   3.138   1.488   4.916 -0.2689  0.0579 -0.1584
 4421SOL    HW124725   3.176   1.551   4.854  0.1033  1.0939  1.1119
 4421SOL    HW224726   3.072   1.447   4.861 -0.2723  0.4122 -0.4175
 4422SOL     OW24727   4.685   3.179   2.556 -0.1230 -0.0496 -1.1237
 4422SOL    HW124728   4.600   3.197   2.516 -0.0542  0.1964 -1.1598
 4422SOL    HW224729   0.009   3.260   2.546 -0.4424  0.4693  1.5285
 4423SOL     OW24730   4.064   2.524   9.462 -0.1278  0.5823 -0.4414
 4423SOL    HW124731   4.091   2.600   9.512 -2.5677  1.8396 -1.0431
 4423SOL    HW224732   4.007   2.479   9.524  1.0081  0.7910  0.7671
 4424SOL     OW24733   2.937   1.206   1.582  0.2185 -0.1068 -0.1971
 4424SOL    HW124734   2.911   1.141   1.517  1.0159 -0.1926 -0.4316
 4424SOL    HW224735   3.010   1.156   1.619  1.1416 -0.1503 -2.0589
 4425SOL     OW24736   4.002   1.490   7.282 -0.0360  0.5168  0.2872
 4425SOL    HW124737   4.001   1.411   7.337 -1.4646  0.2624 -0.1051
 4425SOL    HW224738   3.955   1.557   7.332 -1.9339 -0.9644  0.4508
 4426SOL     OW24739   2.898   1.213  14.962  0.0149  0.1602  0.0002
 4426SOL    HW124740   2.807   1.190  14.979  0.2441  0.6469  1.8235
 4426SOL    HW224741   2.904   1.176  14.873  0.2829 -0.9341  0.4772
 4427SOL     OW24742   2.198   1.663   5.181  0.0520  0.5766 -0.3852
 4427SOL    HW124743   2.213   1.660   5.276  1.4031 -0.2096 -0.6163
 4427SOL    HW224744   2.103   1.676   5.185 -0.3287 -1.8144 -1.4370
 4428SOL     OW24745   4.359   0.041  10.444  0.0402  0.3545 -0.1316
 4428SOL    HW124746   4.430   0.106  10.445 -0.4819  0.9299  0.5453
 4428SOL    HW224747   4.410   4.690  10.415  0.2422  0.0720  0.9594
 4429SOL     OW24748   3.052   2.355   2.945  0.5150  0.0422  0.1619
 4429SOL    HW124749   3.014   2.333   2.860 -1.9817  0.7352  1.0794
 4429SOL    HW224750   3.144   2.342   2.921  0.1649  0.7373 -1.5920
 4430SOL     OW24751   3.568   0.659   0.358 -0.3723  0.9678  0.2037
 4430SOL    HW124752   3.613   0.628   0.436 -0.2011  0.9267  0.0895
 4430SOL    HW224753   3.620   0.737   0.340 -0.0529  0.5547 -0.6912
 4431SOL     OW24754   0.839   4.379  14.737 -0.2972  0.1578  0.0705
 4431SOL    HW124755   0.812   4.455  14.789 -0.0022  0.5436 -0.3410
 4431SOL    HW224756   0.925   4.353  14.769  0.6555  2.1586 -0.8762
 4432SOL     OW24757   0.578   3.056   9.856  0.1934 -0.1759 -0.6908
 4432SOL    HW124758   0.502   3.002   9.831 -0.4551 -0.2106  1.3423
 4432SOL    HW224759   0.647   3.012   9.807  0.2101  0.2776 -1.0682
 4433SOL     OW24760   2.080   0.216   0.022 -0.5335  0.0255 -0.4303
 4433SOL    HW124761   2.026   0.216   0.101  1.4838 -0.6863  0.9353
 4433SOL    HW224762   2.052   0.130  17.690 -0.9152  0.3232 -0.9040
 4434SOL     OW24763   4.193   3.726   7.521 -0.0701 -0.2882  0.1419
 4434SOL    HW124764   4.206   3.816   7.551 -2.9887  0.5924 -1.2370
 4434SOL    HW224765   4.222   3.674   7.596 -0.8892 -0.1012  0.5867
 4435SOL     OW24766   3.729   1.750   5.102  0.0411  0.6077  0.4275
 4435SOL    HW124767   3.747   1.818   5.038  3.1745  0.4248  1.1180
 4435SOL    HW224768   3.809   1.698   5.098  0.0775  0.5452  1.9813
 4436SOL     OW24769   2.591   0.663  13.913  0.0262 -0.7568 -0.4816
 4436SOL    HW124770   2.642   0.689  13.837 -1.4110 -1.0568 -1.5398
 4436SOL    HW224771   2.504   0.650  13.875 -0.5334 -0.6990  0.7541
 4437SOL     OW24772   2.192   3.625   8.853  0.4613  0.1650  0.2802
 4437SOL    HW124773   2.110   3.632   8.902 -0.3087 -0.1731 -0.9547
 4437SOL    HW224774   2.234   3.702   8.890 -1.0708  0.2675  1.7800
 4438SOL     OW24775   1.046   2.023   6.430 -0.6597  1.0288 -0.1539
 4438SOL    HW124776   1.100   2.022   6.509 -0.7244 -1.3894 -0.1296
 4438SOL    HW224777   0.962   2.000   6.470  1.2480 -0.6862  2.8709
 4439SOL     OW24778   4.493   2.638  16.399 -0.3201 -0.3172  0.8546
 4439SOL    HW124779   4.541   2.633  16.317 -1.6728  3.2174 -0.1331
 4439SOL    HW224780   4.460   2.549  16.412  0.8182 -0.9691 -0.7809
 4440SOL     OW24781   0.213   1.327  10.170 -0.1967 -0.5904 -0.7560
 4440SOL    HW124782   0.172   1.400  10.217  0.6367 -1.5475  1.4693
 4440SOL    HW224783   0.197   1.257  10.234  1.7548 -2.1071 -1.9313
 4441SOL     OW24784   2.517   0.748  16.234  0.5627  0.7419  0.0882
 4441SOL    HW124785   2.606   0.714  16.225  0.2355  0.7012 -2.9237
 4441SOL    HW224786   2.474   0.750  16.149 -3.6928  0.3159  2.2519
 4442SOL     OW24787   1.068   0.835   2.700  0.2644  0.5767 -0.0090
 4442SOL    HW124788   0.975   0.824   2.721  0.7425 -2.2287  0.6433
 4442SOL    HW224789   1.059   0.907   2.638 -0.1741 -1.2214 -2.0147
 4443SOL     OW24790   1.884   0.181   1.280 -0.4297  0.4638  0.4538
 4443SOL    HW124791   1.963   0.156   1.327  0.3996  0.8278 -0.7548
 4443SOL    HW224792   1.834   0.235   1.342 -1.7024 -2.0627  1.6331
 4444SOL     OW24793   2.896   0.446   0.772 -0.2263 -0.1211  0.1917
 4444SOL    HW124794   2.863   0.483   0.690 -1.8019 -1.8310  0.0374
 4444SOL    HW224795   2.990   0.438   0.756 -0.9983 -0.3077 -4.2528
 4445SOL     OW24796   3.150   2.593   5.349 -0.0674 -0.6886 -0.1407
 4445SOL    HW124797   3.160   2.607   5.255  1.3162 -0.2435  0.0854
 4445SOL    HW224798   3.056   2.574   5.350 -0.1908 -0.1697 -2.9090
 4446SOL     OW24799   0.879   4.429   8.784 -0.2860  0.4413  0.0785
 4446SOL    HW124800   0.814   4.434   8.854 -0.8610 -3.4444 -0.1798
 4446SOL    HW224801   0.858   4.511   8.739 -1.4225 -1.4647 -2.8450
 4447SOL     OW24802   2.364   3.830   5.228 -0.2924 -0.5713  0.0537
 4447SOL    HW124803   2.293   3.821   5.164 -0.9759 -2.7128  1.1294
 4447SOL    HW224804   2.364   3.926   5.234  1.6410 -0.5207 -1.0690
 4448SOL     OW24805   1.121   4.579   8.810 -0.5264 -0.1465 -0.0319
 4448SOL    HW124806   1.183   4.545   8.746 -0.6950  0.0294 -0.2862
 4448SOL    HW224807   1.039   4.535   8.787  0.8189 -1.6557 -1.9764
 4449SOL     OW24808   3.506   0.472   1.921 -0.6477  0.3494  0.0592
 4449SOL    HW124809   3.570   0.523   1.870 -1.3897  1.3162  0.0874
 4449SOL    HW224810   3.443   0.455   1.851 -2.1259  0.9046  1.2631
 4450SOL     OW24811   0.729   1.988   0.678 -0.2458 -0.0736  0.1077
 4450SOL    HW124812   0.713   2.069   0.727  1.9737  0.1082  0.5039
 4450SOL    HW224813   0.640   1.952   0.686 -1.3727  3.2073  2.5518
 4451SOL     OW24814   2.605   4.325   8.439 -0.3674 -0.2790 -0.3121
 4451SOL    HW124815   2.534   4.298   8.497  0.1117 -1.7923 -0.4529
 4451SOL    HW224816   2.573   4.291   8.356 -1.0837 -1.2505  0.3610
 4452SOL     OW24817   1.009   1.834   2.723 -0.6241 -0.1684 -0.1057
 4452SOL    HW124818   1.011   1.884   2.804 -0.5482 -1.2194  0.5341
 4452SOL    HW224819   0.958   1.887   2.661  1.2640  1.3205 -0.3899
 4453SOL     OW24820   3.062   2.813   0.107  0.5758  0.0228  0.0155
 4453SOL    HW124821   2.968   2.825   0.093 -0.0185 -2.6819  1.5324
 4453SOL    HW224822   3.092   2.903   0.118 -0.7420  0.4631  0.0332
 4454SOL     OW24823   1.692   0.369   3.820  0.3143  0.3269  0.0981
 4454SOL    HW124824   1.759   0.341   3.883  0.1331 -0.3484 -0.0075
 4454SOL    HW224825   1.747   0.429   3.770  1.4735 -1.0249 -0.2834
 4455SOL     OW24826   2.879   4.377  17.439  0.0340 -0.6504 -0.2746
 4455SOL    HW124827   2.818   4.337  17.378  0.4014  0.7858 -1.5775
 4455SOL    HW224828   2.943   4.309  17.460 -1.4586 -1.7402  0.7286
 4456SOL     OW24829   4.120   0.604   5.764 -0.2301  0.4512 -1.0155
 4456SOL    HW124830   4.130   0.519   5.720 -0.8308 -0.0687 -0.1417
 4456SOL    HW224831   4.109   0.659   5.686  1.2798 -0.0949 -1.6094
 4457SOL     OW24832   3.295   2.848   4.671  0.6321 -0.6013  0.2303
 4457SOL    HW124833   3.216   2.829   4.622  1.4699 -0.3165 -1.2345
 4457SOL    HW224834   3.272   2.788   4.742 -0.6289 -0.3929 -0.0170
 4458SOL     OW24835   4.117   1.197   6.860 -0.2749  0.3778  0.4600
 4458SOL    HW124836   4.072   1.144   6.926  0.5062  3.1079  3.1782
 4458SOL    HW224837   4.125   1.123   6.800  2.7981 -1.6793  3.3686
 4459SOL     OW24838   1.163   2.833   4.309  0.5273 -0.0004  0.6265
 4459SOL    HW124839   1.145   2.767   4.242 -0.2874  0.6970  0.1582
 4459SOL    HW224840   1.199   2.905   4.259 -0.8480  0.6943  0.6239
 4460SOL     OW24841   3.000   2.809   5.703 -0.0569  0.2882  0.2959
 4460SOL    HW124842   3.031   2.838   5.617  0.7918  1.0959  0.8671
 4460SOL    HW224843   3.028   2.882   5.759  0.5599 -0.5906  1.1203
 4461SOL     OW24844   0.760   4.049  14.603  0.1279  0.4062  0.1110
 4461SOL    HW124845   0.853   4.032  14.584 -0.2227 -2.4278  0.9563
 4461SOL    HW224846   0.731   3.959  14.592 -1.3223  0.7102  1.4632
 4462SOL     OW24847   4.249   1.214   7.868  0.3222 -0.0557 -0.1754
 4462SOL    HW124848   4.169   1.249   7.907 -1.4639 -4.3705  0.1124
 4462SOL    HW224849   4.237   1.124   7.899 -0.9456  0.8659  1.9688
 4463SOL     OW24850   0.846   1.955   3.648  0.4311 -0.0632 -0.4455
 4463SOL    HW124851   0.806   2.015   3.711 -0.0999 -0.6926 -0.1733
 4463SOL    HW224852   0.766   1.922   3.607  0.2412  2.2979 -1.9406
 4464SOL     OW24853   4.576   3.867   5.030 -0.1555 -0.1644  0.3384
 4464SOL    HW124854   4.598   3.867   5.123 -2.2557  0.9369  0.8376
 4464SOL    HW224855   4.505   3.931   5.024  0.8187  0.8057 -0.8644
 4465SOL     OW24856   2.532   0.266  17.594 -0.0649 -0.0736  0.3164
 4465SOL    HW124857   2.525   0.215  17.675 -2.9487 -0.0916  0.0497
 4465SOL    HW224858   2.617   0.309  17.603  0.6062 -1.3289 -0.1436
 4466SOL     OW24859   3.434   0.844  10.584 -0.2896 -0.2421 -0.2615
 4466SOL    HW124860   3.373   0.914  10.607 -0.5853 -1.6202  3.1305
 4466SOL    HW224861   3.508   0.904  10.573 -0.8507 -0.0235 -2.9123
 4467SOL     OW24862   1.047   3.506   4.996 -0.3451  0.2842 -0.2926
 4467SOL    HW124863   1.074   3.440   5.060  1.0422 -0.9264 -2.1174
 4467SOL    HW224864   1.110   3.488   4.926  0.8225 -0.8486  1.0416
 4468SOL     OW24865   0.197   0.231   1.442  0.7298  0.1193 -0.0428
 4468SOL    HW124866   0.271   0.219   1.501  1.3461 -1.0946 -1.0551
 4468SOL    HW224867   0.241   0.278   1.370  0.9299  0.8477  0.5568
 4469SOL     OW24868   2.978   0.208   3.109  0.1115  0.6614  0.0191
 4469SOL    HW124869   3.005   0.143   3.045  0.3453 -1.4843  2.3177
 4469SOL    HW224870   2.910   0.249   3.056  0.2389 -1.5694 -1.8391
 4470SOL     OW24871   2.595   3.564   6.257  0.7171 -0.0060  0.2612
 4470SOL    HW124872   2.611   3.643   6.205 -1.1278 -0.6864 -1.3174
 4470SOL    HW224873   2.672   3.507   6.249 -1.1304 -2.0620 -2.6783
 4471SOL     OW24874   1.526   1.718  11.076 -0.2090 -0.2992  0.2430
 4471SOL    HW124875   1.567   1.789  11.125  0.8694 -2.5638  2.5969
 4471SOL    HW224876   1.450   1.699  11.130 -1.6053  2.0858 -0.8735
 4472SOL     OW24877   0.937   0.046   9.047  0.4884  0.7409 -0.0397
 4472SOL    HW124878   0.973   0.070   8.962  0.0264  0.7997 -0.2209
 4472SOL    HW224879   1.013   4.723   9.081 -0.1127  1.2024  1.9828
 4473SOL     OW24880   4.417   2.833   4.678  0.1478  0.4419  0.3996
 4473SOL    HW124881   4.407   2.763   4.742 -1.2797 -0.8210 -1.2071
 4473SOL    HW224882   4.465   2.902   4.724  1.3799 -0.0962 -0.0907
 4474SOL     OW24883   3.919   1.221   4.876  0.0629  0.4764  0.0347
 4474SOL    HW124884   4.008   1.205   4.847  1.1113  2.6270  2.0549
 4474SOL    HW224885   3.906   1.292   4.813  3.2786  0.5997 -0.4785
 4475SOL     OW24886   1.562   2.855   8.093  0.2101  0.2782 -0.0753
 4475SOL    HW124887   1.630   2.920   8.077  0.6256 -0.5360 -1.6585
 4475SOL    HW224888   1.497   2.916   8.128  1.0864  0.8399  0.5761
 4476SOL     OW24889   0.214   2.418   4.924  0.3128 -0.2964 -0.1108
 4476SOL    HW124890   0.207   2.386   4.834  1.3287 -2.3401  0.5347
 4476SOL    HW224891   0.281   2.363   4.965  0.7259  0.4415  0.2030
 4477SOL     OW24892   2.938   3.248   0.554 -0.6016  0.3852  0.1106
 4477SOL    HW124893   2.853   3.281   0.581 -1.0836 -0.9199  0.1689
 4477SOL    HW224894   2.971   3.200   0.630  3.0494  0.3041 -1.5128
 4478SOL     OW24895   3.999   1.231   3.460  0.3190  0.4258 -0.1077
 4478SOL    HW124896   4.066   1.185   3.510 -0.4954 -1.1055 -0.4030
 4478SOL    HW224897   3.946   1.270   3.529 -1.1100  1.9726 -2.0804
 4479SOL     OW24898   2.325   1.264   5.755  0.2969  0.4720  0.3853
 4479SOL    HW124899   2.329   1.305   5.668 -1.9140 -0.2572 -0.0635
 4479SOL    HW224900   2.321   1.170   5.738 -0.2407  0.7742 -1.2102
 4480SOL     OW24901   3.416   4.223  10.704 -0.0423  0.5881 -0.3735
 4480SOL    HW124902   3.436   4.297  10.761 -1.3465 -0.8066  1.8813
 4480SOL    HW224903   3.445   4.253  10.617 -0.1679  1.8290  0.0127
 4481SOL     OW24904   4.277   1.143  12.218  0.4401 -0.8109 -0.7290
 4481SOL    HW124905   4.359   1.134  12.169  0.8802  0.4724 -0.2233
 4481SOL    HW224906   4.208   1.157  12.153 -0.7044  0.8091  0.8128
 4482SOL     OW24907   0.195   0.422   6.899  0.3448 -0.0044  0.1357
 4482SOL    HW124908   0.266   0.468   6.943  0.0577 -0.4567  1.0808
 4482SOL    HW224909   0.168   0.485   6.833 -1.9894 -0.4228  0.6749
 4483SOL     OW24910   4.250   4.118   7.284  0.7975  0.0179  0.1147
 4483SOL    HW124911   4.218   4.084   7.367  2.2122  2.5997  1.7206
 4483SOL    HW224912   4.342   4.130   7.308  0.5489  1.7951  0.2151
 4484SOL     OW24913   1.940   1.324   9.123  0.7942 -0.0881 -0.2984
 4484SOL    HW124914   1.846   1.314   9.112  0.7524  1.4543 -1.3348
 4484SOL    HW224915   1.940   1.342   9.217  1.1233  0.1350 -0.3404
 4485SOL     OW24916   0.446   4.601  12.870  0.1433 -0.0749 -0.1123
 4485SOL    HW124917   0.508   4.586  12.798  1.5235 -0.2117  1.1104
 4485SOL    HW224918   0.380   4.658  12.830  1.2358 -1.6259 -4.1425
 4486SOL     OW24919   4.384   4.482  12.435 -0.4463 -0.0995 -0.6827
 4486SOL    HW124920   4.446   4.472  12.507  1.3309 -0.2969 -2.2132
 4486SOL    HW224921   4.422   4.414  12.379 -1.1547 -0.6895 -0.4487
 4487SOL     OW24922   2.933   0.742   8.844  0.2852  0.0888 -0.1936
 4487SOL    HW124923   3.023   0.725   8.873 -0.4177  0.2405  2.0405
 4487SOL    HW224924   2.941   0.731   8.749  0.5203  0.3480 -0.2049
 4488SOL     OW24925   4.704   2.182   3.067 -0.4688  0.4841 -0.0683
 4488SOL    HW124926   4.674   2.155   2.980  2.1481  2.2625 -1.5045
 4488SOL    HW224927   4.625   2.198   3.120 -1.0084 -2.9058  0.1850
 4489SOL     OW24928   2.681   2.630   7.853 -0.3719  0.1845  0.0837
 4489SOL    HW124929   2.760   2.664   7.894 -1.0018  1.4660  0.2314
 4489SOL    HW224930   2.639   2.602   7.935  0.1905  0.8619  0.6084
 4490SOL     OW24931   4.248   2.817   4.467  0.7974 -0.1556 -0.5257
 4490SOL    HW124932   4.299   2.851   4.541 -3.1882  0.5696  1.8798
 4490SOL    HW224933   4.232   2.893   4.412  1.4038 -1.3343 -2.3237
 4491SOL     OW24934   0.879   3.200  15.993  0.1333  0.2275  0.1347
 4491SOL    HW124935   0.843   3.234  16.075  0.6228  0.4540  0.2579
 4491SOL    HW224936   0.962   3.158  16.017  0.7862  0.2562 -2.0380
 4492SOL     OW24937   1.122   2.555  13.842 -0.1688  0.2882  0.3180
 4492SOL    HW124938   1.053   2.568  13.907 -1.3900 -1.6239 -0.6055
 4492SOL    HW224939   1.169   2.483  13.884  2.9114  1.0570 -1.8281
 4493SOL     OW24940   3.704   0.852   7.599 -0.6614  0.1782  0.2649
 4493SOL    HW124941   3.688   0.760   7.618 -2.0019  0.3624  0.0103
 4493SOL    HW224942   3.777   0.842   7.537 -0.7737 -0.0294  0.1677
 4494SOL     OW24943   0.500   3.184   1.954  0.4419  0.1518  0.0855
 4494SOL    HW124944   0.523   3.157   1.865  0.3757 -3.6627  1.2143
 4494SOL    HW224945   0.581   3.228   1.980  0.2739  0.3251  0.3041
 4495SOL     OW24946   0.688   1.197   5.838  0.1456 -0.2824 -0.2845
 4495SOL    HW124947   0.739   1.252   5.896 -1.2800  0.6118  0.1316
 4495SOL    HW224948   0.727   1.193   5.750 -0.2811 -0.8660 -0.4490
 4496SOL     OW24949   3.626   1.294   8.181  0.3524  0.6774 -0.0865
 4496SOL    HW124950   3.653   1.228   8.118  2.0592 -1.5410  2.9536
 4496SOL    HW224951   3.660   1.270   8.267 -0.4551  0.8477  0.2830
 4497SOL     OW24952   0.415   2.002  12.169  0.3428  0.0592 -0.3422
 4497SOL    HW124953   0.491   2.058  12.155  0.4311 -0.2213 -0.9758
 4497SOL    HW224954   0.370   2.013  12.086 -0.4167 -0.6297 -0.0310
 4498SOL     OW24955   3.555   0.178   6.104 -0.5206  0.1306  0.2619
 4498SOL    HW124956   3.589   0.266   6.086  1.2738  0.0510  3.1679
 4498SOL    HW224957   3.525   0.148   6.018  3.2090  0.8646 -1.3249
 4499SOL     OW24958   0.660   1.038   7.359  0.0762 -0.1559 -0.4770
 4499SOL    HW124959   0.632   1.007   7.446 -0.4050 -0.6881 -0.8247
 4499SOL    HW224960   0.750   1.006   7.351  0.4554  0.2587  1.8803
 4500SOL     OW24961   3.513   4.635  13.603 -0.5110  0.0010 -0.0810
 4500SOL    HW124962   3.421   4.651  13.625 -0.0912  2.2832 -0.0066
 4500SOL    HW224963   3.505   4.644  13.508 -1.6477  0.3156  0.0417
 4501SOL     OW24964   2.535   0.131   6.662  0.2479  0.0139 -0.1918
 4501SOL    HW124965   2.458   0.078   6.678 -1.4323  1.8359 -2.2199
 4501SOL    HW224966   2.550   0.164   6.750 -2.7100 -0.1407  0.3698
 4502SOL     OW24967   3.367   2.457   4.406 -0.3124 -0.5719  0.1339
 4502SOL    HW124968   3.320   2.533   4.372 -3.4358 -2.5880 -0.0069
 4502SOL    HW224969   3.423   2.441   4.330  0.1309  1.1839  0.0847
 4503SOL     OW24970   0.501   2.704   2.710  0.3844 -0.0718  0.2384
 4503SOL    HW124971   0.424   2.663   2.670  0.1698  0.8889 -0.3176
 4503SOL    HW224972   0.475   2.711   2.802 -0.1588 -2.1053  0.2559
 4504SOL     OW24973   2.556   0.136   4.814 -0.3962  0.5208  1.0348
 4504SOL    HW124974   2.539   0.095   4.729  2.7755 -0.1370  0.7024
 4504SOL    HW224975   2.545   0.229   4.798 -1.9259  0.2585  0.6262
 4505SOL     OW24976   2.045   1.895  10.600 -0.1552 -0.7725 -0.5235
 4505SOL    HW124977   2.133   1.931  10.593 -0.7317  1.0279  1.3963
 4505SOL    HW224978   2.059   1.811  10.644 -3.5149 -0.2522  1.5658
 4506SOL     OW24979   3.115   1.489   9.979 -0.4068  0.7581  0.1921
 4506SOL    HW124980   3.188   1.540  10.015  2.0663 -1.2844 -1.9703
 4506SOL    HW224981   3.109   1.426  10.050 -0.6040  0.6136  0.0466
 4507SOL     OW24982   2.060   4.336  13.826 -0.6439  0.5292  0.3350
 4507SOL    HW124983   2.082   4.294  13.743  2.3301  0.5991  1.0704
 4507SOL    HW224984   2.102   4.422  13.825 -2.8145  1.5917  1.0137
 4508SOL     OW24985   2.301   2.497   7.534 -0.4080  0.3123  0.5561
 4508SOL    HW124986   2.261   2.411   7.544  0.3259 -0.0119  0.7478
 4508SOL    HW224987   2.393   2.469   7.528 -0.4741 -0.1658  1.7020
 4509SOL     OW24988   0.696   0.543   8.151 -0.3522 -0.2749 -0.4740
 4509SOL    HW124989   0.744   0.544   8.234  2.4498  2.2155 -2.1372
 4509SOL    HW224990   0.612   0.514   8.186 -0.2103  2.9001  2.5277
 4510SOL     OW24991   2.430   2.587   2.932  0.4904 -0.2368 -0.3212
 4510SOL    HW124992   2.435   2.681   2.948 -2.2527 -0.1508  0.1237
 4510SOL    HW224993   2.488   2.558   3.002  0.2103 -0.0676 -0.0195
 4511SOL     OW24994   3.589   1.510   8.770 -0.4279  0.1491  0.1695
 4511SOL    HW124995   3.515   1.540   8.717 -0.9069  0.5014  1.0396
 4511SOL    HW224996   3.587   1.580   8.835 -1.8045 -0.5122  0.8629
 4512SOL     OW24997   4.671   2.994   0.896  0.2199  0.0475 -0.0676
 4512SOL    HW124998   4.634   2.908   0.879 -0.6469 -0.0285  2.1014
 4512SOL    HW224999   4.605   3.025   0.958  0.8486 -0.3272  0.7892
 4513SOL     OW25000   3.877   2.133   7.693  0.8474 -0.3908 -0.2125
 4513SOL    HW125001   3.858   2.226   7.678 -0.0964 -0.3969  0.9917
 4513SOL    HW225002   3.919   2.135   7.779  2.4248  0.6793 -1.0043
 4514SOL     OW25003   4.401   0.370   4.663  0.0691  0.2417 -0.1197
 4514SOL    HW125004   4.452   0.371   4.744  0.7069 -0.8873 -0.5110
 4514SOL    HW225005   4.389   0.277   4.645 -0.6854  0.6130 -1.5659
 4515SOL     OW25006   4.217   2.380   3.834  0.4220  0.0199  0.4687
 4515SOL    HW125007   4.197   2.386   3.741 -1.2628 -0.7717  0.7696
 4515SOL    HW225008   4.226   2.285   3.847 -1.9947 -0.5470 -1.8428
 4516SOL     OW25009   2.054   2.820  16.009 -0.4153 -0.1871  0.1313
 4516SOL    HW125010   2.013   2.906  16.023  0.4715  0.2590 -0.0215
 4516SOL    HW225011   1.981   2.759  15.997 -0.1544 -0.4719  0.0067
 4517SOL     OW25012   1.135   1.257   0.046 -0.0418  0.3794 -0.5485
 4517SOL    HW125013   1.199   1.233   0.112 -0.6976  0.2869  0.0609
 4517SOL    HW225014   1.167   1.331  17.696  0.2137 -0.0294 -0.9960
 4518SOL     OW25015   2.898   4.486  12.030 -0.1577 -0.0899 -0.0190
 4518SOL    HW125016   2.871   4.547  12.099 -0.6342 -0.6895  0.3264
 4518SOL    HW225017   2.876   4.543  11.956  0.4208  2.4017  1.7263
 4519SOL     OW25018   1.528   4.091   1.772 -0.7365  0.1890  0.1248
 4519SOL    HW125019   1.504   4.152   1.842 -1.6414 -1.1732  0.9894
 4519SOL    HW225020   1.441   4.068   1.739 -1.2146 -0.6266  1.9477
 4520SOL     OW25021   4.311   4.629  14.130 -0.1386 -0.0804  0.0475
 4520SOL    HW125022   4.218   4.649  14.131  0.6048  3.2856  0.8895
 4520SOL    HW225023   4.343   4.717  14.149  0.7561 -0.5025  0.5073
 4521SOL     OW25024   1.783   4.503   3.884 -0.2626  0.3634 -0.2096
 4521SOL    HW125025   1.779   4.499   3.979  4.0307 -0.4366 -0.0641
 4521SOL    HW225026   1.831   4.585   3.877 -1.2005  0.9608  0.3064
 4522SOL     OW25027   4.710   0.524  13.048  0.1337  0.2742  0.4883
 4522SOL    HW125028   0.016   0.582  12.978 -1.4605  0.5581  0.0323
 4522SOL    HW225029   4.721   0.581  13.124 -0.2938  1.9877 -0.7284
 4523SOL     OW25030   3.955   0.364   7.060  0.6190 -0.0553 -0.0645
 4523SOL    HW125031   3.956   0.272   7.034  1.9761  0.4782 -1.9238
 4523SOL    HW225032   3.862   0.378   7.074  0.7084 -0.9216  1.4056
 4524SOL     OW25033   0.497   1.218   7.632  0.3552  0.0190  0.5127
 4524SOL    HW125034   0.559   1.239   7.562  1.4125  1.9967  2.0385
 4524SOL    HW225035   0.424   1.278   7.617 -1.4326 -1.9960  1.2243
 4525SOL     OW25036   1.226   3.480   0.151 -0.3023  0.1928  0.1749
 4525SOL    HW125037   1.296   3.474   0.216  0.3377 -1.2695 -0.6664
 4525SOL    HW225038   1.146   3.494   0.202  1.1999  1.4539  2.1777
 4526SOL     OW25039   1.024   2.691   6.325 -0.2700  0.0020  0.4910
 4526SOL    HW125040   0.986   2.625   6.266 -1.9593  1.5859 -0.1776
 4526SOL    HW225041   1.103   2.643   6.347 -0.3306 -0.3486 -0.0558
 4527SOL     OW25042   3.807   4.654   8.845  0.3892 -0.5250 -0.2819
 4527SOL    HW125043   3.777   4.708   8.918 -0.0042 -0.5735 -0.4065
 4527SOL    HW225044   3.873   4.710   8.804 -1.7784  2.0750 -0.2453
 4528SOL     OW25045   1.353   2.217  12.483 -0.2759  0.8155 -0.2705
 4528SOL    HW125046   1.435   2.211  12.532  0.1460  1.1252 -0.9511
 4528SOL    HW225047   1.291   2.167  12.537  1.0936  0.8907  1.3731
 4529SOL     OW25048   2.327   2.805   6.566  0.2159  0.1003 -0.3635
 4529SOL    HW125049   2.390   2.854   6.619  0.1364  0.6961 -0.8145
 4529SOL    HW225050   2.315   2.727   6.621  1.5828  0.3419  0.2773
 4530SOL     OW25051   0.689   3.728   9.129  0.4952 -0.2008  0.1579
 4530SOL    HW125052   0.683   3.815   9.169 -1.5161  0.1777 -1.0040
 4530SOL    HW225053   0.740   3.679   9.193 -0.9777  0.7528  2.0464
 4531SOL     OW25054   0.857   0.532   7.929 -0.7016 -0.3997  0.1345
 4531SOL    HW125055   0.801   0.578   7.866 -0.3465  0.6478  0.5869
 4531SOL    HW225056   0.800   0.536   8.006  0.0579 -0.2882  0.6877
 4532SOL     OW25057   2.760   0.072   3.889  0.3405  0.3081 -0.2069
 4532SOL    HW125058   2.822   0.114   3.949  1.0378  0.8605 -1.3133
 4532SOL    HW225059   2.700   0.142   3.861  0.1046 -0.1944 -0.9494
 4533SOL     OW25060   1.241   3.142   9.747 -0.0165 -0.2015 -0.1750
 4533SOL    HW125061   1.289   3.092   9.813 -0.4338 -0.0403  0.2518
 4533SOL    HW225062   1.292   3.111   9.672  2.6655 -0.9346  1.9779
 4534SOL     OW25063   4.520   2.751   0.884 -0.6052 -0.0942  0.5633
 4534SOL    HW125064   4.485   2.664   0.906 -0.1698 -0.2019  0.8535
 4534SOL    HW225065   4.467   2.814   0.932 -2.3010 -0.9032 -0.2575
 4535SOL     OW25066   0.534   0.777   3.846 -0.2559 -0.2317 -0.3110
 4535SOL    HW125067   0.622   0.740   3.860  0.1657  0.6251 -0.7264
 4535SOL    HW225068   0.499   0.772   3.935  0.4414  0.4024 -0.0062
 4536SOL     OW25069   2.050   2.644   6.207  0.2329 -0.4731 -0.1666
 4536SOL    HW125070   2.062   2.566   6.261  0.5780 -1.3997 -1.5772
 4536SOL    HW225071   2.123   2.693   6.244 -0.1431  0.1905 -0.2932
 4537SOL     OW25072   2.490   3.844   2.632 -0.1781  0.4024  0.1725
 4537SOL    HW125073   2.557   3.902   2.667  0.3994 -0.4151  0.4081
 4537SOL    HW225074   2.490   3.848   2.537  0.9068  0.9548  0.1917
 4538SOL     OW25075   0.211   3.512   6.952  0.0873 -0.5861 -0.1839
 4538SOL    HW125076   0.304   3.489   6.944  0.2523 -0.6532  1.9819
 4538SOL    HW225077   0.209   3.565   6.872  1.8284 -1.7518 -0.9929
 4539SOL     OW25078   3.565   3.403   5.134  0.1936 -0.0942  0.2221
 4539SOL    HW125079   3.654   3.434   5.120 -0.0167  0.4994  0.1897
 4539SOL    HW225080   3.580   3.334   5.199  0.3838  0.0538  0.3343
 4540SOL     OW25081   2.052   2.208   4.559  0.1367  0.0381 -0.2196
 4540SOL    HW125082   2.067   2.171   4.645 -0.0943 -0.0793 -0.2301
 4540SOL    HW225083   2.063   2.303   4.568  3.2815 -0.2928 -0.5011
 4541SOL     OW25084   3.785   3.265  15.123 -0.2795 -0.3181 -0.2487
 4541SOL    HW125085   3.781   3.183  15.172 -0.6226  0.1840  0.5692
 4541SOL    HW225086   3.877   3.287  15.132 -0.4391  0.2995 -0.1227
 4542SOL     OW25087   1.153   4.276   3.606 -0.6658 -0.1637  0.0262
 4542SOL    HW125088   1.216   4.229   3.550 -0.2477 -0.5171  0.7958
 4542SOL    HW225089   1.200   4.359   3.622  0.9896 -0.7575 -1.6349
 4543SOL     OW25090   1.651   2.962  13.487 -0.1027 -0.8291  0.2988
 4543SOL    HW125091   1.585   3.023  13.519  0.7852  0.0711  0.4275
 4543SOL    HW225092   1.728   3.019  13.476 -0.8798  0.1598  0.0024
 4544SOL     OW25093   1.033   3.968  14.558 -0.1913 -0.4034  0.2790
 4544SOL    HW125094   1.105   4.002  14.505 -2.4401  2.1502 -1.1700
 4544SOL    HW225095   1.003   3.903  14.494  0.8812  0.7912 -1.4460
 4545SOL     OW25096   2.982   4.441  14.679  0.9416  0.2577  0.6849
 4545SOL    HW125097   3.029   4.523  14.662  0.3618  0.5300  0.4240
 4545SOL    HW225098   2.933   4.462  14.758 -0.3138 -0.0403 -0.0231
 4546SOL     OW25099   4.180   0.982   2.022  0.3417  0.0444 -1.0008
 4546SOL    HW125100   4.175   0.908   1.963  1.0126 -0.7668 -0.0384
 4546SOL    HW225101   4.257   1.028   1.988  0.2440  1.1898  0.3225
 4547SOL     OW25102   2.156   3.961   2.898 -0.0994  0.6773 -0.1056
 4547SOL    HW125103   2.248   3.938   2.912 -0.6829 -1.4497  0.2345
 4547SOL    HW225104   2.144   4.017   2.975 -0.1487 -1.9946  1.8745
 4548SOL     OW25105   3.185   4.106   7.056 -0.4186 -0.0284 -0.5552
 4548SOL    HW125106   3.141   4.042   7.111 -2.2175  2.3878  0.8422
 4548SOL    HW225107   3.266   4.063   7.029 -0.1901  0.5416 -0.7887
 4549SOL     OW25108   2.932   3.271   3.453 -0.0901 -0.5471 -0.5470
 4549SOL    HW125109   2.983   3.227   3.384  1.7023  1.5808 -0.6077
 4549SOL    HW225110   2.913   3.358   3.416 -0.6310 -0.2264  0.4850
 4550SOL     OW25111   0.307   0.823   3.295  0.2045 -1.2727  0.3130
 4550SOL    HW125112   0.366   0.890   3.329 -2.4044  1.9788 -1.6249
 4550SOL    HW225113   0.370   0.767   3.249 -0.0767 -0.7263 -0.7563
 4551SOL     OW25114   0.169   2.367   3.216 -0.2907 -0.0666 -0.5037
 4551SOL    HW125115   0.128   2.323   3.141 -2.0587  0.4780  0.1469
 4551SOL    HW225116   0.216   2.293   3.254  1.5036  0.8052 -1.0397
 4552SOL     OW25117   1.759   0.492   8.242 -0.4664 -0.6009 -0.4293
 4552SOL    HW125118   1.762   0.581   8.206 -0.1968 -0.6110 -0.4346
 4552SOL    HW225119   1.845   0.483   8.283 -0.0608 -0.4084 -1.2537
 4553SOL     OW25120   3.584   2.823   9.762  0.0865 -0.5954  0.0327
 4553SOL    HW125121   3.491   2.820   9.741 -0.0035  1.5472  0.0938
 4553SOL    HW225122   3.592   2.916   9.785 -0.8542 -0.3282 -0.7372
 4554SOL     OW25123   1.349   3.143   2.751  0.4623  0.0362  0.6520
 4554SOL    HW125124   1.366   3.170   2.841 -0.3250  0.7522  0.5828
 4554SOL    HW225125   1.307   3.222   2.717  2.9178  0.1221 -2.1460
 4555SOL     OW25126   4.003   4.001   3.005 -0.2152 -0.0458 -0.2020
 4555SOL    HW125127   3.924   3.946   3.000  0.1017 -0.6290  1.2035
 4555SOL    HW225128   4.057   3.952   2.944  0.3203  2.9551 -2.1468
 4556SOL     OW25129   4.223   1.162   4.842 -0.1124  0.1750  0.1024
 4556SOL    HW125130   4.242   1.256   4.831 -0.6541  0.5933  2.6749
 4556SOL    HW225131   4.268   1.114   4.773  2.7372 -0.5095  2.4304
 4557SOL     OW25132   4.502   2.717  11.319 -0.0123  1.1002 -0.1850
 4557SOL    HW125133   4.441   2.666  11.372 -1.7033  1.5078 -1.7545
 4557SOL    HW225134   4.457   2.718  11.234  1.0834  0.0498 -0.7822
 4558SOL     OW25135   1.940   2.070   2.225  0.2258 -0.4508 -0.3654
 4558SOL    HW125136   1.860   2.046   2.272 -0.1529  2.7723  0.6584
 4558SOL    HW225137   1.904   2.104   2.143 -0.7184  0.6752  0.5075
 4559SOL     OW25138   1.684   2.852  16.772  0.3008  0.5023 -0.6962
 4559SOL    HW125139   1.606   2.824  16.819  0.1682  0.3872 -0.9856
 4559SOL    HW225140   1.710   2.933  16.816 -3.1974  1.4250 -0.3340
 4560SOL     OW25141   3.533   4.674  10.502 -0.1864 -0.7869  0.0839
 4560SOL    HW125142   3.607   4.629  10.462 -1.2854 -3.0671  0.5893
 4560SOL    HW225143   3.583   0.017  10.548 -2.2036 -0.1628  1.3590
 4561SOL     OW25144   4.106   3.979   3.378  0.0636 -0.1274  0.2473
 4561SOL    HW125145   4.172   4.022   3.432 -0.7415  0.8075  0.4813
 4561SOL    HW225146   4.026   4.017   3.412 -0.5492 -2.0731  0.9500
 4562SOL     OW25147   2.732   2.520   4.212 -0.0103  0.3586  0.4738
 4562SOL    HW125148   2.714   2.530   4.118  0.8767  1.1408  0.3868
 4562SOL    HW225149   2.652   2.482   4.246 -0.5677  0.1388 -1.0641
 4563SOL     OW25150   3.838   2.748   5.170  0.2333 -0.1758 -0.2725
 4563SOL    HW125151   3.798   2.802   5.102  0.1557 -0.1118 -0.1757
 4563SOL    HW225152   3.840   2.660   5.131  0.4924  0.2150 -1.1345
 4564SOL     OW25153   0.139   3.960   3.831  0.0895 -0.2735 -0.4071
 4564SOL    HW125154   0.047   3.935   3.820  0.5796 -2.5060  0.6409
 4564SOL    HW225155   0.146   3.999   3.918  2.6505  0.2264 -0.8426
 4565SOL     OW25156   2.814   4.599   1.334  0.3559 -0.3045 -0.5690
 4565SOL    HW125157   2.871   4.580   1.259 -0.5659  1.0821 -1.6128
 4565SOL    HW225158   2.847   4.543   1.404 -3.2491 -2.1644 -0.3509
 4566SOL     OW25159   0.834   3.036   8.578  0.1404 -0.4375 -0.5126
 4566SOL    HW125160   0.886   2.992   8.511  1.5468 -0.6374  0.7298
 4566SOL    HW225161   0.799   3.104   8.520  0.0726 -0.8082 -0.9064
 4567SOL     OW25162   3.971   2.705   6.282 -0.1682  0.2069 -0.0047
 4567SOL    HW125163   3.974   2.706   6.378 -0.9232  2.2101  0.0148
 4567SOL    HW225164   4.063   2.682   6.268 -1.1122 -1.9722 -2.4509
 4568SOL     OW25165   2.205   1.356  17.273  0.2681 -0.1739 -0.3876
 4568SOL    HW125166   2.140   1.367  17.203  0.0425 -2.8870 -0.6154
 4568SOL    HW225167   2.269   1.422  17.248  0.9134 -0.0604  1.6038
 4569SOL     OW25168   1.439   4.205   7.485  0.2113 -0.1359 -0.0056
 4569SOL    HW125169   1.476   4.263   7.419 -0.6711  3.4782  2.6427
 4569SOL    HW225170   1.348   4.206   7.455 -0.5402 -0.7276  2.2730
 4570SOL     OW25171   0.870   2.548   3.521  0.6276 -0.2670 -0.3597
 4570SOL    HW125172   0.842   2.629   3.480 -0.3681  0.5381  1.9131
 4570SOL    HW225173   0.788   2.503   3.541 -0.6039  1.3295 -1.8793
 4571SOL     OW25174   3.008   0.937   7.888  0.2625 -0.1640  0.1841
 4571SOL    HW125175   3.033   0.914   7.977  0.6042 -1.3870 -0.2239
 4571SOL    HW225176   3.082   0.901   7.839  0.9254  3.0260 -1.1225
 4572SOL     OW25177   4.347   0.983  17.128 -0.5969  0.0151  0.0813
 4572SOL    HW125178   4.309   1.064  17.161 -2.2891  0.0760 -2.0352
 4572SOL    HW225179   4.355   1.007  17.036  1.6957 -0.0419  0.2649
 4573SOL     OW25180   2.247   4.548   8.725 -0.0048  0.0620  0.1474
 4573SOL    HW125181   2.271   4.605   8.798  0.8658  0.7475 -0.6886
 4573SOL    HW225182   2.198   4.610   8.672  0.0644 -0.7735 -0.8853
 4574SOL     OW25183   2.855   1.409   7.332 -0.1560 -0.2571 -0.0179
 4574SOL    HW125184   2.771   1.447   7.358 -0.7728 -0.2913 -2.0287
 4574SOL    HW225185   2.917   1.482   7.336  0.9824 -1.2275  0.2656
 4575SOL     OW25186   0.374   4.107   7.618  0.1892  0.5571  0.0029
 4575SOL    HW125187   0.347   4.043   7.685  0.5373 -1.0450 -1.3901
 4575SOL    HW225188   0.469   4.097   7.624 -0.0216 -2.9643 -2.4693
 4576SOL     OW25189   3.906   2.773  15.065  0.6533 -1.3838 -0.0901
 4576SOL    HW125190   3.845   2.831  15.018  3.1759  0.3582 -1.1840
 4576SOL    HW225191   3.977   2.833  15.086 -0.1460 -0.3730 -0.2775
 4577SOL     OW25192   0.061   2.908   4.022  0.0119 -0.1458  0.4672
 4577SOL    HW125193   0.102   2.826   3.995  1.5763  1.3596 -1.6487
 4577SOL    HW225194   0.013   2.919   3.940 -0.2893 -0.0933  0.6506
 4578SOL     OW25195   4.307   0.070   6.398 -0.4590  0.6497  0.1681
 4578SOL    HW125196   4.365   0.082   6.473 -0.6962 -0.6906  0.5693
 4578SOL    HW225197   4.297   4.700   6.386 -2.4238  0.5616  2.6036
 4579SOL     OW25198   3.532   0.085  14.248 -0.4999  0.2808  0.0676
 4579SOL    HW125199   3.476   0.026  14.298 -0.3121 -1.7280 -2.0972
 4579SOL    HW225200   3.613   0.068  14.297 -1.3667  1.8174  2.0061
 4580SOL     OW25201   4.274   3.373   6.461  0.1526  0.5204 -0.2085
 4580SOL    HW125202   4.361   3.409   6.441  0.2334  0.9286  0.9104
 4580SOL    HW225203   4.288   3.342   6.550 -5.1567  0.5259  0.6282
 4581SOL     OW25204   4.634   2.006  11.464  0.0307 -0.1223  0.6631
 4581SOL    HW125205   4.594   2.009  11.551  2.2121 -1.6328  1.7224
 4581SOL    HW225206   4.677   2.091  11.455  2.3716 -1.4059 -0.2518
 4582SOL     OW25207   4.415   3.193  13.647  0.4894  0.4660 -0.0834
 4582SOL    HW125208   4.455   3.125  13.593  2.6576  0.5185  1.4564
 4582SOL    HW225209   4.402   3.151  13.732 -3.8349  1.8466 -0.0696
 4583SOL     OW25210   2.983   3.252  15.205 -0.0845 -0.2952  0.4897
 4583SOL    HW125211   2.968   3.214  15.119 -0.8794  0.2849  0.3694
 4583SOL    HW225212   3.077   3.267  15.198 -0.1386 -0.5756 -0.8010
 4584SOL     OW25213   4.084   4.285   9.503 -0.2290 -0.3807  0.2926
 4584SOL    HW125214   4.136   4.253   9.577  1.1325  0.6882 -0.1997
 4584SOL    HW225215   4.124   4.370   9.484  1.7189 -1.6368 -1.1977
 4585SOL     OW25216   4.098   3.853   8.635 -0.0430  0.9523 -0.1622
 4585SOL    HW125217   4.016   3.806   8.651  1.9784 -2.1864  1.0942
 4585SOL    HW225218   4.160   3.802   8.688 -0.8162  0.0508 -0.1172
 4586SOL     OW25219   3.154   2.004   1.322 -0.0774  0.0930  0.1959
 4586SOL    HW125220   3.073   1.998   1.373 -0.4318  0.8868 -0.2831
 4586SOL    HW225221   3.191   1.916   1.333 -0.6392 -0.1194  0.4408
 4587SOL     OW25222   1.029   4.054  17.259  0.0676 -0.0060 -0.0664
 4587SOL    HW125223   1.072   3.979  17.218 -1.5928 -0.8028 -0.3138
 4587SOL    HW225224   0.980   4.022  17.335 -0.7157 -0.0362 -0.5938
 4588SOL     OW25225   1.880   3.169  17.427  0.3025 -0.2753 -0.6566
 4588SOL    HW125226   1.879   3.128  17.340 -0.3975 -0.7926 -0.4065
 4588SOL    HW225227   1.806   3.231  17.425 -0.4344 -1.1419 -0.1638
 4589SOL     OW25228   2.051   3.297   3.841  0.0998 -0.0310  0.5871
 4589SOL    HW125229   1.957   3.308   3.832  0.1636 -0.1767 -0.2743
 4589SOL    HW225230   2.073   3.376   3.791  1.4072 -0.7976 -0.0788
 4590SOL     OW25231   0.550   3.086   8.875  0.0429  0.0485  0.2532
 4590SOL    HW125232   0.529   3.046   8.791  1.3209 -1.0316  0.4417
 4590SOL    HW225233   0.636   3.044   8.886  0.5337  0.6844 -1.1429
 4591SOL     OW25234   3.442   2.753   6.631  0.4557 -0.4358  0.1555
 4591SOL    HW125235   3.536   2.737   6.643 -0.0094 -1.5850  2.1599
 4591SOL    HW225236   3.440   2.842   6.664  0.2210  0.3903 -2.0671
 4592SOL     OW25237   0.191   0.679   4.406 -0.6455  0.3487 -0.1698
 4592SOL    HW125238   0.168   0.759   4.453 -0.5087 -0.2964  0.9924
 4592SOL    HW225239   0.156   0.682   4.317  1.8059  1.5533 -1.0784
 4593SOL     OW25240   1.818   2.411   5.793  0.3316 -0.2997 -0.9252
 4593SOL    HW125241   1.898   2.441   5.751  1.2814  0.1559  1.1807
 4593SOL    HW225242   1.824   2.324   5.754  0.2318  0.0055 -1.6128
 4594SOL     OW25243   1.275   4.195   4.529 -0.2004 -0.2078 -0.0486
 4594SOL    HW125244   1.361   4.212   4.567  0.4033 -0.7138 -1.1850
 4594SOL    HW225245   1.307   4.165   4.444  1.0944 -0.5626  0.5635
 4595SOL     OW25246   3.447   2.953   4.000 -0.1214  0.1902 -0.0571
 4595SOL    HW125247   3.468   2.935   3.908  2.7650  1.8648  0.2408
 4595SOL    HW225248   3.533   2.940   4.040 -1.3573  0.0347  2.5456
 4596SOL     OW25249   4.605   2.081   5.004 -0.1422  0.1696 -0.5573
 4596SOL    HW125250   4.559   2.135   4.940  0.4311  1.1995 -0.0940
 4596SOL    HW225251   4.629   2.010   4.945  0.0701  0.1550 -0.4532
 4597SOL     OW25252   4.164   1.338   6.608  0.3535 -0.7056  0.3642
 4597SOL    HW125253   4.176   1.351   6.702 -1.6863  2.8586  0.1353
 4597SOL    HW225254   4.069   1.341   6.597  0.4751  0.0280 -0.4842
 4598SOL     OW25255   2.375   2.687   5.118 -0.0294 -0.1788 -0.5837
 4598SOL    HW125256   2.398   2.743   5.192  0.0719 -1.7999  0.6243
 4598SOL    HW225257   2.294   2.726   5.087 -1.3658 -0.8047  2.1113
 4599SOL     OW25258   2.270   1.884   1.018 -0.1307 -0.0204 -0.3147
 4599SOL    HW125259   2.214   1.950   0.975  1.0156 -0.6098 -2.7284
 4599SOL    HW225260   2.241   1.893   1.108 -2.5650 -0.9614 -1.0129
 4600SOL     OW25261   2.381   1.457   2.560  0.0149 -0.2477  0.1084
 4600SOL    HW125262   2.467   1.484   2.592  0.3216  0.7468 -1.5765
 4600SOL    HW225263   2.404   1.368   2.532  0.7828 -0.7149  2.2240
 4601SOL     OW25264   2.888   0.708  12.710  0.5488  0.0683 -0.2731
 4601SOL    HW125265   2.955   0.731  12.774  0.2804 -0.1526  0.0879
 4601SOL    HW225266   2.948   0.686  12.639 -0.6869  1.3583 -1.7283
 4602SOL     OW25267   3.952   0.820   7.054 -0.1688 -0.1265 -0.0076
 4602SOL    HW125268   4.025   0.793   7.111 -0.3536 -0.4022  0.0973
 4602SOL    HW225269   3.994   0.872   6.985  2.3762 -2.7548 -0.4106
 4603SOL     OW25270   0.888   4.633  16.654  0.1305 -0.1348  0.0104
 4603SOL    HW125271   0.912   4.706  16.711  0.4903  0.9313 -1.5179
 4603SOL    HW225272   0.972   4.611  16.614 -0.1559  1.7880 -1.6451
 4604SOL     OW25273   3.437   1.710  13.545  0.6461  0.2943  0.2139
 4604SOL    HW125274   3.354   1.755  13.558 -0.6770 -1.2800 -2.9121
 4604SOL    HW225275   3.439   1.712  13.450 -1.2022  0.3461  0.1813
 4605SOL     OW25276   0.978   4.227   9.697 -0.9247  0.4526 -0.0644
 4605SOL    HW125277   0.949   4.221   9.606  0.6914 -2.7622 -0.3771
 4605SOL    HW225278   1.063   4.181   9.697  0.5182  3.1269 -0.8423
 4606SOL     OW25279   2.042   3.961  11.448  0.0868 -0.7023  0.0369
 4606SOL    HW125280   2.006   3.924  11.529 -1.3212  1.8887  0.5759
 4606SOL    HW225281   1.958   3.993  11.414  1.5716  2.7201 -0.3778
 4607SOL     OW25282   3.095   0.068   7.609 -0.0606 -0.3149  0.2505
 4607SOL    HW125283   3.023   0.128   7.628 -0.0896  0.1504 -1.3025
 4607SOL    HW225284   3.153   0.122   7.555 -1.6049  0.2698 -0.8262
 4608SOL     OW25285   2.335   3.672   1.746  0.4150 -0.9090  0.2897
 4608SOL    HW125286   2.344   3.613   1.820  0.1145 -0.0225  1.0321
 4608SOL    HW225287   2.273   3.621   1.694  0.7434  1.2153 -2.1949
 4609SOL     OW25288   3.596   1.991   3.359  0.3203  0.1472  0.4775
 4609SOL    HW125289   3.682   1.992   3.318 -0.3702  0.4458 -0.9678
 4609SOL    HW225290   3.568   2.082   3.344  0.8611 -0.2649 -3.1072
 4610SOL     OW25291   2.960   0.312   4.349 -0.2878  0.2959 -0.5048
 4610SOL    HW125292   2.926   0.229   4.383 -0.5711  0.6380  0.0446
 4610SOL    HW225293   2.897   0.313   4.277 -1.5795  0.4186  0.6343
 4611SOL     OW25294   4.184   4.452  10.443  0.5746  0.1867  0.3937
 4611SOL    HW125295   4.099   4.415  10.464  1.2904 -1.7695 -0.1497
 4611SOL    HW225296   4.213   4.396  10.371  0.6986  0.3523  0.3138
 4612SOL     OW25297   1.742   3.175   6.760 -0.0319 -0.3080  0.3019
 4612SOL    HW125298   1.783   3.093   6.786 -1.7056 -1.2101  0.0977
 4612SOL    HW225299   1.656   3.176   6.802  0.0827  0.7972  0.4943
 4613SOL     OW25300   0.877   3.737   8.288  0.0393 -0.2028  0.0513
 4613SOL    HW125301   0.885   3.793   8.366 -0.7294  0.6507 -0.4720
 4613SOL    HW225302   0.863   3.808   8.225 -1.2054 -1.4020 -1.0197
 4614SOL     OW25303   0.284   4.201   0.985 -0.0127 -0.2209 -0.3537
 4614SOL    HW125304   0.249   4.235   0.902  2.0529 -2.4392 -2.1373
 4614SOL    HW225305   0.246   4.266   1.044  2.9347  1.4985 -0.3622
 4615SOL     OW25306   4.454   2.686   6.015 -0.1351  0.3607 -0.3850
 4615SOL    HW125307   4.455   2.750   6.085  0.9090  0.6250 -0.6282
 4615SOL    HW225308   4.430   2.740   5.940 -2.0446 -2.8162 -2.0546
 4616SOL     OW25309   2.553   4.154   0.615 -0.4004 -0.1186  0.0617
 4616SOL    HW125310   2.547   4.059   0.624 -1.9732 -0.1763 -1.6427
 4616SOL    HW225311   2.588   4.184   0.699 -0.1921 -3.0364  1.0164
 4617SOL     OW25312   1.599   1.774   8.578  0.6493  0.4115 -0.2649
 4617SOL    HW125313   1.503   1.778   8.581  0.7951  2.6251  0.7164
 4617SOL    HW225314   1.620   1.760   8.670  2.1483  2.3261 -0.3395
 4618SOL     OW25315   3.841   3.903   4.272 -0.2274  0.3165  0.9498
 4618SOL    HW125316   3.894   3.903   4.352  1.0110 -2.6267  0.1054
 4618SOL    HW225317   3.886   3.973   4.224 -0.7285 -0.6357 -0.8937
 4619SOL     OW25318   0.166   3.456   9.259  0.1735 -0.1480  0.4481
 4619SOL    HW125319   0.168   3.397   9.183 -1.1959  0.0602  0.2425
 4619SOL    HW225320   0.129   3.538   9.227  2.4234  0.8247  0.3580
 4620SOL     OW25321   2.597   4.386   4.613  0.7689 -0.4236  0.3112
 4620SOL    HW125322   2.629   4.305   4.653  2.2382 -0.2353 -0.4964
 4620SOL    HW225323   2.506   4.396   4.643  1.3444  0.3246  1.8262
 4621SOL     OW25324   2.795   1.497  10.522 -0.0970 -0.3458 -0.1199
 4621SOL    HW125325   2.791   1.442  10.444  0.5684 -1.7385  0.8418
 4621SOL    HW225326   2.751   1.576  10.490 -2.5859 -1.5389  0.3677
 4622SOL     OW25327   1.751   4.146  10.187 -0.6391 -0.5158  0.7947
 4622SOL    HW125328   1.680   4.083  10.203 -0.1168 -0.2819  4.0962
 4622SOL    HW225329   1.747   4.154  10.092  2.3285 -0.7107  0.6489
 4623SOL     OW25330   0.680   1.518   6.173  0.0824  0.9800 -0.3866
 4623SOL    HW125331   0.647   1.586   6.115 -0.5897  1.0585  0.0870
 4623SOL    HW225332   0.751   1.569   6.213  0.1726  0.1942  0.4683
 4624SOL     OW25333   0.857   1.659   6.361  0.1833 -0.1611 -0.3230
 4624SOL    HW125334   0.890   1.681   6.448 -0.5863 -0.6001  0.0801
 4624SOL    HW225335   0.898   1.576   6.339 -2.3214 -1.3560 -0.4456
 4625SOL     OW25336   0.381   0.850   2.571  0.7174  0.5547  0.0037
 4625SOL    HW125337   0.308   0.899   2.608 -0.5505 -2.5365  1.6601
 4625SOL    HW225338   0.331   0.810   2.500 -0.6477 -0.3764  1.4788
 4626SOL     OW25339   3.996   4.160   5.141 -0.2523 -0.4747  0.2571
 4626SOL    HW125340   3.971   4.183   5.052 -0.3244  0.4746  0.5299
 4626SOL    HW225341   3.911   4.124   5.166 -0.7682 -1.2689 -2.6832
 4627SOL     OW25342   2.076   1.858   5.960 -0.2431 -0.3272  0.2077
 4627SOL    HW125343   2.109   1.918   5.893  0.3514 -0.5432  0.3075
 4627SOL    HW225344   2.074   1.922   6.030 -2.3163 -1.3469  1.1044
 4628SOL     OW25345   3.267   4.111   3.747 -0.1198  0.5188 -0.2256
 4628SOL    HW125346   3.220   4.172   3.690 -0.3747  3.0243  2.7121
 4628SOL    HW225347   3.352   4.154   3.758 -0.6906  1.3713  0.7970
 4629SOL     OW25348   3.948   3.035   3.639 -0.3047  0.2537 -0.0334
 4629SOL    HW125349   4.026   3.010   3.688  0.5724 -1.1360 -2.1156
 4629SOL    HW225350   3.894   3.078   3.705  0.4324  1.8696 -0.4885
 4630SOL     OW25351   2.326   1.139   5.136  0.1566  0.0802  0.6054
 4630SOL    HW125352   2.399   1.199   5.121 -2.1362  2.5937 -0.5980
 4630SOL    HW225353   2.347   1.071   5.072 -1.4740  1.2936 -1.2297
 4631SOL     OW25354   3.993   1.159   7.127  0.4645 -0.2500  0.7465
 4631SOL    HW125355   4.007   1.241   7.174  0.6199  0.4836 -0.6082
 4631SOL    HW225356   3.904   1.132   7.152 -0.3350  0.4910 -1.3564
 4632SOL     OW25357   0.179   4.371   3.929  0.9320 -0.2099  0.4489
 4632SOL    HW125358   0.274   4.369   3.917  0.6275 -2.1016 -1.6033
 4632SOL    HW225359   0.173   4.278   3.953  0.4033 -0.3082 -0.0659
 4633SOL     OW25360   4.415   2.937  12.710  0.1102 -0.4251 -0.1516
 4633SOL    HW125361   4.463   3.008  12.752  1.1198 -1.4229  0.3857
 4633SOL    HW225362   4.468   2.858  12.722  3.6815  2.3287  2.1460
 4634SOL     OW25363   0.635   4.639   8.086  0.1539 -0.2510 -0.0872
 4634SOL    HW125364   0.596   4.605   8.166  1.6201  1.0074  1.1606
 4634SOL    HW225365   0.568   4.601   8.029 -1.7792  1.7450  0.8427
 4635SOL     OW25366   3.941   1.545   8.065  0.2363  0.2448  0.9689
 4635SOL    HW125367   3.846   1.549   8.055  0.2432 -3.8557 -0.3669
 4635SOL    HW225368   3.952   1.621   8.124  1.4648  1.5926 -0.9952
 4636SOL     OW25369   4.091   1.122   3.225 -0.6391 -0.4902 -0.4659
 4636SOL    HW125370   4.139   1.189   3.175  0.4772  0.3915  1.8156
 4636SOL    HW225371   4.071   1.173   3.303  2.7551 -0.1153  0.1520
 4637SOL     OW25372   3.114   1.487   3.656  0.1126 -0.5003 -0.4798
 4637SOL    HW125373   3.109   1.396   3.627  1.7404 -1.2817  1.6783
 4637SOL    HW225374   3.193   1.512   3.609  0.5670  0.2118  0.6590
 4638SOL     OW25375   1.166   3.294   6.497  0.4472 -0.2945  0.0662
 4638SOL    HW125376   1.183   3.284   6.591 -2.1497  1.5316  0.7347
 4638SOL    HW225377   1.214   3.222   6.457 -1.0999 -0.6968 -1.0878
 4639SOL     OW25378   3.524   3.681  13.863  0.0099  0.0073 -0.7614
 4639SOL    HW125379   3.571   3.639  13.934 -1.4385 -0.9984 -0.3871
 4639SOL    HW225380   3.576   3.638  13.794  0.8373  0.1961 -0.2498
 4640SOL     OW25381   0.103   1.966   1.926 -0.4948 -0.1117 -0.0649
 4640SOL    HW125382   0.123   1.894   1.866  3.2967  2.1472 -1.5451
 4640SOL    HW225383   0.108   2.042   1.868  1.6454  0.4429  0.8209
 4641SOL     OW25384   4.500   1.562  16.007 -0.1620  0.2791 -0.0061
 4641SOL    HW125385   4.430   1.626  15.994  0.2466  0.6639 -0.3028
 4641SOL    HW225386   4.503   1.527  16.096 -1.4184 -0.7835 -0.3834
 4642SOL     OW25387   4.697   3.290   7.487 -0.1972 -0.0662  0.2610
 4642SOL    HW125388   4.659   3.300   7.400  1.3557 -3.2545 -0.7906
 4642SOL    HW225389   4.624   3.304   7.547  1.0154 -0.9170  1.9328
 4643SOL     OW25390   1.262   1.064   7.262  0.5188 -0.2971  0.0425
 4643SOL    HW125391   1.178   1.077   7.307 -0.3517 -1.2638 -1.3184
 4643SOL    HW225392   1.334   1.085   7.322  1.3886 -1.7351 -0.4925
 4644SOL     OW25393   1.272   2.004  15.642 -0.8767  0.1838  0.7403
 4644SOL    HW125394   1.250   1.922  15.686  0.6297  0.1173  1.3434
 4644SOL    HW225395   1.253   1.990  15.549 -1.0639 -1.3498  1.0022
 4645SOL     OW25396   3.575   3.096   9.840 -0.1382  0.1561  0.2360
 4645SOL    HW125397   3.526   3.176   9.819 -0.4197 -0.7265 -2.4456
 4645SOL    HW225398   3.659   3.118   9.801 -0.0314 -0.2336  0.2492
 4646SOL     OW25399   3.677   0.476   2.802  0.7882 -0.4324 -0.1714
 4646SOL    HW125400   3.595   0.434   2.826 -0.2719  0.6244 -1.8755
 4646SOL    HW225401   3.694   0.432   2.718  0.2071  0.7276 -0.9067
 4647SOL     OW25402   3.890   1.347   3.715 -0.6064  0.3658  0.6633
 4647SOL    HW125403   3.937   1.429   3.701  2.0757 -1.1507  0.9117
 4647SOL    HW225404   3.916   1.305   3.797 -2.0081 -4.6806 -1.4225
 4648SOL     OW25405   3.468   2.736   3.075  0.1637  0.1117 -0.1775
 4648SOL    HW125406   3.518   2.724   3.156  1.0528 -2.3738 -1.1160
 4648SOL    HW225407   3.487   2.654   3.030  0.6102  0.4089 -0.5359
 4649SOL     OW25408   1.241   0.139   6.867 -0.3838 -0.5548 -0.6201
 4649SOL    HW125409   1.317   0.151   6.922 -0.4283  1.9599 -1.1117
 4649SOL    HW225410   1.266   0.206   6.804  0.3433  1.4944  1.8555
 4650SOL     OW25411   1.672   2.036   8.160  0.5175  0.3069 -0.1239
 4650SOL    HW125412   1.727   2.065   8.087 -1.4332 -0.2370 -1.7875
 4650SOL    HW225413   1.588   2.075   8.135  1.4998  1.4645 -1.6193
 4651SOL     OW25414   3.154   0.430   7.530 -0.2792  0.9501 -1.0113
 4651SOL    HW125415   3.210   0.467   7.599 -1.7625  1.0128  0.1549
 4651SOL    HW225416   3.217   0.372   7.487 -0.2700 -0.9165  1.5120
 4652SOL     OW25417   3.352   3.103   5.791 -0.0597 -0.0151 -0.0126
 4652SOL    HW125418   3.359   3.009   5.772 -0.2832 -0.3405  1.5019
 4652SOL    HW225419   3.406   3.108   5.870  0.4141  1.9107 -0.4652
 4653SOL     OW25420   0.613   1.384   8.814  0.1161 -0.1346 -0.2648
 4653SOL    HW125421   0.687   1.377   8.874  0.4321 -1.1390 -0.7689
 4653SOL    HW225422   0.618   1.298   8.773 -1.4916 -0.2484 -0.2343
 4654SOL     OW25423   2.556   1.668   3.022 -0.2848 -0.0844 -0.6189
 4654SOL    HW125424   2.491   1.604   3.052 -1.5201  1.9615  1.0021
 4654SOL    HW225425   2.510   1.739   2.978 -0.1504 -1.5887 -3.1989
 4655SOL     OW25426   2.285   0.692   6.557  0.3575 -0.0951 -0.4481
 4655SOL    HW125427   2.341   0.643   6.497  0.9787 -1.5340  1.3093
 4655SOL    HW225428   2.204   0.703   6.507  0.5140 -2.1925 -1.1835
 4656SOL     OW25429   3.493   0.394   8.646 -0.0759  0.1671  0.4292
 4656SOL    HW125430   3.540   0.459   8.699 -2.7807  0.7100  2.1534
 4656SOL    HW225431   3.555   0.371   8.577 -0.9561 -0.6959 -0.0758
 4657SOL     OW25432   2.125   1.419   9.912 -0.2602 -0.2843 -0.2597
 4657SOL    HW125433   2.123   1.495   9.855  2.6647 -1.8036 -2.3775
 4657SOL    HW225434   2.198   1.431   9.972 -0.3348  3.2216 -0.8990
 4658SOL     OW25435   1.734   3.692   4.828  0.2058 -0.2752  0.4592
 4658SOL    HW125436   1.755   3.621   4.889 -0.7884 -0.4168  0.6462
 4658SOL    HW225437   1.677   3.653   4.762  0.8022 -0.1210 -0.1360
 4659SOL     OW25438   2.712   2.967   1.266 -0.5680 -0.0289  0.3295
 4659SOL    HW125439   2.772   2.897   1.237 -0.3024  0.0944  0.5770
 4659SOL    HW225440   2.753   3.047   1.232  0.8229 -2.0879 -2.9273
 4660SOL     OW25441   1.527   3.579  17.065 -0.2030 -0.2819  0.1813
 4660SOL    HW125442   1.503   3.559  17.155  3.2537 -3.1399  0.4485
 4660SOL    HW225443   1.464   3.530  17.012  1.8744  0.0613 -2.6397
 4661SOL     OW25444   2.879   1.139   7.253 -0.2574  0.6597  0.3256
 4661SOL    HW125445   2.862   1.224   7.293  1.2444  1.8548 -1.6249
 4661SOL    HW225446   2.958   1.172   7.210 -0.2882 -0.1688 -0.3683
 4662SOL     OW25447   0.159   3.251   6.602  0.5465 -0.4641 -0.3241
 4662SOL    HW125448   0.095   3.313   6.638  1.3099  0.4166 -0.4904
 4662SOL    HW225449   0.137   3.168   6.644 -0.3728  0.5018  1.1032
 4663SOL     OW25450   3.550   2.522   5.128  0.3588 -0.2799 -0.3786
 4663SOL    HW125451   3.517   2.609   5.149  3.9604  0.8368  0.5553
 4663SOL    HW225452   3.542   2.478   5.213 -0.4627  1.6329  0.5402
 4664SOL     OW25453   2.461   4.341   7.883  0.4332 -0.3038 -0.1986
 4664SOL    HW125454   2.395   4.280   7.852  0.2084  0.1221 -0.5545
 4664SOL    HW225455   2.464   4.395   7.804 -2.1711  1.7475  1.0851
 4665SOL     OW25456   1.915   2.410  14.257 -0.2050  0.2469  0.5560
 4665SOL    HW125457   1.964   2.489  14.237  3.5274 -1.8815  1.2890
 4665SOL    HW225458   1.827   2.448  14.251  0.3905  1.3585 -0.9699
 4666SOL     OW25459   0.478   3.795  14.120 -0.2667  0.4240  0.0825
 4666SOL    HW125460   0.414   3.846  14.169 -0.0054  0.8225  0.0152
 4666SOL    HW225461   0.439   3.710  14.138 -0.8430  0.0922 -2.7319
 4667SOL     OW25462   2.053   0.965   6.392 -0.1478 -0.1543  0.1497
 4667SOL    HW125463   2.001   1.042   6.368 -0.5705 -0.5498 -0.2000
 4667SOL    HW225464   2.123   1.015   6.434 -2.5752  2.9628  0.4393
 4668SOL     OW25465   4.517   3.445  13.614  0.1082  0.2158  0.0849
 4668SOL    HW125466   4.449   3.503  13.649 -1.1325 -0.5851 -0.9778
 4668SOL    HW225467   4.471   3.361  13.623  1.4531 -0.5555 -0.2813
 4669SOL     OW25468   1.999   1.315   8.327  0.0152  0.1161  0.9563
 4669SOL    HW125469   2.060   1.276   8.389  0.1827 -0.8619  0.1790
 4669SOL    HW225470   1.916   1.318   8.374 -2.0052 -1.0400 -2.4923
 4670SOL     OW25471   2.187   1.957   2.067  0.1845  0.4292 -0.1581
 4670SOL    HW125472   2.157   1.954   1.976 -0.9951 -0.6559  0.2698
 4670SOL    HW225473   2.109   1.977   2.119 -1.8088 -0.7365 -2.7443
 4671SOL     OW25474   3.359   2.324   2.891 -0.5675 -0.0631 -0.2457
 4671SOL    HW125475   3.337   2.304   2.800  2.3754  1.7602 -1.3502
 4671SOL    HW225476   3.390   2.414   2.894 -1.8221  0.3018  1.9477
 4672SOL     OW25477   3.687   0.219   2.464  0.4111 -0.1617  0.4756
 4672SOL    HW125478   3.767   0.225   2.515  0.5435  0.1740  0.2284
 4672SOL    HW225479   3.692   0.309   2.432  0.3956 -0.6824 -0.9831
 4673SOL     OW25480   2.109   2.105   4.785  0.1518  0.3416  0.5852
 4673SOL    HW125481   2.187   2.052   4.803  0.3502  1.2196  2.2981
 4673SOL    HW225482   2.084   2.122   4.875 -0.0758  0.9345  0.4064
 4674SOL     OW25483   2.101   2.662   3.658 -0.3797  0.3962 -0.3558
 4674SOL    HW125484   2.103   2.698   3.747 -0.7466  0.4375 -0.3654
 4674SOL    HW225485   2.196   2.675   3.655 -0.1782 -0.5899  1.9539
 4675SOL     OW25486   2.235   4.515   6.649  0.2050  0.3909  0.3371
 4675SOL    HW125487   2.278   4.431   6.666 -0.6077  0.5048  2.8492
 4675SOL    HW225488   2.292   4.583   6.686  0.5535 -0.7165  1.8104
 4676SOL     OW25489   1.703   1.749  15.827  0.0286  0.4059 -0.1413
 4676SOL    HW125490   1.694   1.685  15.899  0.9470  1.6115  1.0472
 4676SOL    HW225491   1.698   1.832  15.874  0.7207  1.3579 -1.7628
 4677SOL     OW25492   0.915   0.990   6.350  0.8803 -0.2549 -0.5591
 4677SOL    HW125493   0.915   0.910   6.401 -2.2236  0.8661  1.2247
 4677SOL    HW225494   0.986   1.035   6.395  0.6015  0.8664 -1.2136
 4678SOL     OW25495   0.487   0.938   7.174 -0.4865 -0.1167 -0.2980
 4678SOL    HW125496   0.452   1.011   7.123 -1.0208  0.6937  1.2265
 4678SOL    HW225497   0.542   0.988   7.235 -1.0355  1.2527 -0.9376
 4679SOL     OW25498   2.309   0.033   9.958 -0.5101 -0.2555 -1.2070
 4679SOL    HW125499   2.301   0.020   9.864 -0.8681  0.6394 -1.2979
 4679SOL    HW225500   2.220   0.058   9.983 -0.6262 -1.7156 -0.1435
 4680SOL     OW25501   0.019   4.637  12.472 -0.3649 -0.1641  0.1565
 4680SOL    HW125502   0.080   4.575  12.432  0.8645  0.7172  0.6477
 4680SOL    HW225503   4.702   4.575  12.532  1.4699 -1.7189 -0.1801
 4681SOL     OW25504   0.594   3.991  10.117  0.5793  0.0157  0.0219
 4681SOL    HW125505   0.542   4.037  10.052 -1.2326 -0.2894  1.2554
 4681SOL    HW225506   0.530   3.919  10.125  1.0367 -0.4593 -0.5457
 4682SOL     OW25507   0.898   4.132   2.195 -0.3902 -0.7852  0.6777
 4682SOL    HW125508   0.808   4.104   2.178 -0.9637  0.1038  2.2244
 4682SOL    HW225509   0.921   4.179   2.115 -1.7623  0.1658  0.8409
 4683SOL     OW25510   1.912   3.275  15.012  0.3873  0.3177 -0.8545
 4683SOL    HW125511   1.965   3.256  15.089  0.6458 -0.8640 -1.3268
 4683SOL    HW225512   1.942   3.365  15.001 -0.2011  0.5699 -0.4001
 4684SOL     OW25513   3.696   4.125   5.575 -0.4148  0.5370 -0.5958
 4684SOL    HW125514   3.666   4.048   5.526 -1.4343 -0.1351  1.0677
 4684SOL    HW225515   3.616   4.164   5.612 -0.9250  0.0234 -1.1439
 4685SOL     OW25516   4.165   1.027   9.414  0.1924  0.2050  0.4047
 4685SOL    HW125517   4.202   0.959   9.470 -1.0995 -0.5243  0.3598
 4685SOL    HW225518   4.089   1.063   9.459 -0.8627 -2.5872  0.8588
 4686SOL     OW25519   0.522   3.921  11.428 -0.4381  0.3508 -0.1339
 4686SOL    HW125520   0.608   3.908  11.388 -1.7731 -0.5253 -2.7309
 4686SOL    HW225521   0.544   3.967  11.509 -0.3103 -2.1440  1.2267
 4687SOL     OW25522   1.532   0.056  12.684 -0.2618 -0.4157 -0.0879
 4687SOL    HW125523   1.508   0.135  12.636  0.5564 -0.2376 -0.2138
 4687SOL    HW225524   1.465   4.723  12.648 -1.5891  1.1220 -0.0912
 4688SOL     OW25525   1.781   2.271   6.771 -0.5460  0.3300  0.1334
 4688SOL    HW125526   1.718   2.207   6.803 -0.5035  1.6172  2.8111
 4688SOL    HW225527   1.859   2.220   6.795  0.5447  2.1201  0.4082
 4689SOL     OW25528   0.204   1.627   2.747  0.5965  0.2614  0.4223
 4689SOL    HW125529   0.149   1.705   2.753  0.5935  0.2243  0.8951
 4689SOL    HW225530   0.287   1.662   2.714  0.7587 -0.3372  0.2048
 4690SOL     OW25531   1.501   1.834  12.559  0.0013  0.0694  0.0378
 4690SOL    HW125532   1.493   1.858  12.651 -0.4551  0.1139 -0.0098
 4690SOL    HW225533   1.414   1.796  12.543  0.0702  0.5562 -1.5840
 4691SOL     OW25534   2.246   1.295  15.408  0.6064  0.7597 -0.2852
 4691SOL    HW125535   2.309   1.246  15.355 -0.4074 -0.5096 -0.3473
 4691SOL    HW225536   2.217   1.339  15.328 -2.4416  1.3892  1.1605
 4692SOL     OW25537   3.313   0.073   8.762  0.2307  0.6882 -0.1168
 4692SOL    HW125538   3.389   0.121   8.794  0.1995  0.2989  0.5619
 4692SOL    HW225539   3.367   0.015   8.708 -0.5684  1.0130 -1.2613
 4693SOL     OW25540   1.205   3.399   2.772 -0.4108 -0.2822  0.1383
 4693SOL    HW125541   1.176   3.481   2.733 -2.3261 -1.1672 -0.3270
 4693SOL    HW225542   1.278   3.439   2.818  0.2156 -0.6730 -0.5255
 4694SOL     OW25543   4.109   0.324   2.026  0.0590 -0.1758 -0.3234
 4694SOL    HW125544   4.165   0.396   2.055 -1.1859  0.5488  0.3272
 4694SOL    HW225545   4.024   0.367   2.009  1.3374  1.5890 -2.2192
 4695SOL     OW25546   4.457   4.073   8.720  0.2066 -0.2105 -0.0667
 4695SOL    HW125547   4.545   4.107   8.734 -1.1370  2.1188  2.7418
 4695SOL    HW225548   4.404   4.152   8.717  3.1532  1.8117  0.9334
 4696SOL     OW25549   3.406   3.142  15.811  0.1000 -0.5889  0.0599
 4696SOL    HW125550   3.312   3.128  15.817  0.3002 -2.0576 -0.1839
 4696SOL    HW225551   3.433   3.074  15.872 -0.3826 -1.9238 -1.2039
 4697SOL     OW25552   2.192   4.290   3.411 -0.1310 -0.1124 -0.1904
 4697SOL    HW125553   2.106   4.299   3.452 -0.8652  2.4118 -2.3229
 4697SOL    HW225554   2.179   4.238   3.332  0.3565  0.6564 -0.7719
 4698SOL     OW25555   2.050   0.652  17.587  0.6459  0.8125 -0.2714
 4698SOL    HW125556   2.034   0.593  17.513 -0.1479 -0.8369  1.2311
 4698SOL    HW225557   1.970   0.705  17.586 -0.4141 -0.8182 -0.9907
 4699SOL     OW25558   0.767   2.072  11.578  0.0880 -0.3973  0.1721
 4699SOL    HW125559   0.735   2.085  11.668 -0.0955  1.4373 -0.1633
 4699SOL    HW225560   0.812   1.987  11.579  1.9854  0.6221  0.9253
 4700SOL     OW25561   0.704   3.346   6.700  0.0856 -0.1438  0.8018
 4700SOL    HW125562   0.713   3.419   6.639  1.9566 -0.6383  0.4780
 4700SOL    HW225563   0.780   3.375   6.751  0.5208  0.4753 -0.2218
 4701SOL     OW25564   2.103   4.307   6.913  0.3833  0.6517  0.3069
 4701SOL    HW125565   2.027   4.249   6.914  0.1607  0.8714 -3.0888
 4701SOL    HW225566   2.153   4.251   6.854 -1.2281 -0.2904 -0.1584
 4702SOL     OW25567   1.651   2.059   4.266  0.6003 -0.4829 -0.0894
 4702SOL    HW125568   1.610   2.142   4.292  0.7829 -0.4302  0.0289
 4702SOL    HW225569   1.613   1.995   4.327  0.1115 -0.4380 -0.3475
 4703SOL     OW25570   3.983   0.476   5.399 -0.4050 -0.8887 -0.4406
 4703SOL    HW125571   3.917   0.480   5.330 -2.7485 -2.3478  1.7147
 4703SOL    HW225572   4.061   0.472   5.343  0.8352  1.4472  1.1256
 4704SOL     OW25573   1.776   3.055   4.803 -0.1884 -0.8567  0.0038
 4704SOL    HW125574   1.805   2.990   4.739  1.3126 -0.5734  0.4025
 4704SOL    HW225575   1.809   3.137   4.768  0.3903 -0.7103  0.8946
 4705SOL     OW25576   2.317   4.124   5.497  0.3945  0.2976 -0.2896
 4705SOL    HW125577   2.383   4.064   5.532  1.0250  1.0649 -0.1681
 4705SOL    HW225578   2.239   4.070   5.488  0.1424  0.4044  1.3300
 4706SOL     OW25579   1.438   2.901   6.194 -0.3288 -0.0328  0.5381
 4706SOL    HW125580   1.433   2.809   6.222  2.2916 -0.1241  0.7285
 4706SOL    HW225581   1.534   2.906   6.192 -0.4663  2.6913  0.4996
 4707SOL     OW25582   1.668   2.660   6.999  0.0721  0.2248 -0.0597
 4707SOL    HW125583   1.725   2.645   6.923 -1.0333  1.1201 -1.0564
 4707SOL    HW225584   1.714   2.740   7.026 -0.5248 -0.2550  2.3603
 4708SOL     OW25585   3.321   2.269   5.204  0.1679 -0.3839  0.3947
 4708SOL    HW125586   3.347   2.222   5.125  0.3295  0.2562  0.0625
 4708SOL    HW225587   3.229   2.280   5.182  0.6969 -1.6207 -2.3629
 4709SOL     OW25588   1.194   1.206   7.046  0.4136 -0.4283 -0.5021
 4709SOL    HW125589   1.197   1.158   7.129  1.1728  0.5030  0.0015
 4709SOL    HW225590   1.187   1.295   7.081  0.9633 -0.8456  0.6531
 4710SOL     OW25591   3.201   2.896   4.106  0.0638  0.2020  0.6052
 4710SOL    HW125592   3.167   2.980   4.076 -1.2849 -0.6601 -0.2745
 4710SOL    HW225593   3.288   2.896   4.065 -1.2603 -3.0816 -2.2099
 4711SOL     OW25594   0.490   1.313   6.016 -0.3437  0.3866  0.4228
 4711SOL    HW125595   0.558   1.368   6.055  0.8505 -0.9937  0.2708
 4711SOL    HW225596   0.532   1.295   5.932 -0.4797  0.1858  0.3977
 4712SOL     OW25597   3.340   1.788   7.957 -0.5887  0.5209  0.0299
 4712SOL    HW125598   3.420   1.808   8.006 -0.1244 -1.9866  0.3244
 4712SOL    HW225599   3.274   1.848   7.990  0.2312  2.8699 -2.5999
 4713SOL     OW25600   0.407   2.721   5.618  0.3818  0.1363  0.4763
 4713SOL    HW125601   0.371   2.645   5.572  0.7084  0.4313 -0.2617
 4713SOL    HW225602   0.364   2.795   5.574 -2.7068 -3.5965 -2.7280
 4714SOL     OW25603   3.026   3.368   3.741  0.2851  0.2947  0.1539
 4714SOL    HW125604   2.950   3.315   3.716 -0.1851  1.1813 -0.3289
 4714SOL    HW225605   3.100   3.310   3.758  1.1952  1.0335 -1.2685
 4715SOL     OW25606   4.545   3.943   3.762  0.0649 -0.2704  0.3649
 4715SOL    HW125607   4.581   4.010   3.704 -1.4970  1.9078  1.9034
 4715SOL    HW225608   4.475   3.906   3.708  0.2623 -0.7728  0.4501
 4716SOL     OW25609   3.846   3.632  10.800  0.2397 -0.5365  0.1879
 4716SOL    HW125610   3.821   3.660  10.888  2.4896  0.6864  0.4348
 4716SOL    HW225611   3.866   3.545  10.834 -0.0565  0.2647  2.3492
 4717SOL     OW25612   1.770   3.357   6.544  0.0658  0.4341 -0.1325
 4717SOL    HW125613   1.848   3.303   6.534 -0.4670  0.1139 -2.5483
 4717SOL    HW225614   1.727   3.295   6.603  2.8189 -0.2887  1.1340
 4718SOL     OW25615   3.730   2.600   0.747 -0.1812 -0.3818  0.1193
 4718SOL    HW125616   3.781   2.583   0.669  1.8048 -0.0350  1.3433
 4718SOL    HW225617   3.645   2.637   0.725  0.9078  1.2474 -1.2372
 4719SOL     OW25618   4.545   2.103   5.998  0.4380  0.3739 -0.5698
 4719SOL    HW125619   4.563   2.116   6.091  0.1285 -0.6262 -0.3739
 4719SOL    HW225620   4.451   2.091   6.007  0.9854 -3.6115 -0.0813
 4720SOL     OW25621   3.655   0.730   2.732 -0.2244  0.0761 -0.1154
 4720SOL    HW125622   3.666   0.653   2.787  0.6575  0.1471 -0.1886
 4720SOL    HW225623   3.703   0.695   2.657 -1.2097 -2.4420  0.4545
 4721SOL     OW25624   1.409   0.270  12.517  0.3067  0.3734  0.4160
 4721SOL    HW125625   1.420   0.281  12.423  0.0109  3.4917  0.7642
 4721SOL    HW225626   1.315   0.285  12.524  0.0168 -0.5198 -1.7860
 4722SOL     OW25627   3.499   3.445   0.970 -0.0065 -0.6008 -0.4559
 4722SOL    HW125628   3.489   3.474   0.879  0.9267  0.7644 -0.1228
 4722SOL    HW225629   3.422   3.485   1.010  1.2515 -0.5150  1.8872
 4723SOL     OW25630   2.362   3.337   2.223 -0.0598 -0.3852  0.1634
 4723SOL    HW125631   2.292   3.334   2.157  0.4466  0.1424 -0.3954
 4723SOL    HW225632   2.410   3.415   2.196  0.7315 -1.4122 -1.4381
 4724SOL     OW25633   0.879   2.943   2.322 -0.0021  0.0134  0.3047
 4724SOL    HW125634   0.839   3.025   2.352 -2.2958 -0.8822 -0.3085
 4724SOL    HW225635   0.801   2.887   2.323  0.4521 -0.6433 -1.8500
 4725SOL     OW25636   1.101   2.848   9.853 -0.5171  0.0083  0.1987
 4725SOL    HW125637   1.065   2.848   9.765  1.9448 -0.8224 -0.8018
 4725SOL    HW225638   1.165   2.776   9.853  1.1410  1.5263 -2.6893
 4726SOL     OW25639   1.108   3.954   4.510 -0.4059  0.0808  0.1643
 4726SOL    HW125640   1.185   3.948   4.453  1.2530  1.0146  2.3439
 4726SOL    HW225641   1.147   3.960   4.597  1.8517  1.6397 -0.9685
 4727SOL     OW25642   3.950   1.551  14.875  0.7665 -0.6679  0.3582
 4727SOL    HW125643   3.866   1.595  14.890  0.6412 -1.3246  1.6448
 4727SOL    HW225644   3.990   1.620  14.822 -1.1425  0.1951  0.0483
 4728SOL     OW25645   1.202   4.030   5.505  0.7048  0.0991 -0.0439
 4728SOL    HW125646   1.296   4.042   5.511  0.4960  1.4226  0.6044
 4728SOL    HW225647   1.200   4.005   5.412  1.0777  1.6415 -0.4770
 4729SOL     OW25648   0.461   1.462   8.041 -0.0723  0.6153  0.0714
 4729SOL    HW125649   0.466   1.463   8.136 -2.3237 -0.1283  0.1824
 4729SOL    HW225650   0.402   1.535   8.022 -1.8111 -0.1584  2.5061
 4730SOL     OW25651   1.848   4.032   3.310 -0.0031  0.0500 -0.2548
 4730SOL    HW125652   1.898   4.007   3.387 -0.3120 -1.3627 -0.5063
 4730SOL    HW225653   1.797   3.952   3.294  0.5513 -0.6307  1.4573
 4731SOL     OW25654   1.184   2.647   9.668  0.4622  0.2729  0.3038
 4731SOL    HW125655   1.205   2.676   9.579  1.7781  2.3958  1.3166
 4731SOL    HW225656   1.123   2.576   9.644 -2.4173  2.6826  0.5649
 4732SOL     OW25657   0.850   3.647   8.895 -0.0733  0.0986  0.1540
 4732SOL    HW125658   0.839   3.581   8.964  0.6791  0.2674  0.4353
 4732SOL    HW225659   0.764   3.674   8.862  0.7152  1.5591 -0.6861
 4733SOL     OW25660   1.587   0.129   2.805  0.1185 -0.2059 -0.1518
 4733SOL    HW125661   1.608   0.131   2.712 -3.4591 -1.3368 -0.9724
 4733SOL    HW225662   1.505   0.081   2.798 -0.7763  1.2242  0.4224
 4734SOL     OW25663   1.531   1.511  14.537 -0.2309  0.0019  0.0931
 4734SOL    HW125664   1.478   1.443  14.495 -1.0477  0.1775  0.8446
 4734SOL    HW225665   1.483   1.540  14.614 -0.6804  2.4861 -1.1167
 4735SOL     OW25666   1.066   1.330   1.807  0.1462 -0.4124  0.3966
 4735SOL    HW125667   1.117   1.302   1.884  2.4377 -1.7516 -1.5897
 4735SOL    HW225668   1.083   1.424   1.800  0.5534 -0.6478 -1.9184
 4736SOL     OW25669   4.327   2.634   7.362  0.5718 -0.0115  0.0205
 4736SOL    HW125670   4.391   2.640   7.434  2.8668 -1.7230 -1.8657
 4736SOL    HW225671   4.249   2.678   7.395 -0.9736 -1.5224 -1.6340
 4737SOL     OW25672   1.548   0.333   9.842  0.2048  0.0199 -0.2514
 4737SOL    HW125673   1.539   0.410   9.898 -0.6183 -0.0792 -0.2496
 4737SOL    HW225674   1.558   0.370   9.754 -0.3611 -0.6532 -0.6024
 4738SOL     OW25675   4.107   4.427   4.714 -0.2807  0.3651 -0.1992
 4738SOL    HW125676   4.198   4.430   4.682 -0.4913 -0.1279 -0.8447
 4738SOL    HW225677   4.078   4.517   4.704  1.8791  1.1422  0.4552
 4739SOL     OW25678   3.926   1.838   3.575 -0.3065  0.2870  0.4491
 4739SOL    HW125679   3.864   1.772   3.544 -1.8063  0.1247  3.7664
 4739SOL    HW225680   3.976   1.854   3.495  3.1120 -0.7029  2.3932
 4740SOL     OW25681   1.185   4.053   2.582  0.4623  0.0725  0.1484
 4740SOL    HW125682   1.179   4.072   2.488  2.0437 -0.8703 -0.1488
 4740SOL    HW225683   1.195   4.143   2.614 -0.0799  0.0278  0.4438
 4741SOL     OW25684   2.676   3.233  12.342  0.0839 -0.5001 -0.5052
 4741SOL    HW125685   2.634   3.319  12.349  1.1058 -0.0183 -0.1847
 4741SOL    HW225686   2.738   3.246  12.270 -0.1339 -1.5788 -0.8884
 4742SOL     OW25687   0.001   2.271  11.455  0.0565  0.0818  0.0510
 4742SOL    HW125688   0.091   2.282  11.423  0.7342 -2.0583  1.1752
 4742SOL    HW225689   4.689   2.359  11.449 -1.9298 -0.7751 -0.5332
 4743SOL     OW25690   3.475   1.109   3.551 -0.1233  0.0781 -0.1284
 4743SOL    HW125691   3.540   1.103   3.621  0.2197 -1.0744 -0.5372
 4743SOL    HW225692   3.474   1.018   3.521  2.0464  0.1819 -0.5225
 4744SOL     OW25693   2.217   0.383   2.193  0.1607  0.1075 -0.5435
 4744SOL    HW125694   2.261   0.379   2.108 -2.4302 -1.4067 -1.8042
 4744SOL    HW225695   2.266   0.461   2.221  2.1710 -1.3470 -0.0752
 4745SOL     OW25696   1.340   1.348   8.753  0.5612 -0.3144 -0.3479
 4745SOL    HW125697   1.361   1.381   8.665 -1.9234 -0.0249 -0.8224
 4745SOL    HW225698   1.261   1.397   8.774  0.8830 -1.0700  2.5778
 4746SOL     OW25699   0.330   3.209   1.325  0.1927 -0.3053 -0.2088
 4746SOL    HW125700   0.261   3.143   1.334  0.6557 -0.9523 -1.3878
 4746SOL    HW225701   0.328   3.214   1.229 -2.0171  2.7893  0.0045
 4747SOL     OW25702   0.952   1.725   3.523  0.2731 -0.3348 -0.2676
 4747SOL    HW125703   0.873   1.685   3.558  1.5279  0.6414  3.6650
 4747SOL    HW225704   0.923   1.813   3.546 -0.5895 -1.3192  2.4559
 4748SOL     OW25705   3.818   4.685   3.473  0.1311 -0.2494  0.2318
 4748SOL    HW125706   3.893   4.632   3.501  0.8060  1.9145  2.5304
 4748SOL    HW225707   3.858   0.047   3.467  0.5248 -0.4534 -0.0874
 4749SOL     OW25708   2.515   0.174   1.476  0.2316 -0.4486 -0.4227
 4749SOL    HW125709   2.485   0.211   1.392  1.9304 -2.1707 -1.7880
 4749SOL    HW225710   2.466   0.092   1.472 -0.3576 -0.0164 -2.3198
 4750SOL     OW25711   2.993   1.763   5.331  0.1117  0.1126 -0.4277
 4750SOL    HW125712   2.950   1.705   5.269  1.0780  0.4071 -1.3574
 4750SOL    HW225713   3.079   1.739   5.296  0.9729 -0.7997  2.2759
 4751SOL     OW25714   1.036   1.727  17.603 -0.4173 -0.1495 -0.1814
 4751SOL    HW125715   1.071   1.786  17.671 -2.9117 -0.0341  1.0248
 4751SOL    HW225716   0.946   1.717  17.634  0.2464 -3.6734  0.5700
 4752SOL     OW25717   0.423   1.762   7.738  0.2522 -0.3022 -0.0629
 4752SOL    HW125718   0.499   1.706   7.753 -0.6711 -2.1117 -2.0833
 4752SOL    HW225719   0.469   1.837   7.700  0.0930  0.2943  0.9280
 4753SOL     OW25720   3.644   2.279   2.398  0.5233 -0.4697 -0.1002
 4753SOL    HW125721   3.615   2.365   2.367 -0.1583 -0.6596  0.0223
 4753SOL    HW225722   3.561   2.233   2.388 -0.0129  0.3563  0.4385
 4754SOL     OW25723   3.950   3.446   2.928 -0.2087  0.0622  0.2315
 4754SOL    HW125724   3.967   3.540   2.927  6.1351 -1.0708  0.9592
 4754SOL    HW225725   3.996   3.427   3.010  0.8373 -1.0813 -0.6158
 4755SOL     OW25726   4.366   1.785   7.119 -0.3509 -0.0486  0.6260
 4755SOL    HW125727   4.309   1.835   7.176 -0.1288  0.7746  0.1319
 4755SOL    HW225728   4.443   1.815   7.168  0.4469 -2.9008  1.1276
 4756SOL     OW25729   2.515   3.856  12.266 -0.4729  0.3802  0.5056
 4756SOL    HW125730   2.454   3.791  12.230 -0.5469  0.9731 -0.4449
 4756SOL    HW225731   2.490   3.862  12.358 -2.1653  1.4120 -0.0257
 4757SOL     OW25732   1.232   0.370   4.793  0.1151  0.0040 -0.5470
 4757SOL    HW125733   1.300   0.425   4.754  2.3731 -0.3243  2.9182
 4757SOL    HW225734   1.161   0.395   4.734 -0.2362 -1.4311 -0.7262
 4758SOL     OW25735   4.233   0.982   5.082 -0.3254  0.3811  0.7431
 4758SOL    HW125736   4.180   1.021   5.013  3.5198  1.2358 -1.7738
 4758SOL    HW225737   4.289   0.922   5.033  1.1054  0.7371  1.9488
 4759SOL     OW25738   1.382   3.447   9.588 -0.1039 -0.2255  0.1173
 4759SOL    HW125739   1.313   3.387   9.616 -1.2620 -0.4390 -3.1998
 4759SOL    HW225740   1.337   3.520   9.546  1.1835 -0.3766 -1.5362
 4760SOL     OW25741   2.225   4.284   1.713  0.5035 -0.5891 -0.1755
 4760SOL    HW125742   2.195   4.236   1.791 -0.2134 -0.0716 -0.1278
 4760SOL    HW225743   2.318   4.262   1.706  0.9578  1.5542 -0.6746
 4761SOL     OW25744   0.385   3.229   4.529 -0.2164  0.3349 -0.2519
 4761SOL    HW125745   0.340   3.289   4.588  0.1920  1.1813 -0.8033
 4761SOL    HW225746   0.404   3.144   4.570 -2.2834 -0.6048 -1.2511
 4762SOL     OW25747   0.896   1.769   6.621  0.3328  0.8642 -0.2990
 4762SOL    HW125748   0.931   1.769   6.710  0.3956 -2.0562 -0.3237
 4762SOL    HW225749   0.845   1.850   6.617 -1.0908 -0.0195 -0.0028
 4763SOL     OW25750   4.543   3.667   6.689 -0.3775 -0.5645 -0.2042
 4763SOL    HW125751   4.549   3.593   6.748 -1.0310 -0.9801 -0.6527
 4763SOL    HW225752   4.522   3.735   6.753  2.6114 -1.2806  1.5422
 4764SOL     OW25753   3.289   2.333   5.976 -0.0542  0.3152  0.0207
 4764SOL    HW125754   3.376   2.294   5.964 -0.0202 -0.2152  1.9730
 4764SOL    HW225755   3.256   2.262   6.030  0.5867 -0.6354 -0.8236
 4765SOL     OW25756   1.083   1.117   3.508  0.5603 -0.1955 -0.0407
 4765SOL    HW125757   1.070   1.092   3.599  2.5896  1.5697  0.7412
 4765SOL    HW225758   1.152   1.180   3.530 -0.0528  0.4115  0.1573
 4766SOL     OW25759   3.269   3.297   3.517 -0.3391  0.2811 -0.7051
 4766SOL    HW125760   3.267   3.244   3.597 -0.7987  1.3250 -0.0172
 4766SOL    HW225761   3.212   3.373   3.535  1.9314  1.9693 -0.6498
 4767SOL     OW25762   1.297   4.300  10.655 -0.8722  0.1756 -0.5400
 4767SOL    HW125763   1.274   4.332  10.567  1.6086 -0.5641 -1.4490
 4767SOL    HW225764   1.347   4.220  10.638  0.3189  0.8412 -0.0750
 4768SOL     OW25765   4.529   3.054  17.028  0.3390 -0.0997  0.2981
 4768SOL    HW125766   4.555   3.014  16.945  3.6342  1.2379  0.7248
 4768SOL    HW225767   4.446   3.008  17.046  0.2180 -0.5995 -1.5458
 4769SOL     OW25768   1.466   2.804   7.825  0.3669 -0.2908 -0.1487
 4769SOL    HW125769   1.490   2.875   7.766  1.1055 -0.3646  0.0635
 4769SOL    HW225770   1.514   2.824   7.906 -0.2431 -0.8818  0.3609
 4770SOL     OW25771   2.724   2.471   7.633  0.0178  0.4886 -0.2555
 4770SOL    HW125772   2.693   2.529   7.702  3.1309  1.4359  0.3318
 4770SOL    HW225773   2.790   2.522   7.587  1.2809 -0.1921  0.7972
 4771SOL     OW25774   1.146   0.061  15.203  0.4822 -0.2843 -0.2364
 4771SOL    HW125775   1.065   0.011  15.213 -0.6204  1.3888 -0.8264
 4771SOL    HW225776   1.129   0.132  15.142  3.0547  0.4148 -0.1284
 4772SOL     OW25777   3.249   3.763   3.043 -0.6028 -0.4017  0.0684
 4772SOL    HW125778   3.340   3.745   3.018 -0.8200  1.0313 -1.7316
 4772SOL    HW225779   3.200   3.715   2.975  1.1743 -1.4348 -0.4775
 4773SOL     OW25780   3.319   0.794  12.293  0.2454  0.1518  0.5803
 4773SOL    HW125781   3.259   0.861  12.261  0.4104  0.6920  1.3911
 4773SOL    HW225782   3.322   0.724  12.228  0.9749  0.1811  0.5800
 4774SOL     OW25783   0.466   1.799   8.382 -0.1759  0.1080 -0.1711
 4774SOL    HW125784   0.421   1.764   8.306  2.6544 -0.3523 -1.6061
 4774SOL    HW225785   0.509   1.877   8.348 -0.8603  0.4095 -0.3411
 4775SOL     OW25786   1.778   3.209   6.194  0.4259 -0.1351 -0.8464
 4775SOL    HW125787   1.790   3.297   6.158  0.4877  0.3549  0.3505
 4775SOL    HW225788   1.782   3.231   6.287  0.8541  0.1124 -0.9215
 4776SOL     OW25789   1.270   3.321  15.298  0.5592 -0.1329  0.4397
 4776SOL    HW125790   1.238   3.356  15.215 -0.1784  0.1923  0.8656
 4776SOL    HW225791   1.363   3.343  15.284  1.3436 -1.4990  3.5344
 4777SOL     OW25792   0.488   4.051   9.246  0.2177  0.0187  0.1766
 4777SOL    HW125793   0.453   3.965   9.270 -1.9438  0.7361 -0.3564
 4777SOL    HW225794   0.562   4.043   9.307 -0.0391  1.5340  0.6755
 4778SOL     OW25795   0.696   0.386   8.907 -0.4728  0.6504 -0.1630
 4778SOL    HW125796   0.700   0.433   8.990  1.1271  0.7775 -0.2984
 4778SOL    HW225797   0.625   0.430   8.861 -2.2484 -2.7888 -0.6755
 4779SOL     OW25798   1.655   0.990   4.721 -0.6314  0.5620 -0.6364
 4779SOL    HW125799   1.596   1.058   4.751  0.6122  0.1716  2.7028
 4779SOL    HW225800   1.653   0.923   4.790  1.0209  0.4996 -0.6334
 4780SOL     OW25801   2.715   3.020   7.594 -0.3723  0.2170  0.2784
 4780SOL    HW125802   2.698   2.935   7.553 -0.8031  1.0493 -1.2750
 4780SOL    HW225803   2.732   3.075   7.517 -1.7685 -1.1182 -0.9779
 4781SOL     OW25804   2.119   0.352   5.120  0.2614 -0.1097  0.3592
 4781SOL    HW125805   2.057   0.303   5.174  0.3967 -1.9066 -1.1093
 4781SOL    HW225806   2.181   0.283   5.095 -0.3472 -1.0739  1.4816
 4782SOL     OW25807   4.231   4.397   3.722 -0.1243  0.1352 -0.3969
 4782SOL    HW125808   4.141   4.398   3.753  0.2801 -3.4739  0.9699
 4782SOL    HW225809   4.276   4.416   3.805 -0.5536 -1.2470  0.1435
 4783SOL     OW25810   2.695   1.862   1.730  0.2953  0.4217 -0.2229
 4783SOL    HW125811   2.638   1.938   1.745 -0.5406 -0.0879 -0.8178
 4783SOL    HW225812   2.631   1.794   1.706  1.2697 -0.7385  0.5153
 4784SOL     OW25813   4.378   4.108   9.229  0.4236 -0.5985  0.0009
 4784SOL    HW125814   4.465   4.125   9.195 -0.2515  2.8493 -0.0399
 4784SOL    HW225815   4.322   4.184   9.210 -0.1145  0.0831  4.1230
 4785SOL     OW25816   3.162   0.032   9.114  0.4673 -0.1091  0.0258
 4785SOL    HW125817   3.200   4.674   9.085 -0.0988 -0.4966  0.3802
 4785SOL    HW225818   3.225   0.050   9.185  1.3091  1.6797 -1.1660
 4786SOL     OW25819   4.710   0.529   7.901  0.3253  0.0827  0.3403
 4786SOL    HW125820   0.057   0.480   7.941 -1.8589 -2.8499  0.7017
 4786SOL    HW225821   4.713   0.621   7.929  0.2934  0.3111 -0.3908
 4787SOL     OW25822   4.671   2.548   1.649 -0.5819  0.2979 -0.1729
 4787SOL    HW125823   4.592   2.549   1.702 -2.8603  0.9603 -3.6221
 4787SOL    HW225824   0.007   2.573   1.719  1.0470 -0.3589 -1.3463
 4788SOL     OW25825   4.393   1.916  15.218  0.3151 -0.3371 -0.2810
 4788SOL    HW125826   4.408   2.005  15.186 -2.9045 -0.1471 -1.2260
 4788SOL    HW225827   4.299   1.906  15.208  0.4823 -1.0542 -1.1879
 4789SOL     OW25828   1.276   0.649   9.463 -0.2785  0.4163 -0.0126
 4789SOL    HW125829   1.341   0.610   9.522  1.2061  2.3760 -0.3851
 4789SOL    HW225830   1.196   0.671   9.512 -0.9665  0.9962 -1.4082
 4790SOL     OW25831   0.508   0.413   5.828  0.4864  0.1708  0.0980
 4790SOL    HW125832   0.570   0.470   5.784  1.5404 -1.0436  0.0230
 4790SOL    HW225833   0.493   0.473   5.901 -2.4697 -0.6230  0.1622
 4791SOL     OW25834   2.510   3.155  14.723  0.1069  0.1364  0.3792
 4791SOL    HW125835   2.497   3.243  14.758 -1.0700  0.6871 -1.4241
 4791SOL    HW225836   2.420   3.121  14.720 -0.6702  2.2310 -0.5943
 4792SOL     OW25837   3.857   2.453  15.788  0.2511  0.7156 -0.0131
 4792SOL    HW125838   3.847   2.446  15.693 -0.9427  0.0542  0.1637
 4792SOL    HW225839   3.773   2.414  15.812  1.0201 -1.2665 -0.5061
 4793SOL     OW25840   2.519   1.803   8.389  0.2966  0.7574 -0.0653
 4793SOL    HW125841   2.494   1.729   8.334 -0.4057  1.1965 -0.3227
 4793SOL    HW225842   2.475   1.776   8.470  2.5653 -0.3770  0.7998
 4794SOL     OW25843   4.127   2.775   1.828 -1.2334  0.0309  0.3270
 4794SOL    HW125844   4.169   2.803   1.747 -0.0601 -2.0589  0.2024
 4794SOL    HW225845   4.167   2.690   1.844 -1.5829  0.1180  1.6638
 4795SOL     OW25846   0.894   3.807   4.434 -0.4028 -0.8071  0.2548
 4795SOL    HW125847   0.850   3.800   4.519 -2.9827 -0.4466 -1.0589
 4795SOL    HW225848   0.973   3.850   4.464  0.4387 -3.2144  1.5305
 4796SOL     OW25849   2.112   3.302   5.579 -0.1405  0.1401  0.3917
 4796SOL    HW125850   2.049   3.229   5.577  1.9934 -1.6454 -0.8205
 4796SOL    HW225851   2.149   3.303   5.491 -0.6611 -0.4257  0.1639
 4797SOL     OW25852   2.326   0.831  15.762 -0.3269 -0.1114  0.6990
 4797SOL    HW125853   2.240   0.865  15.789 -0.9002 -1.1165  0.1487
 4797SOL    HW225854   2.303   0.801  15.674  0.6922  1.7060 -0.1648
 4798SOL     OW25855   2.445   4.123   1.150  0.2795 -0.4317  0.9076
 4798SOL    HW125856   2.497   4.074   1.213  1.4585 -1.4533 -0.8393
 4798SOL    HW225857   2.474   4.087   1.066  3.5213  1.4865  1.2056
 4799SOL     OW25858   2.090   4.525  12.796  0.2996  0.2562 -0.3494
 4799SOL    HW125859   2.017   4.575  12.832 -0.5064  0.5147 -2.3149
 4799SOL    HW225860   2.138   4.594  12.750 -1.3645  1.5454 -0.1305
 4800SOL     OW25861   1.711   3.312   0.226 -0.2022  0.1105 -0.5060
 4800SOL    HW125862   1.794   3.267   0.211 -0.6680 -1.2041  0.8978
 4800SOL    HW225863   1.677   3.313   0.136  1.3551 -1.1854 -1.0994
 4801SOL     OW25864   4.303   2.417   6.963  0.7491  0.6347  0.2834
 4801SOL    HW125865   4.340   2.503   6.981  0.5094  1.1944 -1.9034
 4801SOL    HW225866   4.351   2.383   6.889 -2.2735  1.9985 -2.3221
 4802SOL     OW25867   0.520   0.938   6.830  0.1152  0.4159 -0.3542
 4802SOL    HW125868   0.606   0.981   6.824 -0.3078  1.5441  1.8263
 4802SOL    HW225869   0.492   0.950   6.739  0.9175  0.6503 -0.5719
 4803SOL     OW25870   4.664   2.094  16.785 -0.1469 -0.7243  0.2689
 4803SOL    HW125871   4.602   2.064  16.718 -0.1356  2.0343 -0.9852
 4803SOL    HW225872   4.645   2.188  16.790 -0.2419 -0.7321  0.0673
 4804SOL     OW25873   3.317   3.940  16.172  0.2879 -0.0978 -0.4827
 4804SOL    HW125874   3.332   4.034  16.166 -3.1714  0.4859 -0.0551
 4804SOL    HW225875   3.286   3.942  16.263  1.7620 -1.0008  0.0368
 4805SOL     OW25876   4.186   3.533   6.848 -0.4093 -0.2457 -0.0291
 4805SOL    HW125877   4.193   3.610   6.903  3.0481 -1.2127  0.8472
 4805SOL    HW225878   4.209   3.573   6.764  0.1246 -1.4997 -0.4861
 4806SOL     OW25879   1.220   3.947   5.244  0.1909 -0.4493  0.6267
 4806SOL    HW125880   1.237   3.903   5.161  0.9326  1.8471 -0.4345
 4806SOL    HW225881   1.132   3.914   5.261  1.3563 -4.4086 -1.0274
 4807SOL     OW25882   4.489   1.064   8.138  0.1224  0.5938  0.1000
 4807SOL    HW125883   4.504   0.975   8.172 -4.2220 -0.2157 -0.1950
 4807SOL    HW225884   4.433   1.041   8.064  0.3701 -0.7617  0.3177
 4808SOL     OW25885   2.850   1.172  13.200  0.3711 -0.3035  0.6897
 4808SOL    HW125886   2.861   1.158  13.294  0.5029  0.0603  0.7262
 4808SOL    HW225887   2.875   1.084  13.170 -1.1078 -0.9255  1.2742
 4809SOL     OW25888   1.881   3.081   2.655 -0.4053  0.0876  0.3220
 4809SOL    HW125889   1.887   3.176   2.659  0.4621  0.0843 -0.9067
 4809SOL    HW225890   1.786   3.076   2.663 -0.2733 -0.4708  1.6735
 4810SOL     OW25891   1.301   0.804   5.130  0.5494 -0.4900  0.2414
 4810SOL    HW125892   1.366   0.818   5.198  1.3665 -1.0707 -0.4200
 4810SOL    HW225893   1.241   0.878   5.136 -1.0307 -1.7216 -0.1036
 4811SOL     OW25894   1.127   4.309  14.795  0.1591 -0.5961  0.3442
 4811SOL    HW125895   1.221   4.298  14.810  0.7703  0.2181 -2.8004
 4811SOL    HW225896   1.098   4.233  14.846 -1.7064  0.0394  0.2298
 4812SOL     OW25897   3.752   4.711   6.655 -0.8181  0.0735 -0.1203
 4812SOL    HW125898   3.747   0.073   6.697 -0.3549 -0.7983  1.7395
 4812SOL    HW225899   3.819   4.676   6.713 -1.6491  2.6209  2.3754
 4813SOL     OW25900   1.636   3.030   3.416  0.0760 -0.0155 -0.1567
 4813SOL    HW125901   1.707   3.043   3.354 -0.9174 -0.8226 -1.4708
 4813SOL    HW225902   1.661   2.940   3.437  0.0962 -0.2531 -1.2001
 4814SOL     OW25903   2.190   3.051   5.418 -0.1016 -0.8955  0.0151
 4814SOL    HW125904   2.246   2.990   5.370 -0.8446 -1.0466 -0.6495
 4814SOL    HW225905   2.223   3.137   5.392 -2.0888  0.4151  1.8218
 4815SOL     OW25906   3.733   1.204   0.436 -0.3151 -0.1355 -0.9689
 4815SOL    HW125907   3.808   1.228   0.381  1.0487  2.8851  2.2288
 4815SOL    HW225908   3.771   1.235   0.518 -0.6707  0.4387 -1.0183
 4816SOL     OW25909   0.424   2.283   5.072  0.7509  0.0111 -0.3481
 4816SOL    HW125910   0.438   2.313   5.162 -1.4030  1.6069 -0.5400
 4816SOL    HW225911   0.391   2.195   5.093 -1.1295  0.6454 -0.6964
 4817SOL     OW25912   0.492   4.529   0.095 -0.0162 -0.2030  0.2957
 4817SOL    HW125913   0.502   4.516   0.189 -1.4997 -0.4490  0.4231
 4817SOL    HW225914   0.409   4.576   0.087  0.5757  0.5103 -1.6097
 4818SOL     OW25915   3.165   1.025   6.820 -0.3170  0.2788  0.5668
 4818SOL    HW125916   3.070   1.021   6.814  0.0040 -1.5251 -3.5061
 4818SOL    HW225917   3.186   1.118   6.811  0.1510 -0.0431 -1.6669
 4819SOL     OW25918   3.970   2.549   8.457  0.1272 -0.6268 -0.4051
 4819SOL    HW125919   3.914   2.523   8.530  0.5151 -1.1116 -0.2761
 4819SOL    HW225920   4.051   2.556   8.509 -0.3947  1.5571  0.1234
 4820SOL     OW25921   2.125   2.452   6.427 -0.2226 -0.1205 -0.4288
 4820SOL    HW125922   2.143   2.382   6.365  0.2730  1.5479 -2.1536
 4820SOL    HW225923   2.177   2.430   6.504 -1.1324  1.7733  0.7374
 4821SOL     OW25924   3.795   0.436  10.139  0.7844 -0.1914  0.0954
 4821SOL    HW125925   3.814   0.364  10.198 -0.6585 -0.0010  0.7938
 4821SOL    HW225926   3.805   0.522  10.181 -0.5027  0.2322 -0.4662
 4822SOL     OW25927   1.891   1.112  10.916  0.7315 -0.1636  0.3554
 4822SOL    HW125928   1.929   1.199  10.928  1.3661 -0.6246  1.7662
 4822SOL    HW225929   1.913   1.065  10.836 -3.7911 -2.1513  0.2883
 4823SOL     OW25930   4.143   0.731   1.857  0.1010 -0.3065  0.1566
 4823SOL    HW125931   4.142   0.636   1.848 -0.5661 -0.1824 -1.0115
 4823SOL    HW225932   4.084   0.758   1.787 -1.1051 -2.5519  0.3272
 4824SOL     OW25933   2.509   1.008   2.804  0.0057 -0.2555  0.0372
 4824SOL    HW125934   2.448   1.072   2.767  1.6476  0.8898 -0.6447
 4824SOL    HW225935   2.505   1.020   2.899  0.4756  3.4317 -0.4304
 4825SOL     OW25936   4.710   1.729   9.720 -0.5006  0.2099 -0.3297
 4825SOL    HW125937   4.658   1.726   9.640  0.0302 -0.5347 -0.6463
 4825SOL    HW225938   4.713   1.636   9.744  1.5452 -0.1089 -1.9216
 4826SOL     OW25939   1.926   0.889   3.949  0.0516 -0.0911 -0.2289
 4826SOL    HW125940   1.977   0.924   3.876  0.3122 -0.1241 -0.0633
 4826SOL    HW225941   1.856   0.954   3.943 -0.3144 -0.4058  0.6520
 4827SOL     OW25942   4.670   2.719   9.096  0.5601  0.0586 -0.3585
 4827SOL    HW125943   4.658   2.630   9.128 -1.0344  0.5621  0.4840
 4827SOL    HW225944   4.700   2.757   9.179 -0.9404  0.6334 -0.0622
 4828SOL     OW25945   3.552   3.352  17.171 -0.3032 -0.0253 -0.2614
 4828SOL    HW125946   3.538   3.428  17.227 -1.2449 -0.8920  0.6790
 4828SOL    HW225947   3.505   3.371  17.089 -1.7492  2.5209  1.1606
 4829SOL     OW25948   0.116   2.651   1.837  0.6122  0.2944 -0.0808
 4829SOL    HW125949   0.135   2.734   1.794  0.8844  0.4188  0.2750
 4829SOL    HW225950   0.180   2.650   1.908 -0.7929  2.3333  1.2256
 4830SOL     OW25951   2.543   1.073  13.298 -0.1739  0.0198  0.2211
 4830SOL    HW125952   2.528   1.031  13.213 -0.6529 -0.8913  0.7616
 4830SOL    HW225953   2.631   1.105  13.277 -0.3412 -0.1256 -0.6792
 4831SOL     OW25954   4.025   0.197   2.270 -0.2537 -0.4407 -0.5928
 4831SOL    HW125955   4.018   0.254   2.346  1.9342 -0.8976 -0.0410
 4831SOL    HW225956   4.074   0.255   2.211 -1.4471  2.0121  0.8201
 4832SOL     OW25957   0.529   1.791  10.793  0.0271  0.1790 -0.0033
 4832SOL    HW125958   0.507   1.849  10.865 -3.0067 -0.1279 -0.7095
 4832SOL    HW225959   0.599   1.742  10.836 -0.5219 -0.0313  0.6372
 4833SOL     OW25960   2.823   0.511   5.899 -0.3907 -0.2459 -0.2444
 4833SOL    HW125961   2.790   0.421   5.896 -0.6499 -0.0368 -2.9664
 4833SOL    HW225962   2.910   0.494   5.937 -0.5326 -1.1569 -0.3256
 4834SOL     OW25963   2.465   4.020   7.844 -0.5085  0.8538  0.1363
 4834SOL    HW125964   2.537   4.073   7.878 -1.0524 -0.7218  3.8033
 4834SOL    HW225965   2.402   4.086   7.815  0.8056  2.3564  0.7156
 4835SOL     OW25966   0.878   1.180   0.117 -0.0941  0.3127  0.2572
 4835SOL    HW125967   0.834   1.264   0.104 -0.2345  0.3778  1.1514
 4835SOL    HW225968   0.967   1.206   0.093 -0.8146  2.7379  0.2184
 4836SOL     OW25969   0.770   2.271   8.573  0.2205 -0.3914 -0.0428
 4836SOL    HW125970   0.847   2.254   8.629 -0.0697 -3.1368 -0.4609
 4836SOL    HW225971   0.795   2.357   8.540 -0.6728 -0.4532 -0.8482
 4837SOL     OW25972   0.313   4.099  17.365  0.6440 -0.6114 -0.3277
 4837SOL    HW125973   0.303   4.186  17.327  0.4032 -1.3197 -1.8768
 4837SOL    HW225974   0.246   4.107  17.434 -0.4846 -0.3559 -1.4590
 4838SOL     OW25975   1.073   1.487   3.715  0.1939  0.1893 -0.3307
 4838SOL    HW125976   1.079   1.579   3.739 -1.9319 -0.0062  0.9915
 4838SOL    HW225977   0.980   1.490   3.693  0.4200 -2.5286 -1.6618
 4839SOL     OW25978   2.115   0.606   3.474  0.1351  0.2155  0.1245
 4839SOL    HW125979   2.080   0.695   3.464 -0.1917  0.0159 -0.4748
 4839SOL    HW225980   2.042   0.560   3.514  0.4499 -1.1713 -0.9106
 4840SOL     OW25981   2.311   4.375  17.117  0.6809 -0.3613 -0.5749
 4840SOL    HW125982   2.231   4.342  17.159  0.3852  1.3624  0.2311
 4840SOL    HW225983   2.370   4.306  17.148 -1.5906 -3.1129 -2.4085
 4841SOL     OW25984   1.145   1.553  12.182  0.3776  0.5933 -0.4249
 4841SOL    HW125985   1.127   1.599  12.264  0.6697  0.4916 -0.3043
 4841SOL    HW225986   1.066   1.572  12.132 -0.7402 -1.4136  0.6068
 4842SOL     OW25987   3.287   2.143  14.329  0.5373 -0.0326  0.0311
 4842SOL    HW125988   3.309   2.058  14.291 -1.3640 -0.4940 -0.0611
 4842SOL    HW225989   3.345   2.138  14.406 -0.4568  0.3617  0.8073
 4843SOL     OW25990   2.242   2.096   7.797 -0.2491 -0.0795  0.4549
 4843SOL    HW125991   2.300   2.028   7.831  1.5171  0.4829 -1.4520
 4843SOL    HW225992   2.178   2.051   7.742  1.8298 -1.5243 -0.7363
 4844SOL     OW25993   1.340   3.499   3.967 -0.1378  0.1319 -0.2082
 4844SOL    HW125994   1.393   3.566   4.012 -0.2699 -1.3243  2.0834
 4844SOL    HW225995   1.405   3.429   3.971 -0.6143 -0.3964 -1.6940
 4845SOL     OW25996   3.537   3.752   0.624 -0.4490 -0.0005  0.0226
 4845SOL    HW125997   3.507   3.662   0.625  0.4742 -0.3178 -0.3414
 4845SOL    HW225998   3.486   3.782   0.549 -1.3967 -1.7491 -0.0253
 4846SOL     OW25999   0.806   2.726  17.546 -0.3478 -0.3575  0.4409
 4846SOL    HW126000   0.839   2.772  17.469  0.5141 -0.9111  0.4725
 4846SOL    HW226001   0.892   2.714  17.588 -0.1138  2.8953  0.8696
 4847SOL     OW26002   4.595   2.310   5.464 -0.4695 -0.1224  0.2112
 4847SOL    HW126003   4.671   2.252   5.457 -0.1387  0.2316  0.8413
 4847SOL    HW226004   4.633   2.394   5.439  1.0989 -0.9066 -0.0715
 4848SOL     OW26005   3.225   2.900   3.769 -0.2277  0.4278 -0.3803
 4848SOL    HW126006   3.141   2.858   3.749 -0.2049 -0.5587  1.5557
 4848SOL    HW226007   3.284   2.849   3.715 -1.1414  0.2266 -1.1937
 4849SOL     OW26008   2.037   1.671   1.251 -0.3807 -0.1427 -0.3587
 4849SOL    HW126009   1.974   1.611   1.292  0.7555 -1.2178 -0.1567
 4849SOL    HW226010   1.985   1.722   1.190 -1.6941  2.0099  2.5555
 4850SOL     OW26011   4.107   3.316   6.072  0.0935  0.2439 -0.1669
 4850SOL    HW126012   4.149   3.401   6.053 -1.3248  0.9655 -0.0162
 4850SOL    HW226013   4.139   3.272   5.993  1.2908 -1.2070  1.1361
 4851SOL     OW26014   0.525   0.501   1.415 -0.1669 -0.4853  0.2995
 4851SOL    HW126015   0.475   0.580   1.437  0.5994 -0.3483  1.5709
 4851SOL    HW226016   0.529   0.469   1.505 -0.2347 -1.1224  0.0697
 4852SOL     OW26017   4.649   1.046   2.611 -0.5112  0.2543  0.6690
 4852SOL    HW126018   4.587   1.104   2.654 -2.0838  0.5041 -1.9687
 4852SOL    HW226019   4.673   1.101   2.537 -2.3876  0.8463  0.5280
 4853SOL     OW26020   0.298   0.030   9.311  0.1418  0.2252  0.5363
 4853SOL    HW126021   0.331   4.712   9.391  2.4440  3.0569  1.1006
 4853SOL    HW226022   0.375   0.073   9.273  0.5662 -0.6477  0.4079
 4854SOL     OW26023   0.492   2.608  13.850  0.2557 -0.0014  0.2081
 4854SOL    HW126024   0.576   2.615  13.895 -0.7205  1.9867  1.6979
 4854SOL    HW226025   0.432   2.576  13.918 -1.3879  0.2610 -1.0992
 4855SOL     OW26026   3.807   0.657  10.316  0.0441 -0.0355  0.5850
 4855SOL    HW126027   3.902   0.648  10.320  0.2350  1.1618 -0.9737
 4855SOL    HW226028   3.789   0.674  10.408 -2.6241 -0.7051  0.2066
 4856SOL     OW26029   0.998   1.599   5.721 -0.6956  0.1449 -0.2803
 4856SOL    HW126030   1.007   1.666   5.789  0.0288  0.3306 -0.5663
 4856SOL    HW226031   1.045   1.525   5.758 -1.4718 -0.4725 -0.5310
 4857SOL     OW26032   0.884   2.391   5.194  0.0251 -0.6747 -0.1966
 4857SOL    HW126033   0.925   2.477   5.178  0.8753 -0.5803  2.4030
 4857SOL    HW226034   0.944   2.374   5.267 -0.4875  0.9468  0.6112
 4858SOL     OW26035   3.433   0.578  14.593 -0.1641  0.2491 -0.1362
 4858SOL    HW126036   3.450   0.488  14.566  1.2449 -0.2577  2.4862
 4858SOL    HW226037   3.504   0.624  14.549 -0.7274 -0.5357 -1.8454
 4859SOL     OW26038   1.605   0.007   9.034 -0.4492  0.3403 -0.5403
 4859SOL    HW126039   1.537   4.719   9.100  1.3842 -0.4685  1.1795
 4859SOL    HW226040   1.619   0.101   9.033  3.2321 -0.2249 -1.8735
 4860SOL     OW26041   2.616   3.732  16.437 -0.0872  0.0299  0.2213
 4860SOL    HW126042   2.699   3.756  16.477  0.7247  0.4237 -1.6841
 4860SOL    HW226043   2.557   3.785  16.490 -0.2039  1.9690 -1.8451
 4861SOL     OW26044   2.562   4.662   1.955  0.3451 -0.5965 -0.0711
 4861SOL    HW126045   2.596   4.673   1.866  3.1787 -1.0225  0.9773
 4861SOL    HW226046   2.476   4.704   1.955 -0.1980 -1.6888  2.1472
 4862SOL     OW26047   0.233   1.848   7.410  0.1219 -0.2727 -0.4255
 4862SOL    HW126048   0.202   1.784   7.347  1.7551 -1.2256 -0.2509
 4862SOL    HW226049   0.286   1.900   7.350 -0.6933 -0.7988 -1.5952
 4863SOL     OW26050   4.384   3.155   2.439  0.5029  0.2527  0.4651
 4863SOL    HW126051   4.380   3.237   2.391 -1.2644 -0.0575  0.0915
 4863SOL    HW226052   4.363   3.180   2.529 -1.4654  1.2942 -0.2728
 4864SOL     OW26053   3.995   0.727  10.545  0.4621 -0.5002 -0.4096
 4864SOL    HW126054   4.026   0.648  10.589  0.1718 -1.3387 -1.6847
 4864SOL    HW226055   4.019   0.696  10.457 -0.2733 -3.1857  0.3366
 4865SOL     OW26056   2.427   3.040   5.681 -0.3296 -0.1743  0.2999
 4865SOL    HW126057   2.438   2.948   5.658 -0.9382  0.6863 -3.4090
 4865SOL    HW226058   2.334   3.034   5.703 -0.2062  0.1678  0.9178
 4866SOL     OW26059   3.457   1.513   9.585 -0.6951 -0.3808  0.5761
 4866SOL    HW126060   3.368   1.505   9.620 -0.5903 -3.3260  0.1214
 4866SOL    HW226061   3.510   1.468   9.650  1.2007 -1.1651 -1.5148
 4867SOL     OW26062   1.982   2.414   1.865  0.3551  0.1352 -0.2061
 4867SOL    HW126063   2.031   2.383   1.788  0.0398 -1.3832  0.2023
 4867SOL    HW226064   2.033   2.490   1.892  0.9851 -0.3144 -0.1141
 4868SOL     OW26065   3.421   0.772   7.539 -0.6503  0.0639  0.6969
 4868SOL    HW126066   3.504   0.820   7.539  0.7691 -2.4310  2.0072
 4868SOL    HW226067   3.394   0.807   7.454  1.0386  0.8047  0.4543
 4869SOL     OW26068   2.868   1.546   5.191 -0.0445  0.1988 -0.4726
 4869SOL    HW126069   2.941   1.491   5.219  0.9069  1.3239 -0.7417
 4869SOL    HW226070   2.862   1.510   5.102  2.5226  2.1331 -1.4160
 4870SOL     OW26071   2.982   4.043  17.400 -0.2622  0.1603 -0.0931
 4870SOL    HW126072   2.898   3.998  17.399  0.3256 -0.9212 -1.2438
 4870SOL    HW226073   3.026   4.016  17.481 -0.1046  1.9196  0.4085
 4871SOL     OW26074   4.664   4.403   7.564  0.3443  0.0008  0.3128
 4871SOL    HW126075   4.689   4.485   7.608 -1.6306  0.7858 -0.0028
 4871SOL    HW226076   4.721   4.398   7.487 -1.2117 -3.2148 -0.6223
 4872SOL     OW26077   2.426   3.847   5.750  0.4900  0.2612  0.3198
 4872SOL    HW126078   2.337   3.827   5.724  1.1816 -1.6645 -0.6022
 4872SOL    HW226079   2.404   3.897   5.828  0.2961 -0.2213  0.5766
 4873SOL     OW26080   0.128   1.060  13.407  0.9278 -0.2167  0.0161
 4873SOL    HW126081   0.121   1.142  13.357 -1.4069  0.3572  1.3059
 4873SOL    HW226082   0.175   1.011  13.340 -3.8877 -2.4781 -1.6792
 4874SOL     OW26083   2.729   3.267   6.259 -0.0085 -0.1389  0.6450
 4874SOL    HW126084   2.646   3.243   6.299 -0.1909  0.1598  0.4483
 4874SOL    HW226085   2.718   3.238   6.169  2.6892 -0.3184  0.3656
 4875SOL     OW26086   2.171   2.565   3.151 -0.3753 -0.2235  0.6393
 4875SOL    HW126087   2.232   2.491   3.155 -1.0338 -0.6447  2.8245
 4875SOL    HW226088   2.169   2.579   3.246 -1.3503  1.7579  0.3291
 4876SOL     OW26089   4.063   0.493  13.697  0.3197  0.0006  0.0627
 4876SOL    HW126090   4.149   0.529  13.721  0.3516 -0.1278  0.1400
 4876SOL    HW226091   4.068   0.502  13.602  0.4285  0.9975  0.1575
 4877SOL     OW26092   2.641   4.250   2.358 -0.4455  0.2785  0.5251
 4877SOL    HW126093   2.574   4.204   2.408 -0.7836  0.9586  0.6972
 4877SOL    HW226094   2.714   4.248   2.421 -0.0967  0.8604  0.1299
 4878SOL     OW26095   3.159   1.162  12.042 -0.0430  0.3236  0.4311
 4878SOL    HW126096   3.150   1.255  12.021  0.1650 -0.2594 -2.2627
 4878SOL    HW226097   3.242   1.157  11.995 -0.7255  0.4945 -0.7971
 4879SOL     OW26098   4.034   4.426   0.100  0.9231 -0.1405  0.5345
 4879SOL    HW126099   4.019   4.358   0.165  0.7560  0.7442  1.4209
 4879SOL    HW226100   4.118   4.459   0.132  0.8179  0.6412  0.0032
 4880SOL     OW26101   1.296   4.712   6.381 -0.3074 -0.1193 -0.2588
 4880SOL    HW126102   1.268   4.667   6.461 -1.9924 -1.3627 -1.5474
 4880SOL    HW226103   1.352   0.057   6.415  0.5873 -1.3400  0.7887
 4881SOL     OW26104   1.521   1.608   5.299  0.4432 -0.0271 -0.1000
 4881SOL    HW126105   1.523   1.646   5.211 -0.1564  2.7317  1.0739
 4881SOL    HW226106   1.545   1.517   5.282 -0.5812 -0.4163  0.5398
 4882SOL     OW26107   0.380   2.516   4.092  0.1375  0.0863 -0.3144
 4882SOL    HW126108   0.351   2.443   4.147 -2.5488 -0.3792 -2.3489
 4882SOL    HW226109   0.475   2.513   4.103  0.2949  0.1793 -1.6460
 4883SOL     OW26110   1.911   1.373   7.906  0.0136 -0.0351  0.2040
 4883SOL    HW126111   1.865   1.457   7.900 -1.0226 -0.5045  1.6066
 4883SOL    HW226112   1.971   1.381   7.832 -0.4040 -4.1816 -0.6208
 4884SOL     OW26113   3.008   0.222  14.823  0.3554 -0.0132  0.3654
 4884SOL    HW126114   2.998   0.313  14.794  0.0147  0.0550  0.6921
 4884SOL    HW226115   2.965   0.225  14.909 -1.3990  1.2537 -0.5657
 4885SOL     OW26116   2.184   2.578   4.276  0.0335  0.1513 -0.3775
 4885SOL    HW126117   2.243   2.611   4.209 -0.9262  1.3259 -0.6334
 4885SOL    HW226118   2.191   2.487   4.246  0.7396  0.6571 -1.7512
 4886SOL     OW26119   3.428   1.683   8.515 -0.3625  0.1792  0.0636
 4886SOL    HW126120   3.369   1.757   8.533 -1.3049 -0.1753 -1.5657
 4886SOL    HW226121   3.393   1.641   8.437  1.5728 -1.2959  0.0252
 4887SOL     OW26122   3.465   3.813   9.824  0.0193  0.3806 -0.2340
 4887SOL    HW126123   3.370   3.813   9.815  0.0974  1.8384 -0.9718
 4887SOL    HW226124   3.481   3.751   9.895 -0.9971  0.2785 -0.0952
 4888SOL     OW26125   4.223   4.350   6.345 -0.1957  0.6668 -0.0320
 4888SOL    HW126126   4.221   4.300   6.263  1.2250 -0.6848  0.7503
 4888SOL    HW226127   4.275   4.427   6.325 -0.3644 -0.0163 -3.1093
 4889SOL     OW26128   3.881   2.317   5.070 -0.3241 -0.3344 -0.0181
 4889SOL    HW126129   3.796   2.285   5.100 -0.2490 -1.5018 -1.0360
 4889SOL    HW226130   3.853   2.394   5.022 -1.1510 -0.0496  0.9310
 4890SOL     OW26131   4.240   3.825   5.462 -0.0871  0.1976  0.1295
 4890SOL    HW126132   4.184   3.872   5.401  0.6299  1.4918  0.4753
 4890SOL    HW226133   4.317   3.881   5.460 -0.6209  0.9020 -0.3982
 4891SOL     OW26134   3.004   0.201   7.925  0.4006  0.0670 -0.4821
 4891SOL    HW126135   3.021   0.294   7.913  2.9271 -0.3555 -0.1317
 4891SOL    HW226136   2.923   0.197   7.873 -0.6255  0.3138  1.1009
 4892SOL     OW26137   1.853   4.401   2.722  0.2199 -0.0725  0.3202
 4892SOL    HW126138   1.817   4.489   2.735  0.8479  0.1213  0.7851
 4892SOL    HW226139   1.767   4.363   2.739  0.3316 -0.7769 -0.6722
 4893SOL     OW26140   3.560   3.542   8.799  0.7640 -0.5379  0.0633
 4893SOL    HW126141   3.473   3.504   8.788 -0.3899  2.2562 -0.3924
 4893SOL    HW226142   3.556   3.630   8.761  0.4575 -0.5356  0.1009
 4894SOL     OW26143   4.192   3.949   3.687 -0.1963 -0.3622  0.0812
 4894SOL    HW126144   4.279   3.984   3.671 -0.2454 -0.2197  0.1299
 4894SOL    HW226145   4.199   3.855   3.705  0.1201 -0.2004  0.7762
 4895SOL     OW26146   0.066   4.500   6.725 -0.2096 -0.5365 -0.1720
 4895SOL    HW126147   0.056   4.431   6.659 -2.1001  1.3087 -1.8139
 4895SOL    HW226148   0.088   4.572   6.667  0.7545 -1.7535 -1.3378
 4896SOL     OW26149   4.251   0.545   2.129  1.2055  0.1505 -0.7975
 4896SOL    HW126150   4.290   0.569   2.045  0.1753  2.2314 -0.6697
 4896SOL    HW226151   4.205   0.625   2.154  0.8666 -0.5497  0.7594
 4897SOL     OW26152   3.612   1.869   6.729  0.0835 -0.2561 -0.1328
 4897SOL    HW126153   3.585   1.906   6.814  0.0423  2.3498 -1.2754
 4897SOL    HW226154   3.621   1.955   6.687  0.8300 -0.0850  0.3730
 4898SOL     OW26155   3.693   1.688   3.505 -0.0165 -0.1929  0.1549
 4898SOL    HW126156   3.601   1.714   3.492 -0.0230 -0.8221 -1.0060
 4898SOL    HW226157   3.681   1.605   3.552  0.2916  0.2497  1.0086
 4899SOL     OW26158   1.310   1.672   4.493 -0.5416 -0.1354  0.1054
 4899SOL    HW126159   1.256   1.689   4.571 -3.0502  1.3233 -1.9675
 4899SOL    HW226160   1.277   1.730   4.425 -0.2923  0.1892  0.2576
 4900SOL     OW26161   3.068   2.022   8.222  0.5602  0.1183  0.7984
 4900SOL    HW126162   3.015   1.952   8.186  1.1193 -0.7267  1.6017
 4900SOL    HW226163   3.144   1.963   8.224 -0.9061 -1.6841  2.3959
 4901SOL     OW26164   0.813   4.317   7.456 -0.2767  0.0652  0.0777
 4901SOL    HW126165   0.817   4.389   7.394 -2.0373  0.4182  0.3685
 4901SOL    HW226166   0.762   4.363   7.522 -2.0915  0.8159 -1.8580
 4902SOL     OW26167   1.223   4.290   2.026  0.2604  0.3874 -0.1175
 4902SOL    HW126168   1.205   4.384   2.030  0.7017  0.5761 -2.7111
 4902SOL    HW226169   1.137   4.257   2.000  0.1438  0.8254 -0.2944
 4903SOL     OW26170   2.748   0.907   7.366 -0.2490  0.4238 -0.0151
 4903SOL    HW126171   2.824   0.889   7.421  0.1426  0.1347 -0.6490
 4903SOL    HW226172   2.768   0.995   7.334 -0.3698  0.4158 -0.1175
 4904SOL     OW26173   1.697   1.656   5.580 -0.0929 -0.1419 -0.1071
 4904SOL    HW126174   1.612   1.623   5.610 -0.4079 -0.0045 -0.8324
 4904SOL    HW226175   1.666   1.673   5.491  1.8351 -0.0683 -0.7747
 4905SOL     OW26176   0.758   0.797  11.681 -0.7623 -0.1687  0.5973
 4905SOL    HW126177   0.691   0.730  11.689 -2.2899  1.0767 -1.7579
 4905SOL    HW226178   0.837   0.749  11.655 -1.6163 -0.4947 -1.3790
 4906SOL     OW26179   4.276   0.506   1.532 -0.5490 -0.5379  0.3696
 4906SOL    HW126180   4.333   0.579   1.556 -0.7945  0.1891 -1.2297
 4906SOL    HW226181   4.306   0.434   1.588  1.3888 -0.0404 -0.0326
 4907SOL     OW26182   0.154   1.802   4.069  0.2847 -0.9705 -0.1659
 4907SOL    HW126183   0.229   1.779   4.014 -0.3725  0.2873 -1.5778
 4907SOL    HW226184   0.100   1.725   4.086 -0.8714 -0.4070 -1.2715
 4908SOL     OW26185   3.426   0.340   9.248 -0.0120  0.7883 -0.3685
 4908SOL    HW126186   3.411   0.389   9.168 -0.1968 -1.1590 -1.5268
 4908SOL    HW226187   3.427   0.402   9.321 -1.7893 -0.6511  0.8765
 4909SOL     OW26188   2.287   1.381  14.457  0.6185  0.2785  0.6171
 4909SOL    HW126189   2.303   1.429  14.376  2.6537 -0.6402  0.4759
 4909SOL    HW226190   2.350   1.309  14.457  1.2521  0.8393  0.6559
 4910SOL     OW26191   0.128   2.834  11.401  0.0844 -0.1935  0.1912
 4910SOL    HW126192   0.096   2.851  11.490 -3.4094  0.0359 -1.0857
 4910SOL    HW226193   0.191   2.903  11.382 -1.1066  0.6401 -0.7183
 4911SOL     OW26194   2.455   4.610   1.466  0.1474  0.4925  0.4315
 4911SOL    HW126195   2.408   4.528   1.457  2.6882 -1.0089  0.7934
 4911SOL    HW226196   2.505   4.594   1.546  0.3205 -2.3988 -0.2682
 4912SOL     OW26197   1.562   4.264   6.320 -0.1458 -0.1746 -0.1700
 4912SOL    HW126198   1.563   4.253   6.225  0.6484 -1.6996  0.0149
 4912SOL    HW226199   1.519   4.183   6.346 -0.3794 -0.1507 -0.4882
 4913SOL     OW26200   0.420   4.231  11.438  0.3416 -0.0252 -0.3158
 4913SOL    HW126201   0.427   4.324  11.416 -4.1464  0.8204  1.9876
 4913SOL    HW226202   0.424   4.192  11.351 -0.4079  0.2830 -0.4879
 4914SOL     OW26203   3.719   1.432  15.491 -0.1389 -0.7577 -0.0167
 4914SOL    HW126204   3.656   1.400  15.427  0.2088 -0.5609 -0.4511
 4914SOL    HW226205   3.737   1.516  15.450  0.4919 -0.8393  0.0844
 4915SOL     OW26206   1.687   3.681   9.005 -0.0942 -0.0721 -0.0009
 4915SOL    HW126207   1.664   3.623   9.077 -0.6626 -1.2104 -1.1064
 4915SOL    HW226208   1.603   3.725   8.998 -0.9536 -2.1455 -2.8295
 4916SOL     OW26209   2.211   4.599  13.769  0.0416  0.0716 -0.5719
 4916SOL    HW126210   2.212   4.653  13.848 -2.1994 -0.1332 -0.4131
 4916SOL    HW226211   2.273   4.645  13.712  0.5926  0.9515  0.7461
 4917SOL     OW26212   3.050   0.178   2.689 -0.0880  0.2259  0.2068
 4917SOL    HW126213   2.962   0.160   2.656  0.4145 -1.1104 -0.4255
 4917SOL    HW226214   3.058   0.266   2.652  1.8113  0.6208  1.5483
 4918SOL     OW26215   4.532   2.632   9.643  0.3142 -0.1540  0.1161
 4918SOL    HW126216   4.559   2.541   9.627  2.7913  0.7122 -0.5918
 4918SOL    HW226217   4.486   2.645   9.560 -0.7914  1.8144  1.0573
 4919SOL     OW26218   2.057   3.405   9.519  0.1775 -0.2680  0.2464
 4919SOL    HW126219   2.124   3.422   9.585 -0.9870  3.3011  0.5161
 4919SOL    HW226220   2.007   3.486   9.528  0.4370 -0.1636  0.7272
 4920SOL     OW26221   0.624   2.770   5.766  0.4228 -0.5043 -0.0050
 4920SOL    HW126222   0.547   2.766   5.709  2.2386 -0.3073 -2.4400
 4920SOL    HW226223   0.582   2.820   5.837  1.2079 -1.2493  0.9899
 4921SOL     OW26224   2.166   2.783   2.966  0.0300  0.5097 -0.0746
 4921SOL    HW126225   2.231   2.728   3.012  0.1295  1.1597  0.5629
 4921SOL    HW226226   2.089   2.792   3.022  0.3899 -0.7287  0.6331
 4922SOL     OW26227   2.116   2.536  10.673  0.2728 -0.8163  0.3029
 4922SOL    HW126228   2.026   2.508  10.689 -0.6186  2.7604  1.6379
 4922SOL    HW226229   2.128   2.488  10.591  0.1296 -1.2521  0.5379
 4923SOL     OW26230   0.418   1.968  10.977  0.1500  0.1940 -0.7602
 4923SOL    HW126231   0.325   1.990  10.981 -0.0442 -0.9049  0.5781
 4923SOL    HW226232   0.411   1.896  11.039 -0.2317 -1.1050 -2.3192
 4924SOL     OW26233   3.044   4.593   1.154 -0.2624  0.1988 -0.0221
 4924SOL    HW126234   3.100   4.529   1.198  1.5566  1.1362 -0.9799
 4924SOL    HW226235   3.085   4.677   1.175 -0.7711  0.1981  0.9399
 4925SOL     OW26236   0.355   1.783   5.898 -0.2845 -0.0285  0.1510
 4925SOL    HW126237   0.322   1.760   5.811 -1.8684  0.8540  0.5204
 4925SOL    HW226238   0.271   1.806   5.939 -1.0605 -2.0370 -0.2911
 4926SOL     OW26239   4.098   0.382  17.656 -0.2248 -0.1940 -0.5404
 4926SOL    HW126240   4.183   0.356  17.691  0.4000  1.6034 -0.7401
 4926SOL    HW226241   4.045   0.314  17.697  1.8191 -1.0898  0.6246
 4927SOL     OW26242   4.300   3.733   6.019 -0.2562 -0.1652  0.4468
 4927SOL    HW126243   4.353   3.801   5.976  0.1758 -1.3348 -0.8706
 4927SOL    HW226244   4.369   3.677   6.056  0.5726  0.2769 -0.4367
 4928SOL     OW26245   1.386   0.186   2.392  0.4971 -0.5912  0.0957
 4928SOL    HW126246   1.433   0.263   2.359 -1.9593  1.6185  1.7905
 4928SOL    HW226247   1.292   0.202   2.386  0.2931 -1.9118 -0.3067
 4929SOL     OW26248   4.673   3.886   7.605 -0.0463  0.0450 -0.0409
 4929SOL    HW126249   0.000   3.966   7.598 -0.2257  0.0947 -0.7864
 4929SOL    HW226250   0.013   3.842   7.661  0.0774 -0.5342 -0.6334
 4930SOL     OW26251   3.820   0.993   3.180  0.6607  0.1348  0.0849
 4930SOL    HW126252   3.908   1.027   3.168  0.7127  0.2035  0.6308
 4930SOL    HW226253   3.793   0.968   3.092  2.4488 -2.2135  0.2057
 4931SOL     OW26254   3.280   0.626   5.033 -0.3091 -0.5078  0.4280
 4931SOL    HW126255   3.340   0.565   4.991  1.0116  0.3947  0.9812
 4931SOL    HW226256   3.223   0.661   4.964  0.6836  1.0334  0.3894
 4932SOL     OW26257   3.249   4.218   6.405 -0.3404  0.0816 -0.0147
 4932SOL    HW126258   3.223   4.237   6.495 -1.0140 -0.1283 -0.1655
 4932SOL    HW226259   3.339   4.191   6.421  0.0427  1.4664  0.1288
 4933SOL     OW26260   0.163   2.426   7.585 -0.0820  0.1926  0.0913
 4933SOL    HW126261   0.075   2.412   7.619  0.4697 -1.8301  0.6924
 4933SOL    HW226262   0.208   2.352   7.627 -0.5121 -0.4204 -0.5343
 4934SOL     OW26263   0.630   3.253   8.531 -0.3939 -0.3831  0.4348
 4934SOL    HW126264   0.605   3.182   8.590 -0.8295 -0.4037  0.2240
 4934SOL    HW226265   0.588   3.325   8.579 -1.6227 -2.6029  2.6479
 4935SOL     OW26266   2.266   3.575   4.910 -0.1957 -0.0460 -0.7866
 4935SOL    HW126267   2.356   3.545   4.922 -0.0393  0.1923 -1.3647
 4935SOL    HW226268   2.222   3.493   4.885 -0.8589  0.0875 -0.0179
 4936SOL     OW26269   0.068   3.074   4.661  0.0196 -0.4703  0.4980
 4936SOL    HW126270   4.715   3.023   4.685 -1.4843 -0.2651 -3.8009
 4936SOL    HW226271   0.032   3.119   4.584 -0.3470 -2.9284 -0.7676
 4937SOL     OW26272   3.362   2.421   3.727 -0.4373 -0.0694 -0.1432
 4937SOL    HW126273   3.338   2.508   3.694  0.4159  0.6536  1.1221
 4937SOL    HW226274   3.320   2.370   3.658 -0.3402 -1.1978  0.6334
 4938SOL     OW26275   0.655   2.549   4.029 -0.1543  0.0425  0.4374
 4938SOL    HW126276   0.670   2.455   4.023 -1.4185 -0.2003  0.9158
 4938SOL    HW226277   0.695   2.581   3.948 -0.6124  1.9858  0.9765
 4939SOL     OW26278   1.338   0.987   0.981 -0.0005 -0.4598 -0.4488
 4939SOL    HW126279   1.412   1.026   0.936 -0.0218  1.6871  1.4388
 4939SOL    HW226280   1.381   0.904   1.003 -0.6170 -1.3122 -2.4229
 4940SOL     OW26281   3.059   2.995   2.444 -0.2971  0.3711  0.1713
 4940SOL    HW126282   3.101   3.036   2.368  0.3941  0.9881  0.8857
 4940SOL    HW226283   3.141   2.986   2.493 -0.3855  0.2184  0.2916
 4941SOL     OW26284   0.314   2.308  16.983  0.0681 -0.0139 -0.5765
 4941SOL    HW126285   0.305   2.279  17.074  0.9329 -2.3312 -1.2398
 4941SOL    HW226286   0.234   2.263  16.957 -0.2696  0.2390  0.0212
 4942SOL     OW26287   1.328   3.688  15.242 -0.0172  0.1057 -0.5164
 4942SOL    HW126288   1.337   3.601  15.203 -1.7660 -0.1360 -0.3757
 4942SOL    HW226289   1.395   3.685  15.310 -0.5158  3.0893  0.1061
 4943SOL     OW26290   1.800   2.985  11.927 -0.0941  0.0908  0.1749
 4943SOL    HW126291   1.742   2.936  11.984 -0.2764  0.2118  0.0929
 4943SOL    HW226292   1.850   2.923  11.874  0.1584  1.0260 -0.6965
 4944SOL     OW26293   1.723   3.082   8.433 -0.0618 -0.4804  0.4536
 4944SOL    HW126294   1.726   3.055   8.525  1.3300 -1.8121  0.0246
 4944SOL    HW226295   1.628   3.086   8.424 -0.1965 -0.4146  1.8466
 4945SOL     OW26296   1.287   2.574   7.392 -0.7078 -0.4764  0.4354
 4945SOL    HW126297   1.377   2.571   7.358 -0.5514  2.4033  0.5446
 4945SOL    HW226298   1.295   2.628   7.470 -0.4194 -0.8730  0.6807
 4946SOL     OW26299   2.829   2.568  17.487 -0.3506 -0.4126 -0.1702
 4946SOL    HW126300   2.766   2.509  17.444 -0.7514  0.6259 -1.0152
 4946SOL    HW226301   2.907   2.514  17.497  1.2164  1.8620 -0.2595
 4947SOL     OW26302   1.614   1.867  16.769  0.1435 -0.5399  0.1500
 4947SOL    HW126303   1.628   1.776  16.797 -2.3872 -0.7375  0.7142
 4947SOL    HW226304   1.539   1.890  16.823 -0.6677 -0.0672 -1.1878
 4948SOL     OW26305   1.783   1.357   0.043  0.5107  0.5530 -0.2173
 4948SOL    HW126306   1.728   1.398  17.677  1.0746  2.2798  0.3925
 4948SOL    HW226307   1.723   1.337   0.114 -0.2164 -0.4096 -1.0943
 4949SOL     OW26308   3.863   1.650  13.335  0.1172 -0.0344 -0.3434
 4949SOL    HW126309   3.788   1.603  13.299  1.3651 -4.0746  2.2900
 4949SOL    HW226310   3.904   1.590  13.397 -1.5157 -1.7312 -0.9088
 4950SOL     OW26311   1.797   4.220   8.976 -0.3985  0.4591  0.1677
 4950SOL    HW126312   1.781   4.262   8.891  0.5784  2.0647  0.7850
 4950SOL    HW226313   1.890   4.236   8.986  0.1350 -1.9400 -0.8048
 4951SOL     OW26314   3.113   2.052   3.111 -0.2869  0.0292  0.4348
 4951SOL    HW126315   3.202   2.063   3.076 -1.6842 -0.5160 -3.2630
 4951SOL    HW226316   3.079   2.071   3.023 -0.1608  2.6719  0.9641
 4952SOL     OW26317   0.328   1.236   5.374 -0.1084 -0.0668  0.0927
 4952SOL    HW126318   0.397   1.258   5.436  1.6542  0.4532 -2.0636
 4952SOL    HW226319   0.383   1.240   5.296 -0.1507 -1.5751 -0.0267
 4953SOL     OW26320   3.264   0.308   2.488  0.0561 -0.0931 -0.3470
 4953SOL    HW126321   3.321   0.246   2.534  0.7608  0.8430  0.0421
 4953SOL    HW226322   3.216   0.246   2.433 -1.0898  1.2515 -0.8672
 4954SOL     OW26323   3.287   2.584   9.933 -0.4880 -0.1398  0.0126
 4954SOL    HW126324   3.265   2.500   9.973 -0.7351  0.9767  2.1895
 4954SOL    HW226325   3.247   2.573   9.847 -1.8580 -0.0997  0.6553
 4955SOL     OW26326   3.265   1.609   8.291 -0.6582  0.2795  0.4127
 4955SOL    HW126327   3.325   1.548   8.248 -1.9517  0.6423 -1.8629
 4955SOL    HW226328   3.221   1.545   8.348  0.8920 -2.1877 -1.1631
 4956SOL     OW26329   0.581   1.281  13.823 -0.3029  0.0605 -0.4176
 4956SOL    HW126330   0.496   1.247  13.852  0.0195 -0.6436 -0.2946
 4956SOL    HW226331   0.611   1.212  13.763 -0.4811 -1.1378  0.8633
 4957SOL     OW26332   1.943   2.346   8.327  0.1153 -0.4692  0.2941
 4957SOL    HW126333   2.006   2.363   8.398  1.1012 -0.9989 -0.4472
 4957SOL    HW226334   1.881   2.284   8.364  1.2539 -2.0549 -0.4296
 4958SOL     OW26335   0.145   2.952   3.248 -0.5050  0.5103 -0.3742
 4958SOL    HW126336   0.122   2.969   3.339 -0.5020 -1.9677  0.0733
 4958SOL    HW226337   0.057   2.960   3.212 -0.5251 -1.0383 -0.6453
 4959SOL     OW26338   1.148   3.042   3.322 -0.1389 -0.1661  0.8680
 4959SOL    HW126339   1.232   3.086   3.307  0.3095 -0.4977  2.3705
 4959SOL    HW226340   1.125   3.005   3.237 -0.3071  0.5775  0.5894
 4960SOL     OW26341   3.770   1.003   2.552  0.1730  0.0845  0.2214
 4960SOL    HW126342   3.820   0.942   2.498 -1.2661 -0.7656 -0.1378
 4960SOL    HW226343   3.835   1.063   2.590  0.4935 -0.6068  0.7601
 4961SOL     OW26344   1.326   0.836   8.055  0.5756 -0.0795  0.6237
 4961SOL    HW126345   1.361   0.799   8.137 -0.5887  0.5546  1.3917
 4961SOL    HW226346   1.305   0.926   8.078 -0.3527 -0.3629  0.8842
 4962SOL     OW26347   1.332   1.517   2.661  0.4685  0.8070 -0.5667
 4962SOL    HW126348   1.350   1.466   2.582  0.0791 -1.6852  0.9509
 4962SOL    HW226349   1.370   1.601   2.635 -0.9832  1.8484  0.7180
 4963SOL     OW26350   2.255   0.926   1.875  0.0322 -0.5572  0.1647
 4963SOL    HW126351   2.258   0.953   1.784  0.6680 -0.6320  0.1650
 4963SOL    HW226352   2.305   0.844   1.883  1.8473  0.6630  1.4543
 4964SOL     OW26353   1.162   1.549   9.446  0.3268  0.2268 -0.0707
 4964SOL    HW126354   1.163   1.458   9.418  1.5213  0.2385 -0.0772
 4964SOL    HW226355   1.140   1.539   9.538  1.1637 -0.8731  0.0127
 4965SOL     OW26356   0.600   1.851  16.845  0.0823  0.0372  0.2043
 4965SOL    HW126357   0.634   1.932  16.882  1.9930 -0.6037 -0.1384
 4965SOL    HW226358   0.512   1.879  16.821  0.4838 -0.7330 -2.1718
 4966SOL     OW26359   1.360   0.030   5.666 -0.5413  0.0298 -0.1579
 4966SOL    HW126360   1.421   4.708   5.610 -1.3981 -0.4739 -0.6796
 4966SOL    HW226361   1.405   0.016   5.748 -0.1342 -1.5878 -0.6660
 4967SOL     OW26362   1.592   0.086   4.469  0.3646 -0.3335  0.7247
 4967SOL    HW126363   1.591   0.167   4.418 -0.7876  0.5037  2.0628
 4967SOL    HW226364   1.676   0.080   4.514  0.7011  1.6508  0.3611
 4968SOL     OW26365   2.339   0.997   5.657  0.1414  0.3560  0.4057
 4968SOL    HW126366   2.329   0.902   5.650 -1.8291  0.5828  0.0457
 4968SOL    HW226367   2.337   1.020   5.564 -0.3518 -0.3514  0.2366
 4969SOL     OW26368   3.418   0.808   6.578  0.5202 -0.5542 -0.0051
 4969SOL    HW126369   3.416   0.878   6.643  0.4321 -0.1278 -0.4619
 4969SOL    HW226370   3.497   0.759   6.601 -0.3783 -2.0142 -0.0621
 4970SOL     OW26371   1.504   2.093  12.269  0.2597  0.0389 -0.3922
 4970SOL    HW126372   1.454   2.089  12.351  0.4812 -3.5486 -0.4219
 4970SOL    HW226373   1.572   2.031  12.293  1.3879  0.6414 -2.0907
 4971SOL     OW26374   3.840   1.651   1.727 -0.1946 -0.4206 -0.1781
 4971SOL    HW126375   3.781   1.725   1.710 -0.1079  0.2540  2.4629
 4971SOL    HW226376   3.778   1.578   1.731 -1.0960  0.2759 -1.1915
 4972SOL     OW26377   4.134   1.313   5.658  0.1224 -0.0936  0.0375
 4972SOL    HW126378   4.181   1.313   5.741 -0.9961  3.9472  0.6652
 4972SOL    HW226379   4.052   1.265   5.675 -0.8315  1.8977  1.0248
 4973SOL     OW26380   1.875   1.760   6.655  0.0800 -0.1955  0.1772
 4973SOL    HW126381   1.896   1.731   6.566 -0.1150  0.6280 -0.1433
 4973SOL    HW226382   1.791   1.803   6.638  0.5625  1.1471  1.2091
 4974SOL     OW26383   4.002   2.055   0.591 -0.2447 -0.7100 -0.9136
 4974SOL    HW126384   3.924   2.026   0.544 -0.2658 -0.4232 -1.0494
 4974SOL    HW226385   4.003   2.151   0.592  0.7899 -0.7284 -0.3604
 4975SOL     OW26386   3.393   0.838  13.274  0.2846 -0.1754  0.2010
 4975SOL    HW126387   3.392   0.757  13.224 -1.6866  1.1180 -1.8857
 4975SOL    HW226388   3.467   0.882  13.233 -1.0857  0.4585 -1.6086
 4976SOL     OW26389   3.409   0.213  16.206 -0.1083 -0.0663  0.0784
 4976SOL    HW126390   3.324   0.171  16.217 -0.8538  1.2752 -0.5950
 4976SOL    HW226391   3.461   0.160  16.267 -0.9045 -1.6591 -0.6334
 4977SOL     OW26392   2.677   0.584   4.229  0.0473  0.2508  0.4978
 4977SOL    HW126393   2.645   0.576   4.139  0.0862  2.8943  0.2742
 4977SOL    HW226394   2.713   0.496   4.242 -1.2441 -0.3719 -0.1231
 4978SOL     OW26395   0.393   3.046  16.268 -0.4134  0.2643 -0.4386
 4978SOL    HW126396   0.319   3.050  16.328 -0.2398 -0.3902 -0.1766
 4978SOL    HW226397   0.441   2.980  16.318 -1.5107  0.8180  1.3366
 4979SOL     OW26398   3.568   0.130   9.170  0.2661 -0.0995 -0.8120
 4979SOL    HW126399   3.517   0.203   9.207 -2.5114 -2.3739 -0.0835
 4979SOL    HW226400   3.536   0.130   9.080 -3.5502 -0.0152  0.5296
 4980SOL     OW26401   0.562   4.555   8.685 -0.2281 -0.2979  0.0708
 4980SOL    HW126402   0.526   4.638   8.656  2.5625  0.9839  0.2604
 4980SOL    HW226403   0.538   4.502   8.609  1.8338  0.7151 -1.2864
 4981SOL     OW26404   0.483   4.247   7.308  0.4163  0.1794 -0.1733
 4981SOL    HW126405   0.561   4.203   7.274 -0.5143 -0.7567 -1.1263
 4981SOL    HW226406   0.414   4.209   7.253  1.7164 -0.7252 -1.1707
 4982SOL     OW26407   3.862   2.793  14.364 -0.1514  0.0587  0.0842
 4982SOL    HW126408   3.796   2.861  14.368 -1.4212 -1.0570 -1.5290
 4982SOL    HW226409   3.836   2.732  14.433 -2.4166 -0.4069 -1.1925
 4983SOL     OW26410   2.573   4.640   1.214 -0.0518  0.5686 -0.7324
 4983SOL    HW126411   2.525   4.664   1.293  0.9760  1.7647 -0.4732
 4983SOL    HW226412   2.654   4.614   1.259 -0.7188 -0.9141 -0.3996
 4984SOL     OW26413   1.673   1.646   4.411 -0.3110  0.3640 -0.5396
 4984SOL    HW126414   1.609   1.702   4.368  1.4333  1.0270 -2.2765
 4984SOL    HW226415   1.704   1.595   4.336  0.5821  1.2394 -0.7616
 4985SOL     OW26416   1.539   3.390   1.482  0.4289  0.2041  0.0513
 4985SOL    HW126417   1.573   3.349   1.562 -1.0992  0.9461  1.0886
 4985SOL    HW226418   1.567   3.481   1.494  2.9849 -0.6637  0.7558
 4986SOL     OW26419   0.826   4.020   5.134  0.2239 -0.0602 -0.5325
 4986SOL    HW126420   0.859   3.995   5.221  1.1630 -1.0966 -1.1963
 4986SOL    HW226421   0.888   4.085   5.100 -0.7204  0.5223 -1.1208
 4987SOL     OW26422   4.322   1.168   7.602 -0.3865  0.3223  0.4399
 4987SOL    HW126423   4.339   1.262   7.597  0.1991  0.2021  0.0962
 4987SOL    HW226424   4.273   1.166   7.684  0.1460 -0.0256  0.7517
 4988SOL     OW26425   0.373   0.205   1.682 -0.0344  0.2624 -0.1724
 4988SOL    HW126426   0.309   0.228   1.750  0.1797  1.2744 -0.3137
 4988SOL    HW226427   0.440   0.158   1.732  2.0824  1.9768 -1.3955
 4989SOL     OW26428   2.235   1.418   4.777 -0.1261 -0.8067 -0.2785
 4989SOL    HW126429   2.183   1.346   4.812 -1.1817 -0.6939 -1.6279
 4989SOL    HW226430   2.300   1.378   4.718  0.0449 -1.9216  0.6775
 4990SOL     OW26431   3.742   3.572   6.993 -0.3111 -0.2664 -0.5560
 4990SOL    HW126432   3.703   3.634   7.055  0.4218 -1.2382  0.8825
 4990SOL    HW226433   3.696   3.589   6.911  0.8851  0.7922 -0.9954
 4991SOL     OW26434   1.697   1.129   5.644 -0.2331 -0.4987  0.0163
 4991SOL    HW126435   1.629   1.063   5.655  1.1984 -1.3366  3.9196
 4991SOL    HW226436   1.630   1.198   5.640 -0.2107 -0.5796 -1.7149
 4992SOL     OW26437   4.221   3.490   3.879 -0.1790 -0.1948  0.3235
 4992SOL    HW126438   4.217   3.480   3.783 -0.1531  1.7635  0.1131
 4992SOL    HW226439   4.186   3.579   3.885 -0.4302 -0.5289  3.5103
 4993SOL     OW26440   0.962   0.500   7.197 -0.0303 -0.1291 -0.3474
 4993SOL    HW126441   0.943   0.525   7.106 -0.6590 -2.2840 -0.7987
 4993SOL    HW226442   1.057   0.511   7.202 -0.3953  1.1288  3.6979
 4994SOL     OW26443   3.319   1.141   3.869 -0.1198  0.2310  0.2340
 4994SOL    HW126444   3.402   1.174   3.832  0.9300 -0.8790  1.5939
 4994SOL    HW226445   3.359   1.072   3.922 -2.0832 -1.7013 -0.8614
 4995SOL     OW26446   1.281   3.900   4.049  0.1863 -0.3467 -0.2269
 4995SOL    HW126447   1.220   3.961   4.007  1.9067 -0.1931 -2.5335
 4995SOL    HW226448   1.241   3.814   4.042 -0.9514 -0.0223  2.4370
 4996SOL     OW26449   1.735   0.050   4.167  0.0200  0.1101  0.6821
 4996SOL    HW126450   1.814   0.090   4.205 -0.3396  0.1790  1.3666
 4996SOL    HW226451   1.664   0.113   4.177  0.0244  0.0158  1.3392
 4997SOL     OW26452   1.850   0.490   1.642  0.2153 -0.2769 -0.6755
 4997SOL    HW126453   1.871   0.528   1.728 -0.5975 -0.1627 -0.5312
 4997SOL    HW226454   1.923   0.429   1.628 -1.7021 -2.8249  0.4202
 4998SOL     OW26455   3.142   1.909   6.090  0.3902  0.8397  0.4474
 4998SOL    HW126456   3.220   1.858   6.068 -2.6012 -3.2300 -0.7674
 4998SOL    HW226457   3.107   1.944   6.009  0.5414 -0.9683 -0.3955
 4999SOL     OW26458   4.053   4.649   1.898  0.0092  0.0110  0.1571
 4999SOL    HW126459   4.044   4.559   1.867 -2.6109  0.4890 -0.4325
 4999SOL    HW226460   4.038   4.647   1.993 -0.5897  0.0055  0.0613
 5000SOL     OW26461   1.267   4.249   3.143  0.3864 -0.0373 -0.2901
 5000SOL    HW126462   1.240   4.209   3.060  1.7246  0.7130 -1.0869
 5000SOL    HW226463   1.350   4.291   3.121  0.2861  1.5500  2.3189
 5001SOL     OW26464   3.515   4.055   1.995  0.2350 -0.1765  0.2969
 5001SOL    HW126465   3.529   4.127   2.056 -1.2408 -0.7109  1.2781
 5001SOL    HW226466   3.420   4.053   2.007 -0.1532 -0.6977 -2.7906
 5002SOL     OW26467   0.396   1.073  16.130 -0.3255  0.2148 -0.2485
 5002SOL    HW126468   0.315   1.088  16.180 -0.5420 -0.0655 -0.5189
 5002SOL    HW226469   0.368   1.102  16.044  0.7822  1.3077 -0.2410
 5003SOL     OW26470   1.984   3.685   9.010  0.2819 -0.2257  0.3149
 5003SOL    HW126471   1.975   3.776   8.981  0.9696 -1.2489 -3.0989
 5003SOL    HW226472   1.894   3.659   9.031  0.3159  1.0077  1.9811
 5004SOL     OW26473   4.243   3.106  16.936  0.0310  0.0030 -0.7703
 5004SOL    HW126474   4.181   3.179  16.947 -1.4922 -1.7206  1.9659
 5004SOL    HW226475   4.324   3.154  16.918  0.5150 -0.4408  0.2245
 5005SOL     OW26476   4.471   0.141   3.420  0.0201 -0.1483 -0.8880
 5005SOL    HW126477   4.375   0.137   3.419  0.0284 -0.4222 -0.5031
 5005SOL    HW226478   4.497   0.157   3.510  0.4518  1.7480 -1.3497
 5006SOL     OW26479   2.050   2.647   3.404 -0.2636 -0.1397  0.0426
 5006SOL    HW126480   2.043   2.742   3.405 -3.2218 -0.3513  1.0849
 5006SOL    HW226481   2.078   2.629   3.494 -0.3635  2.2389  0.5302
 5007SOL     OW26482   0.965   0.558  17.055 -0.2358  0.3363 -0.1109
 5007SOL    HW126483   0.879   0.600  17.058  0.1422  1.2103 -1.0406
 5007SOL    HW226484   0.991   0.543  17.145  0.6885  0.8823 -0.2866
 5008SOL     OW26485   3.804   2.232   7.391 -0.2276  0.1746  0.0426
 5008SOL    HW126486   3.851   2.156   7.427 -1.9099  0.2847  2.4632
 5008SOL    HW226487   3.834   2.232   7.300 -0.3490 -1.9470  0.0094
 5009SOL     OW26488   2.579   4.003   0.368 -0.0508  0.1469 -0.5372
 5009SOL    HW126489   2.543   4.048   0.291 -2.3415 -0.1500  0.3472
 5009SOL    HW226490   2.642   4.063   0.409 -0.1921  0.1686 -0.3499
 5010SOL     OW26491   1.379   1.600  15.941  0.2740 -0.2772 -0.2609
 5010SOL    HW126492   1.402   1.651  16.018 -1.7091  2.2653 -1.3288
 5010SOL    HW226493   1.387   1.509  15.969  1.7169  0.3752  1.3947
 5011SOL     OW26494   1.461   1.327   9.327  0.2841 -0.1569  0.1436
 5011SOL    HW126495   1.477   1.379   9.406 -1.2309  1.9421 -0.9479
 5011SOL    HW226496   1.376   1.294   9.355  0.4799  1.4565  2.6587
 5012SOL     OW26497   2.733   3.196   5.030 -0.2352 -0.4215 -0.0543
 5012SOL    HW126498   2.804   3.260   5.033 -0.0208 -0.6971  0.8057
 5012SOL    HW226499   2.783   3.135   4.975  0.1738  0.0986 -0.2602
 5013SOL     OW26500   0.095   3.320   2.134 -0.5692 -0.2057 -0.1122
 5013SOL    HW126501   0.027   3.382   2.109  1.2477  1.4647 -0.9156
 5013SOL    HW226502   0.170   3.367   2.096 -0.2640 -1.7656 -1.4307
 5014SOL     OW26503   1.237   1.974   3.585  0.2879 -0.2861  0.2144
 5014SOL    HW126504   1.314   1.990   3.640 -1.6328  1.5493  2.3822
 5014SOL    HW226505   1.242   2.035   3.512  3.9556  1.6081  2.0681
 5015SOL     OW26506   1.072   2.504  16.487 -0.3499  0.1684 -0.2693
 5015SOL    HW126507   1.039   2.556  16.414 -0.9419  0.5617  0.2793
 5015SOL    HW226508   1.078   2.578  16.548 -0.3442  1.3515 -1.7093
 5016SOL     OW26509   2.918   2.676   4.304  0.0044  0.2500 -0.2164
 5016SOL    HW126510   2.847   2.723   4.349 -1.8012 -1.3952 -1.3405
 5016SOL    HW226511   2.865   2.604   4.271 -2.2771  0.0389  3.8239
 5017SOL     OW26512   1.554   1.631  15.309  0.1054 -0.3124  0.5939
 5017SOL    HW126513   1.632   1.659  15.261  0.2344 -1.2406  0.2525
 5017SOL    HW226514   1.553   1.670  15.396  1.5419  1.1329 -0.0305
 5018SOL     OW26515   3.815   2.426  17.571  0.3465  0.2709 -0.0204
 5018SOL    HW126516   3.735   2.429  17.519  0.8740 -0.3054 -0.8672
 5018SOL    HW226517   3.807   2.334  17.596  1.5271  0.3775  0.7738
 5019SOL     OW26518   4.366   0.763  11.286 -0.4347  0.1566 -0.1660
 5019SOL    HW126519   4.333   0.688  11.335  1.9002 -1.1765 -0.6207
 5019SOL    HW226520   4.392   0.725  11.203 -0.6754 -0.4592  0.0470
 5020SOL     OW26521   4.491   4.564   8.599 -0.4324 -0.2502  0.1932
 5020SOL    HW126522   4.431   4.572   8.672 -0.8747 -0.3946 -0.1572
 5020SOL    HW226523   4.429   4.568   8.527  0.2578  1.4256 -0.3248
 5021SOL     OW26524   2.110   2.034   8.165 -0.2574 -0.1867 -0.2334
 5021SOL    HW126525   2.147   1.953   8.131 -1.2114 -1.4846  1.8385
 5021SOL    HW226526   2.191   2.075   8.195 -1.3300  0.1579  2.1946
 5022SOL     OW26527   0.797   0.599   4.275  0.2461  0.1552  0.3760
 5022SOL    HW126528   0.795   0.538   4.202 -2.8698  0.4778  0.2020
 5022SOL    HW226529   0.798   0.542   4.352 -0.4521 -0.7617 -0.3009
 5023SOL     OW26530   4.106   4.649   7.171 -0.1403 -0.0753  0.1977
 5023SOL    HW126531   4.040   4.581   7.180  0.0604 -0.3358 -0.3035
 5023SOL    HW226532   4.061   0.009   7.167 -0.7904 -0.5824 -3.1290
 5024SOL     OW26533   1.438   4.348   7.228  0.2854 -0.1902 -0.1593
 5024SOL    HW126534   1.453   4.397   7.147 -0.2597  0.9423  0.4203
 5024SOL    HW226535   1.346   4.332   7.208  0.3491 -0.7576  0.0076
 5025SOL     OW26536   4.442   4.097   7.604  0.2516  0.3514  0.4920
 5025SOL    HW126537   4.452   4.011   7.643  0.2435  0.3718  0.5384
 5025SOL    HW226538   4.507   4.145   7.655  0.8443 -1.0506  1.0424
 5026SOL     OW26539   2.844   1.842   9.743  0.2973 -0.4338 -0.3824
 5026SOL    HW126540   2.916   1.886   9.789  1.0030 -1.2318 -0.7077
 5026SOL    HW226541   2.886   1.828   9.657  0.3599 -0.5539 -0.3325
 5027SOL     OW26542   3.224   4.194   8.916 -0.6425  0.4371 -0.4567
 5027SOL    HW126543   3.247   4.107   8.884  1.4562  0.8391 -0.0104
 5027SOL    HW226544   3.267   4.253   8.854 -0.1622  0.0963 -0.4443
 5028SOL     OW26545   1.443   1.766   4.774 -0.5838  0.6913  0.3398
 5028SOL    HW126546   1.402   1.755   4.688 -1.2913 -0.9385  0.8797
 5028SOL    HW226547   1.420   1.684   4.818 -1.5618  0.7581 -0.0262
 5029SOL     OW26548   0.754   2.788  12.595 -0.3085  0.0109  0.3773
 5029SOL    HW126549   0.837   2.744  12.578  1.1132  1.7288  2.9066
 5029SOL    HW226550   0.743   2.769  12.688  2.9544  0.3814  0.8049
 5030SOL     OW26551   1.528   2.386   0.526  1.0117  0.5105  0.7145
 5030SOL    HW126552   1.595   2.338   0.477  0.1247  0.6025 -0.5820
 5030SOL    HW226553   1.520   2.463   0.470  0.4357 -1.4234 -1.8443
 5031SOL     OW26554   4.707   3.679   1.044 -0.0401  0.3234  0.7502
 5031SOL    HW126555   4.650   3.614   1.001  0.8285 -1.1666  1.8404
 5031SOL    HW226556   4.641   3.729   1.091 -1.1906 -0.7973  0.3469
 5032SOL     OW26557   0.179   0.236   1.862  0.1507 -0.4094  0.3412
 5032SOL    HW126558   0.218   0.281   1.937 -1.6239  1.1526  0.3353
 5032SOL    HW226559   0.131   0.309   1.825 -1.4530 -2.2595 -1.2181
 5033SOL     OW26560   4.506   3.502   4.795 -0.5545 -0.6952 -0.0902
 5033SOL    HW126561   4.412   3.512   4.812 -0.3346  1.7883 -0.3225
 5033SOL    HW226562   4.521   3.424   4.849 -1.5123 -0.2469  0.8175
 5034SOL     OW26563   2.988   2.303   7.542  0.3626  0.1492  0.0754
 5034SOL    HW126564   3.030   2.329   7.461  1.3920  1.1038  0.9139
 5034SOL    HW226565   3.048   2.339   7.608 -0.9558  0.7967  0.9261
 5035SOL     OW26566   2.997   0.491   7.259  0.0421 -0.4065  0.1234
 5035SOL    HW126567   2.971   0.573   7.218  2.1459 -0.2201 -0.8592
 5035SOL    HW226568   3.059   0.530   7.321  0.8716 -1.2215 -0.2027
 5036SOL     OW26569   0.943   4.084   4.197  0.3047  0.2635 -0.5056
 5036SOL    HW126570   0.948   4.005   4.143 -1.7067  1.6118 -2.6078
 5036SOL    HW226571   1.011   4.080   4.264  0.4477  0.4948 -0.6395
 5037SOL     OW26572   4.051   4.185   1.481  0.2019  0.3544 -0.6215
 5037SOL    HW126573   4.140   4.209   1.458 -0.6672  0.9633 -3.3055
 5037SOL    HW226574   4.001   4.249   1.431  0.3144  2.2521  1.7136
 5038SOL     OW26575   2.296   1.403   2.125 -0.2335  0.0378  0.1352
 5038SOL    HW126576   2.216   1.351   2.124 -0.1149 -0.1552  0.6280
 5038SOL    HW226577   2.262   1.489   2.151 -1.5577 -0.7002  0.8046
 5039SOL     OW26578   0.136   4.063   0.733  0.0024 -0.0229  0.1711
 5039SOL    HW126579   0.230   4.074   0.716  0.3435 -2.9907  0.0983
 5039SOL    HW226580   0.132   3.997   0.802  0.9377 -0.7447 -0.4534
 5040SOL     OW26581   4.200   2.919  11.251 -0.2589 -0.5501 -0.3185
 5040SOL    HW126582   4.227   2.925  11.342  0.3346 -0.6628 -0.4879
 5040SOL    HW226583   4.266   2.981  11.220  0.0734 -1.0828 -0.6714
 5041SOL     OW26584   0.082   2.729  10.251  0.2888 -0.9800  0.0020
 5041SOL    HW126585   0.108   2.790  10.320 -0.1870 -0.5819 -0.1777
 5041SOL    HW226586   0.166   2.684  10.240  1.6061  1.0361  1.9407
 5042SOL     OW26587   2.828   0.019   3.622 -0.1638 -0.1340 -0.3077
 5042SOL    HW126588   2.737   0.012   3.590  0.1121  1.1118 -1.3361
 5042SOL    HW226589   2.816   4.699   3.706 -1.0197 -0.5105 -0.6220
 5043SOL     OW26590   2.642   3.496   3.108 -0.0322 -0.0749  0.6331
 5043SOL    HW126591   2.589   3.554   3.053 -2.2821 -0.1760  2.6627
 5043SOL    HW226592   2.582   3.498   3.183 -1.6178  0.2563 -0.6318
 5044SOL     OW26593   3.954   0.511   1.904 -0.2212 -0.2078  1.0993
 5044SOL    HW126594   3.912   0.580   1.955 -1.9587 -0.6376  0.2230
 5044SOL    HW226595   3.903   0.503   1.824  0.9669  1.3976  0.1893
 5045SOL     OW26596   2.341   1.243   7.547  0.0981 -0.6428  0.3626
 5045SOL    HW126597   2.407   1.188   7.505  0.0555 -1.3854  1.2620
 5045SOL    HW226598   2.361   1.325   7.503  0.3327 -0.8827  0.0296
 5046SOL     OW26599   4.350   0.203   3.975  0.1196  0.0936  0.0215
 5046SOL    HW126600   4.427   0.152   4.000 -1.0436 -1.6898  0.0383
 5046SOL    HW226601   4.371   0.296   3.981  0.6321 -0.0134 -0.1969
 5047SOL     OW26602   1.151   2.549   5.615 -0.2700  0.0480 -0.2363
 5047SOL    HW126603   1.239   2.587   5.615 -0.3272  0.1758  1.0993
 5047SOL    HW226604   1.096   2.623   5.588  0.4431  0.2845 -1.0759
 5048SOL     OW26605   3.235   4.253  10.903  0.2181 -0.0262  0.0646
 5048SOL    HW126606   3.288   4.220  10.831 -1.1198  1.8607 -1.7596
 5048SOL    HW226607   3.157   4.201  10.886 -0.5186  0.3129  2.3342
 5049SOL     OW26608   2.699   4.286  10.543 -0.3686  0.4605 -0.2928
 5049SOL    HW126609   2.746   4.291  10.626 -0.3506  0.8691 -0.3297
 5049SOL    HW226610   2.774   4.324  10.498 -0.1098 -0.2638 -0.4835
 5050SOL     OW26611   0.299   3.871   7.340  0.4588 -0.2609 -0.2305
 5050SOL    HW126612   0.281   3.843   7.430 -0.7600  0.4667 -0.2432
 5050SOL    HW226613   0.293   3.784   7.299 -1.6471 -0.5360  0.6464
 5051SOL     OW26614   3.262   1.797   2.676 -0.0605  0.0628 -0.3100
 5051SOL    HW126615   3.218   1.864   2.728 -0.0153 -1.7159  2.0726
 5051SOL    HW226616   3.266   1.726   2.741 -0.3980  1.1015  0.8572
 5052SOL     OW26617   2.190   0.095   5.863  0.1746  0.5468 -0.0746
 5052SOL    HW126618   2.270   0.122   5.819 -0.2645  1.2254 -0.4537
 5052SOL    HW226619   2.227   0.041   5.932 -0.6518 -1.3323 -1.0875
 5053SOL     OW26620   2.401   1.138  16.005  0.2365 -0.1898 -0.3136
 5053SOL    HW126621   2.389   1.142  16.100  1.0248  0.2703 -0.2334
 5053SOL    HW226622   2.481   1.086  15.999  0.5521  0.4071 -1.2684
 5054SOL     OW26623   4.053   3.805   5.915  0.0715  0.2956  0.3137
 5054SOL    HW126624   4.148   3.798   5.925 -0.0645 -0.7426  0.8757
 5054SOL    HW226625   4.046   3.778   5.824  2.1522  2.6689 -0.5347
 5055SOL     OW26626   3.209   0.391   8.605 -0.4117  0.5376 -1.1853
 5055SOL    HW126627   3.160   0.323   8.557 -1.0255  0.1564 -0.0491
 5055SOL    HW226628   3.298   0.364   8.587  0.4998  1.9395  1.1935
 5056SOL     OW26629   0.019   4.103   5.455 -0.2328 -0.0865  0.0933
 5056SOL    HW126630   4.653   4.134   5.451  0.8781  3.0801 -0.6080
 5056SOL    HW226631   0.081   4.173   5.433 -1.1295  0.3363 -1.1028
 5057SOL     OW26632   2.079   4.661   3.633  0.2464  0.1008  0.3138
 5057SOL    HW126633   2.028   4.580   3.627 -1.5044  1.2036  0.4165
 5057SOL    HW226634   2.162   4.619   3.612  1.7404  2.4549  1.5762
 5058SOL     OW26635   1.869   0.706   2.151  0.0361 -0.1508  0.0149
 5058SOL    HW126636   1.895   0.729   2.062 -2.6086  0.1268 -0.6895
 5058SOL    HW226637   1.955   0.717   2.192  0.0943 -0.5411 -0.0028
 5059SOL     OW26638   2.567   0.127   5.540  0.1825  0.1767  0.2291
 5059SOL    HW126639   2.657   0.158   5.534  0.6522 -1.8412 -3.2174
 5059SOL    HW226640   2.563   0.092   5.451 -2.0876  0.9579  0.0180
 5060SOL     OW26641   1.322   3.154   4.499  0.3034  0.3921 -0.3342
 5060SOL    HW126642   1.379   3.172   4.424 -0.8674 -2.1348 -1.8095
 5060SOL    HW226643   1.351   3.064   4.514 -1.0585  0.1687  0.9027
 5061SOL     OW26644   4.230   4.643   5.611 -0.1092 -0.0608 -0.1048
 5061SOL    HW126645   4.172   4.686   5.675 -0.2933  0.7459 -0.8065
 5061SOL    HW226646   4.280   4.587   5.670 -2.0983 -0.0698  1.5625
 5062SOL     OW26647   2.430   1.073  15.539  0.5336 -0.0090 -0.4160
 5062SOL    HW126648   2.495   1.040  15.477  1.8636  3.7382 -1.0591
 5062SOL    HW226649   2.453   1.166  15.535 -1.7078  0.6002  0.7553
 5063SOL     OW26650   3.574   2.886  15.770  0.0685  0.0531  0.0731
 5063SOL    HW126651   3.525   2.898  15.851 -2.4017  0.7743 -1.5492
 5063SOL    HW226652   3.642   2.824  15.797 -0.4221 -0.9491 -1.0447
 5064SOL     OW26653   3.931   1.570  16.586 -0.5070  0.3331  0.1338
 5064SOL    HW126654   4.010   1.568  16.641 -1.7540  1.1088  1.9355
 5064SOL    HW226655   3.873   1.529  16.650 -2.1752 -0.3071 -1.7900
 5065SOL     OW26656   3.219   4.445   0.359 -0.5629 -0.9083  0.7854
 5065SOL    HW126657   3.128   4.443   0.389 -1.1153  1.7916 -0.7211
 5065SOL    HW226658   3.240   4.528   0.403 -1.0463 -1.5600  2.2397
 5066SOL     OW26659   0.003   1.094  11.356  0.0787 -0.0867 -0.2524
 5066SOL    HW126660   0.006   1.049  11.272 -0.9759 -1.6105  0.5207
 5066SOL    HW226661   0.084   1.144  11.353 -0.6533  1.1803  1.0169
 5067SOL     OW26662   3.559   3.087  10.132 -0.3507  0.1382 -0.6102
 5067SOL    HW126663   3.567   3.057  10.042 -0.0334 -0.4443 -0.3863
 5067SOL    HW226664   3.571   3.004  10.179  0.3289  0.6322  0.0874
 5068SOL     OW26665   1.204   1.173  12.978 -0.3544  0.3432 -0.8852
 5068SOL    HW126666   1.186   1.136  13.065 -2.7036  0.5582 -1.2981
 5068SOL    HW226667   1.179   1.265  12.981 -2.0888 -0.2192  1.8431
 5069SOL     OW26668   0.764   2.685   2.624  0.3352  0.2217  0.4160
 5069SOL    HW126669   0.764   2.732   2.707  0.5403  1.7846 -0.4619
 5069SOL    HW226670   0.693   2.620   2.632 -0.4730  1.1861  1.0058
 5070SOL     OW26671   0.350   0.917   3.685 -0.0517 -0.1737  0.1254
 5070SOL    HW126672   0.405   0.859   3.737  1.6275  0.9271 -0.4004
 5070SOL    HW226673   0.400   0.928   3.604 -1.0532 -0.9615 -0.5934
 5071SOL     OW26674   3.361   1.057   7.606  0.0902 -0.2631  0.1146
 5071SOL    HW126675   3.266   1.066   7.618  0.1811  0.3710  0.4031
 5071SOL    HW226676   3.381   1.068   7.699  0.3904 -2.0440  0.2614
 5072SOL     OW26677   4.453   0.590  12.841 -0.4916  0.3172  0.1164
 5072SOL    HW126678   4.449   0.582  12.937 -1.7397  3.0237  0.2860
 5072SOL    HW226679   4.545   0.569  12.827 -0.0439  1.4993  1.2393
 5073SOL     OW26680   1.798   4.705   9.382 -0.1665  0.0482  0.3137
 5073SOL    HW126681   1.798   4.658   9.299 -1.0988  2.9880 -1.3636
 5073SOL    HW226682   1.759   0.065   9.359 -0.9292  0.1505  1.9914
 5074SOL     OW26683   2.548   1.059   7.509  0.6354 -0.0479  0.0267
 5074SOL    HW126684   2.618   1.104   7.557 -0.9593  2.4533  0.0064
 5074SOL    HW226685   2.596   1.011   7.441 -0.5349 -1.3727  0.1428
 5075SOL     OW26686   2.633   2.814   1.938 -0.4690  0.1826 -0.2266
 5075SOL    HW126687   2.667   2.893   1.898  1.8084  0.2000  1.7271
 5075SOL    HW226688   2.670   2.820   2.026  0.1276 -0.6790 -0.4146
 5076SOL     OW26689   0.314   3.834   2.128  0.2001 -0.1088  0.0258
 5076SOL    HW126690   0.323   3.791   2.044  1.4175  0.1968 -0.0097
 5076SOL    HW226691   0.285   3.922   2.104 -0.2256 -0.1244  0.4939
 5077SOL     OW26692   2.805   3.506  12.688  0.1033  0.3181 -1.1570
 5077SOL    HW126693   2.836   3.483  12.601  1.3300 -0.8473 -0.4168
 5077SOL    HW226694   2.733   3.566  12.669 -0.3467 -0.3190 -1.4678
 5078SOL     OW26695   3.221   2.701   7.772  0.3785 -0.1903 -0.3101
 5078SOL    HW126696   3.292   2.660   7.823 -0.7494 -1.9931 -0.1656
 5078SOL    HW226697   3.197   2.767   7.837  2.9370  0.6361 -0.2247
 5079SOL     OW26698   3.806   3.330   2.705 -0.0154  0.3451  0.0600
 5079SOL    HW126699   3.858   3.365   2.777  1.1488 -3.3818  1.0591
 5079SOL    HW226700   3.799   3.406   2.647  0.1520  1.2772  1.2593
 5080SOL     OW26701   0.027   4.387   5.516 -1.0678  0.3308  0.0185
 5080SOL    HW126702   0.053   4.430   5.597 -1.0988 -0.2982  0.3588
 5080SOL    HW226703   4.671   4.338   5.531 -2.6749  2.4286 -1.6105
 5081SOL     OW26704   4.399   1.319   8.589 -0.4721 -0.1002  0.1481
 5081SOL    HW126705   4.313   1.357   8.602 -1.4526 -1.6938 -1.6672
 5081SOL    HW226706   4.399   1.262   8.666 -1.6123  1.5867  1.3864
 5082SOL     OW26707   3.696   0.634   6.142  0.2030 -0.7851 -0.2093
 5082SOL    HW126708   3.777   0.658   6.098 -1.6411  2.8711 -1.5692
 5082SOL    HW226709   3.675   0.554   6.092  1.0722  0.1751 -2.1279
 5083SOL     OW26710   3.009   3.934   5.137 -0.0680 -0.3969  0.2081
 5083SOL    HW126711   3.019   3.847   5.099 -0.3025 -0.2704 -0.1396
 5083SOL    HW226712   2.939   3.907   5.197 -1.8988  2.3951 -0.6981
 5084SOL     OW26713   0.296   1.371   7.538 -0.2518  0.0012 -0.2830
 5084SOL    HW126714   0.293   1.378   7.443  2.3356  0.1882 -0.3268
 5084SOL    HW226715   0.285   1.464   7.559 -0.0134 -0.0308 -0.0231
 5085SOL     OW26716   2.137   0.440   5.631  0.1366 -0.3386  0.0849
 5085SOL    HW126717   2.176   0.521   5.600  0.7312 -1.0964 -1.1527
 5085SOL    HW226718   2.177   0.378   5.570 -0.3756 -0.6156  0.0234
 5086SOL     OW26719   4.225   0.143   5.794  0.4169 -0.1998  0.6608
 5086SOL    HW126720   4.277   0.221   5.816 -1.5991  1.3107  0.1367
 5086SOL    HW226721   4.138   0.182   5.799 -0.0156 -1.0030 -0.8421
 5087SOL     OW26722   1.537   4.160   7.735  0.1734 -0.1937  0.2100
 5087SOL    HW126723   1.515   4.156   7.642  0.9740  2.6168 -0.1045
 5087SOL    HW226724   1.445   4.176   7.757  0.3661  2.4859 -0.9461
 5088SOL     OW26725   1.414   4.281  16.419  0.1999  0.5874  0.5213
 5088SOL    HW126726   1.444   4.250  16.334 -1.3212  0.5203  0.0146
 5088SOL    HW226727   1.432   4.374  16.406  3.1359  0.1827  1.6928
 5089SOL     OW26728   0.269   2.277  11.030  0.1919  0.2667 -0.3417
 5089SOL    HW126729   0.309   2.297  11.115  2.6988 -3.3824 -0.6776
 5089SOL    HW226730   0.240   2.187  11.046  3.5170 -0.8086 -0.4044
 5090SOL     OW26731   4.670   0.702   6.943 -0.4639 -0.4654  0.0641
 5090SOL    HW126732   0.037   0.672   6.945 -0.8339 -1.3793  2.3014
 5090SOL    HW226733   4.630   0.647   6.876 -2.4068 -0.3210  1.1343
 5091SOL     OW26734   1.735   0.738   8.505  0.3698  0.7032 -0.1136
 5091SOL    HW126735   1.786   0.719   8.584  1.5229  0.2500 -0.9634
 5091SOL    HW226736   1.759   0.825   8.474 -0.9345  0.6509 -1.2444
 5092SOL     OW26737   0.041   1.564   8.733  0.6710  0.6604  0.0030
 5092SOL    HW126738   0.118   1.587   8.786  3.3871 -2.0483 -2.7616
 5092SOL    HW226739   0.074   1.583   8.645 -1.2236 -0.4889 -0.9664
 5093SOL     OW26740   0.261   3.981   7.841  0.0653 -0.2979  0.2755
 5093SOL    HW126741   0.285   3.998   7.932  0.8421  1.8863 -0.3447
 5093SOL    HW226742   0.167   3.977   7.862  0.2846 -1.5835  0.9979
 5094SOL     OW26743   1.119   2.585   1.830  0.1804 -0.0210 -0.0360
 5094SOL    HW126744   1.078   2.645   1.892 -1.4356  2.2306 -3.2673
 5094SOL    HW226745   1.207   2.573   1.866  0.4061  0.4161 -0.4483
 5095SOL     OW26746   1.977   1.101   9.334 -0.2125  0.3338 -0.4873
 5095SOL    HW126747   1.966   1.047   9.256  0.2188 -1.3346  0.6081
 5095SOL    HW226748   2.068   1.129   9.326 -0.3793  0.9616 -0.1467
 5096SOL     OW26749   3.464   3.704   4.055  0.3126 -0.2604 -0.6332
 5096SOL    HW126750   3.386   3.750   4.087  0.5382 -0.8351  0.7425
 5096SOL    HW226751   3.513   3.783   4.031 -1.0475  0.9261  0.4502
 5097SOL     OW26752   3.884   0.238  17.196 -0.4102  0.9069  0.6419
 5097SOL    HW126753   3.843   0.165  17.243 -0.2690 -0.1189 -0.8535
 5097SOL    HW226754   3.890   0.302  17.267 -2.3004 -0.5517  2.1253
 5098SOL     OW26755   0.785   1.898   3.019  0.3297  0.0313 -0.3128
 5098SOL    HW126756   0.874   1.912   2.986  0.2086 -0.7234 -0.9646
 5098SOL    HW226757   0.805   1.821   3.072  0.4033  0.0550 -0.3066
 5099SOL     OW26758   1.547   2.237   2.491  0.0351 -0.5808  0.5266
 5099SOL    HW126759   1.468   2.250   2.439  0.6158  1.1155  0.0414
 5099SOL    HW226760   1.578   2.327   2.505 -1.6394  0.2551 -1.1507
 5100SOL     OW26761   1.181   1.732  15.330  0.0534 -0.2914  0.5140
 5100SOL    HW126762   1.157   1.745  15.238  1.1943  0.2193  0.3003
 5100SOL    HW226763   1.173   1.822  15.360 -0.3150 -0.6889  1.5907
 5101SOL     OW26764   2.509   4.617   7.642  0.2854  0.0135 -0.1825
 5101SOL    HW126765   2.559   4.697   7.624 -0.0340  0.5407  1.3074
 5101SOL    HW226766   2.516   4.569   7.559 -0.5435  0.5670 -0.5806
 5102SOL     OW26767   1.016   4.107   6.757  0.1585  0.2594 -0.3301
 5102SOL    HW126768   1.060   4.024   6.739 -0.9911 -0.4484  0.1650
 5102SOL    HW226769   0.986   4.119   6.667  1.0003  3.6387 -0.1830
 5103SOL     OW26770   1.527   3.139  15.971 -0.1620  0.2298  0.1764
 5103SOL    HW126771   1.537   3.225  15.930 -0.7040  0.3040  0.2084
 5103SOL    HW226772   1.571   3.097  15.896 -2.0750  0.2953 -0.9768
 5104SOL     OW26773   1.729   1.054   3.903  0.5749 -0.8279  0.4042
 5104SOL    HW126774   1.757   1.073   3.813 -1.9405 -1.4793 -0.5333
 5104SOL    HW226775   1.638   1.027   3.891  0.0792  1.9961 -2.3334
 5105SOL     OW26776   2.294   0.451   3.304 -0.5889  0.3433 -0.2964
 5105SOL    HW126777   2.373   0.496   3.274 -0.5848  0.1339 -0.6001
 5105SOL    HW226778   2.254   0.517   3.360 -1.6169 -0.8002  0.3374
 5106SOL     OW26779   1.715   1.950   4.626 -0.2331 -0.3986 -0.3596
 5106SOL    HW126780   1.803   1.927   4.598  0.5441 -0.7776  2.4884
 5106SOL    HW226781   1.661   1.923   4.552 -0.5859 -0.7936  0.0421
 5107SOL     OW26782   2.848   4.273   3.125 -0.1257 -0.2005 -0.0121
 5107SOL    HW126783   2.867   4.200   3.183  2.6112  0.9582  0.4980
 5107SOL    HW226784   2.928   4.318   3.149  0.1849  0.3920 -2.1474
 5108SOL     OW26785   1.899   1.490  10.652  0.2165 -0.2556 -0.4501
 5108SOL    HW126786   1.816   1.534  10.632  0.8624  1.3761  0.5023
 5108SOL    HW226787   1.915   1.463  10.561 -2.0678 -2.5224 -0.1716
 5109SOL     OW26788   1.345   1.450   7.510  0.7281 -0.4231 -0.0568
 5109SOL    HW126789   1.373   1.474   7.598 -1.7486 -1.2067  0.9446
 5109SOL    HW226790   1.279   1.517   7.492  2.9895  1.6022 -0.6508
 5110SOL     OW26791   0.418   3.798   9.329 -0.2214  0.1388  1.0765
 5110SOL    HW126792   0.496   3.787   9.383 -1.0187  1.0343  2.3947
 5110SOL    HW226793   0.392   3.706   9.333  3.3587 -0.8939  0.3319
 5111SOL     OW26794   4.431   2.396   8.445  0.0930  0.0038 -0.2057
 5111SOL    HW126795   4.508   2.444   8.415  0.1729  0.1602  0.2413
 5111SOL    HW226796   4.420   2.319   8.390 -1.4821 -0.9491  1.4712
 5112SOL     OW26797   4.125   1.826   9.230  0.0145  0.0344 -0.3611
 5112SOL    HW126798   4.057   1.892   9.244 -0.9961 -1.1468  0.2986
 5112SOL    HW226799   4.074   1.747   9.252  1.3748 -0.8511 -0.3927
 5113SOL     OW26800   2.603   2.378   3.821 -0.3971  0.1168  0.6605
 5113SOL    HW126801   2.599   2.461   3.868  0.2431 -0.3922  1.6297
 5113SOL    HW226802   2.567   2.319   3.887 -0.3659  0.2754  0.8204
 5114SOL     OW26803   0.817   3.952   8.096  0.0378  0.3040 -0.2009
 5114SOL    HW126804   0.875   4.017   8.058  0.7614 -1.1123 -1.5235
 5114SOL    HW226805   0.743   3.976   8.039  0.0214  0.9891  0.1058
 5115SOL     OW26806   2.505   3.496   0.669 -0.6294 -0.0899  0.1241
 5115SOL    HW126807   2.500   3.555   0.594 -0.8308  0.1926  0.3604
 5115SOL    HW226808   2.501   3.560   0.740 -0.8015 -0.8161  0.7711
 5116SOL     OW26809   1.266   4.009   8.634  0.2508 -0.2421  0.1347
 5116SOL    HW126810   1.273   4.078   8.700  0.8977 -0.8813  0.7416
 5116SOL    HW226811   1.335   3.949   8.661 -0.9444 -0.7856  2.0276
 5117SOL     OW26812   2.029   1.815  11.424  0.4569  0.3117 -0.0296
 5117SOL    HW126813   2.029   1.781  11.334 -0.6037 -1.2034  0.5514
 5117SOL    HW226814   2.090   1.752  11.462 -1.5774 -0.6410  1.6363
 5118SOL     OW26815   0.631   2.560   1.009 -0.2729  0.5090  0.2593
 5118SOL    HW126816   0.570   2.616   1.056  0.0311  0.9049  0.1820
 5118SOL    HW226817   0.640   2.497   1.081 -2.8041 -0.3109 -0.1386
 5119SOL     OW26818   3.443   0.686  16.990 -0.3104  0.2968 -0.2974
 5119SOL    HW126819   3.369   0.748  16.992  0.0707  0.7594 -0.6628
 5119SOL    HW226820   3.445   0.658  17.081 -2.2213 -0.3918 -0.4589
 5120SOL     OW26821   4.136   2.873  12.677  0.0907  0.5349 -0.0429
 5120SOL    HW126822   4.135   2.854  12.771  0.2395  0.6547 -0.0160
 5120SOL    HW226823   4.221   2.919  12.678  1.7690 -2.5777  1.2472
 5121SOL     OW26824   1.342   3.191   2.392 -0.0802 -0.3974 -0.4079
 5121SOL    HW126825   1.426   3.154   2.365 -0.7189 -1.2879 -1.1713
 5121SOL    HW226826   1.282   3.116   2.396 -0.4749 -0.1314 -1.2692
 5122SOL     OW26827   1.976   2.871   7.798  0.2043 -0.2052  0.1668
 5122SOL    HW126828   1.935   2.908   7.720 -1.8500 -2.7304  0.0449
 5122SOL    HW226829   2.069   2.896   7.792  0.3284 -0.6280  0.3520
 5123SOL     OW26830   1.921   2.758  14.923 -0.0420 -0.4374 -0.0030
 5123SOL    HW126831   1.910   2.762  15.018 -0.1694  0.7573 -0.0745
 5123SOL    HW226832   1.839   2.712  14.904  0.4383  0.2184 -3.6533
 5124SOL     OW26833   4.177   0.721   3.787 -0.6252  0.9303  0.0722
 5124SOL    HW126834   4.259   0.770   3.787  1.9652 -3.3985  1.3445
 5124SOL    HW226835   4.217   0.635   3.776 -0.1237  1.1581  0.1371
 5125SOL     OW26836   4.662   2.548   3.045  0.1216  0.4768  0.1765
 5125SOL    HW126837   4.716   2.515   3.117  1.2698  0.6260 -0.6090
 5125SOL    HW226838   4.586   2.577   3.096 -0.0775  0.4916 -0.1283
 5126SOL     OW26839   0.688   1.096  13.661  0.0188 -0.3951  0.3730
 5126SOL    HW126840   0.777   1.116  13.631  0.0361 -0.0820  0.6433
 5126SOL    HW226841   0.649   1.073  13.577  0.1888 -1.8387  0.6898
 5127SOL     OW26842   3.778   1.354   4.491 -0.1059  0.1660  0.0232
 5127SOL    HW126843   3.743   1.367   4.579 -0.2317 -1.1651  0.1711
 5127SOL    HW226844   3.700   1.365   4.437 -0.1022  3.2091  0.6549
 5128SOL     OW26845   3.769   1.686   5.907 -0.1065  0.0875  0.6166
 5128SOL    HW126846   3.826   1.626   5.858 -0.7052  0.3696 -0.4183
 5128SOL    HW226847   3.684   1.646   5.888 -0.7856  1.2331  1.2932
 5129SOL     OW26848   2.070   1.366   7.701 -0.7148  0.1085 -0.4683
 5129SOL    HW126849   2.155   1.410   7.695 -0.8365  0.4064  0.0078
 5129SOL    HW226850   2.095   1.274   7.697  0.4110  0.4186 -0.7205
 5130SOL     OW26851   3.551   1.249   4.777  0.0397 -0.1333 -0.1350
 5130SOL    HW126852   3.469   1.279   4.815  0.4947 -0.4581  1.0760
 5130SOL    HW226853   3.545   1.155   4.790 -0.2788  0.1004  1.3138
 5131SOL     OW26854   1.252   2.496   0.806  0.2052 -0.0107  0.1458
 5131SOL    HW126855   1.159   2.473   0.813  0.7509 -1.0297  3.8193
 5131SOL    HW226856   1.281   2.419   0.757 -0.0422 -1.2532  1.9564
 5132SOL     OW26857   4.203   2.270   7.531 -0.1612  0.1379 -0.0756
 5132SOL    HW126858   4.173   2.360   7.546  1.3190  0.8150 -1.2470
 5132SOL    HW226859   4.221   2.244   7.621 -0.1276  0.8689  0.1293
 5133SOL     OW26860   1.040   3.749   2.979 -0.0690 -0.7740 -0.1291
 5133SOL    HW126861   1.032   3.820   3.043 -0.2141 -0.0767 -0.9194
 5133SOL    HW226862   0.957   3.744   2.932 -0.8458 -0.7635  1.2465
 5134SOL     OW26863   1.236   2.148   3.374 -0.8443 -0.2590 -0.1689
 5134SOL    HW126864   1.306   2.143   3.308 -0.9368 -0.5744 -0.2420
 5134SOL    HW226865   1.178   2.215   3.338 -2.8394 -1.0869  1.4897
 5135SOL     OW26866   0.324   1.816   6.696 -0.7446  0.7229  0.7558
 5135SOL    HW126867   0.334   1.826   6.602 -1.5425 -0.3591  0.5584
 5135SOL    HW226868   0.256   1.750   6.702  1.3834 -1.3550  1.9330
 5136SOL     OW26869   1.450   4.163   2.026  0.4348 -0.6675 -0.5861
 5136SOL    HW126870   1.366   4.208   2.030  0.9236  0.2156 -0.3655
 5136SOL    HW226871   1.422   4.099   2.092  0.1980  0.4412  0.3933
 5137SOL     OW26872   1.766   1.861   5.964  0.0956 -0.2888 -0.4297
 5137SOL    HW126873   1.853   1.839   5.931 -0.4194 -0.8529 -1.4110
 5137SOL    HW226874   1.728   1.774   5.975 -1.7778  1.1166  4.0422
 5138SOL     OW26875   2.377   4.084   5.152 -0.1006  0.2065  0.0383
 5138SOL    HW126876   2.404   4.173   5.171 -1.8409  0.9693 -1.0400
 5138SOL    HW226877   2.281   4.089   5.151 -0.0918  0.6895  1.6486
 5139SOL     OW26878   0.626   2.581   3.295 -0.3064 -0.2682 -0.0362
 5139SOL    HW126879   0.542   2.556   3.256 -0.2403 -2.7614  1.4320
 5139SOL    HW226880   0.688   2.510   3.281 -1.8492 -1.1153 -2.6080
 5140SOL     OW26881   1.660   2.955  14.957 -0.6147  0.3839  0.2549
 5140SOL    HW126882   1.661   2.859  14.963 -0.7035  0.2460 -2.2939
 5140SOL    HW226883   1.606   2.966  14.879  1.8836  0.3116 -1.4872
 5141SOL     OW26884   3.704   2.982   4.079  0.1973 -0.4591  0.3798
 5141SOL    HW126885   3.773   2.916   4.066  0.5880 -0.2348  1.3304
 5141SOL    HW226886   3.733   3.041   4.010  2.1402 -1.2656  0.4883
 5142SOL     OW26887   3.222   0.866  11.983 -0.3850 -0.4219 -0.0137
 5142SOL    HW126888   3.179   0.949  12.005  0.4224  0.1552 -0.6408
 5142SOL    HW226889   3.143   0.821  11.953 -0.7205 -0.4375  0.9058
 5143SOL     OW26890   4.170   2.812   7.511  0.3940  0.2396  0.4219
 5143SOL    HW126891   4.165   2.900   7.476  2.2504  0.6044  1.0520
 5143SOL    HW226892   4.190   2.834   7.602 -0.0257  0.3802  0.4797
 5144SOL     OW26893   1.246   4.547   0.778 -0.8126 -0.2369  0.6236
 5144SOL    HW126894   1.326   4.596   0.759 -3.0727  1.8097 -3.5626
 5144SOL    HW226895   1.186   4.619   0.759 -1.3131 -1.0129 -0.7308
 5145SOL     OW26896   0.665   0.030   3.844  0.0561  0.8344 -0.1393
 5145SOL    HW126897   0.655   0.082   3.924 -0.1187 -1.9297  1.6426
 5145SOL    HW226898   0.749   4.715   3.869  0.0216  2.0598  1.9498
 5146SOL     OW26899   1.450   1.107   8.952  0.0544 -0.1502  0.1944
 5146SOL    HW126900   1.427   1.189   8.995  0.8124 -0.5319  1.3281
 5146SOL    HW226901   1.484   1.135   8.867 -1.0841  0.9280  0.0961
 5147SOL     OW26902   3.417   2.943   7.687 -0.4348 -0.6907 -0.3361
 5147SOL    HW126903   3.433   3.010   7.754 -0.2882 -2.3847  1.3302
 5147SOL    HW226904   3.492   2.884   7.697  1.0530  0.7517 -3.0177
 5148SOL     OW26905   3.986   4.462   1.678 -0.2841 -0.0277  0.1591
 5148SOL    HW126906   3.960   4.406   1.606  0.3180  0.3120 -0.3235
 5148SOL    HW226907   3.961   4.405   1.751  0.2750 -1.5375 -0.8394
 5149SOL     OW26908   2.979   2.215   3.740 -0.2249 -0.0788  0.0838
 5149SOL    HW126909   2.981   2.144   3.676 -0.9780  0.2815 -0.3452
 5149SOL    HW226910   3.036   2.197   3.814 -2.1603 -0.3328  1.5259
 5150SOL     OW26911   3.498   3.735  16.148  0.0335  0.1985 -0.1777
 5150SOL    HW126912   3.423   3.795  16.154  0.0403  0.2089 -0.1994
 5150SOL    HW226913   3.521   3.721  16.240 -1.5722  2.0587  0.5197
 5151SOL     OW26914   4.396   4.667   7.825  0.2440  0.4002  0.1576
 5151SOL    HW126915   4.491   4.676   7.826  0.3361 -0.5689 -1.1788
 5151SOL    HW226916   4.357   0.030   7.825 -0.2363  0.1827 -0.9998
 5152SOL     OW26917   1.407   3.895  13.949 -0.0919  0.3735  0.1151
 5152SOL    HW126918   1.499   3.916  13.964 -0.1338  0.2832  0.5021
 5152SOL    HW226919   1.389   3.872  13.858  2.1162  0.2421 -0.2824
 5153SOL     OW26920   3.698   1.066   1.249  0.2388  0.1299  0.5128
 5153SOL    HW126921   3.633   1.136   1.247 -0.8696 -0.9030 -0.4001
 5153SOL    HW226922   3.766   1.089   1.312  1.6908  0.8806 -1.3146
 5154SOL     OW26923   1.239   4.191   9.720  1.0235 -0.0211  0.6442
 5154SOL    HW126924   1.290   4.111   9.732  1.8514  0.2587 -0.9822
 5154SOL    HW226925   1.273   4.238   9.797  0.4845  0.7119  0.4305
 5155SOL     OW26926   2.244   1.947   5.731  0.7262  0.2368 -0.1075
 5155SOL    HW126927   2.316   1.978   5.677 -0.9531  0.5547 -2.1908
 5155SOL    HW226928   2.262   2.000   5.808 -3.9989 -0.3470  1.4390
 5156SOL     OW26929   4.163   0.651   3.292 -0.0845 -0.6524 -0.4601
 5156SOL    HW126930   4.150   0.740   3.260  0.3603 -0.0871  0.8936
 5156SOL    HW226931   4.243   0.674   3.340 -0.2926 -0.9632  0.0444
 5157SOL     OW26932   0.489   3.384   8.301  0.2383 -0.2416  0.2553
 5157SOL    HW126933   0.582   3.401   8.286  0.3459 -2.4544 -1.6897
 5157SOL    HW226934   0.488   3.290   8.285  0.6197 -0.5185  1.8547
 5158SOL     OW26935   0.686   1.305   6.968 -0.5707 -0.2536  0.1080
 5158SOL    HW126936   0.695   1.390   7.011 -0.3833 -0.4926  0.5445
 5158SOL    HW226937   0.678   1.335   6.878 -1.4781 -0.3739  0.1504
 5159SOL     OW26938   0.011   3.531   1.353 -0.0200 -0.4023  0.1445
 5159SOL    HW126939   0.003   3.619   1.389  0.8075  0.0033 -0.6833
 5159SOL    HW226940   0.084   3.496   1.404  0.3282  1.0849  0.6603
 5160SOL     OW26941   4.110   2.690   5.955 -0.2744  0.2993 -0.3201
 5160SOL    HW126942   4.125   2.636   6.033  0.6810  0.5845 -0.3120
 5160SOL    HW226943   4.177   2.758   5.965  0.1968 -0.0682 -1.0153
 5161SOL     OW26944   1.729   1.026  10.203  0.2491  0.5540  0.2937
 5161SOL    HW126945   1.773   1.007  10.119 -0.2878  0.2284  0.0880
 5161SOL    HW226946   1.642   1.046  10.169  0.2847 -0.6744 -0.5410
 5162SOL     OW26947   2.330   2.583   8.857 -0.4680 -0.7432 -0.2762
 5162SOL    HW126948   2.287   2.594   8.942  2.4879 -1.3798  1.3060
 5162SOL    HW226949   2.388   2.660   8.857  0.4590 -1.4418  1.5344
 5163SOL     OW26950   4.346   3.706  14.449 -0.7925 -0.0781  0.2875
 5163SOL    HW126951   4.321   3.614  14.444  4.0247 -1.1931 -3.8313
 5163SOL    HW226952   4.339   3.720  14.355  3.0703 -1.1575 -0.1716
 5164SOL     OW26953   0.788   1.676  10.040  0.1509  0.3122  0.0894
 5164SOL    HW126954   0.781   1.592  10.086  1.2784 -0.7901 -1.7294
 5164SOL    HW226955   0.879   1.699  10.052 -0.5662  3.1191  0.0047
 5165SOL     OW26956   3.037   4.221   8.197  0.1673  0.4978  1.1054
 5165SOL    HW126957   2.987   4.187   8.271 -1.9506 -0.8192 -0.9247
 5165SOL    HW226958   3.017   4.166   8.121 -0.0131  0.3863  1.2352
 5166SOL     OW26959   0.541   2.524   8.520  0.2262  0.2027  0.5308
 5166SOL    HW126960   0.617   2.578   8.539 -0.3681  1.3028 -0.2278
 5166SOL    HW226961   0.480   2.594   8.495 -0.7497 -0.8129  0.0795
 5167SOL     OW26962   3.316   1.773  12.012 -0.2206 -0.4951  0.0057
 5167SOL    HW126963   3.267   1.850  12.040 -2.1893 -1.3271 -1.1894
 5167SOL    HW226964   3.278   1.714  12.077 -2.1919  1.0202  0.2000
 5168SOL     OW26965   3.727   3.923   2.978  0.3172 -0.4677 -0.3625
 5168SOL    HW126966   3.672   3.965   3.044  0.3285 -2.1653  0.7544
 5168SOL    HW226967   3.670   3.848   2.960 -1.5937  1.1558 -1.0373
 5169SOL     OW26968   3.867   0.474   4.406 -0.9947 -0.1433 -0.1241
 5169SOL    HW126969   3.863   0.545   4.471 -0.1956 -0.5699  0.3871
 5169SOL    HW226970   3.921   0.518   4.340  0.4242 -0.3831  0.8819
 5170SOL     OW26971   3.158   3.299   2.475  0.0081 -0.6820  0.1695
 5170SOL    HW126972   3.201   3.247   2.407  1.9028  1.0653  0.0106
 5170SOL    HW226973   3.235   3.302   2.532 -1.2077  0.3227  1.7623
 5171SOL     OW26974   1.009   1.698  13.115  0.7578  0.1151  0.3167
 5171SOL    HW126975   1.100   1.669  13.119  0.6041 -0.4099  0.0539
 5171SOL    HW226976   1.016   1.768  13.050  1.6673 -0.4471 -0.1926
 5172SOL     OW26977   0.809   2.973   9.761  0.5074  0.0591 -0.0521
 5172SOL    HW126978   0.877   3.018   9.710  1.7613 -0.4092  1.2149
 5172SOL    HW226979   0.849   2.972   9.848 -0.7822 -1.1938  0.5227
 5173SOL     OW26980   3.744   1.656  11.213 -0.3596 -0.2158 -0.1570
 5173SOL    HW126981   3.810   1.591  11.188 -1.0454 -1.0056  0.0797
 5173SOL    HW226982   3.782   1.722  11.155  0.6041 -1.1821 -0.6200
 5174SOL     OW26983   1.047   0.043  13.244 -0.1153 -0.0569  0.1150
 5174SOL    HW126984   1.030   4.675  13.259 -1.8410  0.1098 -0.8904
 5174SOL    HW226985   1.138   0.044  13.214  0.1568 -1.1800  0.8818
 5175SOL     OW26986   1.682   2.995  11.167 -0.0649 -0.3149  0.1379
 5175SOL    HW126987   1.676   3.090  11.153 -0.4271 -0.2764  0.5441
 5175SOL    HW226988   1.600   2.973  11.211 -0.5869  0.5726 -0.3805
 5176SOL     OW26989   3.486   2.327  12.989 -0.5205 -0.2174 -0.5344
 5176SOL    HW126990   3.514   2.418  13.000  0.5255 -0.5419 -0.4791
 5176SOL    HW226991   3.499   2.314  12.895 -1.5287 -4.0475 -0.1657
 5177SOL     OW26992   4.671   2.902   5.052  0.2989 -0.3685  0.5399
 5177SOL    HW126993   4.706   2.824   5.008  0.1037  0.4073 -0.9599
 5177SOL    HW226994   4.626   2.855   5.123  2.4829 -0.5793  1.8066
 5178SOL     OW26995   3.066   4.371   2.620 -0.1092 -0.1239  0.3919
 5178SOL    HW126996   3.085   4.421   2.700 -1.0967 -0.0573  0.5871
 5178SOL    HW226997   3.098   4.430   2.552  0.8599 -0.3030  0.6880
 5179SOL     OW26998   0.515   1.887  13.950  0.1560 -0.7459 -0.1280
 5179SOL    HW126999   0.537   1.980  13.944  1.0060 -1.0291 -1.2911
 5179SOL    HW227000   0.570   1.854  13.879 -1.9680 -0.3851 -1.9453
 5180SOL     OW27001   4.259   2.899   8.299  0.6496 -0.1382  0.1061
 5180SOL    HW127002   4.209   2.888   8.380  2.9231 -1.1008  1.3698
 5180SOL    HW227003   4.304   2.978   8.329  0.1725  0.0878  0.2385
 5181SOL     OW27004   3.667   0.821   8.690  0.3557  0.1419  0.3766
 5181SOL    HW127005   3.762   0.822   8.677  0.7034 -1.1897  2.7505
 5181SOL    HW227006   3.663   0.901   8.741  2.7002  0.2900  0.3479
 5182SOL     OW27007   1.730   1.467   1.891  0.1567  0.4919 -0.4921
 5182SOL    HW127008   1.656   1.428   1.937  0.1160 -1.8048 -2.4798
 5182SOL    HW227009   1.785   1.389   1.889 -0.4206  0.1153 -2.0002
 5183SOL     OW27010   3.016   4.632   6.551 -0.5061  0.0343 -0.0343
 5183SOL    HW127011   3.105   4.609   6.526 -0.5218 -0.6005  0.4927
 5183SOL    HW227012   2.977   4.551   6.518 -0.5841  0.3827 -0.7916
 5184SOL     OW27013   0.825   1.640   2.865 -0.3226 -0.1337 -0.4740
 5184SOL    HW127014   0.906   1.603   2.900 -0.3326  1.2068  0.9699
 5184SOL    HW227015   0.865   1.700   2.802  1.3239 -1.7705 -0.9950
 5185SOL     OW27016   2.571   1.851  16.884  0.8549 -0.8797  0.8797
 5185SOL    HW127017   2.638   1.829  16.949  0.9779 -0.6108  0.8438
 5185SOL    HW227018   2.540   1.766  16.854  0.4783 -1.2896  2.4651
 5186SOL     OW27019   0.430   2.635   8.006 -0.3973 -0.1141 -0.7773
 5186SOL    HW127020   0.381   2.558   8.037 -2.2163 -0.3770 -4.2629
 5186SOL    HW227021   0.429   2.627   7.911  1.2179 -0.0744 -0.7967
 5187SOL     OW27022   0.358   4.091   5.732 -0.4437 -0.1533  0.4599
 5187SOL    HW127023   0.368   3.997   5.746 -0.5447 -0.2422 -0.0702
 5187SOL    HW227024   0.293   4.089   5.661  0.4249  1.8658 -0.3958
 5188SOL     OW27025   2.231   3.363   7.168 -0.0477 -0.3083  0.1051
 5188SOL    HW127026   2.278   3.447   7.167 -0.6213  0.0276  1.6335
 5188SOL    HW227027   2.151   3.376   7.117 -0.3074  1.2791  0.8998
 5189SOL     OW27028   4.024   2.359   0.847  0.2030  0.0636  0.2671
 5189SOL    HW127029   4.027   2.454   0.832  1.4669  0.5344  3.3007
 5189SOL    HW227030   4.011   2.332   0.757 -1.2143  0.9980  0.1930
 5190SOL     OW27031   1.760   0.124   3.189  0.2199  0.1031 -0.0688
 5190SOL    HW127032   1.848   0.141   3.223  0.1471 -0.3879  0.3578
 5190SOL    HW227033   1.704   0.123   3.267  0.1156 -0.8823 -0.1587
 5191SOL     OW27034   2.975   2.858   6.822  0.3714  0.0333  0.2164
 5191SOL    HW127035   3.043   2.794   6.802 -0.5149  0.1233 -3.1016
 5191SOL    HW227036   2.895   2.818   6.856 -0.7717 -0.0775 -2.6021
 5192SOL     OW27037   2.061   3.016   7.334  0.3281 -0.5897  0.0854
 5192SOL    HW127038   2.101   3.005   7.248  0.1383 -0.6025 -0.0018
 5192SOL    HW227039   2.098   3.100   7.360 -0.6426 -0.0553 -0.2743
 5193SOL     OW27040   2.960   1.170   6.123 -0.0102  0.4870 -0.3861
 5193SOL    HW127041   3.027   1.236   6.144 -0.0057 -0.3405  2.2598
 5193SOL    HW227042   3.011   1.097   6.159  0.7989  0.6347 -1.2282
 5194SOL     OW27043   2.366   3.046   2.187  0.3154  0.4579  0.9199
 5194SOL    HW127044   2.398   3.030   2.099  1.3026 -0.0843  1.3828
 5194SOL    HW227045   2.369   3.141   2.199  1.1132  0.7073 -1.3084
 5195SOL     OW27046   2.243   3.452  13.595 -0.2367  0.3778  0.6241
 5195SOL    HW127047   2.256   3.366  13.633 -1.2242 -0.4812 -0.9620
 5195SOL    HW227048   2.217   3.430  13.506 -1.2075  0.6719  0.8345
 5196SOL     OW27049   0.184   3.351  16.293 -0.4764  0.0195  0.0587
 5196SOL    HW127050   0.115   3.410  16.262  0.0045  0.4735 -0.1576
 5196SOL    HW227051   0.264   3.403  16.300 -0.1270 -0.6263  0.7832
 5197SOL     OW27052   1.683   0.945   1.133  0.0958  0.2793  0.2641
 5197SOL    HW127053   1.664   0.852   1.146 -0.7034  0.3587 -0.3547
 5197SOL    HW227054   1.770   0.942   1.173  1.1590 -1.0558 -2.1093
 5198SOL     OW27055   2.571   3.956  11.782 -0.0881  0.4401 -0.3006
 5198SOL    HW127056   2.489   3.986  11.743  0.0195  0.3029 -0.6359
 5198SOL    HW227057   2.572   3.992  11.871  2.0690 -0.0722 -0.1029
 5199SOL     OW27058   0.986   2.224  10.596  0.2765  0.3894 -0.2882
 5199SOL    HW127059   0.970   2.130  10.593  0.4162  0.3362  0.9168
 5199SOL    HW227060   1.007   2.235  10.503 -1.2305  1.3197 -0.5217
 5200SOL     OW27061   1.027   0.087  16.853  0.2394  0.2506  0.0061
 5200SOL    HW127062   1.025   0.058  16.944 -0.1385 -1.5246 -0.5746
 5200SOL    HW227063   1.092   0.157  16.856  1.1591 -0.6478  1.5696
 5201SOL     OW27064   1.554   1.824   3.182 -0.6647 -0.5636 -0.0649
 5201SOL    HW127065   1.486   1.766   3.214 -1.6410  0.0421 -1.0277
 5201SOL    HW227066   1.517   1.839   3.095 -2.0307  0.1560  0.6515
 5202SOL     OW27067   0.744   4.193   6.237 -0.5565 -0.3004  0.3955
 5202SOL    HW127068   0.702   4.244   6.306 -1.0211 -0.4739  0.2421
 5202SOL    HW227069   0.753   4.254   6.163  0.7543  0.5359  1.2428
 5203SOL     OW27070   3.234   1.745   1.341 -0.3695 -0.5318  0.1106
 5203SOL    HW127071   3.249   1.698   1.258 -2.3903  1.3811 -1.3449
 5203SOL    HW227072   3.147   1.708   1.361 -0.1422 -0.4472  1.2313
 5204SOL     OW27073   4.353   4.691   8.099  1.1939  0.2763 -0.3666
 5204SOL    HW127074   4.382   4.679   8.008 -1.5010  1.6815 -1.4097
 5204SOL    HW227075   4.417   0.029   8.132 -0.1973  1.5559 -0.0667
 5205SOL     OW27076   0.488   3.600   4.611  0.7186  0.3284 -0.3027
 5205SOL    HW127077   0.528   3.608   4.524  1.1044  1.7953  0.0050
 5205SOL    HW227078   0.559   3.563   4.664  0.8294 -0.7335 -1.2045
 5206SOL     OW27079   1.338   0.886   2.745  0.2538 -0.9515  0.4624
 5206SOL    HW127080   1.281   0.893   2.668  1.3820  1.2737 -0.1602
 5206SOL    HW227081   1.343   0.973   2.784  1.6330 -0.6653 -0.3370
 5207SOL     OW27082   3.824   0.279   2.968 -0.4950  0.3881 -0.2355
 5207SOL    HW127083   3.915   0.271   2.937 -0.4798 -0.5378  0.0569
 5207SOL    HW227084   3.814   0.360   2.917  1.4127 -0.7478 -2.4737
 5208SOL     OW27085   2.168   4.102   1.943 -0.1055  0.3747 -0.1761
 5208SOL    HW127086   2.227   4.094   2.018 -1.0237  0.0392  0.5115
 5208SOL    HW227087   2.092   4.149   1.978 -1.0174  0.4328 -2.2109
 5209SOL     OW27088   1.702   0.678  11.452  0.3701 -0.8069  0.0545
 5209SOL    HW127089   1.762   0.692  11.525 -0.2741  0.6385  0.3001
 5209SOL    HW227090   1.762   0.702  11.381  0.2170  0.0330  0.2154
 5210SOL     OW27091   0.065   2.863   9.607 -0.3327 -1.3579 -0.5645
 5210SOL    HW127092   4.723   2.923   9.574  0.5633 -0.5573 -0.9267
 5210SOL    HW227093   0.051   2.863   9.702  0.2162 -1.9835 -0.4859
 5211SOL     OW27094   0.856   4.684   9.387 -0.0539 -0.2906  0.0436
 5211SOL    HW127095   0.872   0.029   9.323  1.9411 -1.5905 -0.8512
 5211SOL    HW227096   0.920   4.702   9.456  1.2088 -2.3793 -0.6041
 5212SOL     OW27097   0.054   2.064   5.470 -0.5448 -0.3036 -0.1521
 5212SOL    HW127098   4.703   2.006   5.486 -0.1473 -0.9284 -0.5461
 5212SOL    HW227099   0.115   1.993   5.449 -1.7243 -1.4166  0.1592
 5213SOL     OW27100   3.843   4.514   0.697 -0.1436 -0.3172 -0.1757
 5213SOL    HW127101   3.876   4.604   0.703  2.9731 -1.3903 -1.2676
 5213SOL    HW227102   3.923   4.475   0.662  0.2490  1.0486 -0.8004
 5214SOL     OW27103   3.319   3.464   8.608  0.3046  0.1951  0.0186
 5214SOL    HW127104   3.376   3.392   8.583  0.1135  0.7071 -1.8311
 5214SOL    HW227105   3.286   3.490   8.523  0.6632 -0.2015 -0.2405
 5215SOL     OW27106   4.045   4.254   7.584  0.5320  0.5382  0.4230
 5215SOL    HW127107   3.974   4.305   7.546 -0.8563 -0.6727  1.3896
 5215SOL    HW227108   4.033   4.285   7.674  3.5117 -0.5582  1.2183
 5216SOL     OW27109   2.938   0.474   1.122  0.0524 -0.6412  0.0255
 5216SOL    HW127110   2.881   0.482   1.046 -0.5673  1.6252  0.7190
 5216SOL    HW227111   2.947   0.380   1.109 -2.4710 -0.8748  0.0671
 5217SOL     OW27112   4.323   3.152   9.973  0.3834  0.1940 -0.5176
 5217SOL    HW127113   4.248   3.136  10.031  1.0552  0.0235  0.3022
 5217SOL    HW227114   4.397   3.152  10.033 -0.4775  0.9374  0.5356
 5218SOL     OW27115   1.401   0.931  10.725  0.2490 -0.3148 -0.2093
 5218SOL    HW127116   1.357   0.897  10.648  0.6304 -0.8434 -0.1946
 5218SOL    HW227117   1.459   0.857  10.742  0.2838  0.2617  2.2932
 5219SOL     OW27118   1.873   0.138   2.384  0.2811 -0.0136 -0.1323
 5219SOL    HW127119   1.933   0.136   2.459  1.0024 -0.4153 -0.7137
 5219SOL    HW227120   1.895   0.224   2.349  1.7864  0.2089  1.3620
 5220SOL     OW27121   4.115   1.038  11.767 -0.2644 -0.1063 -0.4644
 5220SOL    HW127122   4.198   1.005  11.800 -0.4029  1.0451  1.0170
 5220SOL    HW227123   4.089   0.972  11.702 -0.7019 -0.3100 -0.0866
 5221SOL     OW27124   3.159   0.483  12.980  0.0574 -0.2100 -0.2857
 5221SOL    HW127125   3.133   0.548  12.916 -3.0764 -2.2488 -1.0682
 5221SOL    HW227126   3.116   0.400  12.958  1.3227 -0.9544  0.0196
 5222SOL     OW27127   3.587   1.241   2.683  0.3954 -0.1294 -0.1137
 5222SOL    HW127128   3.561   1.327   2.716  0.7601 -0.5671  1.3243
 5222SOL    HW227129   3.677   1.231   2.714  1.0453 -0.3091 -2.0976
 5223SOL     OW27130   3.311   0.227   3.181  0.6568  0.0857  0.6584
 5223SOL    HW127131   3.279   0.305   3.136 -3.8085 -2.4249 -0.5187
 5223SOL    HW227132   3.242   0.195   3.239  0.1912 -1.2870 -0.6370
 5224SOL     OW27133   4.458   2.336  17.480  0.5701 -0.1953  0.1724
 5224SOL    HW127134   4.517   2.260  17.477 -0.4075 -0.9158 -0.6528
 5224SOL    HW227135   4.503   2.404  17.430  1.9591  0.2318  1.9939
 5225SOL     OW27136   0.386   2.287   1.585 -0.0019 -0.0826  0.3230
 5225SOL    HW127137   0.350   2.303   1.497  0.6417 -0.5294 -0.0217
 5225SOL    HW227138   0.365   2.370   1.628  0.1664 -0.3466  0.9118
 5226SOL     OW27139   1.129   4.657   8.500 -0.9235 -0.1473  0.3866
 5226SOL    HW127140   1.163   4.569   8.518 -1.2699 -0.6975 -1.6803
 5226SOL    HW227141   1.168   4.676   8.415  0.2765 -2.9922  0.3143
 5227SOL     OW27142   3.163   1.297   5.526  0.1919  0.0599  0.8164
 5227SOL    HW127143   3.107   1.256   5.592  1.9390 -1.4970  1.3421
 5227SOL    HW227144   3.247   1.253   5.544  0.3361 -0.3704 -0.8911
 5228SOL     OW27145   2.825   4.203  16.424  0.5397  0.4647  0.4873
 5228SOL    HW127146   2.742   4.249  16.417 -0.2125 -0.8307  0.8454
 5228SOL    HW227147   2.837   4.185  16.518  0.9979 -0.9174  0.1683
 5229SOL     OW27148   0.789   2.215   4.990  1.0533  0.1836  0.0612
 5229SOL    HW127149   0.819   2.279   5.054 -0.8375  0.8718  0.2757
 5229SOL    HW227150   0.716   2.253   4.942  1.4444  1.8934  0.8416
 5230SOL     OW27151   3.333   0.187   2.058 -0.2193 -0.1709  0.0178
 5230SOL    HW127152   3.297   0.249   1.994  0.7885  1.8551  1.3888
 5230SOL    HW227153   3.281   0.202   2.137 -0.5816 -0.9878 -0.0701
 5231SOL     OW27154   0.537   1.711   3.691  0.1078  0.1755  0.3746
 5231SOL    HW127155   0.533   1.776   3.621 -0.9786 -0.6770 -0.3400
 5231SOL    HW227156   0.614   1.659   3.671 -0.2341 -1.3651  3.0537
 5232SOL     OW27157   3.459   3.735   9.239 -0.4691 -0.8397  0.0954
 5232SOL    HW127158   3.369   3.726   9.207 -0.4061  0.1038 -0.3466
 5232SOL    HW227159   3.466   3.829   9.255 -2.9144 -0.5999 -0.1455
 5233SOL     OW27160   2.531   2.197   9.770  0.4594 -0.3823  0.1210
 5233SOL    HW127161   2.614   2.245   9.775 -0.0502  0.4900  0.1758
 5233SOL    HW227162   2.553   2.140   9.696  2.1462 -0.0151  0.3451
 5234SOL     OW27163   4.084   4.343  17.433  0.4375 -0.0228 -0.6440
 5234SOL    HW127164   4.165   4.357  17.481  0.1081 -2.9984  0.7385
 5234SOL    HW227165   4.047   4.277  17.492  0.6961 -1.0425 -1.6312
 5235SOL     OW27166   0.977   2.439  14.745 -0.5250 -0.4075 -0.4096
 5235SOL    HW127167   1.048   2.374  14.749 -1.8061 -1.7286  1.4733
 5235SOL    HW227168   1.026   2.510  14.704  0.1121 -0.6178 -0.0276
 5236SOL     OW27169   3.188   3.966   2.333 -0.2708  0.1228 -0.1904
 5236SOL    HW127170   3.270   3.987   2.378  0.9732 -1.9083 -1.4707
 5236SOL    HW227171   3.157   4.050   2.300 -1.0174 -0.2008 -0.3039
 5237SOL     OW27172   0.599   0.464   7.285 -0.4733  0.2635  0.4942
 5237SOL    HW127173   0.552   0.405   7.345 -0.1560 -1.6924 -1.1719
 5237SOL    HW227174   0.525   0.509   7.246  0.3539  0.6061 -0.6676
 5238SOL     OW27175   2.775   0.068   7.327  0.0861 -0.1701 -0.1590
 5238SOL    HW127176   2.838   0.129   7.289 -2.4239  1.6389 -1.4261
 5238SOL    HW227177   2.832   4.716   7.329  0.3735  0.0595  0.3862
 5239SOL     OW27178   1.446   3.562   5.655  0.3728 -0.4320  0.5200
 5239SOL    HW127179   1.511   3.503   5.617 -1.5183 -2.6615  0.7088
 5239SOL    HW227180   1.409   3.604   5.578  1.1496 -2.6235 -1.0494
 5240SOL     OW27181   4.015   4.124  13.390 -0.2891  0.1945 -0.2133
 5240SOL    HW127182   4.017   4.216  13.363 -4.2890  0.8253  1.6532
 5240SOL    HW227183   3.987   4.148  13.478 -2.2603 -1.0745 -0.5068
 5241SOL     OW27184   3.163   1.495  13.391 -0.1004  0.3347  0.3999
 5241SOL    HW127185   3.097   1.498  13.461 -2.2221 -0.3281 -1.5679
 5241SOL    HW227186   3.108   1.453  13.325 -2.3877  0.1745  2.3854
 5242SOL     OW27187   2.636   1.376   2.912  0.1426 -0.4565  0.0292
 5242SOL    HW127188   2.542   1.391   2.927  0.1095 -0.3481 -0.2942
 5242SOL    HW227189   2.661   1.430   2.837 -0.7798  0.2118  0.2010
 5243SOL     OW27190   2.305   1.514   7.739  1.0326 -0.6207  0.4214
 5243SOL    HW127191   2.278   1.603   7.764  0.3432 -0.9286  0.7525
 5243SOL    HW227192   2.398   1.512   7.761  0.2347 -0.4684  3.7502
 5244SOL     OW27193   0.406   2.461   1.802  0.5905  0.2000 -0.5765
 5244SOL    HW127194   0.366   2.507   1.876  1.8439  1.6075 -0.7604
 5244SOL    HW227195   0.386   2.518   1.728 -2.3691 -1.1517 -0.8085
 5245SOL     OW27196   2.346   3.337  11.482  0.2978  0.9288 -0.0405
 5245SOL    HW127197   2.385   3.320  11.396 -0.5696  0.0276 -0.2644
 5245SOL    HW227198   2.352   3.251  11.523  0.5250  0.3026 -1.4002
 5246SOL     OW27199   1.971   2.035   5.322 -0.1389  0.3578 -0.0433
 5246SOL    HW127200   1.895   1.977   5.320  0.1768 -0.0787  0.8562
 5246SOL    HW227201   1.980   2.056   5.229 -0.9300  0.2301 -0.1476
 5247SOL     OW27202   1.338   3.020   8.101  0.0065 -0.2679 -0.0155
 5247SOL    HW127203   1.373   3.104   8.132 -1.4638 -0.2458  1.5919
 5247SOL    HW227204   1.293   3.041   8.019  0.2787 -0.5594 -0.2387
 5248SOL     OW27205   2.378   1.893  15.403  0.0539  0.0154  0.1764
 5248SOL    HW127206   2.411   1.872  15.490  0.7339 -0.3163 -0.1564
 5248SOL    HW227207   2.414   1.816  15.359 -1.0932 -0.6420  0.3993
 5249SOL     OW27208   4.067   0.914  15.929 -0.1023 -0.1941  0.4287
 5249SOL    HW127209   4.078   0.998  15.884  1.7230 -1.1639 -0.9407
 5249SOL    HW227210   3.976   0.924  15.956  0.4136  0.3899  1.9699
 5250SOL     OW27211   0.772   4.645  16.313  0.6037 -0.3202  0.3244
 5250SOL    HW127212   0.778   4.690  16.229 -0.6161  2.3787  1.6834
 5250SOL    HW227213   0.834   4.703  16.358 -0.7470  0.1897  1.5139
 5251SOL     OW27214   1.272   0.350  12.304 -0.0689  0.1761  0.0411
 5251SOL    HW127215   1.258   0.417  12.237  1.0684  1.0051  0.6422
 5251SOL    HW227216   1.213   0.378  12.375 -1.3571  0.2791 -1.0778
 5252SOL     OW27217   0.047   1.685   6.917  0.5196 -0.2082 -0.0487
 5252SOL    HW127218   4.677   1.699   6.908  0.7178 -1.7068 -4.7074
 5252SOL    HW227219   0.059   1.591   6.925  3.4409  0.1051 -0.6732
 5253SOL     OW27220   2.077   4.123   5.832  0.2798  0.2710  0.2728
 5253SOL    HW127221   2.030   4.042   5.813  2.1828 -0.3441 -1.9295
 5253SOL    HW227222   2.057   4.176   5.755  2.1390  1.3194  0.5148
 5254SOL     OW27223   2.790   4.555   8.811 -0.5569 -0.3455  0.0329
 5254SOL    HW127224   2.872   4.605   8.812  0.2544 -1.6225 -2.1641
 5254SOL    HW227225   2.718   4.617   8.813 -0.5733 -0.3132 -1.4228
 5255SOL     OW27226   1.626   2.104  13.334  0.0269  0.2979  0.3024
 5255SOL    HW127227   1.630   2.113  13.239 -0.4077  0.4891  0.3017
 5255SOL    HW227228   1.706   2.142  13.370  0.8960  0.9739 -2.3133
 5256SOL     OW27229   1.219   1.116   4.328 -0.3632 -0.4211  0.2648
 5256SOL    HW127230   1.261   1.080   4.406  0.3300  0.2952  0.2186
 5256SOL    HW227231   1.204   1.207   4.351  1.8540 -0.0493  0.2121
 5257SOL     OW27232   4.543   2.174   2.162  0.9133  0.1496  0.3220
 5257SOL    HW127233   4.506   2.262   2.173 -1.6947 -0.9948  0.7971
 5257SOL    HW227234   4.500   2.137   2.239 -0.6608 -2.0873 -1.6456
 5258SOL     OW27235   4.024   1.562   3.005  0.7914  0.7845  0.7349
 5258SOL    HW127236   4.063   1.494   2.950 -0.6524  1.6669 -1.3874
 5258SOL    HW227237   3.971   1.513   3.068  2.3844 -0.8139  0.8184
 5259SOL     OW27238   3.379   1.528   9.308  0.2377  0.0842  0.2366
 5259SOL    HW127239   3.404   1.496   9.395 -0.4263 -0.6344  0.1527
 5259SOL    HW227240   3.388   1.622   9.325  0.4457  0.2778 -0.9405
 5260SOL     OW27241   1.486   4.609   5.195 -0.1953  0.0531  0.0601
 5260SOL    HW127242   1.512   4.567   5.113 -0.5601 -0.3275  0.1360
 5260SOL    HW227243   1.395   4.625   5.172 -0.0839  2.0475  1.0598
 5261SOL     OW27244   2.239   4.015   1.035  0.1322  0.4628 -0.1227
 5261SOL    HW127245   2.314   4.048   1.085  1.1422 -1.6572 -0.2417
 5261SOL    HW227246   2.195   4.099   1.016  1.4565  0.9674 -0.9799
 5262SOL     OW27247   3.568   4.424   0.773  0.3070 -0.1331 -0.3500
 5262SOL    HW127248   3.662   4.436   0.759  0.0732 -2.2682 -3.6054
 5262SOL    HW227249   3.575   4.377   0.856 -0.8386  1.1299  0.4556
 5263SOL     OW27250   3.584   1.098   9.101  0.0203  0.1125 -0.1738
 5263SOL    HW127251   3.492   1.125   9.111  0.3638 -0.7628  5.6817
 5263SOL    HW227252   3.647   1.161   9.136 -2.1304  1.5295  1.1935
 5264SOL     OW27253   4.669   0.558   2.125 -0.0890 -0.6474 -0.1034
 5264SOL    HW127254   0.016   0.495   2.136 -2.6072 -2.9166  3.1168
 5264SOL    HW227255   4.678   0.575   2.031  1.0483 -0.3583  0.0567
 5265SOL     OW27256   1.535   3.798   0.236  0.5955  0.2399 -0.2582
 5265SOL    HW127257   1.454   3.809   0.285  2.1576  0.6536  2.2085
 5265SOL    HW227258   1.584   3.736   0.291 -0.3863 -0.6013 -0.3246
 5266SOL     OW27259   0.813   3.278  16.265  0.7725 -0.4463 -0.0208
 5266SOL    HW127260   0.826   3.359  16.315  1.2885 -0.0721 -0.7667
 5266SOL    HW227261   0.718   3.274  16.267  0.6662  0.5651 -3.5022
 5267SOL     OW27262   1.849   2.937  12.853  0.2052  0.3990 -0.4998
 5267SOL    HW127263   1.814   2.915  12.766  2.4530  0.0772 -1.3217
 5267SOL    HW227264   1.936   2.966  12.826  0.1801  0.8521 -0.0890
 5268SOL     OW27265   1.511   3.876   3.897 -0.1134  0.6618  0.1257
 5268SOL    HW127266   1.425   3.882   3.938 -0.3765  0.4778 -0.4041
 5268SOL    HW227267   1.573   3.847   3.965  1.5779  0.8054 -1.3675
 5269SOL     OW27268   0.851   2.440   2.088 -0.4409  0.2120 -0.2389
 5269SOL    HW127269   0.777   2.500   2.077  0.5758  1.6732  0.8818
 5269SOL    HW227270   0.845   2.393   2.005  0.4563  1.4994 -1.0380
 5270SOL     OW27271   3.693   0.574  14.782 -0.6004  0.2623  0.1935
 5270SOL    HW127272   3.729   0.545  14.699 -1.0270 -1.2488  0.5188
 5270SOL    HW227273   3.629   0.508  14.811 -0.6318 -0.9832 -2.7441
 5271SOL     OW27274   0.526   4.676   7.232 -0.1611  0.3104 -0.4313
 5271SOL    HW127275   0.490   4.652   7.147 -1.7980 -0.6378  0.5335
 5271SOL    HW227276   0.589   0.017   7.200  0.0757  0.7268  0.8898
 5272SOL     OW27277   4.604   3.936   9.096  0.1991 -0.4403 -0.2369
 5272SOL    HW127278   4.682   3.901   9.139  2.2869  2.0832 -1.9866
 5272SOL    HW227279   4.611   4.030   9.113  1.5028 -1.1127  2.8996
 5273SOL     OW27280   2.572   3.692   8.649  0.2785 -0.2481 -0.0241
 5273SOL    HW127281   2.614   3.630   8.589  2.6915 -0.8994  2.3647
 5273SOL    HW227282   2.549   3.763   8.589  1.6888  0.8203  0.7007
 5274SOL     OW27283   1.518   1.902   4.441 -0.0713 -0.1616  0.0309
 5274SOL    HW127284   1.426   1.918   4.420  0.1961  1.5411  0.1650
 5274SOL    HW227285   1.501   1.860   4.526 -0.8437  0.5924  0.2537
 5275SOL     OW27286   2.597   2.903  11.805  0.1879 -0.0029  0.2996
 5275SOL    HW127287   2.685   2.886  11.773  0.1754 -1.8275  1.2621
 5275SOL    HW227288   2.609   2.945  11.890 -2.1774 -0.7401  1.0186
 5276SOL     OW27289   2.920   1.408  14.056  0.5685  0.2406 -0.3573
 5276SOL    HW127290   2.936   1.452  14.140  2.4886 -1.2824  0.0649
 5276SOL    HW227291   2.902   1.477  13.992  1.1528  1.6153  0.9348
 5277SOL     OW27292   2.851   3.108   3.799  0.4784  0.3368 -0.0332
 5277SOL    HW127293   2.790   3.105   3.873 -1.4841 -1.3236 -1.7192
 5277SOL    HW227294   2.796   3.156   3.737  0.4813  0.3081 -0.0580
 5278SOL     OW27295   1.143   2.561   1.221 -0.1245 -0.2913  0.2546
 5278SOL    HW127296   1.168   2.593   1.308  0.0797 -0.6861  0.3384
 5278SOL    HW227297   1.076   2.628   1.205  2.2152  2.4104  1.6796
 5279SOL     OW27298   4.471   0.884   4.709  0.3230  0.3605 -0.2570
 5279SOL    HW127299   4.537   0.815   4.711 -1.5916 -1.4804 -1.1462
 5279SOL    HW227300   4.417   0.864   4.633 -1.3470 -0.7274  1.2090
 5280SOL     OW27301   2.631   1.138   8.218  0.2874 -0.3338 -0.0425
 5280SOL    HW127302   2.554   1.088   8.245 -0.8904  0.3975 -2.0775
 5280SOL    HW227303   2.628   1.209   8.282 -3.2382 -1.6470  1.2569
 5281SOL     OW27304   0.514   0.623  12.548  0.5438 -0.3112  0.4535
 5281SOL    HW127305   0.578   0.560  12.581  0.4309  0.3594  1.9603
 5281SOL    HW227306   0.546   0.701  12.594 -2.0362  2.1562 -1.9229
 5282SOL     OW27307   0.724   0.734   7.217  0.2799 -0.6838  0.2410
 5282SOL    HW127308   0.634   0.757   7.192  0.6483 -1.8961 -2.2291
 5282SOL    HW227309   0.770   0.767   7.140  0.1987 -0.1787  0.4032
 5283SOL     OW27310   4.124   1.516  16.752 -0.3880 -1.0914  0.5312
 5283SOL    HW127311   4.107   1.446  16.816 -1.0406 -1.9366 -0.5560
 5283SOL    HW227312   4.165   1.589  16.797  0.3138  0.1252 -2.0976
 5284SOL     OW27313   1.808   0.949   6.601  0.1154  0.1341  0.1560
 5284SOL    HW127314   1.901   0.925   6.598 -0.1698 -1.1450  1.2930
 5284SOL    HW227315   1.810   1.036   6.641 -0.4954  0.4593 -0.5364
 5285SOL     OW27316   3.495   0.844  17.660 -0.4447  0.1775 -0.2714
 5285SOL    HW127317   3.442   0.830   0.039 -1.2021 -1.5273 -1.0883
 5285SOL    HW227318   3.545   0.763  17.658 -0.2632  0.2696  0.4652
 5286SOL     OW27319   1.998   0.514   7.017 -0.2057  0.2484 -0.1931
 5286SOL    HW127320   1.956   0.436   6.981 -0.3298  0.1642  0.1386
 5286SOL    HW227321   2.033   0.555   6.938 -0.5451 -2.0333 -1.5157
 5287SOL     OW27322   2.348   2.640   4.055  0.0983  0.0993 -0.0676
 5287SOL    HW127323   2.392   2.715   4.094  0.7088  0.1949 -0.9458
 5287SOL    HW227324   2.416   2.574   4.049 -1.0951 -0.9950 -1.8457
 5288SOL     OW27325   3.866   1.766  13.831 -0.2601 -0.3447  0.1826
 5288SOL    HW127326   3.907   1.852  13.832 -2.9648  0.9208  3.0952
 5288SOL    HW227327   3.806   1.769  13.758 -0.4159 -0.3545  0.3104
 5289SOL     OW27328   2.495   3.288  13.596 -0.2035 -0.3879 -0.0577
 5289SOL    HW127329   2.477   3.274  13.503 -0.0770 -0.6587 -0.0396
 5289SOL    HW227330   2.555   3.363  13.590 -0.7158 -0.1858 -2.6976
 5290SOL     OW27331   0.865   1.050  11.299  0.4742 -0.4274  0.1176
 5290SOL    HW127332   0.885   0.963  11.264  0.9806 -0.5956  0.8182
 5290SOL    HW227333   0.860   1.104  11.221 -1.2026  2.0913  1.9365
 5291SOL     OW27334   0.160   1.555   8.484 -0.8881  0.2363 -0.5796
 5291SOL    HW127335   0.192   1.523   8.400  0.0300  0.2028 -0.2163
 5291SOL    HW227336   0.235   1.597   8.526 -0.8982  0.7827 -1.1154
 5292SOL     OW27337   0.489   3.054   1.475 -0.1861 -0.4998  0.0588
 5292SOL    HW127338   0.436   3.106   1.415  0.8499  2.3854  1.6386
 5292SOL    HW227339   0.576   3.088   1.453 -0.1555  0.3028  1.4231
 5293SOL     OW27340   1.899   2.173  13.481  0.5814  0.1360  0.9883
 5293SOL    HW127341   1.975   2.152  13.427  0.3204  1.1506  0.2161
 5293SOL    HW227342   1.944   2.214  13.555 -0.5197  0.0202  1.7289
 5294SOL     OW27343   3.542   2.693   7.230  0.0490 -0.0192 -0.0161
 5294SOL    HW127344   3.633   2.721   7.222 -0.0581  0.9714  2.1575
 5294SOL    HW227345   3.513   2.737   7.310 -1.2318 -1.3360  0.2398
 5295SOL     OW27346   3.724   4.716  17.315  0.7223  0.4253  0.9456
 5295SOL    HW127347   3.646   4.706  17.370  0.5639 -1.1606  0.4354
 5295SOL    HW227348   3.800   4.705  17.372  1.6190  0.2281 -0.2637
 5296SOL     OW27349   0.328   0.102   4.231 -0.1390 -0.4316 -0.2924
 5296SOL    HW127350   0.260   0.147   4.281  1.1647 -1.7435  2.5968
 5296SOL    HW227351   0.281   0.037   4.177 -0.4637 -0.0465 -0.4763
 5297SOL     OW27352   0.057   4.003   7.301  0.4674 -0.5834 -0.6432
 5297SOL    HW127353   0.087   4.027   7.389  1.6265 -1.4681 -0.8036
 5297SOL    HW227354   0.136   3.956   7.275  0.0774 -2.1332  0.9227
 5298SOL     OW27355   3.739   4.714  11.904 -0.2496 -0.3977 -0.0570
 5298SOL    HW127356   3.658   0.003  11.954  0.2740 -2.3555  1.3526
 5298SOL    HW227357   3.780   0.076  11.901  0.1133 -0.6159 -1.0637
 5299SOL     OW27358   0.503   2.011   7.927 -0.8089 -0.1346  0.1900
 5299SOL    HW127359   0.511   1.970   7.841  0.9109  1.3287 -0.3620
 5299SOL    HW227360   0.412   1.986   7.939 -0.7841 -0.1931  0.2562
 5300SOL     OW27361   4.184   2.489   3.061  0.9801  0.1681  0.0176
 5300SOL    HW127362   4.163   2.412   3.007 -0.1065  0.7567 -0.3958
 5300SOL    HW227363   4.110   2.547   3.044 -0.5379 -1.6981  0.2189
 5301SOL     OW27364   1.046   2.919   5.932  0.4466  0.1812 -0.2382
 5301SOL    HW127365   0.979   2.949   5.994  1.8578 -0.5023  1.6108
 5301SOL    HW227366   0.985   2.881   5.868  0.5889  0.5470 -0.5932
 5302SOL     OW27367   0.525   4.211  16.383 -0.1200 -0.3642 -0.6895
 5302SOL    HW127368   0.562   4.294  16.354  0.8977 -0.0909  1.3529
 5302SOL    HW227369   0.582   4.196  16.459  0.4896  0.4391 -0.9867
 5303SOL     OW27370   3.723   0.536  15.759 -0.7317 -0.2435  0.2639
 5303SOL    HW127371   3.811   0.572  15.763 -0.9829  0.1905  2.0625
 5303SOL    HW227372   3.704   0.529  15.666 -0.7077 -0.3063  0.2635
 5304SOL     OW27373   3.450   3.635   5.208 -0.4614  0.4585  0.0988
 5304SOL    HW127374   3.382   3.615   5.272 -0.3927  0.9025  0.3118
 5304SOL    HW227375   3.469   3.547   5.174  2.1521  1.9161 -2.2022
 5305SOL     OW27376   4.023   0.479   0.682 -0.1132  0.1095  0.2854
 5305SOL    HW127377   4.001   0.434   0.601 -1.5749 -0.0775  0.7831
 5305SOL    HW227378   3.940   0.468   0.729 -0.1951  1.1647  0.3857
 5306SOL     OW27379   1.043   1.871   8.059  0.0985 -0.3128 -0.3532
 5306SOL    HW127380   1.138   1.883   8.061 -0.1591  1.7634 -0.2742
 5306SOL    HW227381   1.026   1.911   7.973 -2.3613  0.1987  0.3747
 5307SOL     OW27382   1.727   4.037  17.275  0.2793 -0.3782 -0.1662
 5307SOL    HW127383   1.667   4.103  17.242  0.7441 -0.5067 -1.2811
 5307SOL    HW227384   1.717   3.962  17.215  1.9089 -1.0935  0.4459
 5308SOL     OW27385   4.404   4.538   6.304 -0.1447  0.4709 -0.2160
 5308SOL    HW127386   4.425   4.605   6.238 -1.9682  2.3742  1.1589
 5308SOL    HW227387   4.488   4.500   6.331 -0.1203 -0.5568 -1.7468
 5309SOL     OW27388   0.580   2.462  10.130  0.3066  0.0549  0.0724
 5309SOL    HW127389   0.623   2.399  10.187 -0.7170 -0.4692  0.2687
 5309SOL    HW227390   0.651   2.519  10.100  0.8638 -0.3493  0.6225
 5310SOL     OW27391   0.683   0.323   6.673 -0.2412  0.3089  0.3307
 5310SOL    HW127392   0.723   0.410   6.681  0.4053 -0.2389  3.0928
 5310SOL    HW227393   0.638   0.318   6.757  0.8536 -0.7405  0.8474
 5311SOL     OW27394   0.957   0.134   4.764 -0.2600  0.1735  0.4431
 5311SOL    HW127395   1.032   0.172   4.811  1.1393 -2.0847  0.0556
 5311SOL    HW227396   1.004   0.072   4.708  0.1253 -0.4714  1.4765
 5312SOL     OW27397   3.693   1.925  17.403  0.4231 -0.6993  0.5326
 5312SOL    HW127398   3.758   1.900  17.337  1.7106  0.4023  1.4084
 5312SOL    HW227399   3.657   2.004  17.363  0.0268 -0.5326  1.2229
 5313SOL     OW27400   2.721   3.341   2.653  0.3136 -0.0862  0.1310
 5313SOL    HW127401   2.643   3.315   2.603  0.3511 -0.4633  0.2706
 5313SOL    HW227402   2.773   3.263   2.632 -0.6459 -1.2046  1.9587
 5314SOL     OW27403   0.791   2.377   4.604 -0.3053 -0.1643  0.2009
 5314SOL    HW127404   0.754   2.426   4.678 -2.8701  1.1232 -1.9430
 5314SOL    HW227405   0.868   2.334   4.640  0.0557 -0.2236 -0.6410
 5315SOL     OW27406   4.671   4.402   4.796  0.0170  0.5474  0.3492
 5315SOL    HW127407   4.614   4.467   4.756  0.7529  0.6452 -0.5372
 5315SOL    HW227408   4.605   4.354   4.846 -0.3629  0.6138 -0.0913
 5316SOL     OW27409   0.033   1.840   2.727 -0.3322  0.0117 -0.0448
 5316SOL    HW127410   0.043   1.929   2.694  2.2678 -0.8199 -1.4840
 5316SOL    HW227411   4.663   1.825   2.725 -0.2645 -0.6695  2.3375
 5317SOL     OW27412   1.740   3.872   1.461  0.1719 -0.1250  0.4852
 5317SOL    HW127413   1.651   3.868   1.428 -0.1927  1.7396  1.2397
 5317SOL    HW227414   1.746   3.784   1.498 -0.2145 -1.0098 -1.5221
 5318SOL     OW27415   0.221   4.003   6.125  0.0315  0.5315  0.5977
 5318SOL    HW127416   0.307   4.046   6.119  0.1418  0.1481 -0.5479
 5318SOL    HW227417   0.250   3.912   6.125  0.5467  0.7037 -1.2785
 5319SOL     OW27418   3.978   4.393  10.233 -0.4041  0.2260  0.3904
 5319SOL    HW127419   3.961   4.379  10.326 -1.4539 -3.0484 -0.3054
 5319SOL    HW227420   4.018   4.480  10.239  0.9109 -0.2925 -0.6483
 5320SOL     OW27421   2.038   3.526   7.016  0.1481 -0.1795  0.0200
 5320SOL    HW127422   1.982   3.583   7.069 -2.2428 -1.6082 -0.9678
 5320SOL    HW227423   1.972   3.459   6.996 -2.8735  3.0321 -0.7192
 5321SOL     OW27424   2.740   0.435   8.460  0.3726  0.1411 -0.0267
 5321SOL    HW127425   2.717   0.394   8.543  1.8762 -1.6976 -0.4988
 5321SOL    HW227426   2.688   0.386   8.396  1.0784  1.1647 -1.3886
 5322SOL     OW27427   3.525   3.860   5.032 -0.2821 -0.0341  0.2999
 5322SOL    HW127428   3.452   3.921   5.017 -0.1371 -0.2350 -1.1928
 5322SOL    HW227429   3.507   3.807   5.109  0.2009  0.4356  0.7337
 5323SOL     OW27430   3.474   0.301   3.470 -0.0726 -0.0276  0.7680
 5323SOL    HW127431   3.524   0.320   3.391 -1.8195 -1.5900 -0.6907
 5323SOL    HW227432   3.390   0.314   3.427 -0.4154 -0.4655  1.3087
 5324SOL     OW27433   2.821   1.538   3.582 -0.1425  0.8193  0.0186
 5324SOL    HW127434   2.887   1.550   3.650  0.6325  0.6163 -0.6950
 5324SOL    HW227435   2.857   1.578   3.502  1.3129 -1.4950 -0.5032
 5325SOL     OW27436   4.700   1.151   2.030 -0.4538  0.0968  0.3728
 5325SOL    HW127437   0.012   1.166   1.943  1.3688 -0.8470  0.9908
 5325SOL    HW227438   0.035   1.094   2.077  1.7576  1.2370 -1.0445
 5326SOL     OW27439   3.811   3.203   9.746 -0.3232  0.0042 -0.0428
 5326SOL    HW127440   3.803   3.178   9.654 -2.1876  0.3587  0.0170
 5326SOL    HW227441   3.789   3.296   9.742 -2.8483 -0.5650  0.5557
 5327SOL     OW27442   1.396   4.239   0.212 -0.1168  0.4591  0.4193
 5327SOL    HW127443   1.413   4.306   0.146  1.8238  0.4500  0.9324
 5327SOL    HW227444   1.404   4.156   0.164 -0.4886  0.9918 -0.5720
 5328SOL     OW27445   2.608   0.929   6.545 -0.1990 -0.4674  0.2120
 5328SOL    HW127446   2.657   0.866   6.599  0.5302  0.9756  1.2165
 5328SOL    HW227447   2.625   0.891   6.458  2.6822  0.0084  0.5499
 5329SOL     OW27448   0.857   4.356  17.127 -0.0121  0.7353 -0.5626
 5329SOL    HW127449   0.836   4.384  17.216 -1.0654 -3.2095  0.4430
 5329SOL    HW227450   0.844   4.262  17.138 -0.1866  0.7976 -0.2556
 5330SOL     OW27451   3.312   4.227  11.439 -0.0664 -0.0490 -0.4002
 5330SOL    HW127452   3.238   4.181  11.479 -0.0023 -1.1407 -1.5317
 5330SOL    HW227453   3.344   4.280  11.512  0.5920  2.7044 -2.6929
 5331SOL     OW27454   1.410   4.638   2.525 -0.0125 -0.4944 -0.2832
 5331SOL    HW127455   1.416   4.560   2.470  1.6975  0.8473 -2.0158
 5331SOL    HW227456   1.407   4.710   2.462  1.5213  0.9329  1.2453
 5332SOL     OW27457   4.632   1.547   6.558  0.3883  0.1217 -0.0767
 5332SOL    HW127458   4.617   1.468   6.508  0.0128 -0.1047  0.3908
 5332SOL    HW227459   4.550   1.541   6.607 -0.2891 -1.6717 -1.4694
 5333SOL     OW27460   3.564   3.224   6.238  0.0656 -0.3464  0.1764
 5333SOL    HW127461   3.613   3.186   6.311 -0.3451 -1.5549 -0.1748
 5333SOL    HW227462   3.579   3.158   6.170 -0.7284 -1.3571  0.9828
 5334SOL     OW27463   2.075   2.038   0.871 -0.0565  0.9206  0.4527
 5334SOL    HW127464   2.116   2.114   0.829  0.4630  0.5717  0.3348
 5334SOL    HW227465   2.000   2.008   0.819  1.9714 -0.2451 -1.7969
 5335SOL     OW27466   3.841   0.420   0.266 -0.9295 -0.0550 -0.4634
 5335SOL    HW127467   3.761   0.424   0.318  0.0909  0.7762  1.0160
 5335SOL    HW227468   3.894   0.367   0.325  1.4688  2.2714 -0.4972
 5336SOL     OW27469   0.729   4.405  13.535  0.3182 -0.6826 -0.4792
 5336SOL    HW127470   0.771   4.483  13.572  1.8731 -0.6902 -2.2337
 5336SOL    HW227471   0.781   4.370  13.463  1.5749 -1.1707  0.6651
 5337SOL     OW27472   4.404   2.792   8.990 -0.4499 -0.1031 -0.0742
 5337SOL    HW127473   4.487   2.795   9.036  0.7781 -2.0943 -2.1226
 5337SOL    HW227474   4.428   2.734   8.918 -0.4729 -0.9248  0.5730
 5338SOL     OW27475   2.025   3.649  15.968  0.1478 -0.2813  0.5745
 5338SOL    HW127476   2.024   3.744  15.979  2.4244 -0.0714 -0.9165
 5338SOL    HW227477   1.996   3.621  16.055 -1.4436 -1.3958 -0.3232
 5339SOL     OW27478   1.396   3.161   7.267  0.5170 -0.0243 -0.1245
 5339SOL    HW127479   1.341   3.164   7.189  0.7584  0.7430 -0.2643
 5339SOL    HW227480   1.345   3.093   7.310  2.9625 -0.0106  2.8583
 5340SOL     OW27481   3.789   1.614   7.076  0.2225  0.0023 -0.4240
 5340SOL    HW127482   3.829   1.534   7.042 -0.0915  1.1002 -3.3569
 5340SOL    HW227483   3.803   1.610   7.171 -0.3256 -1.0535 -0.3886
 5341SOL     OW27484   1.010   4.658  12.019  0.6816 -0.3455 -0.1774
 5341SOL    HW127485   0.963   4.685  11.940  1.1149  0.0188 -0.3076
 5341SOL    HW227486   1.042   4.576  11.981 -1.5671 -1.8673  1.2487
 5342SOL     OW27487   4.227   3.675   6.313  0.5158 -0.0892  0.2809
 5342SOL    HW127488   4.300   3.618   6.290  0.4170 -0.2424  0.3462
 5342SOL    HW227489   4.157   3.653   6.252  0.2095 -0.4517  0.7623
 5343SOL     OW27490   1.907   4.293   2.988 -0.2917  0.3577  0.2459
 5343SOL    HW127491   1.935   4.362   3.048  0.8011  0.4621 -0.3839
 5343SOL    HW227492   1.897   4.343   2.907  1.0095  0.6063  0.2412
 5344SOL     OW27493   2.188   3.627   9.756  0.0159  0.2975 -0.2312
 5344SOL    HW127494   2.095   3.606   9.769 -0.3504  0.4000 -2.8158
 5344SOL    HW227495   2.186   3.678   9.676 -1.0158  0.0317 -0.3788
 5345SOL     OW27496   0.407   3.113   6.821 -0.2939 -0.1523 -0.1476
 5345SOL    HW127497   0.405   3.025   6.858  0.1418  0.1675  0.6316
 5345SOL    HW227498   0.458   3.112   6.740  0.1445  1.6530  0.0982
 5346SOL     OW27499   4.108   3.562  11.116  0.3537  0.0463 -0.3546
 5346SOL    HW127500   4.088   3.649  11.152 -0.2370  0.4941 -1.7521
 5346SOL    HW227501   4.029   3.513  11.136  1.3920 -0.9132  1.4519
 5347SOL     OW27502   1.256   1.799   1.365 -0.6458 -0.0800 -0.0500
 5347SOL    HW127503   1.249   1.705   1.348  0.4900 -0.0294 -0.7640
 5347SOL    HW227504   1.258   1.850   1.284  0.0665 -0.0045  0.0203
 5348SOL     OW27505   4.317   0.251   8.648 -0.5109  0.2465  0.1119
 5348SOL    HW127506   4.314   0.166   8.693  1.5847 -0.1258 -0.4976
 5348SOL    HW227507   4.284   0.233   8.560  1.0576  0.0024 -0.4227
 5349SOL     OW27508   1.225   1.155   5.342 -0.0414  0.0163  0.4569
 5349SOL    HW127509   1.219   1.141   5.248  1.4858  2.4479  0.0031
 5349SOL    HW227510   1.314   1.127   5.364  0.3578  0.8889 -0.0717
 5350SOL     OW27511   3.795   3.797   3.813  0.4906  0.6741  0.0817
 5350SOL    HW127512   3.751   3.866   3.762 -0.4077  1.2308  1.5816
 5350SOL    HW227513   3.746   3.718   3.791  0.6345  1.2441 -2.2958
 5351SOL     OW27514   0.667   2.386  12.842  0.2323 -0.0836  0.5502
 5351SOL    HW127515   0.700   2.475  12.854 -0.2685  0.0318  1.0776
 5351SOL    HW227516   0.736   2.340  12.891 -0.9632 -0.5441  1.7878
 5352SOL     OW27517   0.860   1.202   3.062 -0.3565 -0.1623  0.1768
 5352SOL    HW127518   0.790   1.240   3.008  0.7247 -0.3635 -1.3695
 5352SOL    HW227519   0.924   1.187   2.993 -0.3551 -0.2853  0.2038
 5353SOL     OW27520   0.398   2.878   0.147 -0.2133 -0.5718 -0.2139
 5353SOL    HW127521   0.383   2.868   0.053 -4.7799 -0.6703  0.5324
 5353SOL    HW227522   0.419   2.786   0.162  0.3968 -0.1518  1.4713
 5354SOL     OW27523   3.121   1.204   1.945 -0.5156  0.2507 -0.3789
 5354SOL    HW127524   3.206   1.195   1.988  0.0243  0.5385 -1.3813
 5354SOL    HW227525   3.135   1.167   1.858  0.6890  3.1396 -1.4254
 5355SOL     OW27526   3.686   0.190   4.161  0.7492  0.6265 -0.1693
 5355SOL    HW127527   3.593   0.199   4.182  0.6439  1.7162 -1.1082
 5355SOL    HW227528   3.701   0.263   4.101  1.8136 -0.2644 -0.9704
 5356SOL     OW27529   0.400   4.015   7.123 -0.5438 -0.2643 -0.0566
 5356SOL    HW127530   0.446   3.961   7.058 -0.5163  4.1975 -3.7871
 5356SOL    HW227531   0.411   3.954   7.195 -2.4919 -0.5727 -0.0272
 5357SOL     OW27532   4.006   4.128  17.584 -0.6381 -0.4010  0.3142
 5357SOL    HW127533   3.952   4.107  17.661 -3.4233  2.0394 -0.9916
 5357SOL    HW227534   3.968   4.076  17.514 -1.7323 -1.2021  1.5039
 5358SOL     OW27535   1.400   3.065   3.810 -0.2204  0.2903 -0.1908
 5358SOL    HW127536   1.348   2.986   3.793 -0.1256  0.2731 -0.3987
 5358SOL    HW227537   1.334   3.117   3.856  0.2682 -1.3090  2.3523
 5359SOL     OW27538   3.468   3.588   7.572  0.4063 -0.3369 -0.2386
 5359SOL    HW127539   3.385   3.628   7.546  0.1832 -0.8030 -0.2436
 5359SOL    HW227540   3.506   3.668   7.607 -1.8573  0.5187  0.2439
 5360SOL     OW27541   0.072   3.926  16.451  0.5436 -0.5250 -0.8216
 5360SOL    HW127542   0.088   3.923  16.356  0.5024 -1.0212 -0.8127
 5360SOL    HW227543   0.115   4.006  16.480  1.3754 -1.0256 -0.6682
 5361SOL     OW27544   0.658   2.009   8.148 -0.2323  0.1716  0.0508
 5361SOL    HW127545   0.705   1.926   8.147 -0.9212 -0.2080 -0.9223
 5361SOL    HW227546   0.608   2.016   8.066  0.3907  1.8578 -0.1799
 5362SOL     OW27547   2.930   3.729   7.523 -0.5839 -0.1940  0.0812
 5362SOL    HW127548   2.902   3.812   7.483 -2.4155 -1.1752 -0.6272
 5362SOL    HW227549   2.938   3.753   7.615 -1.0826 -1.2782  0.4023
 5363SOL     OW27550   1.558   0.859   9.077  0.3601  0.0377 -0.3170
 5363SOL    HW127551   1.547   0.948   9.043 -0.8722  0.1602  0.3939
 5363SOL    HW227552   1.536   0.863   9.170 -2.6238 -1.3432 -0.9529
 5364SOL     OW27553   2.234   4.536   4.068  0.1462 -0.3854 -0.3908
 5364SOL    HW127554   2.163   4.489   4.025  1.3912 -1.5168 -1.2232
 5364SOL    HW227555   2.309   4.519   4.011  1.5275 -1.0317  1.6090
 5365SOL     OW27556   0.106   1.730   4.928  0.2230 -0.6819 -0.4666
 5365SOL    HW127557   0.068   1.644   4.945 -0.8495  0.2066  1.6499
 5365SOL    HW227558   0.180   1.719   4.868 -1.0209 -0.7709 -1.9801
 5366SOL     OW27559   3.673   2.705   2.075  0.3385 -0.2425  0.3347
 5366SOL    HW127560   3.655   2.754   2.155  0.9532 -0.6734  0.7427
 5366SOL    HW227561   3.674   2.611   2.093  0.9007  0.1734  2.4074
 5367SOL     OW27562   2.267   3.758   1.025 -0.0607 -0.1787 -0.1534
 5367SOL    HW127563   2.253   3.851   1.043 -1.1421 -0.1405 -1.1750
 5367SOL    HW227564   2.195   3.726   1.080 -0.0393 -1.5914 -0.9481
 5368SOL     OW27565   0.143   3.886   1.875  0.0818  0.1354 -0.0622
 5368SOL    HW127566   0.229   3.847   1.863 -0.2789 -0.3601 -1.0361
 5368SOL    HW227567   0.145   3.968   1.826 -1.5414 -0.4572 -1.1398
 5369SOL     OW27568   2.935   3.033   8.343 -0.2428 -0.0785  0.0851
 5369SOL    HW127569   2.840   3.042   8.335 -0.4248  0.0968  2.4602
 5369SOL    HW227570   2.951   3.012   8.435 -1.2512 -3.1516 -0.4489
 5370SOL     OW27571   3.633   1.544  10.907  0.9117 -0.2059 -0.0954
 5370SOL    HW127572   3.635   1.639  10.918 -0.1650  0.0348 -2.0883
 5370SOL    HW227573   3.710   1.531  10.851  1.3710 -1.0997  0.7439
 5371SOL     OW27574   3.660   1.729   3.223  0.2297 -1.1234  0.1766
 5371SOL    HW127575   3.656   1.806   3.280 -1.3630 -0.9567 -0.1389
 5371SOL    HW227576   3.642   1.657   3.283 -3.2561  0.1896  0.7313
 5372SOL     OW27577   0.054   2.141   7.308 -0.3930  0.6564 -0.0731
 5372SOL    HW127578   0.068   2.233   7.286 -2.2722  0.8011 -0.6463
 5372SOL    HW227579   0.084   2.105   7.224 -2.6145  0.3920 -0.7663
 5373SOL     OW27580   3.739   2.165  17.626 -0.6759 -0.8661  0.2624
 5373SOL    HW127581   3.653   2.131  17.651 -0.6888 -0.7717  0.3462
 5373SOL    HW227582   3.775   2.089  17.580 -1.1225  0.3897 -2.1667
 5374SOL     OW27583   2.003   2.917   3.442 -0.0738 -0.4304  0.7899
 5374SOL    HW127584   1.944   2.974   3.393  0.0441  0.2028  1.3886
 5374SOL    HW227585   2.004   2.958   3.528 -1.9937 -3.0659  2.0900
 5375SOL     OW27586   2.735   2.534  12.071 -0.2720 -0.9324 -0.3917
 5375SOL    HW127587   2.739   2.560  12.163 -0.2461  2.6481 -1.3791
 5375SOL    HW227588   2.780   2.602  12.020  0.1142 -0.2456  0.8556
 5376SOL     OW27589   2.609   0.260   9.552 -0.5127  0.0540  0.4299
 5376SOL    HW127590   2.663   0.283   9.627  1.2006  2.2558 -1.4484
 5376SOL    HW227591   2.573   0.341   9.516 -0.7596  0.5183  1.7297
 5377SOL     OW27592   1.648   0.136   2.529  0.0977 -0.1590  0.5212
 5377SOL    HW127593   1.579   0.141   2.463 -2.1327 -1.7198  2.7220
 5377SOL    HW227594   1.726   0.124   2.476  0.5127 -0.3762  1.1817
 5378SOL     OW27595   1.281   1.735  15.735  0.2741 -0.3522  0.3651
 5378SOL    HW127596   1.304   1.679  15.810 -0.6192 -0.5471  0.4903
 5378SOL    HW227597   1.366   1.731  15.691 -0.7813 -2.8427 -1.4204
 5379SOL     OW27598   1.758   4.090   4.888  0.3780 -0.1855  0.2382
 5379SOL    HW127599   1.848   4.065   4.868  0.2419 -1.2445  0.9132
 5379SOL    HW227600   1.752   4.179   4.855  0.9524 -0.0131  0.5897
 5380SOL     OW27601   4.621   2.906   1.841  0.0515  0.2150  0.1467
 5380SOL    HW127602   4.622   2.997   1.869 -5.4942 -0.1723  1.6216
 5380SOL    HW227603   4.709   2.908   1.803  0.2465  0.1216  0.5899
 5381SOL     OW27604   4.685   1.147  12.276 -0.1714 -0.5223 -0.4108
 5381SOL    HW127605   4.635   1.068  12.298 -0.3450 -0.1998  0.3668
 5381SOL    HW227606   4.644   1.160  12.191  0.0217 -2.3220 -0.7708
 5382SOL     OW27607   3.046   4.037   5.439  0.4358 -0.6906  0.0738
 5382SOL    HW127608   2.954   4.038   5.412 -0.0589  0.5054  1.7552
 5382SOL    HW227609   3.048   3.945   5.465 -0.1141  0.0224  2.7415
 5383SOL     OW27610   2.141   4.101  15.058  0.5149 -0.6803  0.6466
 5383SOL    HW127611   2.083   4.029  15.082 -0.2768  0.0735  1.0197
 5383SOL    HW227612   2.079   4.174  15.056  0.0713 -1.1317 -1.5813
 5384SOL     OW27613   1.661   2.886  15.347  0.1133  0.0507 -0.1103
 5384SOL    HW127614   1.577   2.884  15.300  0.8431 -0.6386 -1.3879
 5384SOL    HW227615   1.641   2.925  15.432 -0.3566 -0.6578  0.1075
 5385SOL     OW27616   3.344   0.092   9.332 -0.1672 -0.7080  0.7889
 5385SOL    HW127617   3.357   0.185   9.312  4.0739 -1.4346  0.1752
 5385SOL    HW227618   3.433   0.059   9.334 -0.3829 -1.2601  1.1920
 5386SOL     OW27619   0.843   3.974   2.606 -0.3763  0.1996  0.0913
 5386SOL    HW127620   0.785   3.899   2.601 -2.1560  1.5536  0.5194
 5386SOL    HW227621   0.921   3.945   2.559 -0.3711  0.3402  0.0111
 5387SOL     OW27622   4.243   0.216   0.727  0.0365 -0.3107  0.3088
 5387SOL    HW127623   4.206   0.289   0.679  1.5128  0.7583  0.7732
 5387SOL    HW227624   4.313   0.260   0.777  2.0654  0.1964 -2.9597
 5388SOL     OW27625   3.318   4.249   7.681 -0.2240  0.2491  0.6001
 5388SOL    HW127626   3.358   4.292   7.756  1.8674 -1.0129  0.2112
 5388SOL    HW227627   3.263   4.315   7.639  0.1675 -0.2479 -0.7210
 5389SOL     OW27628   1.709   2.768   5.127  0.4089  0.0508  0.0253
 5389SOL    HW127629   1.757   2.849   5.112  0.9892 -0.3991 -0.5396
 5389SOL    HW227630   1.647   2.808   5.188 -0.0625  0.3861 -0.6722
 5390SOL     OW27631   1.320   2.101  13.824  0.3219  0.0932  0.7006
 5390SOL    HW127632   1.267   2.178  13.843  1.0723  0.3192  1.8593
 5390SOL    HW227633   1.371   2.114  13.904 -0.2920  0.4950  1.0233
 5391SOL     OW27634   1.645   0.150   0.688  0.6860  0.8289 -0.4552
 5391SOL    HW127635   1.554   0.157   0.660  0.5143  0.3793  0.0023
 5391SOL    HW227636   1.636   0.160   0.782 -3.4619 -0.3618 -0.7551
 5392SOL     OW27637   3.559   2.160   6.030  0.3103 -0.2026  0.6536
 5392SOL    HW127638   3.520   2.105   5.962 -1.4293  1.2089  0.5115
 5392SOL    HW227639   3.600   2.107   6.099 -1.6509 -0.9459  1.2486
 5393SOL     OW27640   3.038   0.738   5.168 -0.4809  0.7611  0.2768
 5393SOL    HW127641   3.121   0.720   5.123 -0.7343 -1.4845  0.7378
 5393SOL    HW227642   3.026   0.657   5.216 -0.1083  1.0307  0.8229
 5394SOL     OW27643   1.142   1.666   2.051 -0.2521  0.1660  0.4708
 5394SOL    HW127644   1.193   1.640   1.974 -1.1204  0.3348 -0.1662
 5394SOL    HW227645   1.157   1.760   2.052 -2.0389  0.4208  2.5689
 5395SOL     OW27646   0.436   1.154   0.244  0.1568 -0.0317  1.1356
 5395SOL    HW127647   0.459   1.245   0.227 -0.3316  0.1777  1.5863
 5395SOL    HW227648   0.515   1.106   0.218  0.9675  0.0239  3.4670
 5396SOL     OW27649   2.973   0.879  17.571  1.2730 -0.5447 -0.2115
 5396SOL    HW127650   3.057   0.840  17.596  0.4964 -1.3247  1.1535
 5396SOL    HW227651   2.917   0.806  17.596  0.7664 -0.5231 -1.2966
 5397SOL     OW27652   4.628   3.693   1.885 -0.1769  0.5294  0.2434
 5397SOL    HW127653   4.604   3.718   1.796 -2.6873  0.0221  0.7644
 5397SOL    HW227654   4.717   3.729   1.889  0.4702 -0.9498 -1.0186
 5398SOL     OW27655   2.379   3.515   3.919 -0.1554 -0.8632 -0.5652
 5398SOL    HW127656   2.398   3.421   3.911  2.4144 -0.3877 -0.0386
 5398SOL    HW227657   2.310   3.522   3.853 -0.0366 -0.5712 -0.6557
 5399SOL     OW27658   4.162   2.358  10.053 -0.1427 -0.0842 -0.0016
 5399SOL    HW127659   4.075   2.324  10.031  0.8558 -2.8232  0.2861
 5399SOL    HW227660   4.186   2.295  10.120 -0.8116  1.6525  1.8596
 5400SOL     OW27661   2.057   3.027  12.702  0.9599  0.1063 -0.3188
 5400SOL    HW127662   2.043   3.064  12.615  0.6298 -2.2932 -1.3100
 5400SOL    HW227663   2.119   2.959  12.676  0.4003  0.1594 -1.8014
 5401SOL     OW27664   2.608   1.459   1.541  0.1445  0.3028  0.0355
 5401SOL    HW127665   2.656   1.405   1.479 -0.1617 -1.7783  1.6122
 5401SOL    HW227666   2.571   1.385   1.588 -0.8735 -0.6503 -2.2514
 5402SOL     OW27667   1.378   2.419   8.927 -0.0210  0.0245 -0.1229
 5402SOL    HW127668   1.393   2.508   8.960 -2.7971  0.0511  1.0227
 5402SOL    HW227669   1.441   2.368   8.978  0.7596 -0.9125 -2.0282
 5403SOL     OW27670   4.574   0.706   5.840 -0.3308  0.4625 -0.1984
 5403SOL    HW127671   4.669   0.712   5.854 -0.4297 -0.4390  0.8748
 5403SOL    HW227672   4.538   0.686   5.927 -1.8089  0.9475 -0.6975
 5404SOL     OW27673   2.463   2.777  17.414 -0.4577 -0.0423  0.0437
 5404SOL    HW127674   2.539   2.800  17.468 -1.3208  1.0511  0.7894
 5404SOL    HW227675   2.470   2.836  17.339 -0.0352 -0.9107 -0.6041
 5405SOL     OW27676   0.003   0.949   5.977  0.1552  0.2268  0.2235
 5405SOL    HW127677   4.673   0.987   5.908  0.1319 -0.3212 -0.0603
 5405SOL    HW227678   0.083   1.000   5.984  0.6898 -0.5789 -0.0151
 5406SOL     OW27679   0.536   4.340   8.507  0.3871  0.4736 -0.3011
 5406SOL    HW127680   0.519   4.317   8.598 -2.0609 -1.6922 -1.3377
 5406SOL    HW227681   0.523   4.252   8.474  0.1425  0.6955 -0.8012
 5407SOL     OW27682   3.549   3.802  16.908  0.7997 -0.8622 -0.4127
 5407SOL    HW127683   3.493   3.808  16.986  0.3790 -1.3178 -0.6812
 5407SOL    HW227684   3.615   3.871  16.912  1.3682 -1.4851  1.0891
 5408SOL     OW27685   1.329   0.399   6.134  0.4213 -0.1658 -0.2797
 5408SOL    HW127686   1.249   0.425   6.088 -0.8863  1.4128  2.9035
 5408SOL    HW227687   1.386   0.374   6.061  0.5374 -1.2842  0.1984
 5409SOL     OW27688   0.927   2.834   8.423  0.4601  0.1983  0.1579
 5409SOL    HW127689   0.902   2.785   8.345  2.3669 -1.1272  0.3799
 5409SOL    HW227690   1.022   2.836   8.414  0.1936  0.6334 -2.5416
 5410SOL     OW27691   0.425   4.714   3.468  0.4760  0.4445  0.2743
 5410SOL    HW127692   0.358   0.002   3.402 -0.0153 -0.7552  0.5325
 5410SOL    HW227693   0.497   0.002   3.406  0.4439 -1.8496 -0.2293
 5411SOL     OW27694   0.129   0.651   3.130 -0.6456  0.2280  0.5769
 5411SOL    HW127695   0.213   0.665   3.087 -0.4777  0.3822  0.9606
 5411SOL    HW227696   0.076   0.618   3.058  0.9896  1.1253 -1.0463
 5412SOL     OW27697   1.757   0.031   5.220  0.0163  0.9476  0.4433
 5412SOL    HW127698   1.692   4.685   5.224  2.1619 -1.0956 -0.6597
 5412SOL    HW227699   1.716   0.096   5.163 -2.0069 -0.0719  0.7148
 5413SOL     OW27700   3.135   3.834   7.155 -0.1927 -0.0819 -0.5329
 5413SOL    HW127701   3.139   3.863   7.246 -2.1693  0.7153 -0.6982
 5413SOL    HW227702   3.213   3.779   7.159 -0.1153  0.1555  1.0327
 5414SOL     OW27703   3.141   3.348   6.845  0.2856  0.2298  0.0386
 5414SOL    HW127704   3.047   3.363   6.837  0.2808  0.5288  0.6979
 5414SOL    HW227705   3.171   3.431   6.882  1.8258 -0.2825 -0.0830
 5415SOL     OW27706   4.359   0.556   0.998  0.6076  0.1288  0.2442
 5415SOL    HW127707   4.400   0.470   0.988  1.4247  0.3557  1.6891
 5415SOL    HW227708   4.348   0.569   1.092  0.3513  0.8864  0.1109
 5416SOL     OW27709   3.343   3.495   3.925  0.4154 -0.2451 -0.3958
 5416SOL    HW127710   3.391   3.569   3.963  1.1304 -0.5534 -0.7050
 5416SOL    HW227711   3.323   3.530   3.838 -1.7260 -1.4449 -0.3575
 5417SOL     OW27712   1.785   3.391   8.225 -0.0102  0.3581 -0.4121
 5417SOL    HW127713   1.706   3.338   8.218 -0.0845  0.2673  1.2027
 5417SOL    HW227714   1.795   3.409   8.131  0.0288  1.1283 -0.2597
 5418SOL     OW27715   0.178   1.832   8.934  0.0365 -0.1459 -0.0097
 5418SOL    HW127716   0.127   1.842   8.854 -0.0275 -1.8787 -0.1736
 5418SOL    HW227717   0.260   1.874   8.906  1.2357 -2.6418 -0.1980
 5419SOL     OW27718   1.532   4.348  16.690 -0.1732  0.2974 -0.3107
 5419SOL    HW127719   1.594   4.394  16.634 -1.4713  0.4061 -1.6807
 5419SOL    HW227720   1.474   4.321  16.619  1.7811 -0.0503 -1.7483
 5420SOL     OW27721   4.633   3.055   6.119 -0.1913  0.3280 -0.2768
 5420SOL    HW127722   4.654   3.091   6.033  3.3430 -1.0915 -0.0152
 5420SOL    HW227723   4.691   3.107   6.176 -1.1300  2.3010 -1.1332
 5421SOL     OW27724   2.713   3.252   3.598 -0.1428  0.4999  0.1543
 5421SOL    HW127725   2.671   3.202   3.528  1.2268  0.5134 -0.6697
 5421SOL    HW227726   2.789   3.283   3.549  1.1365  0.0851  1.8765
 5422SOL     OW27727   0.289   2.996   2.810 -0.1730 -0.1275 -0.2181
 5422SOL    HW127728   0.235   2.918   2.800 -4.1630  2.3136  2.0900
 5422SOL    HW227729   0.338   2.972   2.889 -0.3998 -0.1951 -0.0998
 5423SOL     OW27730   2.125   3.519   2.399 -0.4787 -0.0260  0.0079
 5423SOL    HW127731   2.110   3.506   2.492  0.8248  1.1408  0.3875
 5423SOL    HW227732   2.204   3.467   2.386 -0.2067  0.0759  1.2964
 5424SOL     OW27733   1.525   1.954   3.659 -0.0129  0.2576  0.4846
 5424SOL    HW127734   1.552   1.865   3.682  0.1959  0.0574 -0.4963
 5424SOL    HW227735   1.597   1.989   3.606  1.0103  1.1742  2.4898
 5425SOL     OW27736   2.104   4.143  13.609 -0.4232  0.3588 -0.0785
 5425SOL    HW127737   2.099   4.069  13.548 -2.2272 -1.3648  2.1871
 5425SOL    HW227738   2.198   4.162  13.617 -0.2754 -0.9189  1.1036
 5426SOL     OW27739   4.709   2.731   7.379  0.5389  0.2995  0.4293
 5426SOL    HW127740   4.651   2.703   7.449  2.4848 -0.9489  1.5210
 5426SOL    HW227741   0.012   2.815   7.416 -1.0073  0.5638  0.9800
 5427SOL     OW27742   1.265   2.252  15.757  0.1614  0.5626 -0.5552
 5427SOL    HW127743   1.301   2.168  15.727 -2.4413  0.1381 -2.5075
 5427SOL    HW227744   1.174   2.236  15.732 -0.1363 -0.7743  1.3718
 5428SOL     OW27745   0.253   2.128   8.771 -0.9061  0.0088 -0.8089
 5428SOL    HW127746   0.296   2.045   8.790 -0.8496  0.4241  0.9006
 5428SOL    HW227747   0.325   2.190   8.787 -0.5035 -1.4338  3.0529
 5429SOL     OW27748   0.865   4.592  13.894  0.4609  0.3738  0.2174
 5429SOL    HW127749   0.954   4.555  13.892  0.2146 -0.4072  3.6534
 5429SOL    HW227750   0.858   4.639  13.977  1.6994 -0.2229  0.6584
 5430SOL     OW27751   0.467   3.403   5.316 -0.0356  0.0874  0.3302
 5430SOL    HW127752   0.403   3.376   5.250  1.8889  1.1446 -1.9387
 5430SOL    HW227753   0.423   3.487   5.325 -0.3807 -0.0782  0.2132
 5431SOL     OW27754   0.538   0.201   4.023 -0.4078  0.1999  0.0636
 5431SOL    HW127755   0.589   0.280   4.040 -0.8987  0.4411  0.4091
 5431SOL    HW227756   0.504   0.184   4.111 -0.5400  2.6974  0.4832
 5432SOL     OW27757   4.271   1.828   5.554 -0.7974 -0.0928 -0.4147
 5432SOL    HW127758   4.214   1.790   5.620 -0.0050 -1.9032 -0.7715
 5432SOL    HW227759   4.208   1.859   5.488 -1.7515 -3.1364 -0.9001
 5433SOL     OW27760   0.460   1.162   7.026 -0.3926  0.0177  0.3306
 5433SOL    HW127761   0.540   1.209   7.001 -1.0066  0.6966 -0.3563
 5433SOL    HW227762   0.469   1.093   6.960 -0.7775 -0.1366  0.4410
 5434SOL     OW27763   3.192   2.953   7.888  0.2792 -0.3650  0.0075
 5434SOL    HW127764   3.135   2.954   7.965  1.8597 -1.8116  1.1769
 5434SOL    HW227765   3.277   2.976   7.924  1.0615 -1.5454 -1.0890
 5435SOL     OW27766   3.311   0.552  16.754  0.1043  0.2790 -0.0454
 5435SOL    HW127767   3.349   0.620  16.809  0.8465  0.9396 -1.3645
 5435SOL    HW227768   3.391   0.503  16.735 -0.0304 -0.7644  2.0816
 5436SOL     OW27769   0.324   0.973   9.086  0.4863  0.2027  0.1851
 5436SOL    HW127770   0.267   1.037   9.043  2.9299  2.1942 -0.0691
 5436SOL    HW227771   0.344   1.022   9.165  0.1594 -0.7474  0.8578
 5437SOL     OW27772   4.074   1.550   1.803  0.2683  0.3570  0.1910
 5437SOL    HW127773   4.109   1.523   1.718 -1.5087 -1.6422  0.1005
 5437SOL    HW227774   3.988   1.586   1.780 -0.8416 -3.1563 -1.1834
 5438SOL     OW27775   3.169   3.875  15.940  0.1682  0.1515  0.5627
 5438SOL    HW127776   3.093   3.822  15.966 -0.2003  0.5327  0.2547
 5438SOL    HW227777   3.216   3.878  16.024  0.4045  0.8801  0.4042
 5439SOL     OW27778   3.246   2.197   8.364 -0.1095  0.4658  0.2166
 5439SOL    HW127779   3.203   2.279   8.389 -3.4380 -0.7531 -1.5159
 5439SOL    HW227780   3.180   2.146   8.318  0.6429 -0.0717 -0.2595
 5440SOL     OW27781   2.597   0.302   3.871  0.0999 -0.2096  0.1664
 5440SOL    HW127782   2.530   0.245   3.834  1.3449 -0.2729 -2.0520
 5440SOL    HW227783   2.568   0.390   3.847 -1.0176 -1.1437 -1.8687
 5441SOL     OW27784   3.534   4.331   2.459  0.1120 -0.0780  0.1524
 5441SOL    HW127785   3.462   4.315   2.520  2.2407 -1.2902  2.3707
 5441SOL    HW227786   3.571   4.409   2.499 -0.9777  0.1046  0.8087
 5442SOL     OW27787   1.717   2.543  16.858  0.0974 -0.0549 -0.5859
 5442SOL    HW127788   1.800   2.577  16.824  0.7562  1.8329  2.9568
 5442SOL    HW227789   1.735   2.546  16.952 -0.9298  0.7138 -0.4080
 5443SOL     OW27790   4.208   1.458   4.481  0.4132  0.5115 -0.2521
 5443SOL    HW127791   4.223   1.542   4.438  0.1849  2.6374  3.7434
 5443SOL    HW227792   4.284   1.466   4.539 -1.0531  1.8929  1.4956
 5444SOL     OW27793   0.811   0.006   6.485  0.2778 -0.0903 -0.2203
 5444SOL    HW127794   0.872   4.708   6.415 -0.2649  0.5594 -0.9018
 5444SOL    HW227795   0.833   0.097   6.502 -0.1794  0.1718 -1.0250
 5445SOL     OW27796   4.612   0.731   8.951 -0.4461  0.2349 -0.2821
 5445SOL    HW127797   4.664   0.694   8.879  0.0790  0.8496 -0.2122
 5445SOL    HW227798   4.578   0.658   9.004  0.5005  0.0395  0.0473
 5446SOL     OW27799   1.256   3.304   9.225 -0.2045  0.7469  0.7702
 5446SOL    HW127800   1.198   3.329   9.297 -1.0440 -0.3595  0.4835
 5446SOL    HW227801   1.239   3.381   9.169 -0.6297 -0.7067 -1.1048
 5447SOL     OW27802   0.776   4.677  17.668 -0.5466 -0.0946  0.0762
 5447SOL    HW127803   0.723   4.697   0.045  0.6012  0.5126  0.6935
 5447SOL    HW227804   0.728   4.711  17.592  0.4135  0.2219 -0.3882
 5448SOL     OW27805   1.440   2.874   7.343 -0.4993 -0.1863  0.5023
 5448SOL    HW127806   1.353   2.885   7.303 -1.4187 -0.9457  2.3305
 5448SOL    HW227807   1.463   2.785   7.317  1.7375  0.7954 -0.8717
 5449SOL     OW27808   2.729   3.868   6.197  0.0519  0.2421 -0.4945
 5449SOL    HW127809   2.775   3.952   6.203  1.7333 -0.5800 -1.8222
 5449SOL    HW227810   2.706   3.867   6.104  0.6856 -1.4584 -0.6208
 5450SOL     OW27811   1.073   3.196   0.385  0.5007 -0.1885  0.2267
 5450SOL    HW127812   1.037   3.283   0.368  0.1476 -0.7690 -1.9968
 5450SOL    HW227813   1.147   3.223   0.441  1.5591 -1.7427 -0.4204
 5451SOL     OW27814   3.869   2.881   4.704  0.0211  0.1479  0.1008
 5451SOL    HW127815   3.929   2.835   4.646  0.7682  1.0123  0.1929
 5451SOL    HW227816   3.790   2.890   4.650 -0.5716  0.1532  0.9615
 5452SOL     OW27817   1.310   2.937   1.450  0.1514  0.3622  0.1475
 5452SOL    HW127818   1.243   2.872   1.471  0.2988  0.3340  0.5333
 5452SOL    HW227819   1.367   2.888   1.392 -0.6169 -1.3812  0.8853
 5453SOL     OW27820   1.593   1.088   0.918  0.7882 -0.1904 -0.3428
 5453SOL    HW127821   1.628   1.052   1.000  2.0631 -1.3326 -1.3866
 5453SOL    HW227822   1.670   1.077   0.862  1.4468 -0.8690  0.7050
 5454SOL     OW27823   3.497   2.197  12.437  0.2037  0.7471  0.7550
 5454SOL    HW127824   3.414   2.245  12.437  0.1300  0.6206 -0.0317
 5454SOL    HW227825   3.498   2.159  12.349  0.2469 -0.1501  1.1426
 5455SOL     OW27826   2.239   4.268   8.763 -0.6186  0.4548 -0.1617
 5455SOL    HW127827   2.250   4.361   8.745 -2.7978  1.0444  1.5233
 5455SOL    HW227828   2.207   4.249   8.676 -0.3418 -1.3325  0.1253
 5456SOL     OW27829   1.243   2.034   7.383 -0.4294  0.0889 -1.1505
 5456SOL    HW127830   1.259   1.967   7.449  0.5662 -0.0001 -1.4872
 5456SOL    HW227831   1.235   2.105   7.447  1.0830 -0.3339 -0.4954
 5457SOL     OW27832   3.144   0.521  10.032  0.7683  0.9215  0.0412
 5457SOL    HW127833   3.196   0.595  10.064  2.4934 -0.0179 -0.5271
 5457SOL    HW227834   3.058   0.555  10.056  1.2884  0.5722  2.3432
 5458SOL     OW27835   4.486   3.320   5.650  0.0027  0.4009 -0.5118
 5458SOL    HW127836   4.511   3.412   5.656 -2.7217  1.1649 -1.0355
 5458SOL    HW227837   4.450   3.314   5.561 -0.5615 -2.2451 -0.0851
 5459SOL     OW27838   1.313   1.587   9.715  0.4589 -0.4552 -0.5159
 5459SOL    HW127839   1.350   1.674   9.707  0.8144 -0.5531  0.0723
 5459SOL    HW227840   1.266   1.603   9.797 -1.5197  2.6669 -2.2678
 5460SOL     OW27841   0.937   4.007   6.220  0.1387  0.3468 -0.2770
 5460SOL    HW127842   0.860   4.065   6.226 -0.0258  0.1524 -0.4897
 5460SOL    HW227843   0.952   4.021   6.126 -0.0154 -0.9040 -0.4847
 5461SOL     OW27844   4.213   4.099   6.754  0.4126 -0.2133  0.7362
 5461SOL    HW127845   4.206   4.009   6.723 -0.4142  0.1601 -0.1828
 5461SOL    HW227846   4.297   4.103   6.800 -0.6074 -0.3016  2.5910
 5462SOL     OW27847   4.244   0.954   4.465  0.2751  0.1618 -0.3632
 5462SOL    HW127848   4.210   0.897   4.396 -2.4838  1.1688  0.1944
 5462SOL    HW227849   4.340   0.953   4.456  0.1696 -3.7153 -1.1672
 5463SOL     OW27850   4.065   4.015  16.473  0.4619 -0.4463  0.1709
 5463SOL    HW127851   4.001   4.012  16.402  0.1636  0.0400  0.4219
 5463SOL    HW227852   4.149   3.990  16.434  0.5492  1.5535 -0.9159
 5464SOL     OW27853   1.751   4.159   0.264 -0.0346 -0.5744  0.2700
 5464SOL    HW127854   1.788   4.119   0.186  3.4962 -0.5428  1.9599
 5464SOL    HW227855   1.706   4.236   0.229 -2.1572 -1.7205  0.4857
 5465SOL     OW27856   0.256   0.408  11.119 -0.0108  0.1367  0.7966
 5465SOL    HW127857   0.264   0.477  11.185  1.5915 -0.6763  1.4707
 5465SOL    HW227858   0.344   0.374  11.137  0.0079  0.8593  2.1044
 5466SOL     OW27859   4.675   1.153   3.565  0.0949 -0.3589  0.2941
 5466SOL    HW127860   0.035   1.134   3.605 -0.1887 -2.3799 -0.0809
 5466SOL    HW227861   4.708   1.179   3.479 -2.1658  0.4564 -0.3253
 5467SOL     OW27862   4.166   2.414   3.551 -0.1429 -0.0067 -0.1100
 5467SOL    HW127863   4.184   2.320   3.547 -0.5723 -0.1289  0.6950
 5467SOL    HW227864   4.120   2.435   3.470  0.1284 -2.1092 -0.8084
 5468SOL     OW27865   3.007   4.620   3.203 -0.0749  0.0901 -0.0306
 5468SOL    HW127866   3.028   4.629   3.110  1.1848  0.8914  0.3277
 5468SOL    HW227867   3.050   4.691   3.252  0.6633 -0.2767 -0.1513
 5469SOL     OW27868   2.723   2.990   3.013 -0.3567  0.2605  0.4302
 5469SOL    HW127869   2.808   2.955   3.041 -0.9917 -1.3039  0.3905
 5469SOL    HW227870   2.719   2.961   2.922 -0.2224 -0.4985  0.6685
 5470SOL     OW27871   3.578   3.402   7.389 -0.2408 -0.0802  0.0233
 5470SOL    HW127872   3.547   3.438   7.472 -0.6195 -1.6313  0.5515
 5470SOL    HW227873   3.669   3.430   7.402 -0.0728 -0.2984 -0.6824
 5471SOL     OW27874   4.682   4.609   8.346 -0.6133 -0.1873  0.6011
 5471SOL    HW127875   4.653   4.693   8.312  1.0274 -0.5360 -1.6600
 5471SOL    HW227876   4.614   4.591   8.411  0.5181  0.4257  1.9712
 5472SOL     OW27877   4.452   1.396   2.829  0.2380  0.1623  0.4147
 5472SOL    HW127878   4.528   1.434   2.785  0.6410 -0.0271  0.9376
 5472SOL    HW227879   4.441   1.319   2.773 -2.2826 -1.4578  3.1416
 5473SOL     OW27880   4.678   2.985  14.816  0.2875 -0.7549  0.0918
 5473SOL    HW127881   4.724   3.069  14.806  2.7085 -1.9184  1.5287
 5473SOL    HW227882   4.698   2.950  14.729 -0.3193 -1.2963  0.1765
 5474SOL     OW27883   2.803   1.084   2.026  0.3245  0.2412  0.2167
 5474SOL    HW127884   2.782   1.088   2.119 -1.0068  0.9316 -0.1135
 5474SOL    HW227885   2.858   1.162   2.018  2.6649 -1.5674 -1.2968
 5475SOL     OW27886   0.908   0.326   5.658  0.1013  0.3750 -0.4728
 5475SOL    HW127887   0.855   0.381   5.601  0.0082 -0.2950 -1.0373
 5475SOL    HW227888   0.956   0.389   5.712 -0.5865 -0.5293  1.1975
 5476SOL     OW27889   1.927   2.507  11.561  0.5937  0.1037  0.6953
 5476SOL    HW127890   1.979   2.584  11.583  1.1149  0.4465 -1.7604
 5476SOL    HW227891   1.973   2.444  11.617  1.8879  1.0612  0.7227
 5477SOL     OW27892   3.438   1.965   4.884 -0.0086  0.3765  0.0229
 5477SOL    HW127893   3.367   2.000   4.938  1.0021 -0.3478  1.8161
 5477SOL    HW227894   3.516   2.020   4.892  0.3945 -0.0221 -1.2200
 5478SOL     OW27895   0.970   3.684   4.191  0.6499  0.4900 -0.4883
 5478SOL    HW127896   1.026   3.640   4.255 -1.0104 -0.7312  0.1412
 5478SOL    HW227897   0.923   3.742   4.251 -0.6907 -0.3217 -0.7549
 5479SOL     OW27898   3.672   3.154   7.448 -0.2177  0.7961 -0.7938
 5479SOL    HW127899   3.651   3.227   7.390 -4.3237  0.9563  0.9387
 5479SOL    HW227900   3.643   3.171   7.537  3.4726  0.4494  0.4774
 5480SOL     OW27901   0.301   3.498  13.537 -0.5624  0.0949  0.3875
 5480SOL    HW127902   0.210   3.495  13.567 -0.5297 -3.3328  0.1255
 5480SOL    HW227903   0.323   3.590  13.553  1.4370 -0.0777 -1.3316
 5481SOL     OW27904   4.368   3.948   4.290 -0.3298 -0.0016 -0.2692
 5481SOL    HW127905   4.336   3.859   4.270  1.4535 -0.8072  0.4440
 5481SOL    HW227906   4.371   3.944   4.385 -1.0271  1.9838 -0.1762
 5482SOL     OW27907   0.734   1.176  16.301 -0.0166 -0.2624 -0.8053
 5482SOL    HW127908   0.819   1.152  16.337 -1.1487  0.5202  2.4348
 5482SOL    HW227909   0.694   1.230  16.369  3.2157  0.6609  0.3569
 5483SOL     OW27910   2.890   4.712   6.777  0.3568 -0.1651 -0.0186
 5483SOL    HW127911   2.883   0.069   6.826  0.4248  0.3874 -0.9336
 5483SOL    HW227912   2.955   0.003   6.709 -1.0353 -0.5217 -1.4115
 5484SOL     OW27913   2.444   1.006   8.607  0.2638 -0.3277 -0.6153
 5484SOL    HW127914   2.487   1.091   8.603  1.5671 -0.8999  1.0123
 5484SOL    HW227915   2.434   0.983   8.700  0.0457  0.2183 -0.5026
 5485SOL     OW27916   2.496   0.787   8.360 -0.5017 -0.3169  0.0902
 5485SOL    HW127917   2.517   0.830   8.443  0.2377 -1.3319  0.4224
 5485SOL    HW227918   2.584   0.779   8.322 -0.6120 -1.8803  0.1571
 5486SOL     OW27919   1.150   0.394   0.958 -0.1195 -0.0290 -0.0487
 5486SOL    HW127920   1.120   0.395   0.867  1.2688 -0.0939 -0.5069
 5486SOL    HW227921   1.083   0.450   0.996  1.0489  1.3186 -0.0073
 5487SOL     OW27922   0.625   0.915   5.645  0.3450  0.7072 -0.0449
 5487SOL    HW127923   0.615   1.009   5.630 -1.9344  0.7818  1.8455
 5487SOL    HW227924   0.684   0.891   5.574 -0.3106 -3.4864  0.8414
 5488SOL     OW27925   1.147   3.554   5.737  0.2594  0.1110 -0.5484
 5488SOL    HW127926   1.161   3.648   5.750 -0.8281  0.3999 -1.4418
 5488SOL    HW227927   1.170   3.523   5.824  1.3098  0.9919 -0.5105
 5489SOL     OW27928   0.588   4.234   5.682  0.2175  0.2407  0.4166
 5489SOL    HW127929   0.519   4.171   5.702  0.2248  0.4950  1.2511
 5489SOL    HW227930   0.570   4.301   5.748 -0.2967 -0.4260  0.9486
 5490SOL     OW27931   4.297   0.230   1.629  0.3897 -0.1310 -0.7951
 5490SOL    HW127932   4.354   0.230   1.706 -0.5335 -0.4120 -0.1122
 5490SOL    HW227933   4.215   0.215   1.677  1.4094 -0.8665  0.7005
 5491SOL     OW27934   4.563   2.966   9.494 -0.6582 -0.5332  0.2518
 5491SOL    HW127935   4.502   3.034   9.524 -0.6790 -1.2792  1.8575
 5491SOL    HW227936   4.533   2.961   9.403  0.5446 -0.3490 -0.1466
 5492SOL     OW27937   1.298   1.134   8.089 -0.0996  0.1775  0.4398
 5492SOL    HW127938   1.348   1.141   8.008 -1.7355 -2.1630 -0.7670
 5492SOL    HW227939   1.360   1.168   8.154 -1.1595  0.2964  1.3787
 5493SOL     OW27940   3.930   3.565   0.840 -0.0567  0.3864 -0.2841
 5493SOL    HW127941   3.846   3.523   0.821  0.4872 -1.4063  1.3528
 5493SOL    HW227942   3.963   3.569   0.751 -0.4461  1.6343 -0.3800
 5494SOL     OW27943   0.526   3.661   4.091  0.1357 -0.3078 -0.2760
 5494SOL    HW127944   0.567   3.691   4.010 -1.0932 -1.4966 -1.3420
 5494SOL    HW227945   0.507   3.744   4.133  0.1559 -1.0053  1.1237
 5495SOL     OW27946   4.273   3.082   5.146  0.4879  0.3432  0.7083
 5495SOL    HW127947   4.179   3.074   5.132  0.1480  3.3926  1.3171
 5495SOL    HW227948   4.293   3.170   5.116  3.7888 -0.3339  0.8908
 5496SOL     OW27949   2.298   3.696  13.428 -0.2138  0.5271 -0.9226
 5496SOL    HW127950   2.303   3.791  13.412 -2.0884  0.8085  0.2279
 5496SOL    HW227951   2.326   3.660  13.344 -2.3543 -0.6479 -1.1081
 5497SOL     OW27952   2.073   1.274   3.887  0.0112  0.0280 -0.4371
 5497SOL    HW127953   2.164   1.253   3.904  0.3297 -1.3226 -3.7975
 5497SOL    HW227954   2.038   1.223   3.960 -0.1178 -0.8692 -1.1349
 5498SOL     OW27955   0.300   1.379   3.962 -0.2608  0.2476 -0.2444
 5498SOL    HW127956   0.362   1.327   3.911 -0.9982 -0.4126 -0.4568
 5498SOL    HW227957   0.328   1.467   3.934 -0.2274  0.4012  0.2608
 5499SOL     OW27958   1.281   4.110  16.812 -0.7747  0.2293  0.2781
 5499SOL    HW127959   1.337   4.159  16.872 -0.4438  2.3382 -1.7706
 5499SOL    HW227960   1.274   4.026  16.858  0.0049 -0.2832 -0.5308
 5500SOL     OW27961   4.022   2.494   3.322  0.2336  0.6392  0.2283
 5500SOL    HW127962   4.067   2.476   3.239  1.5083  0.5447  0.9388
 5500SOL    HW227963   4.009   2.589   3.319  0.4508  0.6155 -1.7628
 5501SOL     OW27964   1.351   4.482   9.837  0.3334  0.0429 -0.3505
 5501SOL    HW127965   1.335   4.574   9.858 -0.8900 -0.3176  0.3523
 5501SOL    HW227966   1.422   4.468   9.900 -1.2747  0.8374  1.6500
 5502SOL     OW27967   3.434   0.975   6.810 -0.0382  0.6686  0.6142
 5502SOL    HW127968   3.338   0.985   6.814  0.1002  1.7518  1.0905
 5502SOL    HW227969   3.446   0.957   6.903 -0.0922 -2.3599  0.0219
 5503SOL     OW27970   2.862   1.712   6.783 -0.0153 -0.0577  0.1786
 5503SOL    HW127971   2.807   1.634   6.781 -1.2360  0.7925  0.6828
 5503SOL    HW227972   2.839   1.739   6.872 -0.1683  1.9452 -0.4528
 5504SOL     OW27973   1.739   3.482   4.362 -0.4933 -0.2115  0.2071
 5504SOL    HW127974   1.809   3.545   4.345 -1.3720 -0.0508 -2.9131
 5504SOL    HW227975   1.682   3.545   4.405  0.4179  0.0896  0.9642
 5505SOL     OW27976   0.272   0.906  13.238  0.2586 -0.2577  0.3053
 5505SOL    HW127977   0.266   0.842  13.309 -2.3646  0.8731  1.0676
 5505SOL    HW227978   0.289   0.844  13.167  1.8282 -0.8637  1.2045
 5506SOL     OW27979   2.686   0.383   6.279 -0.2019  0.3433  0.3909
 5506SOL    HW127980   2.702   0.384   6.373 -1.5255  0.9129  0.6155
 5506SOL    HW227981   2.740   0.306   6.262  0.0105  0.6402 -0.3157
 5507SOL     OW27982   4.519   1.486   4.326 -0.2290  0.8483 -0.6025
 5507SOL    HW127983   4.613   1.502   4.325 -0.1760  0.6938  0.7428
 5507SOL    HW227984   4.507   1.492   4.232  2.0882  0.3402 -0.9353
 5508SOL     OW27985   2.974   1.688   7.097 -0.2194  0.1091  0.1916
 5508SOL    HW127986   2.910   1.715   7.163 -1.5178 -0.7767 -0.7141
 5508SOL    HW227987   2.975   1.774   7.054 -3.4691 -0.0639 -0.2145
 5509SOL     OW27988   3.919   4.270   6.167 -0.1070 -0.2698  0.2340
 5509SOL    HW127989   4.007   4.241   6.145  0.3953 -0.0610  2.0089
 5509SOL    HW227990   3.865   4.222   6.104  0.1172  1.5052 -1.3176
 5510SOL     OW27991   1.254   0.759  17.136 -0.0333 -0.0563 -0.3143
 5510SOL    HW127992   1.218   0.808  17.209  1.1167  0.9996 -0.4450
 5510SOL    HW227993   1.274   0.834  17.080  1.6274 -0.2264  0.0479
 5511SOL     OW27994   3.247   3.289  17.587  0.0479 -0.1732 -0.5952
 5511SOL    HW127995   3.299   3.234  17.530  0.4936  0.6522 -0.9933
 5511SOL    HW227996   3.210   3.349  17.522 -0.0972 -0.2914 -0.6201
 5512SOL     OW27997   0.194   1.224   8.141 -0.0155 -0.1870 -0.5964
 5512SOL    HW127998   0.183   1.306   8.190  3.3916  0.6056 -1.1644
 5512SOL    HW227999   0.212   1.268   8.058  1.7402  1.6341  0.7474
 5513SOL     OW28000   4.266   2.474   9.086  0.1973  0.4464 -0.1198
 5513SOL    HW128001   4.301   2.417   9.017  0.1638 -1.0431  1.1106
 5513SOL    HW228002   4.221   2.535   9.027  0.2775  0.4752 -0.1512
 5514SOL     OW28003   4.015   0.635   7.291  0.4397 -0.2225 -0.2040
 5514SOL    HW128004   4.107   0.630   7.318  0.6809  0.7771 -0.8304
 5514SOL    HW228005   3.991   0.542   7.284 -2.7149  0.4185  2.5404
 5515SOL     OW28006   2.748   4.549   8.363  0.1400 -0.1464 -0.1387
 5515SOL    HW128007   2.723   4.479   8.423 -1.0638  1.6386  1.4181
 5515SOL    HW228008   2.684   4.543   8.291  1.1315  0.0766 -1.0365
 5516SOL     OW28009   2.881   3.242   6.829 -0.3051  0.0737 -0.0541
 5516SOL    HW128010   2.856   3.164   6.879  0.5356 -1.0748 -1.4448
 5516SOL    HW228011   2.940   3.203   6.764  0.9562  0.1124  1.0777
 5517SOL     OW28012   2.665   1.727   7.196 -0.2422 -0.1479 -0.2461
 5517SOL    HW128013   2.675   1.756   7.287  2.4266  0.3938 -0.6985
 5517SOL    HW228014   2.593   1.664   7.202 -0.7306  0.2830 -1.6891
 5518SOL     OW28015   0.747   0.114   6.064  0.1151 -0.1722  0.3201
 5518SOL    HW128016   0.833   0.098   6.026  0.1519 -1.4842  0.9428
 5518SOL    HW228017   0.739   0.060   6.142 -2.0071  1.0881  0.9711
 5519SOL     OW28018   3.507   4.263   1.025 -0.5652  0.5922 -0.2230
 5519SOL    HW128019   3.453   4.340   1.046  0.3566  1.3393 -0.6117
 5519SOL    HW228020   3.454   4.198   1.072  1.8920  1.0938  3.2213
 5520SOL     OW28021   0.270   3.291   9.067  0.6750 -0.0052 -0.2414
 5520SOL    HW128022   0.350   3.329   9.030  1.7354 -1.6586  0.3537
 5520SOL    HW228023   0.205   3.324   9.005 -0.2348 -0.4926  0.4671
 5521SOL     OW28024   3.308   1.150   9.139  0.1880  0.1118 -0.2459
 5521SOL    HW128025   3.315   1.188   9.227 -3.1798  1.1199 -0.3778
 5521SOL    HW228026   3.244   1.210   9.101 -0.6823 -0.2419  0.6460
 5522SOL     OW28027   2.954   2.612   3.073  0.0905 -0.2435  0.2863
 5522SOL    HW128028   3.010   2.595   3.149  2.0359  0.1693 -1.0389
 5522SOL    HW228029   3.004   2.568   3.004  1.1125  2.2637 -0.5962
 5523SOL     OW28030   2.517   2.842   4.127  0.3827  0.2411  0.5014
 5523SOL    HW128031   2.497   2.931   4.156 -0.9596 -0.0514  0.4573
 5523SOL    HW228032   2.559   2.803   4.203 -0.2918  1.4766  1.5125
 5524SOL     OW28033   0.324   3.598   7.244  0.0753  0.1642  0.6434
 5524SOL    HW128034   0.331   3.512   7.203  1.3178  0.4972  0.1374
 5524SOL    HW228035   0.366   3.577   7.327  0.9332  0.1517  0.2115
 5525SOL     OW28036   2.966   3.626   3.704  0.1436 -0.5833  0.2658
 5525SOL    HW128037   2.919   3.579   3.635  0.5011  0.2849 -0.5666
 5525SOL    HW228038   3.010   3.551   3.743  1.3767  0.6150  1.1590
 5526SOL     OW28039   2.019   0.298  10.787 -0.5132  0.0839 -0.3335
 5526SOL    HW128040   1.957   0.263  10.723  0.6974  0.3200 -1.6052
 5526SOL    HW228041   1.964   0.315  10.864 -0.4654  0.5240 -0.3997
 5527SOL     OW28042   1.541   3.527   9.925 -0.2433  0.3068 -0.0491
 5527SOL    HW128043   1.608   3.472   9.965  0.3940  0.8306 -0.4001
 5527SOL    HW228044   1.471   3.462   9.924 -1.6616  1.7951  1.9589
 5528SOL     OW28045   2.243   4.558   4.340 -0.1398 -0.3353  0.4990
 5528SOL    HW128046   2.273   4.648   4.331 -0.1581 -0.3277  0.5152
 5528SOL    HW228047   2.238   4.541   4.246 -0.4941  1.1319  0.2492
 5529SOL     OW28048   4.182   1.017   8.942 -0.0872  0.2859  0.3159
 5529SOL    HW128049   4.136   0.955   8.999  1.0477  0.7606  1.7405
 5529SOL    HW228050   4.254   0.970   8.900 -0.3244  1.2609 -1.1809
 5530SOL     OW28051   3.345   3.986   5.897  0.0919 -0.3037  0.5678
 5530SOL    HW128052   3.364   4.073   5.862 -0.8138  0.2513  1.4470
 5530SOL    HW228053   3.310   4.008   5.984 -2.6578  0.9951 -0.8600
 5531SOL     OW28054   1.471   2.608  11.600  0.4368  0.3307  0.5262
 5531SOL    HW128055   1.505   2.652  11.678  0.6460 -0.0253  0.6365
 5531SOL    HW228056   1.542   2.545  11.585  0.6554  0.3421  1.4936
 5532SOL     OW28057   1.452   2.554   5.981 -0.5105 -0.2701  0.4615
 5532SOL    HW128058   1.415   2.621   5.924  0.3348 -0.7442 -0.6452
 5532SOL    HW228059   1.407   2.580   6.061 -1.0308 -0.9849  0.4069
 5533SOL     OW28060   1.524   1.272   2.850  0.3894 -0.8058  1.0524
 5533SOL    HW128061   1.505   1.341   2.913 -3.2302 -2.1772  1.5131
 5533SOL    HW228062   1.573   1.316   2.781 -0.0810 -2.3607 -0.2824
 5534SOL     OW28063   1.092   4.466   3.849  0.1018 -0.2254 -0.4483
 5534SOL    HW128064   1.185   4.465   3.826  0.4164 -2.2045  0.9293
 5534SOL    HW228065   1.083   4.413   3.928  1.4222  0.0242 -0.1278
 5535SOL     OW28066   2.888   0.729  10.390  0.2512 -0.1667 -0.3278
 5535SOL    HW128067   2.839   0.779  10.323 -2.7394 -0.0869  1.9189
 5535SOL    HW228068   2.859   0.641  10.364 -0.4447 -0.8867  2.9649
 5536SOL     OW28069   4.421   1.205   6.584 -0.5974 -0.1081  0.4070
 5536SOL    HW128070   4.465   1.251   6.513 -2.9398  3.0570  0.9987
 5536SOL    HW228071   4.342   1.259   6.590  1.2894  2.6924  0.0767
 5537SOL     OW28072   2.093   3.160  13.869 -0.0811 -0.4700  0.1151
 5537SOL    HW128073   2.166   3.220  13.856 -1.0383  0.8489  0.8268
 5537SOL    HW228074   2.035   3.216  13.920 -0.1257 -0.7947  0.4126
 5538SOL     OW28075   3.893   3.045   0.618 -0.3493 -1.1164 -0.3258
 5538SOL    HW128076   3.826   2.979   0.599  0.0433 -1.0755 -1.8441
 5538SOL    HW228077   3.866   3.059   0.709 -0.5334  1.1865 -0.7454
 5539SOL     OW28078   1.609   4.588   8.222 -0.4407 -0.6743  0.9311
 5539SOL    HW128079   1.685   4.633   8.185 -1.2059  0.8547  1.2163
 5539SOL    HW228080   1.571   4.643   8.291  0.4596 -1.6126  2.1685
 5540SOL     OW28081   1.743   2.531   4.843 -0.0633 -0.2196  0.0425
 5540SOL    HW128082   1.782   2.608   4.883  1.4673 -1.3626  0.7426
 5540SOL    HW228083   1.821   2.493   4.802  0.6340  2.1803 -0.8528
 5541SOL     OW28084   1.360   3.484   3.056  0.9539  0.6447 -0.0093
 5541SOL    HW128085   1.268   3.506   3.073  0.9397  0.9679 -0.5041
 5541SOL    HW228086   1.374   3.481   3.151  0.8779  1.4441  0.0310
 5542SOL     OW28087   1.354   3.350  16.980  0.2178  0.4745  0.0090
 5542SOL    HW128088   1.371   3.322  16.890 -0.4881 -0.2052  0.0879
 5542SOL    HW228089   1.264   3.319  16.989 -0.3834  2.1931 -0.0388
 5543SOL     OW28090   3.223   3.109   4.374 -0.0616 -0.8252  0.2252
 5543SOL    HW128091   3.156   3.163   4.333  0.3644 -1.6241 -1.5443
 5543SOL    HW228092   3.181   3.027   4.347 -0.3743 -0.1571 -1.3157
 5544SOL     OW28093   0.020   1.953   2.186  0.1221 -0.0172 -0.1620
 5544SOL    HW128094   0.064   1.948   2.101  0.2681 -0.4948 -0.0591
 5544SOL    HW228095   4.688   2.029   2.172  2.0992  0.8635 -3.3650
 5545SOL     OW28096   4.036   1.244   2.337  0.2741  0.3197 -0.5467
 5545SOL    HW128097   4.071   1.329   2.312  3.6781 -0.8628  0.2052
 5545SOL    HW228098   4.002   1.224   2.250  0.5049  1.0516 -0.8061
 5546SOL     OW28099   3.907   0.822   5.185 -0.1607  0.0341  0.3907
 5546SOL    HW128100   3.926   0.903   5.138 -1.8265  0.9072  1.2581
 5546SOL    HW228101   3.836   0.787   5.131  3.0329 -1.6145 -2.8233
 5547SOL     OW28102   1.093   2.962   3.033  0.1428 -0.2805  0.1863
 5547SOL    HW128103   1.169   2.981   2.978 -0.2143 -1.7106 -0.7699
 5547SOL    HW228104   1.062   2.888   2.982  2.2902 -1.2935  0.3322
 5548SOL     OW28105   2.122   4.447   9.231 -0.0158 -1.0914 -0.0146
 5548SOL    HW128106   2.218   4.458   9.229 -0.0297 -1.2896 -2.0114
 5548SOL    HW228107   2.115   4.370   9.175 -0.7487 -1.2310  0.2791
 5549SOL     OW28108   4.431   1.312   7.055 -0.1803  0.3918  0.1193
 5549SOL    HW128109   4.472   1.267   7.129  1.1887  0.8535 -0.3539
 5549SOL    HW228110   4.366   1.367   7.099 -0.3291  0.5067 -0.2413
 5550SOL     OW28111   1.558   2.928  11.767  0.3070  0.0285  0.5076
 5550SOL    HW128112   1.639   2.951  11.814 -0.1808  1.1717  0.8059
 5550SOL    HW228113   1.506   2.885  11.835 -1.6951  0.8450 -0.5034
 5551SOL     OW28114   3.301   0.869   2.378  0.0453  0.6288  0.4891
 5551SOL    HW128115   3.283   0.963   2.371  0.9823  0.7761 -0.0124
 5551SOL    HW228116   3.213   0.831   2.375 -1.0267  2.9436  2.7982
 5552SOL     OW28117   4.139   1.459   8.607  0.4300  0.2021 -0.1655
 5552SOL    HW128118   4.071   1.472   8.673  1.4008  0.1470  0.8334
 5552SOL    HW228119   4.083   1.443   8.531 -0.2023  1.3934  0.0570
 5553SOL     OW28120   1.325   2.547   4.484 -0.4458  0.0987  0.1305
 5553SOL    HW128121   1.264   2.575   4.552  0.7752 -0.6002  1.5389
 5553SOL    HW228122   1.405   2.553   4.537 -0.3914  1.6087 -0.1370
 5554SOL     OW28123   0.434   0.402   9.199 -0.5359 -0.1312 -0.3190
 5554SOL    HW128124   0.350   0.444   9.215 -0.0845  0.9330 -0.7723
 5554SOL    HW228125   0.407   0.317   9.164  0.5487 -0.0392 -1.3875
 5555SOL     OW28126   0.087   3.779   3.052  0.4270  0.4222 -0.1061
 5555SOL    HW128127   0.168   3.829   3.054 -0.4396  1.7272  2.7479
 5555SOL    HW228128   0.023   3.849   3.039  1.1125  1.2761  1.1368
 5556SOL     OW28129   2.087   1.733   6.189  0.0600 -0.9727 -0.1882
 5556SOL    HW128130   2.165   1.778   6.221 -0.4971  0.7593 -1.2765
 5556SOL    HW228131   2.079   1.763   6.098  0.4296  0.8188  0.3655
 5557SOL     OW28132   2.938   0.850   7.602  0.2894  0.0574 -0.0969
 5557SOL    HW128133   2.896   0.862   7.687 -0.6907 -0.8803 -0.4419
 5557SOL    HW228134   3.024   0.817   7.631  0.3068 -0.2806 -0.5322
 5558SOL     OW28135   2.493   2.637   7.141  0.3398  0.2362  0.7515
 5558SOL    HW128136   2.511   2.696   7.067  0.3680 -1.1295 -0.3432
 5558SOL    HW228137   2.579   2.621   7.180  1.3211 -0.4140 -1.6355
 5559SOL     OW28138   2.431   4.557   8.996  0.4533 -0.2671  0.0311
 5559SOL    HW128139   2.345   4.596   8.985  1.2531  1.6972  0.7555
 5559SOL    HW228140   2.469   4.603   9.070 -0.2338  0.3502 -0.0017
 5560SOL     OW28141   0.872   3.123   5.025 -0.1369  0.6960  0.0721
 5560SOL    HW128142   0.870   3.216   5.003  0.0048  0.1870 -2.1009
 5560SOL    HW228143   0.781   3.118   5.054 -0.1262  0.0924 -0.0095
 5561SOL     OW28144   0.191   2.857  16.695 -0.0572 -0.1227 -0.1822
 5561SOL    HW128145   0.105   2.859  16.736  0.3926  0.9593  0.7205
 5561SOL    HW228146   0.168   2.862  16.603  0.4020  2.1967 -0.1805
 5562SOL     OW28147   0.569   2.748   1.401 -0.2839 -0.7456  0.0285
 5562SOL    HW128148   0.661   2.729   1.382 -0.1180 -0.8810  0.9720
 5562SOL    HW228149   0.564   2.797   1.483  0.2816  0.5143 -0.6962
 5563SOL     OW28150   0.085   3.578  17.077  0.2793  0.1974 -0.0803
 5563SOL    HW128151   0.093   3.606  17.168 -2.5918 -1.1871  0.5835
 5563SOL    HW228152   0.007   3.522  17.078 -0.5030  1.2979 -0.2481
 5564SOL     OW28153   2.684   3.600   5.243 -0.1239 -0.7337 -0.8491
 5564SOL    HW128154   2.612   3.596   5.306 -0.1299 -0.3563 -0.8305
 5564SOL    HW228155   2.740   3.528   5.271  0.4052 -0.8601 -2.2734
 5565SOL     OW28156   2.209   1.880   4.993 -0.2114 -0.3424  0.0338
 5565SOL    HW128157   2.212   1.824   5.070  0.7119 -0.3072  0.0214
 5565SOL    HW228158   2.163   1.820   4.934  1.3010 -2.1709  0.7373
 5566SOL     OW28159   3.905   4.626  17.687 -0.2511  0.9131  0.7405
 5566SOL    HW128160   3.950   4.576   0.055 -1.1411  0.6542  1.1372
 5566SOL    HW228161   3.815   4.613   0.014 -0.0447  0.1154  1.0364
 5567SOL     OW28162   2.733   2.366   6.488 -0.1113  0.2303 -0.0183
 5567SOL    HW128163   2.764   2.299   6.427 -1.9869  0.5788 -1.3401
 5567SOL    HW228164   2.731   2.443   6.431 -0.4525  0.0410 -0.2610
 5568SOL     OW28165   1.364   2.669  13.784  0.5938 -0.2721 -0.3998
 5568SOL    HW128166   1.362   2.675  13.688  1.0313 -0.9595 -0.4493
 5568SOL    HW228167   1.271   2.651  13.800  0.9507  0.5128  2.5629
 5569SOL     OW28168   3.859   4.630   3.158  0.1278  1.0076 -0.1694
 5569SOL    HW128169   3.879   4.590   3.243 -3.0682 -1.8003 -0.7184
 5569SOL    HW228170   3.941   4.665   3.125 -0.3184  2.3073  0.0930
 5570SOL     OW28171   2.426   0.235  10.830 -0.0213  0.6202 -0.2109
 5570SOL    HW128172   2.466   0.195  10.907  0.1167 -1.7403 -1.5045
 5570SOL    HW228173   2.426   0.162  10.768 -2.2860  0.4043  0.0595
 5571SOL     OW28174   3.047   1.426   1.433  0.1242  0.1188  0.7959
 5571SOL    HW128175   2.991   1.366   1.483 -0.1989  0.5537  0.9540
 5571SOL    HW228176   2.992   1.503   1.417  1.1382  0.6499 -0.0845
 5572SOL     OW28177   0.740   2.150   3.830  0.0459 -0.4959 -0.1358
 5572SOL    HW128178   0.735   2.239   3.795  1.2456  0.0170  0.9987
 5572SOL    HW228179   0.755   2.181   3.919 -0.5354  1.1723 -0.6256
 5573SOL     OW28180   1.440   0.923   4.172  0.3418 -0.1074  0.2845
 5573SOL    HW128181   1.433   0.847   4.114  1.6739 -0.4515  0.5929
 5573SOL    HW228182   1.396   0.985   4.114 -1.9115 -0.9562  1.0787
 5574SOL     OW28183   1.491   0.792   4.906 -0.0688 -0.2256  0.4122
 5574SOL    HW128184   1.458   0.728   4.843 -0.9158  0.0555  0.5776
 5574SOL    HW228185   1.419   0.791   4.969  0.6818  0.5057  1.2827
 5575SOL     OW28186   4.330   0.488   7.202 -0.2203 -0.3701  0.4512
 5575SOL    HW128187   4.338   0.578   7.170 -1.0304 -0.3086  0.4192
 5575SOL    HW228188   4.323   0.504   7.296  1.3386 -1.9302  0.8418
 5576SOL     OW28189   0.967   4.548   3.613 -0.2758  0.2180 -0.2131
 5576SOL    HW128190   1.048   4.528   3.567  1.2194  0.1321  2.4160
 5576SOL    HW228191   0.996   4.524   3.702  0.0551 -1.0569 -0.6652
 5577SOL     OW28192   3.421   1.364  10.882  0.0455 -0.3869  0.1141
 5577SOL    HW128193   3.445   1.339  10.971  1.7831 -1.5388 -0.6575
 5577SOL    HW228194   3.450   1.453  10.860 -1.6175  1.1621  4.2158
 5578SOL     OW28195   3.476   3.170   4.319  0.1302  0.1670  0.1909
 5578SOL    HW128196   3.390   3.135   4.341  0.6958 -1.5647 -0.3775
 5578SOL    HW228197   3.533   3.106   4.363 -0.6565  0.1106  1.1091
 5579SOL     OW28198   3.481   1.241   5.576 -0.7674  0.0306  0.2831
 5579SOL    HW128199   3.504   1.273   5.489 -1.9590  0.7868  0.2504
 5579SOL    HW228200   3.562   1.234   5.627  0.8705  0.2766 -2.2794
 5580SOL     OW28201   3.450   0.132   5.164  0.5511  0.5130 -0.8156
 5580SOL    HW128202   3.499   0.145   5.083 -0.9244 -2.1583 -2.1363
 5580SOL    HW228203   3.457   0.221   5.199  2.6766  0.6112 -1.5142
 5581SOL     OW28204   3.029   2.666   8.653 -0.4106  0.7025 -0.1458
 5581SOL    HW128205   3.107   2.666   8.599  0.2509  2.6268  0.7948
 5581SOL    HW228206   3.067   2.686   8.739 -1.0066  3.5511 -0.5458
 5582SOL     OW28207   3.680   4.319   8.149  0.1140 -0.8925  0.0638
 5582SOL    HW128208   3.761   4.311   8.201 -0.1756 -1.1964  0.4675
 5582SOL    HW228209   3.646   4.403   8.179 -0.3610 -0.7839 -0.7812
 5583SOL     OW28210   0.588   3.701   8.265 -0.3994  0.2930  0.1123
 5583SOL    HW128211   0.682   3.687   8.276 -0.2462  0.5097 -0.9585
 5583SOL    HW228212   0.555   3.675   8.351 -0.3301  0.3459  0.1545
 5584SOL     OW28213   2.015   0.364   7.767  0.2428  0.3631  0.1497
 5584SOL    HW128214   1.997   0.413   7.847  0.5964  1.4078 -0.4091
 5584SOL    HW228215   2.071   0.425   7.718  1.1622 -0.0024  0.7447
 5585SOL     OW28216   2.368   0.981   8.880  0.0475 -0.1706 -0.0193
 5585SOL    HW128217   2.310   0.919   8.924 -0.7455 -0.5401 -1.6131
 5585SOL    HW228218   2.347   1.066   8.918 -0.9133 -1.1096  1.5535
 5586SOL     OW28219   3.510   1.666   2.590  0.2698 -0.2950 -0.4344
 5586SOL    HW128220   3.419   1.694   2.578  0.7138  0.9432 -0.8576
 5586SOL    HW228221   3.561   1.736   2.550  0.8242  0.7570  2.1116
 5587SOL     OW28222   1.571   3.659   3.251 -0.2943 -0.7329 -0.6504
 5587SOL    HW128223   1.643   3.595   3.252 -0.1487 -0.5682 -0.5804
 5587SOL    HW228224   1.592   3.725   3.185 -2.2121 -1.0169 -1.5374
 5588SOL     OW28225   3.728   1.771  12.908  0.0762  0.4251  0.2688
 5588SOL    HW128226   3.717   1.677  12.889 -2.5103  0.7211  0.3489
 5588SOL    HW228227   3.815   1.774  12.868  0.3210 -0.9629  0.6795
 5589SOL     OW28228   4.380   4.417   4.702  0.5483 -0.0394  0.4389
 5589SOL    HW128229   4.366   4.387   4.792 -1.0653 -0.0713  0.1751
 5589SOL    HW228230   4.381   4.339   4.647 -1.2357  0.5259 -0.3966
 5590SOL     OW28231   3.998   4.447   3.333  0.0691 -0.4977 -0.3639
 5590SOL    HW128232   4.090   4.461   3.356 -0.4417  0.0696  1.2962
 5590SOL    HW228233   3.971   4.407   3.415 -0.2976  0.5717  0.0362
 5591SOL     OW28234   0.587   4.694  16.545 -0.1888  0.6273 -0.0772
 5591SOL    HW128235   0.610   0.037  16.609  0.5914 -0.6084  0.9592
 5591SOL    HW228236   0.657   4.697  16.480  0.3060 -1.7873  0.3255
 5592SOL     OW28237   0.642   3.410  16.976  0.2267  0.2180  0.1047
 5592SOL    HW128238   0.565   3.467  16.982 -1.4546 -2.3049  2.2006
 5592SOL    HW228239   0.701   3.457  17.035 -1.4252  0.0006  1.9483
 5593SOL     OW28240   0.887   0.709   8.919 -0.5831 -0.9581  0.0170
 5593SOL    HW128241   0.796   0.729   8.939 -0.4145 -0.0058 -0.1801
 5593SOL    HW228242   0.904   0.769   8.847  0.4300 -0.9336  0.2703
 5594SOL     OW28243   0.612   3.396   1.507  0.4866 -0.1715 -0.6799
 5594SOL    HW128244   0.633   3.325   1.446 -0.2498  0.5042 -1.7209
 5594SOL    HW228245   0.649   3.472   1.461  2.3485 -0.9629 -0.4709
 5595SOL     OW28246   2.191   4.678  10.846 -0.7370 -0.0188 -0.3139
 5595SOL    HW128247   2.256   4.682  10.776  1.6853  0.6378  1.9643
 5595SOL    HW228248   2.136   0.029  10.825 -1.8990 -0.0752  2.6398
 5596SOL     OW28249   3.718   2.706   6.615 -0.2300  0.0179  0.6456
 5596SOL    HW128250   3.787   2.658   6.661 -0.2427  0.0193  0.6662
 5596SOL    HW228251   3.733   2.696   6.521 -0.6989 -1.5671  0.7368
 5597SOL     OW28252   0.969   0.282  17.389 -0.1141 -0.2148  0.0708
 5597SOL    HW128253   1.005   0.239  17.311  0.3103  0.7230 -0.2606
 5597SOL    HW228254   1.048   0.303  17.439  0.5280 -0.4214 -0.8530
 5598SOL     OW28255   3.730   4.176  11.132  0.1955  0.0734  0.2468
 5598SOL    HW128256   3.789   4.121  11.081 -1.3902 -1.6919  0.3316
 5598SOL    HW228257   3.662   4.113  11.155  0.2637 -0.6876 -1.6492
 5599SOL     OW28258   2.870   4.635   5.394  0.0369  0.6228 -0.9629
 5599SOL    HW128259   2.940   4.638   5.459  0.2208 -1.8703 -1.0164
 5599SOL    HW228260   2.919   4.655   5.314 -1.6648  0.6500 -2.0143
 5600SOL     OW28261   1.620   1.187   6.432 -0.1135  0.0492 -0.4495
 5600SOL    HW128262   1.536   1.184   6.476 -0.3591 -0.0768 -0.9198
 5600SOL    HW228263   1.615   1.127   6.357  0.1126 -0.1572 -0.3006
 5601SOL     OW28264   2.156   0.928   2.713 -0.4281 -0.3611 -0.4306
 5601SOL    HW128265   2.156   1.014   2.670 -1.6335  0.2364  0.7913
 5601SOL    HW228266   2.188   0.875   2.639  0.1690 -1.6267  0.7436
 5602SOL     OW28267   3.213   4.501   2.880 -0.1034 -0.1488 -0.6182
 5602SOL    HW128268   3.200   4.416   2.921  0.7547  0.5198  1.0713
 5602SOL    HW228269   3.279   4.545   2.935 -0.9186  0.5721 -0.2047
 5603SOL     OW28270   0.853   1.090  11.028 -0.2630 -0.1514  0.0877
 5603SOL    HW128271   0.816   1.126  10.948 -0.6679  0.5506  0.5892
 5603SOL    HW228272   0.858   0.997  11.008  4.5301  0.0387  0.5055
 5604SOL     OW28273   3.937   1.499   8.773 -0.7021 -0.5040 -0.0569
 5604SOL    HW128274   3.928   1.459   8.859  0.2596  0.9860  0.7340
 5604SOL    HW228275   3.916   1.591   8.788 -1.1963 -0.5350 -0.5566
 5605SOL     OW28276   2.291   0.010   1.908  0.6210  0.0612  0.0406
 5605SOL    HW128277   2.223   0.036   1.846 -2.9637 -1.3160  3.4258
 5605SOL    HW228278   2.243   4.702   1.984  1.8631  0.2810  0.9217
 5606SOL     OW28279   4.322   1.856   3.186  0.1776 -0.3437 -0.7923
 5606SOL    HW128280   4.341   1.856   3.092  0.9157  2.2893 -0.6639
 5606SOL    HW228281   4.241   1.907   3.184  0.3821 -0.1194 -3.0483
 5607SOL     OW28282   4.035   3.706   0.604 -0.2658  0.3019  0.2439
 5607SOL    HW128283   4.003   3.740   0.688 -1.1199  2.1506 -0.8377
 5607SOL    HW228284   4.106   3.769   0.588 -1.2121  1.4808  0.7112
 5608SOL     OW28285   1.314   0.494  10.613 -0.2138  0.5479  0.3415
 5608SOL    HW128286   1.260   0.455  10.682 -1.2942 -0.5558 -1.1348
 5608SOL    HW228287   1.289   0.585  10.631 -1.0418  0.6574 -1.3792
 5609SOL     OW28288   1.189   4.368  13.104 -0.1158 -0.4416 -0.0988
 5609SOL    HW128289   1.184   4.416  13.187  0.7514  0.4121 -0.5384
 5609SOL    HW228290   1.139   4.427  13.047  1.1416  0.0269 -0.7398
 5610SOL     OW28291   0.402   0.530   5.193 -0.3462  0.2500  0.1249
 5610SOL    HW128292   0.399   0.598   5.126 -1.9256  1.9159  1.8999
 5610SOL    HW228293   0.407   0.576   5.277 -0.5315 -0.4681  0.5286
 5611SOL     OW28294   4.431   1.858  11.446 -0.1049  0.0483  0.2922
 5611SOL    HW128295   4.511   1.909  11.443  1.0303 -1.7825 -0.9512
 5611SOL    HW228296   4.441   1.821  11.358  1.2069  0.8907  0.0978
 5612SOL     OW28297   3.780   0.148   1.099 -0.2678 -0.4674 -0.1169
 5612SOL    HW128298   3.748   0.058   1.095 -2.1172  0.3540 -3.2269
 5612SOL    HW228299   3.714   0.184   1.159  0.3424  1.0554 -0.3706
 5613SOL     OW28300   0.071   3.551   4.778 -0.9881 -0.7132 -0.3031
 5613SOL    HW128301   0.081   3.575   4.870 -0.6366 -0.6854 -0.3495
 5613SOL    HW228302   4.702   3.562   4.763 -1.4201 -1.7346  1.7403
 5614SOL     OW28303   1.975   0.980   5.155 -0.8776 -0.5608  0.5304
 5614SOL    HW128304   2.046   1.041   5.175 -0.6760 -0.7053  0.2471
 5614SOL    HW228305   1.929   0.990   5.239 -1.4855  1.5011 -0.0422
 5615SOL     OW28306   4.486   0.097   2.992 -0.1272 -0.5902 -0.2063
 5615SOL    HW128307   4.487   0.051   3.076  0.9332  0.2785  0.2671
 5615SOL    HW228308   4.561   0.055   2.949  1.1495  1.5631 -0.0983
 5616SOL     OW28309   2.469   4.454   2.863  0.1392  0.4734 -0.0105
 5616SOL    HW128310   2.408   4.427   2.794  0.0053 -2.0666  1.1245
 5616SOL    HW228311   2.417   4.437   2.941 -0.5460  0.8938 -0.3745
 5617SOL     OW28312   2.830   3.431   5.413  0.4271 -0.2749 -0.2804
 5617SOL    HW128313   2.787   3.356   5.454 -0.5908 -0.3193 -1.4400
 5617SOL    HW228314   2.921   3.401   5.419  0.0730 -1.5287 -1.3069
 5618SOL     OW28315   3.224   0.864   2.803  0.0970  0.4979  0.1047
 5618SOL    HW128316   3.287   0.798   2.831 -0.4258 -0.3258 -0.6547
 5618SOL    HW228317   3.279   0.939   2.778 -0.0650  0.1686 -1.2633
 5619SOL     OW28318   0.437   1.380  12.717 -0.4111 -0.5900 -0.3282
 5619SOL    HW128319   0.364   1.321  12.698 -0.4263 -1.4903  2.5101
 5619SOL    HW228320   0.395   1.425  12.790  0.9759  0.1706  0.0009
 5620SOL     OW28321   2.092   0.988  14.686 -0.5702 -0.4521  0.0592
 5620SOL    HW128322   2.124   0.930  14.755  0.1409 -0.4097 -0.2384
 5620SOL    HW228323   2.005   1.011  14.718 -0.4482  1.1800 -0.8100
 5621SOL     OW28324   3.777   0.493   5.155  0.4131  0.3815 -0.0743
 5621SOL    HW128325   3.781   0.573   5.102  2.2977  0.7209  0.6058
 5621SOL    HW228326   3.783   0.434   5.079  0.2427 -1.0242  1.0095
 5622SOL     OW28327   2.623   4.026  12.070  0.2341 -0.7131  0.5263
 5622SOL    HW128328   2.589   3.958  12.128 -0.3364 -0.5572  0.3794
 5622SOL    HW228329   2.577   4.104  12.103  0.5990 -0.5295  0.5981
 5623SOL     OW28330   1.649   0.204   9.404  0.3815  0.4738  0.3830
 5623SOL    HW128331   1.556   0.199   9.380  0.0676 -0.1772  1.7418
 5623SOL    HW228332   1.647   0.267   9.476  2.7215 -0.8022  1.5452
 5624SOL     OW28333   2.796   1.811   4.091  0.1886 -0.4111  0.3943
 5624SOL    HW128334   2.847   1.755   4.150  1.2672 -0.9944 -1.1019
 5624SOL    HW228335   2.708   1.784   4.115  0.9146 -1.3859  1.9833
 5625SOL     OW28336   2.904   3.737   9.723  0.0925 -0.2336  0.0481
 5625SOL    HW128337   2.942   3.777   9.801 -0.0322 -0.3270  0.1558
 5625SOL    HW228338   2.975   3.683   9.686  1.5100  0.7843  1.2830
 5626SOL     OW28339   2.797   0.512   7.820 -0.5885 -0.2736  0.4707
 5626SOL    HW128340   2.811   0.540   7.730  3.3021  0.1940  1.2260
 5626SOL    HW228341   2.749   0.589   7.852 -0.9227 -1.2973  2.4097
 5627SOL     OW28342   3.185   4.519   5.868  0.4554 -0.0699 -0.0514
 5627SOL    HW128343   3.120   4.462   5.910  1.1558  0.5728  1.8815
 5627SOL    HW228344   3.171   4.597   5.921 -1.5788 -0.8724  0.6096
 5628SOL     OW28345   3.436   0.827   9.438  0.2643 -0.0719  0.6584
 5628SOL    HW128346   3.475   0.910   9.465  0.9693  0.0052 -0.6399
 5628SOL    HW228347   3.379   0.802   9.511  0.6272 -0.0174  0.9573
 5629SOL     OW28348   1.111   2.177   2.657 -0.3076  0.0761  0.5465
 5629SOL    HW128349   1.114   2.128   2.739 -0.9730  0.5416  0.8503
 5629SOL    HW228350   1.022   2.212   2.657 -1.3831 -2.6043  1.6845
 5630SOL     OW28351   1.904   4.525   3.093  0.2167  0.7998 -0.1603
 5630SOL    HW128352   1.832   4.565   3.043 -1.0881 -2.1593 -0.6072
 5630SOL    HW228353   1.845   4.493   3.161 -0.6312  0.6269 -0.9738
 5631SOL     OW28354   0.107   3.004  13.454 -0.6798  0.2094  0.6400
 5631SOL    HW128355   0.146   3.090  13.436  0.5560 -0.6731 -0.9718
 5631SOL    HW228356   0.019   3.015  13.419  0.6915 -1.8776 -3.4906
 5632SOL     OW28357   1.063   2.288  13.711 -0.6061  0.0353 -0.0690
 5632SOL    HW128358   1.067   2.380  13.737  0.2967  0.1335 -0.5507
 5632SOL    HW228359   1.056   2.244  13.796  1.4281  0.0386  0.1070
 5633SOL     OW28360   1.337   3.630  12.227 -0.0700 -0.2768  0.1654
 5633SOL    HW128361   1.268   3.584  12.275  0.6252 -2.2010 -0.6890
 5633SOL    HW228362   1.388   3.658  12.303 -1.1369 -1.7039  1.4268
 5634SOL     OW28363   3.234   1.904   6.607  0.4895  0.4807 -0.2233
 5634SOL    HW128364   3.199   1.816   6.619 -1.3982  1.3295  0.4299
 5634SOL    HW228365   3.210   1.924   6.697  1.6197  0.1052  0.1530
 5635SOL     OW28366   2.074   4.717   8.168  0.5824 -0.0363  0.0480
 5635SOL    HW128367   2.152   0.025   8.123  1.2645 -0.8555  0.6419
 5635SOL    HW228368   2.039   4.663   8.097 -0.3582  0.0013  0.4771
 5636SOL     OW28369   2.474   2.705   0.326  0.3937 -0.2118  0.1590
 5636SOL    HW128370   2.543   2.646   0.356 -0.6872  0.5072  3.9622
 5636SOL    HW228371   2.418   2.649   0.271  0.2625 -0.6015  0.6889
 5637SOL     OW28372   2.506   1.989   0.976  0.1919 -0.6445  0.2178
 5637SOL    HW128373   2.427   1.936   0.983  1.4535 -2.5250  0.2366
 5637SOL    HW228374   2.546   1.961   1.059 -0.4644 -0.7100  0.5177
 5638SOL     OW28375   4.086   0.552   2.708 -0.3782  0.6052 -0.0949
 5638SOL    HW128376   4.075   0.511   2.794 -1.8726 -0.6740 -0.8977
 5638SOL    HW228377   4.079   0.648   2.714  0.2815  0.4520  3.3478
 5639SOL     OW28378   1.199   3.114  15.459 -0.2021  0.2492 -0.0120
 5639SOL    HW128379   1.226   3.198  15.422 -0.2815  0.0518 -0.5186
 5639SOL    HW228380   1.230   3.061  15.386  1.2814  1.6878 -0.4227
 5640SOL     OW28381   0.052   2.464  14.061 -0.2588 -0.2991  0.9232
 5640SOL    HW128382   4.685   2.452  14.037 -0.1899  1.0192  0.0101
 5640SOL    HW228383   0.081   2.374  14.046 -1.1228 -0.2536 -0.9912
 5641SOL     OW28384   0.571   1.601   5.402  0.9492 -0.4472 -0.2126
 5641SOL    HW128385   0.484   1.610   5.362  1.2154  0.5320 -0.5734
 5641SOL    HW228386   0.558   1.510   5.430 -2.5818 -1.0047 -3.5138
 5642SOL     OW28387   1.832   3.094   3.974  0.1491 -0.3289  0.2216
 5642SOL    HW128388   1.927   3.081   3.965  0.2970  0.1473  1.0599
 5642SOL    HW228389   1.828   3.147   4.054  1.5645 -0.5171  0.4285
 5643SOL     OW28390   4.553   2.976  13.234 -0.1771  0.1689 -0.1817
 5643SOL    HW128391   4.497   2.898  13.227 -0.4238  0.3182  0.1806
 5643SOL    HW228392   4.500   3.046  13.197 -0.6651  0.8075  1.7380
 5644SOL     OW28393   4.003   0.060   8.694  0.5013  0.4900 -0.3704
 5644SOL    HW128394   4.016   0.112   8.615 -2.0894  1.4857 -0.1361
 5644SOL    HW228395   4.012   0.131   8.758 -2.3227  0.8697 -0.3753
 5645SOL     OW28396   1.938   1.701   3.367  0.5523  0.1592 -0.3422
 5645SOL    HW128397   1.950   1.793   3.388 -0.0030 -0.1628  1.3170
 5645SOL    HW228398   1.953   1.709   3.272  3.4486  0.2927  0.1296
 5646SOL     OW28399   1.384   4.577   4.240  0.0243 -0.5400 -0.2813
 5646SOL    HW128400   1.368   4.656   4.292 -2.4603 -1.8046  0.8993
 5646SOL    HW228401   1.332   4.584   4.160 -3.8689 -1.1859  2.2114
 5647SOL     OW28402   1.853   2.113  17.094 -0.4691  0.3648 -0.4311
 5647SOL    HW128403   1.830   2.021  17.103  1.4784 -0.0549  0.1828
 5647SOL    HW228404   1.895   2.132  17.178  0.7661 -1.9422 -0.5264
 5648SOL     OW28405   0.240   2.151   5.824  0.7428  0.1162  0.4943
 5648SOL    HW128406   0.250   2.232   5.773 -0.5203  0.9079  1.4970
 5648SOL    HW228407   0.238   2.089   5.751  1.6871  0.6992 -0.0332
 5649SOL     OW28408   2.114   2.754   1.075  0.7232 -0.6852  0.8196
 5649SOL    HW128409   2.197   2.778   1.032 -0.4438 -2.0823 -2.2623
 5649SOL    HW228410   2.058   2.769   0.998  0.8743  2.1269  1.2654
 5650SOL     OW28411   1.178   1.784   3.130 -0.0582 -0.0443 -0.2744
 5650SOL    HW128412   1.159   1.694   3.103  1.1069 -0.5765  0.6553
 5650SOL    HW228413   1.169   1.767   3.224  0.2383 -1.5633 -0.5155
 5651SOL     OW28414   1.644   2.836  17.110 -0.1059  0.0198 -0.1434
 5651SOL    HW128415   1.691   2.757  17.135  0.8353  0.3920 -0.7059
 5651SOL    HW228416   1.591   2.816  17.033  0.7912 -1.4292 -0.3793
 5652SOL     OW28417   1.770   2.006   2.907 -0.4645  1.0707 -0.2162
 5652SOL    HW128418   1.715   2.058   2.848  1.8447  1.1285 -2.3223
 5652SOL    HW228419   1.848   1.981   2.858 -0.2419 -1.1307  1.2755
 5653SOL     OW28420   3.599   1.263  14.453  0.2631  0.1170 -0.0594
 5653SOL    HW128421   3.664   1.317  14.498  0.7743  1.1344 -1.9916
 5653SOL    HW228422   3.622   1.175  14.482 -0.5711 -1.3633 -3.9336
 5654SOL     OW28423   0.820   1.332   3.295 -0.1633 -0.2247  0.3849
 5654SOL    HW128424   0.906   1.336   3.335 -1.1753  2.6352  2.2381
 5654SOL    HW228425   0.838   1.288   3.212  0.8833 -0.6409  0.8412
 5655SOL     OW28426   0.957   2.683   3.894  0.7449  0.0039 -0.6194
 5655SOL    HW128427   0.867   2.702   3.865  1.5350  1.4670 -2.1241
 5655SOL    HW228428   0.953   2.589   3.881  1.9253 -0.2235  0.7769
 5656SOL     OW28429   2.700   4.553   2.460 -0.2581  0.4790  0.2071
 5656SOL    HW128430   2.733   4.466   2.482 -0.9723  0.1727  0.0479
 5656SOL    HW228431   2.672   4.546   2.369  1.3930 -1.6648 -0.1535
 5657SOL     OW28432   1.859   1.475   3.823  0.3604  0.0867  0.3383
 5657SOL    HW128433   1.939   1.430   3.849  2.0342  1.0449 -3.1809
 5657SOL    HW228434   1.891   1.553   3.777  0.3459 -1.4040 -2.1990
 5658SOL     OW28435   0.939   3.693   0.522  0.7284  0.5247  0.3810
 5658SOL    HW128436   0.982   3.779   0.526  1.2515  0.3208 -0.8330
 5658SOL    HW228437   0.845   3.709   0.529  0.4025 -1.3782  0.2557
 5659SOL     OW28438   1.263   3.596   5.379 -0.2882  0.2485 -0.4162
 5659SOL    HW128439   1.198   3.642   5.326  2.6371  1.1459 -3.1678
 5659SOL    HW228440   1.210   3.531   5.426 -1.7274 -0.4284 -2.9387
 5660SOL     OW28441   1.816   2.021  10.627  0.1844  0.4557 -0.5055
 5660SOL    HW128442   1.823   2.073  10.547  0.4070 -1.7312 -1.9067
 5660SOL    HW228443   1.907   1.992  10.628  0.7817  2.2447 -2.5050
 5661SOL     OW28444   4.070   2.609  10.164  0.1197 -0.1325 -0.2351
 5661SOL    HW128445   4.115   2.690  10.141  1.8334 -0.8145  0.6824
 5661SOL    HW228446   4.108   2.544  10.105 -2.4198 -2.2052  0.3795
 5662SOL     OW28447   2.673   3.510   8.490  0.0574 -0.0766 -0.0552
 5662SOL    HW128448   2.758   3.483   8.454 -0.3534  0.8248 -1.6475
 5662SOL    HW228449   2.626   3.427   8.476  1.0945 -1.0782  2.2544
 5663SOL     OW28450   0.862   3.016  12.679 -0.2381  0.1851  0.2217
 5663SOL    HW128451   0.956   3.003  12.663 -0.4733 -0.3204 -0.7576
 5663SOL    HW228452   0.813   2.941  12.645  1.1820 -0.9561  0.6700
 5664SOL     OW28453   2.238   3.131  17.236  0.2221  0.1996  0.0661
 5664SOL    HW128454   2.184   3.171  17.167 -0.7020 -0.5902  0.3221
 5664SOL    HW228455   2.273   3.210  17.276 -3.0906  1.9096 -0.3757
 5665SOL     OW28456   2.116   2.530   7.288  0.1464  0.2436  0.1902
 5665SOL    HW128457   2.198   2.537   7.338 -0.0907  3.2000  0.1592
 5665SOL    HW228458   2.073   2.606   7.328  0.3343  1.7654 -2.5000
 5666SOL     OW28459   3.800   2.123   3.252  0.1144 -0.5081  0.3483
 5666SOL    HW128460   3.789   2.217   3.264 -1.8501 -0.6400 -0.4811
 5666SOL    HW228461   3.800   2.115   3.157 -2.4368 -0.4409  0.3399
 5667SOL     OW28462   1.156   1.287   8.498  0.4296  0.7772 -0.1664
 5667SOL    HW128463   1.241   1.330   8.509  0.8737 -0.1009 -0.1029
 5667SOL    HW228464   1.120   1.332   8.422  0.0883 -0.2387 -0.6004
 5668SOL     OW28465   0.509   1.367   9.828 -0.0825  0.1909  0.0880
 5668SOL    HW128466   0.502   1.400   9.739 -0.6696 -0.1693  0.0012
 5668SOL    HW228467   0.603   1.362   9.845 -0.0020 -0.7136 -0.5868
 5669SOL     OW28468   2.735   0.385   2.497  0.0497 -0.0528 -0.4967
 5669SOL    HW128469   2.828   0.397   2.480  0.0485 -0.6980 -0.9780
 5669SOL    HW228470   2.740   0.312   2.560  0.5514 -0.1491 -0.6502
 5670SOL     OW28471   2.748   3.084   6.498  0.5863 -0.2123 -0.3267
 5670SOL    HW128472   2.823   3.070   6.556  0.1160  0.5375  0.4639
 5670SOL    HW228473   2.790   3.051   6.418  1.5514  1.1239 -0.3741
 5671SOL     OW28474   0.941   2.024   1.807  0.3220  0.4213  0.6027
 5671SOL    HW128475   0.874   1.969   1.848 -1.4459  1.9073 -0.3327
 5671SOL    HW228476   1.022   1.975   1.821  1.6767  2.2725 -0.8082
 5672SOL     OW28477   1.666   3.587   7.687 -0.0685 -0.3896  0.3529
 5672SOL    HW128478   1.586   3.541   7.659  0.0200 -1.8221  2.4260
 5672SOL    HW228479   1.617   3.637   7.752  2.2648 -0.6862  2.3325
 5673SOL     OW28480   1.854   3.213   5.612 -0.2722  0.0976  0.3743
 5673SOL    HW128481   1.808   3.164   5.544  3.0326 -1.6424 -0.6259
 5673SOL    HW228482   1.776   3.252   5.651  0.0544  1.0181  0.1275
 5674SOL     OW28483   2.456   0.087   5.781 -0.0975  0.6112 -0.5916
 5674SOL    HW128484   2.529   0.054   5.834  0.1666 -1.5244 -2.2842
 5674SOL    HW228485   2.492   0.078   5.693  0.3351 -0.9673 -0.2519
 5675SOL     OW28486   2.873   0.296  13.585  0.3796  0.2034 -0.3960
 5675SOL    HW128487   2.936   0.224  13.574 -0.8261 -0.9572  0.2822
 5675SOL    HW228488   2.932   0.367  13.608 -0.2430  0.0199  1.7034
 5676SOL     OW28489   3.216   1.524   9.724  0.2479 -0.2610 -0.1185
 5676SOL    HW128490   3.132   1.511   9.678  0.3770  0.7417 -0.6515
 5676SOL    HW228491   3.186   1.528   9.815 -0.5324  1.1268 -0.4293
 5677SOL     OW28492   4.329   3.845   0.834  0.8804  0.0438  0.2497
 5677SOL    HW128493   4.312   3.879   0.921  1.0694  1.3556 -0.2180
 5677SOL    HW228494   4.335   3.752   0.855  0.7445  0.2544  1.1819
 5678SOL     OW28495   1.399   2.775  11.391 -0.0281 -0.3681  0.4068
 5678SOL    HW128496   1.435   2.724  11.464  0.6924 -0.6277 -0.1370
 5678SOL    HW228497   1.304   2.772  11.403 -0.0606  0.1547  0.2885
 5679SOL     OW28498   3.230   3.308   5.665 -0.3614  0.1452 -0.1352
 5679SOL    HW128499   3.268   3.395   5.679 -2.6611  1.2077 -0.5971
 5679SOL    HW228500   3.277   3.247   5.722 -0.5713 -0.9578 -1.1428
 5680SOL     OW28501   3.326   2.043   6.408 -0.5238  0.1872 -0.3540
 5680SOL    HW128502   3.292   2.000   6.486 -0.4178  0.2944 -0.2487
 5680SOL    HW228503   3.380   1.980   6.359 -2.7310 -1.4038 -0.7173
 5681SOL     OW28504   1.813   1.923   8.501 -0.2922  0.4167  0.3820
 5681SOL    HW128505   1.739   1.874   8.538 -0.7280  0.9603  0.2287
 5681SOL    HW228506   1.833   1.874   8.421  0.4122  2.7592 -0.8862
 5682SOL     OW28507   2.544   0.941   6.902  0.7354  0.4394 -0.1485
 5682SOL    HW128508   2.602   0.997   6.953  0.7090  0.8078 -0.5266
 5682SOL    HW228509   2.586   0.855   6.913 -1.1293 -0.8546 -3.1303
 5683SOL     OW28510   4.612   3.781  17.111 -0.2975 -0.0597  0.1006
 5683SOL    HW128511   4.680   3.849  17.109 -0.5000  0.1298 -0.2719
 5683SOL    HW228512   4.569   3.792  17.026 -2.8325  1.1569  1.5294
 5684SOL     OW28513   3.267   1.105   2.560  0.8455  0.6151  0.2464
 5684SOL    HW128514   3.351   1.059   2.560 -0.6237 -2.0932 -1.0794
 5684SOL    HW228515   3.292   1.194   2.536  1.6928  0.9657  2.4398
 5685SOL     OW28516   1.447   0.349   7.195  0.3916 -0.1168  0.1213
 5685SOL    HW128517   1.543   0.356   7.189  0.5979 -2.3292  0.8769
 5685SOL    HW228518   1.436   0.322   7.286  3.9387  0.1845  0.6479
 5686SOL     OW28519   4.096   3.310   4.580  0.4879  0.0008 -0.0830
 5686SOL    HW128520   4.187   3.285   4.597  0.8776  0.4225 -1.5191
 5686SOL    HW228521   4.088   3.274   4.492  0.8289  0.5428 -0.3374
 5687SOL     OW28522   0.666   1.018   0.188 -0.3834  0.3335  0.4974
 5687SOL    HW128523   0.756   1.046   0.169 -0.0379  0.8430  2.9602
 5687SOL    HW228524   0.658   0.934   0.142 -3.9120  1.4765 -0.9884
 5688SOL     OW28525   2.727   3.013  14.829  0.0685  0.1898  0.4673
 5688SOL    HW128526   2.655   3.069  14.799 -0.2890 -0.6420 -0.2324
 5688SOL    HW228527   2.706   3.013  14.922  0.7496  0.1311  0.6170
 5689SOL     OW28528   0.638   0.776   9.004  0.6064  0.3119  0.5691
 5689SOL    HW128529   0.578   0.848   9.023  1.2526  1.0233 -0.0667
 5689SOL    HW228530   0.631   0.725   9.085 -1.3461  0.2738  0.3579
 5690SOL     OW28531   2.291   0.770   7.359 -0.0131  0.2141 -0.0078
 5690SOL    HW128532   2.202   0.803   7.346 -2.0212 -5.1613 -0.0902
 5690SOL    HW228533   2.329   0.824   7.289 -0.8618  1.0449  0.1770
 5691SOL     OW28534   1.932   1.192   6.327  0.2666  0.2794 -0.2210
 5691SOL    HW128535   1.960   1.274   6.286  0.4799  1.4658  2.2781
 5691SOL    HW228536   1.837   1.198   6.315  0.3132 -1.1569 -1.3698
 5692SOL     OW28537   1.949   3.908  13.503  0.1567  0.2035  0.3373
 5692SOL    HW128538   1.894   3.984  13.483 -0.7993  0.2952  3.3091
 5692SOL    HW228539   1.882   3.846  13.475  0.4411  0.0528 -0.0026
 5693SOL     OW28540   0.315   3.840  17.235  0.0822  0.0054  0.4333
 5693SOL    HW128541   0.273   3.884  17.161 -0.4613 -1.2887 -0.0213
 5693SOL    HW228542   0.310   3.921  17.287 -1.7041 -0.2489  0.6498
 5694SOL     OW28543   1.049   1.249   7.623  0.1358 -0.5446 -0.2793
 5694SOL    HW128544   1.046   1.255   7.719  3.3106  2.4913 -0.3849
 5694SOL    HW228545   1.073   1.156   7.619 -0.2752 -0.6448 -0.4317
 5695SOL     OW28546   0.227   1.303   8.654  0.3143  0.0896 -0.2053
 5695SOL    HW128547   0.164   1.324   8.585 -0.8938 -3.0387 -0.0514
 5695SOL    HW228548   0.290   1.376   8.652  0.3969 -0.0388 -2.3072
 5696SOL     OW28549   0.108   4.651   9.101 -0.5593  0.3096 -0.1005
 5696SOL    HW128550   0.147   4.693   9.024 -0.8835 -1.2450 -1.1041
 5696SOL    HW228551   0.161   4.700   9.164 -0.9999 -0.4946  0.8851
 5697SOL     OW28552   1.998   4.240  12.643  0.3649 -0.0774 -0.8187
 5697SOL    HW128553   1.907   4.267  12.657  0.9945  0.7301  1.5569
 5697SOL    HW228554   1.998   4.150  12.676 -0.6493  0.8543  1.7329
 5698SOL     OW28555   2.388   1.186  12.917 -0.5223  0.0007 -0.1186
 5698SOL    HW128556   2.412   1.253  12.854  0.2780  1.4424  1.7281
 5698SOL    HW228557   2.409   1.242  12.992 -0.1996  1.6831 -1.4564
 5699SOL     OW28558   2.029   4.371  15.199 -0.4057 -0.0428  0.0972
 5699SOL    HW128559   2.010   4.308  15.269  1.0240 -0.4227  0.1299
 5699SOL    HW228560   1.968   4.334  15.134  1.2885 -4.0461  0.8020
 5700SOL     OW28561   0.123   2.935   7.515  0.3937 -0.0094 -0.4468
 5700SOL    HW128562   0.197   2.914   7.572  0.1040 -0.7526 -0.3296
 5700SOL    HW228563   0.171   2.998   7.462  0.6827  0.8075  0.7888
 5701SOL     OW28564   3.595   4.098   3.174  0.7491  0.4486 -0.3686
 5701SOL    HW128565   3.677   4.147   3.184  0.0997  0.9614  2.3725
 5701SOL    HW228566   3.564   4.081   3.263 -1.2743  2.5972 -0.6694
 5702SOL     OW28567   2.414   3.905  13.633 -0.1279 -0.1906  0.0468
 5702SOL    HW128568   2.508   3.889  13.621  0.1161  0.5472  0.9483
 5702SOL    HW228569   2.418   3.989  13.679 -1.6105 -1.7482  3.0502
 5703SOL     OW28570   3.602   3.195   5.325 -0.1514 -0.3423 -0.2956
 5703SOL    HW128571   3.617   3.102   5.339  0.4444  0.2268  2.8434
 5703SOL    HW228572   3.610   3.228   5.414 -0.4353 -1.6960  0.2180
 5704SOL     OW28573   3.992   3.755  11.257 -0.3845  0.0219 -0.1455
 5704SOL    HW128574   3.898   3.746  11.241 -0.8884  2.2188  1.6590
 5704SOL    HW228575   3.986   3.847  11.281  1.6582 -0.1881  1.1902
 5705SOL     OW28576   1.308   3.026   5.986 -0.4571 -0.0079  0.0133
 5705SOL    HW128577   1.359   2.983   6.055  1.0747  0.2630 -0.9370
 5705SOL    HW228578   1.224   2.982   5.997 -0.9054  0.3686 -1.8767
 5706SOL     OW28579   0.342   1.673  13.963 -0.3446 -0.1276 -0.0110
 5706SOL    HW128580   0.296   1.696  13.883  1.6201  1.3415 -0.7429
 5706SOL    HW228581   0.384   1.759  13.973  0.8949 -0.5409 -1.6738
 5707SOL     OW28582   3.677   2.727   3.241 -0.0444 -0.0619  0.2304
 5707SOL    HW128583   3.675   2.670   3.318  0.9374 -0.8524 -0.3291
 5707SOL    HW228584   3.712   2.808   3.278  1.2611 -0.9388  0.8926
 5708SOL     OW28585   3.341   3.939  15.752 -0.0691 -0.1700 -0.7611
 5708SOL    HW128586   3.257   3.923  15.795  0.7616  1.2422  1.3878
 5708SOL    HW228587   3.302   3.941  15.664 -1.2093  1.8765 -0.2203
 5709SOL     OW28588   2.886   3.787   7.002 -0.1527 -0.7309  0.0306
 5709SOL    HW128589   2.893   3.710   6.946  0.0062 -1.6832  1.3951
 5709SOL    HW228590   2.976   3.809   7.028 -0.9440  0.0139  2.1380
 5710SOL     OW28591   1.852   3.779  10.642 -0.0099 -0.1542  0.5896
 5710SOL    HW128592   1.945   3.787  10.621  0.6962 -0.8335  3.5668
 5710SOL    HW228593   1.827   3.697  10.600  2.0002 -0.7651  0.6073
 5711SOL     OW28594   0.511   1.290   4.383  0.0570 -0.3679  0.2727
 5711SOL    HW128595   0.593   1.334   4.361 -0.5148  0.5594  0.0159
 5711SOL    HW228596   0.548   1.202   4.394  0.3877 -0.0182  2.0045
 5712SOL     OW28597   2.689   4.546  12.416 -0.0283 -0.0055  0.2790
 5712SOL    HW128598   2.750   4.537  12.489  0.6782  0.4091 -0.2630
 5712SOL    HW228599   2.657   4.456  12.410 -0.0990 -0.0846  1.9668
 5713SOL     OW28600   0.504   4.282   3.441 -1.0397 -0.1588 -0.1335
 5713SOL    HW128601   0.481   4.199   3.484 -0.0118 -2.0210 -3.1771
 5713SOL    HW228602   0.540   4.327   3.517 -3.4029  0.6430  0.5027
 5714SOL     OW28603   2.645   3.414   3.812 -0.3734 -0.2182  0.2714
 5714SOL    HW128604   2.685   3.367   3.739 -0.1032 -0.3236  0.4858
 5714SOL    HW228605   2.622   3.501   3.780 -3.3563 -0.7929  0.9405
 5715SOL     OW28606   0.457   0.235   5.147  0.0892 -0.2398  0.6968
 5715SOL    HW128607   0.482   0.326   5.162  0.5129 -0.3361  0.5862
 5715SOL    HW228608   0.510   0.195   5.217  1.0342 -0.2760 -0.0356
 5716SOL     OW28609   2.691   3.719   1.949 -0.2990 -0.6975  0.1193
 5716SOL    HW128610   2.781   3.690   1.934 -0.3600 -1.2395  0.8050
 5716SOL    HW228611   2.667   3.704   1.858  0.9447  0.2666 -0.3808
 5717SOL     OW28612   0.201   1.914   8.283 -0.1189  0.6003  0.9477
 5717SOL    HW128613   0.251   1.938   8.361  1.8085 -4.0624  1.1328
 5717SOL    HW228614   0.111   1.927   8.313 -0.8067 -1.8777 -0.0680
 5718SOL     OW28615   2.470   0.560   6.361  0.2748 -0.4027  0.2427
 5718SOL    HW128616   2.390   0.559   6.309 -0.3830 -2.3539  1.2869
 5718SOL    HW228617   2.531   0.560   6.288 -0.5796 -0.6665 -0.4703
 5719SOL     OW28618   4.360   1.573  16.563 -0.6202 -0.2933  0.2582
 5719SOL    HW128619   4.278   1.530  16.584  0.8603 -1.8907  2.7905
 5719SOL    HW228620   4.352   1.593  16.470 -0.7964  0.0753  0.3552
 5720SOL     OW28621   1.267   1.009   2.510 -0.5650  0.1090 -0.4567
 5720SOL    HW128622   1.202   1.053   2.454 -1.4820 -0.0650  0.4669
 5720SOL    HW228623   1.349   1.031   2.466 -0.4462  0.7372  0.0734
 5721SOL     OW28624   1.570   3.452   5.443  0.9363  0.0967  0.8368
 5721SOL    HW128625   1.536   3.479   5.357 -3.4186 -1.1796  2.1364
 5721SOL    HW228626   1.663   3.467   5.429  1.3576 -0.3371  3.1407
 5722SOL     OW28627   0.548   3.217  10.058  0.5414 -0.0341 -0.3089
 5722SOL    HW128628   0.590   3.155   9.998  1.1115  0.7314 -0.7136
 5722SOL    HW228629   0.622   3.250  10.109  0.0666 -0.0341  0.3670
 5723SOL     OW28630   1.857   1.197   1.880 -0.0391 -0.7659  0.5365
 5723SOL    HW128631   1.929   1.175   1.822 -0.5441  1.4663 -0.9498
 5723SOL    HW228632   1.805   1.117   1.889 -0.8765 -0.2591  0.2309
 5724SOL     OW28633   0.657   1.142  14.538  0.5695  0.0428  0.0780
 5724SOL    HW128634   0.726   1.201  14.509  1.4926 -1.3136 -0.4728
 5724SOL    HW228635   0.690   1.127  14.626 -1.9092 -1.1255  0.8159
 5725SOL     OW28636   4.047   3.156   2.244  0.1672 -0.4411  0.4546
 5725SOL    HW128637   3.996   3.134   2.166 -0.5680  1.1510  0.4807
 5725SOL    HW228638   4.090   3.072   2.253 -1.0676 -1.4921 -3.3850
 5726SOL     OW28639   2.508   2.054  10.467 -0.2299 -0.5145 -0.1559
 5726SOL    HW128640   2.565   2.069  10.392  0.1205 -0.1293  0.1890
 5726SOL    HW228641   2.575   2.016  10.524  0.4324 -0.1175 -0.6759
 5727SOL     OW28642   0.652   3.152   6.523  0.7993 -0.2781 -0.4049
 5727SOL    HW128643   0.563   3.185   6.509  1.2387  1.4148  0.8463
 5727SOL    HW228644   0.687   3.200   6.598  1.1686 -1.0575 -0.0850
 5728SOL     OW28645   1.499   4.405  12.227  0.3240 -0.4145 -0.5398
 5728SOL    HW128646   1.451   4.356  12.295 -1.1382  3.5752  1.3081
 5728SOL    HW228647   1.536   4.329  12.183  1.1354  1.0805 -2.4010
 5729SOL     OW28648   4.200   0.197   8.398 -0.0960 -0.1712 -0.4855
 5729SOL    HW128649   4.189   0.281   8.354 -2.2534 -0.9105 -1.3654
 5729SOL    HW228650   4.114   0.155   8.394 -0.5082  0.5297  0.9074
 5730SOL     OW28651   3.979   4.557   2.829  0.6444  0.3686  0.5239
 5730SOL    HW128652   3.896   4.588   2.866 -0.1551 -1.2135  0.0565
 5730SOL    HW228653   4.036   4.555   2.906 -0.3259  2.3014  1.3121
 5731SOL     OW28654   3.428   0.653   6.153  0.7956 -0.2370  0.8262
 5731SOL    HW128655   3.418   0.727   6.212 -0.6356 -0.0833  0.3936
 5731SOL    HW228656   3.522   0.642   6.166  0.9575  0.8556  0.5219
 5732SOL     OW28657   0.983   4.658  15.780  0.0672 -0.1990 -0.5309
 5732SOL    HW128658   1.062   4.666  15.834 -0.9237  2.1162  0.5692
 5732SOL    HW228659   0.989   4.563  15.766 -1.5883 -0.2116 -1.1623
 5733SOL     OW28660   2.921   2.169   8.721 -0.4924  0.7265 -0.3218
 5733SOL    HW128661   2.901   2.200   8.810  0.1295 -2.6374  0.9950
 5733SOL    HW228662   2.893   2.078   8.728  1.1838  0.1846 -0.9163
 5734SOL     OW28663   3.800   4.136  10.458 -0.3427 -0.5017 -0.0499
 5734SOL    HW128664   3.870   4.199  10.471 -1.6310  0.6142  1.5351
 5734SOL    HW228665   3.749   4.147  10.539 -0.3393  1.5101 -0.3222
 5735SOL     OW28666   1.701   2.214   9.464  0.4627  0.4568 -0.0306
 5735SOL    HW128667   1.744   2.283   9.515 -2.0033  0.4125  2.1137
 5735SOL    HW228668   1.703   2.242   9.373  1.6112  1.9691  0.4538
 5736SOL     OW28669   0.940   1.562  12.760 -0.0891  0.3729 -0.0136
 5736SOL    HW128670   0.845   1.564  12.770 -0.1356 -0.4128 -0.2538
 5736SOL    HW228671   0.961   1.638  12.812  0.7750  1.8287 -2.4903
 5737SOL     OW28672   1.278   0.335   4.394  0.0874 -0.0750 -0.2280
 5737SOL    HW128673   1.218   0.362   4.465 -0.8264 -0.5708 -0.8155
 5737SOL    HW228674   1.356   0.380   4.428  0.2987 -0.6012 -0.0223
 5738SOL     OW28675   0.552   4.571   6.949  0.3736 -0.4616  0.3293
 5738SOL    HW128676   0.553   4.613   6.863 -1.1885  0.5033  0.7764
 5738SOL    HW228677   0.637   4.527   6.950 -0.9752 -3.1046 -1.1843
 5739SOL     OW28678   2.902   0.863   4.125  0.1267 -0.5301 -0.0328
 5739SOL    HW128679   2.979   0.824   4.166  0.3731  0.6838  0.6491
 5739SOL    HW228680   2.935   0.857   4.035  1.6000 -2.8868  0.6671
 5740SOL     OW28681   3.198   1.903  13.713 -0.1189  0.4602 -0.0073
 5740SOL    HW128682   3.149   1.839  13.764 -1.5495  0.3758 -1.4680
 5740SOL    HW228683   3.170   1.857  13.633  1.1435 -0.8171  0.2784
 5741SOL     OW28684   4.592   1.410  13.673  0.3651 -0.1134  0.1397
 5741SOL    HW128685   4.602   1.364  13.757 -0.9822 -1.7758 -0.5921
 5741SOL    HW228686   4.552   1.340  13.621  0.2643 -0.3768  0.5672
 5742SOL     OW28687   4.061   3.196   4.864  0.2223 -0.3634 -0.1590
 5742SOL    HW128688   4.038   3.227   4.777 -1.5353 -0.2004  0.3744
 5742SOL    HW228689   4.153   3.171   4.851  1.0463  2.2347  0.7603
 5743SOL     OW28690   3.468   1.479   2.317  0.1694  0.4953  0.0217
 5743SOL    HW128691   3.555   1.445   2.337 -0.2961 -1.6373 -1.5632
 5743SOL    HW228692   3.476   1.574   2.311 -0.5962  0.5898  0.5515
 5744SOL     OW28693   4.534   1.008   1.740 -0.2579 -0.3335 -0.2221
 5744SOL    HW128694   4.585   0.929   1.724 -2.2532 -1.7021  0.2225
 5744SOL    HW228695   4.543   1.039   1.831 -0.2118 -1.4988  0.1670
 5745SOL     OW28696   1.115   1.734   8.295 -0.2021 -0.5496  0.5838
 5745SOL    HW128697   1.066   1.798   8.346  0.1661 -1.5150  2.1432
 5745SOL    HW228698   1.084   1.774   8.214 -0.8659 -0.9483  0.6393
 5746SOL     OW28699   1.178   0.773   8.506 -1.2638 -0.0839  0.6834
 5746SOL    HW128700   1.214   0.857   8.477 -2.5696 -0.0816 -0.9598
 5746SOL    HW228701   1.226   0.718   8.444 -0.1656 -0.6455  2.0608
 5747SOL     OW28702   2.733   1.123   8.782 -0.4563  0.4354 -0.0888
 5747SOL    HW128703   2.707   1.032   8.769 -1.6543  0.8499 -0.5077
 5747SOL    HW228704   2.807   1.115   8.843 -1.2800 -0.1741  0.8203
 5748SOL     OW28705   2.625   3.777   4.329  0.2109 -0.4031 -0.4858
 5748SOL    HW128706   2.606   3.788   4.422  0.2850 -0.6772 -0.4371
 5748SOL    HW228707   2.670   3.692   4.327  0.4593 -0.3209  1.3197
 5749SOL     OW28708   0.088   3.834   0.852 -0.4022 -0.2618 -0.0934
 5749SOL    HW128709   0.088   3.774   0.777  0.5512 -1.4319  0.8446
 5749SOL    HW228710   0.058   3.770   0.917  1.1722  0.3644  1.2408
 5750SOL     OW28711   1.275   3.661   9.843  1.0017  0.3505  0.2202
 5750SOL    HW128712   1.283   3.596   9.773 -0.4180  0.3494  0.0460
 5750SOL    HW228713   1.330   3.621   9.910  0.6647 -1.9232 -0.8495
 5751SOL     OW28714   2.182   3.425   6.799  0.2572  0.1934  0.1973
 5751SOL    HW128715   2.147   3.451   6.885 -1.6312  0.8879 -0.7783
 5751SOL    HW228716   2.258   3.377   6.832  0.7404 -0.7262 -2.2619
 5752SOL     OW28717   4.418   0.572   5.640  0.2451  0.0272 -0.2493
 5752SOL    HW128718   4.377   0.656   5.618  0.3549  0.0108 -0.5077
 5752SOL    HW228719   4.480   0.588   5.711 -2.2224  0.6892  1.7595
 5753SOL     OW28720   3.696   3.359   9.274  0.0359  0.7733  0.1634
 5753SOL    HW128721   3.784   3.369   9.238  0.3083  2.0336  1.1866
 5753SOL    HW228722   3.653   3.309   9.204  0.7690 -0.0722  0.3052
 5754SOL     OW28723   3.761   3.830   8.657  0.3906 -0.2084 -0.2071
 5754SOL    HW128724   3.676   3.831   8.699  1.0654 -3.0442  1.2318
 5754SOL    HW228725   3.802   3.901   8.705  0.2414 -0.4794  0.3144
 5755SOL     OW28726   1.836   1.297  11.344 -0.1890 -0.1842  0.1286
 5755SOL    HW128727   1.857   1.207  11.322 -0.3093  0.4464 -2.5205
 5755SOL    HW228728   1.890   1.349  11.284 -0.8568 -0.2948 -0.5559
 5756SOL     OW28729   2.231   2.235   9.319 -0.0077 -1.1130 -0.0317
 5756SOL    HW128730   2.195   2.302   9.261  1.1894  0.8731  1.5243
 5756SOL    HW228731   2.296   2.279   9.373  0.7569 -4.2831  1.6326
 5757SOL     OW28732   1.626   2.815   1.696  0.3538  0.3032 -0.1103
 5757SOL    HW128733   1.641   2.786   1.606  1.3979 -0.9612  0.4637
 5757SOL    HW228734   1.646   2.909   1.692 -0.3466  0.4236 -0.7989
 5758SOL     OW28735   3.953   0.847   2.428  0.4049 -0.5689  0.6424
 5758SOL    HW128736   4.045   0.848   2.401 -0.5991 -0.9750 -2.8101
 5758SOL    HW228737   3.915   0.858   2.340  0.7039  1.2079  0.7274
 5759SOL     OW28738   1.115   3.338   4.555 -0.3276 -0.0246  0.3352
 5759SOL    HW128739   1.102   3.305   4.644 -1.5910 -3.0645 -0.9628
 5759SOL    HW228740   1.180   3.281   4.516  0.5431  0.9647  0.3418
 5760SOL     OW28741   4.497   1.055  13.290 -0.5149 -0.0733  0.3650
 5760SOL    HW128742   4.447   0.989  13.337 -0.3215 -0.2313  0.3510
 5760SOL    HW228743   4.522   1.012  13.209 -2.3038 -0.3925 -0.0131
 5761SOL     OW28744   1.324   0.061   3.400 -0.2234 -0.0239 -0.3446
 5761SOL    HW128745   1.392   0.015   3.352  0.3844 -1.1717  1.6372
 5761SOL    HW228746   1.353   0.150   3.378  1.6992 -0.3326  0.9334
 5762SOL     OW28747   3.303   4.494   9.441 -0.4591 -0.5422  0.0436
 5762SOL    HW128748   3.359   4.548   9.496 -1.4832 -0.2294  0.7774
 5762SOL    HW228749   3.221   4.542   9.449  0.7028  1.5295 -0.4028
 5763SOL     OW28750   4.277   1.618   8.370  0.2719 -0.0493 -0.2641
 5763SOL    HW128751   4.240   1.545   8.321 -1.3466  0.8649 -0.3923
 5763SOL    HW228752   4.359   1.580   8.403 -1.1891 -0.6121  2.6919
 5764SOL     OW28753   1.094   0.441   4.553 -0.1134 -0.1013 -0.0515
 5764SOL    HW128754   1.000   0.430   4.537 -0.2059 -0.1047  0.4900
 5764SOL    HW228755   1.095   0.536   4.545  2.5019  0.0221  1.5705
 5765SOL     OW28756   4.201   1.382   8.266  0.1692 -0.2121 -0.0551
 5765SOL    HW128757   4.117   1.407   8.304  0.7038 -0.1178  1.0688
 5765SOL    HW228758   4.207   1.296   8.307  1.2439  0.7054  1.7417
 5766SOL     OW28759   3.993   0.996  10.330 -0.3907  0.1466 -0.2127
 5766SOL    HW128760   4.004   0.913  10.283 -1.2187 -0.3389  0.4510
 5766SOL    HW228761   3.996   0.983  10.424  1.9136  1.3243 -0.1264
 5767SOL     OW28762   4.078   1.296   9.274  0.6027 -0.2944  0.1379
 5767SOL    HW128763   4.108   1.243   9.200 -1.0631 -0.8742 -0.1208
 5767SOL    HW228764   4.159   1.303   9.325  0.1011  1.5396  0.6641
 5768SOL     OW28765   3.610   3.610   4.544 -0.0107 -0.4634  0.8684
 5768SOL    HW128766   3.547   3.656   4.487  1.2656  0.2905  0.0464
 5768SOL    HW228767   3.611   3.525   4.501  1.5015  0.4174 -0.8398
 5769SOL     OW28768   4.529   2.343   4.013  0.0535 -0.6672  0.0603
 5769SOL    HW128769   4.615   2.303   4.027 -0.0096 -0.9496 -0.3371
 5769SOL    HW228770   4.551   2.405   3.943  1.9079 -0.4038  0.8747
 5770SOL     OW28771   4.683   1.119  13.658 -0.2642  0.4112  0.2185
 5770SOL    HW128772   0.033   1.102  13.602  0.3188 -0.8730  1.3876
 5770SOL    HW228773   4.614   1.131  13.593 -0.4337 -1.5522  0.0487
 5771SOL     OW28774   3.244   1.643   2.896  0.1833 -0.0524 -0.3152
 5771SOL    HW128775   3.266   1.551   2.911  0.2126 -0.0908 -0.5979
 5771SOL    HW228776   3.248   1.676   2.986  1.8524  0.9609 -0.7445
 5772SOL     OW28777   1.349   0.060   4.393 -0.1915  0.3487 -0.1384
 5772SOL    HW128778   1.326   0.153   4.389 -0.6661  0.2849  1.3451
 5772SOL    HW228779   1.443   0.076   4.398 -0.1822  0.5480 -0.8776
 5773SOL     OW28780   3.909   2.229   2.331  0.2422  0.1906  0.4001
 5773SOL    HW128781   3.896   2.212   2.238 -1.1673  2.5160  0.1819
 5773SOL    HW228782   3.817   2.248   2.348  0.6600  1.4459  1.3086
 5774SOL     OW28783   2.099   3.822   2.553  0.0021  0.0472 -0.6305
 5774SOL    HW128784   2.003   3.823   2.561  0.0379 -2.7561 -0.0563
 5774SOL    HW228785   2.119   3.841   2.461  0.9324  0.8428 -0.2635
 5775SOL     OW28786   4.076   0.838  11.556 -0.6710 -0.2115  0.1661
 5775SOL    HW128787   3.995   0.794  11.578  0.1053 -0.0031  3.3743
 5775SOL    HW228788   4.142   0.770  11.542  1.6003  2.1370 -0.7534
 5776SOL     OW28789   3.817   1.127   8.932  0.3782 -0.5632 -0.6245
 5776SOL    HW128790   3.858   1.065   8.992  2.5456  1.4836 -0.0170
 5776SOL    HW228791   3.853   1.208   8.967  1.2305 -1.3294  0.2495
 5777SOL     OW28792   3.881   1.111  10.943  0.0621 -0.2390 -0.1339
 5777SOL    HW128793   3.962   1.064  10.926  1.7115  2.2945  0.6373
 5777SOL    HW228794   3.897   1.183  10.881 -0.3146  0.6780  0.8347
 5778SOL     OW28795   1.078   0.554  16.789  0.1014  0.6322  0.4575
 5778SOL    HW128796   1.013   0.534  16.857 -1.3964 -0.7099 -1.3692
 5778SOL    HW228797   1.152   0.587  16.840  1.0997  2.6971 -2.3659
 5779SOL     OW28798   2.456   0.729  15.976  0.0820  0.2476 -0.3795
 5779SOL    HW128799   2.535   0.729  15.921 -0.1769 -2.5855 -0.7238
 5779SOL    HW228800   2.399   0.759  15.906 -2.6623 -2.2857  0.7751
 5780SOL     OW28801   2.480   0.657  10.506 -0.6154 -0.2260 -0.5186
 5780SOL    HW128802   2.438   0.672  10.591 -0.9233  0.1834 -0.7422
 5780SOL    HW228803   2.425   0.583  10.479 -0.8871  0.3778 -1.6186
 5781SOL     OW28804   2.637   2.085   5.070  0.0502  0.5841  0.0578
 5781SOL    HW128805   2.697   2.075   5.144 -0.2906  0.2481  0.2872
 5781SOL    HW228806   2.695   2.116   5.000  0.9360 -0.5686  0.2863
 5782SOL     OW28807   4.161   0.402   6.883  0.5138 -0.1912  0.5419
 5782SOL    HW128808   4.143   0.474   6.822 -0.0872  0.7972  1.8732
 5782SOL    HW228809   4.119   0.432   6.963 -1.5543  1.1202 -1.0285
 5783SOL     OW28810   2.810   1.586  13.308 -0.3672 -0.2874 -0.5168
 5783SOL    HW128811   2.727   1.537  13.309 -1.3904  1.4176 -1.2772
 5783SOL    HW228812   2.792   1.657  13.246  1.0384 -0.3760 -1.0233
 5784SOL     OW28813   3.698   2.020  12.768  0.0586  0.0112 -0.1495
 5784SOL    HW128814   3.705   1.939  12.819 -2.0873  0.8095  1.4296
 5784SOL    HW228815   3.748   2.081  12.823  1.3323  1.2591 -2.7232
 5785SOL     OW28816   1.808   3.794   6.887 -0.0605  0.8049  0.1851
 5785SOL    HW128817   1.812   3.719   6.828  2.0198  0.4102  0.8097
 5785SOL    HW228818   1.716   3.814   6.870  0.0429  1.2699  0.1484
 5786SOL     OW28819   1.479   4.370  14.050 -0.3467 -0.1449  0.0200
 5786SOL    HW128820   1.514   4.425  13.980  1.7126  0.0808  1.2445
 5786SOL    HW228821   1.409   4.331  13.997  0.3896  0.1350 -1.1312
 5787SOL     OW28822   0.282   2.153   7.007 -0.2353  0.0507  0.0445
 5787SOL    HW128823   0.193   2.132   7.036 -0.8410  1.8132 -0.5511
 5787SOL    HW228824   0.285   2.114   6.920 -2.8215 -1.3116  0.5833
 5788SOL     OW28825   2.955   2.189   2.199  0.1853  0.1981 -0.0941
 5788SOL    HW128826   2.922   2.101   2.183 -0.3288  0.1250  1.3064
 5788SOL    HW228827   2.905   2.242   2.138  1.4784  0.1413 -1.2055
 5789SOL     OW28828   1.207   2.865   3.803 -0.2081  0.7190  0.2400
 5789SOL    HW128829   1.126   2.911   3.784 -1.0387 -1.1578 -0.7556
 5789SOL    HW228830   1.187   2.773   3.785 -1.4933  1.2661 -1.1345
 5790SOL     OW28831   1.045   2.422   9.533  0.6770 -0.1744  0.8388
 5790SOL    HW128832   1.046   2.397   9.441 -1.4505 -1.0177  1.0433
 5790SOL    HW228833   0.952   2.443   9.532  0.2551 -2.0752 -0.4762
 5791SOL     OW28834   0.209   2.601   6.032 -0.5365  0.2875  0.3623
 5791SOL    HW128835   0.126   2.634   6.066  0.2725  2.2664  0.3656
 5791SOL    HW228836   0.186   2.586   5.940  3.4491  0.0589 -0.5871
 5792SOL     OW28837   4.415   1.787   2.411 -0.1796  0.0098 -0.3055
 5792SOL    HW128838   4.468   1.710   2.393  1.5645  1.6730 -2.2099
 5792SOL    HW228839   4.338   1.767   2.357 -0.8649  0.9714  0.3120
 5793SOL     OW28840   0.722   0.915   4.716 -0.1600  0.2807 -0.2952
 5793SOL    HW128841   0.743   0.901   4.808 -0.1542  0.9290 -0.2000
 5793SOL    HW228842   0.737   0.825   4.686  0.3609 -0.5595  2.4954
 5794SOL     OW28843   1.127   1.062  16.773  0.4203 -0.5110  0.0206
 5794SOL    HW128844   1.099   0.982  16.729 -0.4635  0.1745 -0.6743
 5794SOL    HW228845   1.173   1.018  16.844  0.2136 -0.4389  0.1990
 5795SOL     OW28846   1.682   4.638   6.327 -0.5454 -0.2989  0.1252
 5795SOL    HW128847   1.750   4.629   6.394 -0.1901  0.2034 -0.1658
 5795SOL    HW228848   1.718   4.583   6.257  4.5022  0.4749  2.1002
 5796SOL     OW28849   4.227   3.005   2.890  0.1717 -0.1806  0.3259
 5796SOL    HW128850   4.184   2.956   2.820 -1.3598  0.3765  0.8834
 5796SOL    HW228851   4.321   2.993   2.875  0.2991  0.6452  0.4723
 5797SOL     OW28852   1.319   0.759  15.728  0.1080  0.0458  0.1433
 5797SOL    HW128853   1.293   0.789  15.641 -1.3796  1.2570  1.0055
 5797SOL    HW228854   1.283   0.820  15.792  2.7572  0.5486  1.1192
 5798SOL     OW28855   0.217   0.389   7.978 -0.1849  0.5823  0.2973
 5798SOL    HW128856   0.276   0.316   7.997 -2.1619 -0.9590  0.5571
 5798SOL    HW228857   0.176   0.402   8.064  0.1946 -1.4553  0.8015
 5799SOL     OW28858   1.442   4.428   1.812 -0.2729 -0.9619  0.1059
 5799SOL    HW128859   1.361   4.478   1.809  0.0940 -0.5110 -2.8159
 5799SOL    HW228860   1.419   4.335   1.818  2.5016 -1.5687  1.6446
 5800SOL     OW28861   4.479   3.632   2.237  0.2840 -0.4885  0.8026
 5800SOL    HW128862   4.507   3.564   2.175 -1.3563 -1.9049  1.6479
 5800SOL    HW228863   4.567   3.666   2.257 -0.7610  1.4012  2.1334
 5801SOL     OW28864   1.484   3.116   0.036  0.6328 -0.3659 -0.0107
 5801SOL    HW128865   1.491   3.205   0.002 -0.7631 -0.0187  0.6295
 5801SOL    HW228866   1.539   3.066  17.676  2.9312 -0.9630  2.5878
 5802SOL     OW28867   0.551   1.779  13.697 -0.3225  0.4480 -0.1659
 5802SOL    HW128868   0.554   1.867  13.660 -0.8563  1.2503  1.6594
 5802SOL    HW228869   0.465   1.782  13.740  1.4074  1.6195  3.2019
 5803SOL     OW28870   0.421   2.387  14.929  0.0643 -0.3334 -0.0411
 5803SOL    HW128871   0.333   2.353  14.944 -0.6438  1.8958  0.7710
 5803SOL    HW228872   0.416   2.471  14.974  2.1378  0.5133 -1.4132
 5804SOL     OW28873   0.668   3.891   1.871 -0.0253 -0.2919  0.7058
 5804SOL    HW128874   0.740   3.863   1.815  0.3320  1.0301  0.5098
 5804SOL    HW228875   0.607   3.817   1.881  0.6956 -1.0072 -0.1264
 5805SOL     OW28876   3.715   4.186   7.936  0.5008  0.1390 -0.1883
 5805SOL    HW128877   3.767   4.111   7.965  1.6515  1.1561  0.3493
 5805SOL    HW228878   3.727   4.242   8.012 -2.2511 -0.0733  0.4108
 5806SOL     OW28879   4.188   3.018   4.279 -0.5871  0.4091 -0.3524
 5806SOL    HW128880   4.099   3.032   4.309 -1.0687 -2.9342 -0.2992
 5806SOL    HW228881   4.222   3.107   4.291 -2.1524  0.8362  0.8705
 5807SOL     OW28882   1.041   2.209   8.261  0.4708  0.1504  0.1692
 5807SOL    HW128883   0.958   2.252   8.279  0.8334  0.4321  1.1598
 5807SOL    HW228884   1.092   2.287   8.242  1.0686 -0.2095  0.2983
 5808SOL     OW28885   4.684   1.791   5.778 -0.2130  0.3619 -0.3103
 5808SOL    HW128886   4.596   1.815   5.804  0.1591  2.1167 -0.6853
 5808SOL    HW228887   4.665   1.798   5.684  0.0429  1.5550 -0.2700
 5809SOL     OW28888   0.499   2.563   6.123  0.3548 -0.7965  0.0819
 5809SOL    HW128889   0.409   2.540   6.100  0.5250  0.2352 -1.5609
 5809SOL    HW228890   0.547   2.536   6.045  0.7076 -0.7551  0.2851
 5810SOL     OW28891   3.012   1.052   2.603 -0.0788  0.0855  0.0594
 5810SOL    HW128892   3.107   1.060   2.596  0.1028 -0.9433  1.4430
 5810SOL    HW228893   2.986   1.133   2.648 -0.3507  0.1138 -0.1482
 5811SOL     OW28894   2.275   0.397   8.797  0.2519  0.1402  0.0507
 5811SOL    HW128895   2.366   0.380   8.775 -0.5784 -2.2542 -1.6420
 5811SOL    HW228896   2.255   0.420   8.707 -0.6411  0.3852  0.3110
 5812SOL     OW28897   2.866   2.832  17.382 -0.1594 -0.4551  0.8753
 5812SOL    HW128898   2.855   2.744  17.419  0.4081 -0.9896 -0.2385
 5812SOL    HW228899   2.795   2.880  17.424 -0.9599 -0.4347 -0.5315
 5813SOL     OW28900   3.979   0.277   4.211 -0.0495  0.7998 -0.4206
 5813SOL    HW128901   3.936   0.336   4.273  0.2424  0.0959  0.4521
 5813SOL    HW228902   3.989   0.334   4.136 -0.1220  1.0197 -0.2629
 5814SOL     OW28903   3.866   2.488   8.744 -0.1055  0.2069 -0.1590
 5814SOL    HW128904   3.799   2.422   8.727  2.6980 -1.8701 -3.2680
 5814SOL    HW228905   3.809   2.545   8.794 -0.0264 -0.7178  0.9765
 5815SOL     OW28906   1.759   3.314   2.858 -0.5025  0.5758 -0.2203
 5815SOL    HW128907   1.694   3.307   2.788 -0.6482  2.9445 -0.3349
 5815SOL    HW228908   1.765   3.408   2.874 -0.5003  0.1527  2.1625
 5816SOL     OW28909   3.252   0.465   0.142  0.0173  0.0914 -0.0304
 5816SOL    HW128910   3.167   0.466   0.186 -0.7586  1.2628 -1.5366
 5816SOL    HW228911   3.224   0.424   0.060  1.1335  0.8253 -0.7715
 5817SOL     OW28912   1.567   3.372   4.021 -0.4388 -0.3590 -0.0356
 5817SOL    HW128913   1.591   3.339   3.935 -3.0391 -0.8758 -0.5773
 5817SOL    HW228914   1.580   3.290   4.070 -0.2753 -0.8079 -0.8276
 5818SOL     OW28915   3.007   1.736   8.069 -0.9476 -0.3370  0.7604
 5818SOL    HW128916   2.948   1.707   8.138 -0.6153  1.0370  1.6323
 5818SOL    HW228917   3.087   1.704   8.111 -1.8714  2.0450  4.3865
 5819SOL     OW28918   2.104   1.276   3.618  0.6518  0.4277  0.2216
 5819SOL    HW128919   2.062   1.287   3.704 -0.0861  1.3696 -0.2549
 5819SOL    HW228920   2.103   1.366   3.586 -0.6848 -0.1743 -1.4451
 5820SOL     OW28921   1.720   2.832   3.915 -0.2362 -0.4432 -0.2997
 5820SOL    HW128922   1.759   2.907   3.961 -1.0459 -0.0224 -0.3077
 5820SOL    HW228923   1.732   2.850   3.821 -1.8060  3.6428  0.3008
 5821SOL     OW28924   3.630   3.896  17.349  0.6711 -0.6035 -0.2927
 5821SOL    HW128925   3.702   3.944  17.389  0.3456  0.5852 -1.1257
 5821SOL    HW228926   3.559   3.958  17.370  1.0242 -0.5216  0.6188
 5822SOL     OW28927   3.570   0.355  16.053  0.1222  0.1907  0.5333
 5822SOL    HW128928   3.503   0.308  16.103 -0.9995  1.6097  0.3619
 5822SOL    HW228929   3.546   0.329  15.964 -0.8809  0.8352  0.6092
 5823SOL     OW28930   4.297   4.607   5.003 -0.3680  0.0118 -0.0743
 5823SOL    HW128931   4.225   4.648   5.053  1.1862  2.7752 -0.0908
 5823SOL    HW228932   4.282   4.513   4.999 -0.7673  0.1957 -2.6002
 5824SOL     OW28933   3.054   2.684  13.819 -0.3151 -0.0526 -0.0144
 5824SOL    HW128934   2.960   2.669  13.826 -0.7390  1.4208 -2.4582
 5824SOL    HW228935   3.058   2.734  13.737  2.2297 -1.4750 -0.7738
 5825SOL     OW28936   0.510   0.612   7.963  0.0015  0.0137  0.1025
 5825SOL    HW128937   0.477   0.685   8.014  1.3057  0.1002  0.8276
 5825SOL    HW228938   0.586   0.583   8.014  0.8515  1.1736 -0.5081
 5826SOL     OW28939   3.973   0.443   1.535  0.0867  0.3283 -0.2713
 5826SOL    HW128940   3.959   0.530   1.497 -0.1173 -0.0813 -1.1424
 5826SOL    HW228941   4.067   0.438   1.553 -0.2003  0.6449  1.2369
 5827SOL     OW28942   4.429   4.527  13.912  0.6772 -0.2847 -0.4872
 5827SOL    HW128943   4.387   4.572  13.985  1.8118 -0.2880  0.1537
 5827SOL    HW228944   4.473   4.460  13.964  0.6690  1.8498  2.2200
 5828SOL     OW28945   3.063   3.073   0.340  0.4847  0.4035 -0.1104
 5828SOL    HW128946   3.079   3.123   0.260  1.0173 -1.3484 -1.0978
 5828SOL    HW228947   3.139   3.103   0.391  0.6607 -0.0254 -0.1222
 5829SOL     OW28948   3.858   3.495  11.071 -0.3006  0.2660 -0.1360
 5829SOL    HW128949   3.828   3.429  11.007  0.3229  0.5339 -0.7036
 5829SOL    HW228950   3.771   3.508  11.109 -0.0411  0.5038  0.3573
 5830SOL     OW28951   2.516   4.134   6.559  0.3233  0.6319  0.1172
 5830SOL    HW128952   2.454   4.094   6.498  0.5579  2.0957 -1.0952
 5830SOL    HW228953   2.584   4.067   6.564 -0.6716 -0.3518  0.4721
 5831SOL     OW28954   0.144   1.687  15.487 -0.3760  0.4303 -0.1217
 5831SOL    HW128955   0.099   1.659  15.407 -1.6177 -0.0736  0.7731
 5831SOL    HW228956   0.192   1.608  15.509 -1.4430  0.1464  1.1376
 5832SOL     OW28957   3.335   3.897   8.874  0.3203 -0.2094 -0.3122
 5832SOL    HW128958   3.424   3.913   8.905  0.1203  0.1755  0.0772
 5832SOL    HW228959   3.304   3.859   8.956  1.5960  2.0795  1.2407
 5833SOL     OW28960   2.557   3.270   8.435 -0.3042  0.0298 -0.1609
 5833SOL    HW128961   2.507   3.285   8.355 -1.1213  0.4154  0.4293
 5833SOL    HW228962   2.601   3.186   8.423 -0.5416 -0.0143 -0.7605
 5834SOL     OW28963   1.390   0.341  11.036 -0.0596 -0.2757  0.0601
 5834SOL    HW128964   1.408   0.375  11.123  0.4556 -1.6380  0.4851
 5834SOL    HW228965   1.382   0.249  11.062 -2.0409  0.0783  0.6807
 5835SOL     OW28966   1.743   1.264   8.465 -0.1373  0.2262  0.1133
 5835SOL    HW128967   1.764   1.336   8.524  2.9696 -0.7513  0.1937
 5835SOL    HW228968   1.691   1.202   8.516 -1.5222  0.0935 -1.4251
 5836SOL     OW28969   1.727   3.767  17.146 -0.2439 -0.5148 -0.1420
 5836SOL    HW128970   1.673   3.701  17.102  1.8892  0.0192 -3.5137
 5836SOL    HW228971   1.801   3.777  17.087 -0.1650  0.1697  0.0679
 5837SOL     OW28972   0.034   4.654   5.111  0.6909 -0.1483 -0.0247
 5837SOL    HW128973   4.720   4.653   5.023  2.0915 -1.1918 -0.6324
 5837SOL    HW228974   4.703   4.713   5.163 -1.9436 -1.3009 -1.5377
 5838SOL     OW28975   0.632   4.567  14.348  0.4858  0.3850 -0.3180
 5838SOL    HW128976   0.684   4.507  14.294 -1.6221 -1.4609 -0.2997
 5838SOL    HW228977   0.580   4.498  14.389  1.0572  0.0846 -0.0891
 5839SOL     OW28978   4.299   2.426   2.212 -0.3353 -0.1412  0.3535
 5839SOL    HW128979   4.267   2.394   2.296 -0.3490 -1.9812 -0.3443
 5839SOL    HW228980   4.218   2.411   2.163 -1.3788 -1.7318  2.5989
 5840SOL     OW28981   3.545   3.946  13.882 -0.4363 -0.2061 -0.0853
 5840SOL    HW128982   3.459   3.980  13.858 -2.0002 -1.8127  3.2703
 5840SOL    HW228983   3.535   3.851  13.877  1.5427 -0.3809 -0.5824
 5841SOL     OW28984   3.497   4.323   3.492 -0.7893  0.1702  0.1178
 5841SOL    HW128985   3.472   4.349   3.403  0.3335  0.3476 -0.1404
 5841SOL    HW228986   3.467   4.403   3.536  0.6402  0.1396  1.1502
 5842SOL     OW28987   2.442   1.487   3.401 -0.1557 -0.1074  0.0945
 5842SOL    HW128988   2.406   1.573   3.423 -0.0017 -0.0790  0.2368
 5842SOL    HW228989   2.495   1.467   3.479 -1.4296 -0.7618  0.7888
 5843SOL     OW28990   2.682   2.420   6.133 -0.0671  0.2590  0.1766
 5843SOL    HW128991   2.743   2.347   6.123 -2.5801 -1.9099  0.7108
 5843SOL    HW228992   2.740   2.494   6.117  0.2301 -0.3864 -1.7531
 5844SOL     OW28993   4.517   3.305   0.592  0.0029  0.1316 -0.9734
 5844SOL    HW128994   4.538   3.398   0.601  0.2487 -0.1641  1.5522
 5844SOL    HW228995   4.435   3.302   0.544 -0.7064 -0.7739  0.2995
 5845SOL     OW28996   3.812   3.685   4.688  0.3112  0.3440  0.1048
 5845SOL    HW128997   3.790   3.608   4.740  0.0143 -0.1432 -0.7412
 5845SOL    HW228998   3.732   3.682   4.635  0.9256  1.8598 -0.9166
 5846SOL     OW28999   1.843   3.769  17.536  0.2438  0.2241  0.2165
 5846SOL    HW129000   1.874   3.840  17.480  2.7640 -2.6891 -2.1192
 5846SOL    HW229001   1.912   3.787  17.599 -0.2914 -0.0095  0.8695
 5847SOL     OW29002   3.562   1.110   8.554 -0.5910 -0.0005  0.6722
 5847SOL    HW129003   3.539   1.068   8.637  0.1090 -1.2381  0.2288
 5847SOL    HW229004   3.590   1.195   8.587 -0.0952  0.1225 -0.0660
 5848SOL     OW29005   0.412   2.001   2.581 -0.7027  0.0570 -0.0439
 5848SOL    HW129006   0.490   1.970   2.535  0.1461 -0.4158  1.7030
 5848SOL    HW229007   0.347   1.940   2.546  0.3597  0.0114 -1.9567
 5849SOL     OW29008   2.267   2.231  12.850 -0.6622  0.1985 -0.0938
 5849SOL    HW129009   2.227   2.316  12.831 -1.5492 -0.0800  0.5042
 5849SOL    HW229010   2.194   2.171  12.835 -1.4398  1.2982 -0.6896
 5850SOL     OW29011   3.967   4.318  17.182  0.1738 -0.1548 -0.1678
 5850SOL    HW129012   4.056   4.307  17.149 -0.0536  1.8722 -1.4957
 5850SOL    HW229013   3.995   4.344  17.270 -3.2507  1.1852  0.5047
 5851SOL     OW29014   0.183   2.680  10.775 -0.3620  0.1435 -0.0202
 5851SOL    HW129015   0.238   2.724  10.839 -0.2708 -0.6963  0.4756
 5851SOL    HW229016   0.154   2.601  10.821  0.5945 -1.4893 -2.2405
 5852SOL     OW29017   1.829   0.454   9.893  0.6564  0.0014 -0.2073
 5852SOL    HW129018   1.779   0.498   9.824 -1.0330 -0.7337  0.5616
 5852SOL    HW229019   1.897   0.410   9.841  0.7631 -2.0650  1.7037
 5853SOL     OW29020   1.276   2.246   2.409 -0.6235 -0.0462 -0.2816
 5853SOL    HW129021   1.199   2.257   2.464 -0.4572  1.0734 -0.2775
 5853SOL    HW229022   1.241   2.250   2.320 -1.0878 -0.0857 -0.0965
 5854SOL     OW29023   0.068   3.428   8.957  0.1289  0.0589  0.2450
 5854SOL    HW129024   4.700   3.411   8.938  0.1173  0.3283  0.0669
 5854SOL    HW229025   0.067   3.524   8.953  2.5323 -0.0137 -1.6712
 5855SOL     OW29026   1.824   2.153   4.837 -0.0279  0.4725 -0.5605
 5855SOL    HW129027   1.777   2.170   4.756  1.0625  2.1892 -0.8460
 5855SOL    HW229028   1.884   2.228   4.832  0.2425  0.5242  3.0607
 5856SOL     OW29029   1.530   2.979   7.603 -0.0988 -0.0922  0.6286
 5856SOL    HW129030   1.513   2.935   7.520  1.6249  2.8188 -1.2750
 5856SOL    HW229031   1.586   3.057   7.597  0.1415 -0.4039 -1.3740
 5857SOL     OW29032   1.501   3.329  11.061 -0.5964 -0.1118  0.2544
 5857SOL    HW129033   1.435   3.384  11.105  0.0411 -1.3943  2.8353
 5857SOL    HW229034   1.553   3.299  11.136  1.0562  0.7678 -0.5466
 5858SOL     OW29035   3.146   1.032   8.698 -0.1700  0.2133 -0.1395
 5858SOL    HW129036   3.135   1.126   8.683 -0.8198 -0.0401 -1.1998
 5858SOL    HW229037   3.114   1.026   8.788  0.9159  0.0175  0.2403
 5859SOL     OW29038   0.974   1.718   2.287 -0.0866  0.0675 -0.7524
 5859SOL    HW129039   0.974   1.787   2.353 -2.0002 -0.2128 -0.4695
 5859SOL    HW229040   1.035   1.756   2.224  1.1361 -0.7905 -0.0818
 5860SOL     OW29041   0.304   2.345  13.794  0.6437 -0.2108  0.2245
 5860SOL    HW129042   0.323   2.355  13.887 -0.9266 -0.6712  0.6086
 5860SOL    HW229043   0.247   2.422  13.782 -1.1663 -1.3691  1.2460
 5861SOL     OW29044   2.849   3.977  11.964  0.0642 -0.1954 -0.4118
 5861SOL    HW129045   2.885   3.993  12.052 -1.9152 -0.4368  0.4411
 5861SOL    HW229046   2.757   3.990  11.987 -0.1167 -1.5687 -0.3809
 5862SOL     OW29047   1.363   2.821   1.780  0.0309  0.0911  0.4647
 5862SOL    HW129048   1.456   2.806   1.763 -0.4550  0.2890 -2.4345
 5862SOL    HW229049   1.331   2.735   1.753  0.2205  0.0891  0.2431
 5863SOL     OW29050   2.159   3.157  11.167  0.6003  0.3973  0.3771
 5863SOL    HW129051   2.157   3.251  11.149  2.2565  0.4645  0.5039
 5863SOL    HW229052   2.247   3.131  11.139  0.4468 -0.4952  0.7291
 5864SOL     OW29053   3.429   0.696  11.918  0.1564 -0.0758 -0.5551
 5864SOL    HW129054   3.416   0.621  11.976 -0.4016  1.1671  0.9463
 5864SOL    HW229055   3.359   0.755  11.947  0.3532 -0.3278  0.4400
 5865SOL     OW29056   0.990   0.147  12.297 -0.8048  0.5923  0.2155
 5865SOL    HW129057   0.944   0.065  12.279 -0.6093 -0.0777  2.7027
 5865SOL    HW229058   1.064   0.105  12.341  0.0891  0.6241 -1.2579
 5866SOL     OW29059   3.409   3.787   4.404 -0.4381 -0.9319 -0.0360
 5866SOL    HW129060   3.427   3.776   4.311 -3.6560  0.4027 -0.8053
 5866SOL    HW229061   3.315   3.805   4.408 -0.5367 -1.3642 -0.4727
 5867SOL     OW29062   1.027   1.222   2.850  0.7514 -0.0317  0.6975
 5867SOL    HW129063   0.993   1.245   2.764 -2.0455  0.6522  1.9876
 5867SOL    HW229064   1.079   1.301   2.865 -0.3241  0.6965  0.5978
 5868SOL     OW29065   1.629   0.281   4.764  0.1175 -0.2190 -0.4009
 5868SOL    HW129066   1.636   0.346   4.694 -2.7719  1.9379  1.3276
 5868SOL    HW229067   1.718   0.245   4.765 -0.7262 -2.3077  0.2377
 5869SOL     OW29068   0.604   1.103   4.168  0.6175 -0.3812 -0.3604
 5869SOL    HW129069   0.645   1.026   4.128  0.1019  0.9627 -3.4179
 5869SOL    HW229070   0.551   1.061   4.237 -1.2399  2.9516  0.2400
 5870SOL     OW29071   2.725   0.699   0.959  0.2723  0.0358  0.2570
 5870SOL    HW129072   2.820   0.687   0.953  0.2713 -0.2983  0.9333
 5870SOL    HW229073   2.719   0.772   0.897 -0.7664  0.8766  1.3524
 5871SOL     OW29074   1.657   2.551   6.450 -0.3754 -0.0469  0.1594
 5871SOL    HW129075   1.743   2.585   6.476  0.0840  0.4711 -2.0760
 5871SOL    HW229076   1.599   2.606   6.503  0.9803  1.4589  0.0745
 5872SOL     OW29077   1.232   0.895  15.458 -0.0765  0.7988 -0.6263
 5872SOL    HW129078   1.277   0.853  15.385  0.8649 -1.2132  1.1098
 5872SOL    HW229079   1.304   0.928  15.511  0.6881 -0.4168 -0.9113
 5873SOL     OW29080   2.768   4.592   6.265  0.1977  0.3563 -0.6469
 5873SOL    HW129081   2.805   4.516   6.309  1.5999  0.0355 -2.3903
 5873SOL    HW229082   2.767   4.641   6.348 -0.1483  0.5046 -0.7379
 5874SOL     OW29083   2.637   4.565   5.507 -0.2659 -0.2836  0.6806
 5874SOL    HW129084   2.616   4.651   5.543 -0.2522  1.2194 -2.8651
 5874SOL    HW229085   2.721   4.589   5.468 -0.3275  2.2685  2.1647
 5875SOL     OW29086   4.446   1.487   5.596  0.3673 -0.3015 -0.4120
 5875SOL    HW129087   4.367   1.433   5.597 -0.8765  1.6250  2.8790
 5875SOL    HW229088   4.503   1.432   5.542  1.5092 -0.8856  1.4012
 5876SOL     OW29089   3.300   1.076   4.691 -0.0580  0.4746  0.1616
 5876SOL    HW129090   3.299   1.150   4.752  1.6200  1.4856 -1.0280
 5876SOL    HW229091   3.375   1.026   4.723  0.2555  0.6870 -0.2273
 5877SOL     OW29092   3.985   2.246   5.463  0.3642 -0.4879 -0.1880
 5877SOL    HW129093   3.901   2.291   5.476  1.8079  2.1432  0.0049
 5877SOL    HW229094   3.968   2.187   5.390  1.0477  0.4527 -1.1147
 5878SOL     OW29095   2.292   0.200   2.404 -0.4583 -0.4990  0.3204
 5878SOL    HW129096   2.268   0.249   2.326  2.4985  0.6614  0.1717
 5878SOL    HW229097   2.207   0.162   2.428 -0.3858 -0.0759  1.2438
 5879SOL     OW29098   3.740   0.008   4.405 -0.1693  0.4637  0.2379
 5879SOL    HW129099   3.653   4.703   4.377 -0.3883  1.2273  0.1281
 5879SOL    HW229100   3.749   0.089   4.355  0.2067  0.4229  0.2394
 5880SOL     OW29101   1.738   0.332   7.602 -0.1651  0.8076  0.2277
 5880SOL    HW129102   1.695   0.262   7.552 -0.7718  0.2949  1.4793
 5880SOL    HW229103   1.804   0.283   7.650  1.3722  0.8983 -1.7989
 5881SOL     OW29104   3.499   4.406   6.510  1.0924 -0.0872 -0.2287
 5881SOL    HW129105   3.590   4.390   6.533  1.2668  0.7956 -0.3412
 5881SOL    HW229106   3.507   4.397   6.415  0.2110 -0.5236 -0.2689
 5882SOL     OW29107   2.195   2.667   7.759  0.8130  0.1032 -0.2139
 5882SOL    HW129108   2.143   2.587   7.769  0.2075  0.1904 -2.7146
 5882SOL    HW229109   2.203   2.693   7.851 -0.5579 -1.5095  0.3654
 5883SOL     OW29110   0.049   2.949   2.485 -0.6881  0.0481 -0.1749
 5883SOL    HW129111   0.092   2.998   2.416  0.9142 -1.5451 -0.2834
 5883SOL    HW229112   0.005   3.029   2.517 -0.3586  1.4984 -3.4091
 5884SOL     OW29113   3.496   2.062   6.951  0.2103 -0.5066  0.1372
 5884SOL    HW129114   3.436   2.114   7.005  3.0589  1.6088  1.2549
 5884SOL    HW229115   3.537   2.013   7.021 -0.4220 -0.7945  0.3057
 5885SOL     OW29116   1.993   1.637   8.693  0.0958 -0.1295  0.1536
 5885SOL    HW129117   1.920   1.627   8.632 -1.3921  2.1614  1.5685
 5885SOL    HW229118   2.059   1.658   8.627 -1.0056  2.8380  0.0156
 5886SOL     OW29119   0.806   2.289   3.288 -0.3614  0.5217 -0.0081
 5886SOL    HW129120   0.776   2.201   3.265  0.3442  0.1160  0.6362
 5886SOL    HW229121   0.770   2.290   3.377  0.5240 -0.0143  0.3501
 5887SOL     OW29122   3.225   1.627   8.908  0.3649  0.4851 -1.1685
 5887SOL    HW129123   3.210   1.709   8.956  0.7273 -0.9080  1.3178
 5887SOL    HW229124   3.321   1.626   8.908  0.3690  0.6328  1.5969
 5888SOL     OW29125   0.385   3.808   5.729 -0.0524 -0.0339  0.2687
 5888SOL    HW129126   0.463   3.780   5.680  0.2150  2.1250 -0.5357
 5888SOL    HW229127   0.312   3.800   5.668 -0.0637  0.5995  0.1920
 5889SOL     OW29128   3.174   2.538   2.326 -0.0130  0.0286  0.0344
 5889SOL    HW129129   3.139   2.533   2.415  0.4711 -3.3078  0.0223
 5889SOL    HW229130   3.263   2.506   2.336  0.0053 -0.2798 -1.1196
 5890SOL     OW29131   2.637   4.178   4.224  0.6076  0.7075 -0.4813
 5890SOL    HW129132   2.602   4.266   4.205 -0.1759  0.3986 -0.4830
 5890SOL    HW229133   2.731   4.186   4.206  0.9362 -0.6532  0.6910
 5891SOL     OW29134   2.756   1.370  13.010 -0.3828  0.0823 -0.1960
 5891SOL    HW129135   2.684   1.338  13.066 -0.3154  1.2580  0.5603
 5891SOL    HW229136   2.818   1.297  13.007 -0.9324 -0.5369  2.5299
 5892SOL     OW29137   1.180   3.108  10.865  0.0198 -0.6084 -0.1218
 5892SOL    HW129138   1.100   3.055  10.866 -0.0615 -0.5037 -1.0697
 5892SOL    HW229139   1.210   3.085  10.953  0.2026 -0.9051 -0.2609
 5893SOL     OW29140   1.072   1.062   8.319 -0.0192  0.2554  0.1395
 5893SOL    HW129141   1.021   1.119   8.261 -2.7825 -1.9291  0.3860
 5893SOL    HW229142   0.997   1.011   8.350 -0.7662  0.9326 -0.5465
 5894SOL     OW29143   1.152   3.634   9.294  0.0600 -0.5533  0.1326
 5894SOL    HW129144   1.094   3.564   9.324  1.4653 -0.6224  2.6912
 5894SOL    HW229145   1.119   3.667   9.210 -0.4729  0.0032  0.5623
 5895SOL     OW29146   3.288   0.566   4.419 -0.0782 -0.0344 -0.1259
 5895SOL    HW129147   3.201   0.548   4.454 -0.0071  0.0805  0.1113
 5895SOL    HW229148   3.300   0.646   4.470  3.1580 -0.1694 -0.6615
 5896SOL     OW29149   2.490   2.977   7.272  0.2715 -0.2594 -0.1439
 5896SOL    HW129150   2.510   3.068   7.294 -0.7229  0.3907 -1.9679
 5896SOL    HW229151   2.544   2.984   7.193  2.1456  0.5196  1.2022
 5897SOL     OW29152   1.863   1.785   8.261  0.0023  0.4647 -0.1512
 5897SOL    HW129153   1.804   1.837   8.206  0.8476  2.1275  0.5297
 5897SOL    HW229154   1.921   1.758   8.190 -0.0986 -0.0521 -0.0432
 5898SOL     OW29155   0.972   3.243   2.842 -0.1891 -0.1253  0.4546
 5898SOL    HW129156   1.044   3.303   2.826  1.9984 -2.4967  1.5252
 5898SOL    HW229157   0.972   3.187   2.765  1.5143 -0.9464  1.0647
 5899SOL     OW29158   0.383   3.506   2.210 -0.5153 -0.1774  0.1920
 5899SOL    HW129159   0.448   3.571   2.182 -2.4827  1.6561 -0.1892
 5899SOL    HW229160   0.319   3.525   2.141 -1.3968 -0.4019  0.9484
 5900SOL     OW29161   3.977   3.348   7.882 -0.1031  0.0962 -0.7761
 5900SOL    HW129162   3.965   3.316   7.972  1.3127  2.0113  0.1173
 5900SOL    HW229163   3.949   3.280   7.821  2.2696 -0.3127 -1.3993
 5901SOL     OW29164   3.751   0.450  16.907  0.5560 -0.0941 -0.9072
 5901SOL    HW129165   3.782   0.485  16.991 -0.5200 -2.0149  0.3050
 5901SOL    HW229166   3.717   0.525  16.858 -0.6257 -0.5688 -0.8242
 5902SOL     OW29167   0.044   2.582  16.557 -0.1304 -0.1389  0.2518
 5902SOL    HW129168   4.680   2.551  16.538 -0.7925  2.0317 -0.1169
 5902SOL    HW229169   0.085   2.601  16.472  1.4751 -0.4748  0.9649
 5903SOL     OW29170   2.768   2.317   4.771 -0.0657  0.5406 -0.3578
 5903SOL    HW129171   2.728   2.325   4.684 -0.9794  1.1480  0.1124
 5903SOL    HW229172   2.708   2.360   4.832  1.2280  1.3607  0.3481
 5904SOL     OW29173   0.999   2.245  15.686 -0.4286  0.0643  0.2177
 5904SOL    HW129174   0.984   2.226  15.594 -0.5526  0.5386  0.1409
 5904SOL    HW229175   0.948   2.172  15.722 -1.6117  0.4615 -0.6581
 5905SOL     OW29176   3.077   2.665   3.329 -0.0365  0.2718  0.5433
 5905SOL    HW129177   3.053   2.624   3.412  0.1249  4.3882  2.6384
 5905SOL    HW229178   3.052   2.754   3.355 -1.2956 -0.2292  1.0360
 5906SOL     OW29179   4.229   3.955  17.470  0.1305  1.1169  0.4854
 5906SOL    HW129180   4.189   3.983  17.387 -1.2834  0.6345  1.0134
 5906SOL    HW229181   4.163   3.893  17.503 -0.1332  0.5753 -1.0277
 5907SOL     OW29182   2.429   1.318   4.194 -0.3740 -0.1973 -0.1572
 5907SOL    HW129183   2.409   1.293   4.104  1.5318  1.9954 -1.1801
 5907SOL    HW229184   2.389   1.253   4.251  0.5736 -0.3998  0.2688
 5908SOL     OW29185   1.066   2.199   5.702  0.1085 -0.2672  0.3358
 5908SOL    HW129186   1.160   2.209   5.719 -0.1388  0.1764  1.5022
 5908SOL    HW229187   1.031   2.281   5.739 -0.3836 -0.9427  1.3628
 5909SOL     OW29188   1.842   0.867   7.353  0.1879  0.0937  0.3704
 5909SOL    HW129189   1.805   0.831   7.433  0.8954 -0.7703  0.3029
 5909SOL    HW229190   1.763   0.894   7.305  0.4697 -0.6362 -0.5083
 5910SOL     OW29191   3.002   0.200   3.579 -0.6156  0.1643  0.3081
 5910SOL    HW129192   3.057   0.173   3.653  0.1073  1.3907  0.2141
 5910SOL    HW229193   2.945   0.124   3.589 -1.0187  0.2826 -1.0764
 5911SOL     OW29194   1.472   1.914  13.139 -0.2058 -0.6212 -0.2273
 5911SOL    HW129195   1.523   1.993  13.121 -2.3918  1.4463  2.6996
 5911SOL    HW229196   1.516   1.838  13.100  1.9383 -0.4823  1.9013
 5912SOL     OW29197   1.161   1.763   4.692 -0.4876 -0.2931  0.2075
 5912SOL    HW129198   1.158   1.785   4.785  0.1180 -0.5812  0.2966
 5912SOL    HW229199   1.077   1.796   4.661 -0.4599 -1.7562 -1.4161
 5913SOL     OW29200   4.121   2.893   0.675 -0.3224  0.2740  0.3356
 5913SOL    HW129201   4.081   2.880   0.761 -1.6054  2.4915  0.0560
 5913SOL    HW229202   4.056   2.952   0.638  1.4988  1.1771 -1.3687
 5914SOL     OW29203   2.837   0.229  16.221  0.0216 -0.3194  0.0066
 5914SOL    HW129204   2.794   0.314  16.217  3.7839  1.4974 -1.6880
 5914SOL    HW229205   2.803   0.195  16.304 -1.5888 -0.3779 -0.6919
 5915SOL     OW29206   0.061   2.896  16.269  0.4990 -0.3204 -0.7170
 5915SOL    HW129207   4.714   2.916  16.330 -0.7352 -2.2856 -1.5229
 5915SOL    HW229208   0.117   2.850  16.332 -0.0189  1.1943  0.8504
 5916SOL     OW29209   2.955   1.950  17.463 -0.4277 -0.2838  0.8086
 5916SOL    HW129210   3.041   1.921  17.493 -1.0190 -2.9626 -0.1133
 5916SOL    HW229211   2.964   1.934  17.369 -1.6424  2.9728  0.1220
 5917SOL     OW29212   0.705   2.211  10.571 -0.2122  0.0500 -0.1717
 5917SOL    HW129213   0.759   2.185  10.645  1.3173 -1.3127 -1.7473
 5917SOL    HW229214   0.759   2.276  10.526 -0.2918  1.7673  2.2194
 5918SOL     OW29215   1.076   3.922   0.522 -0.3887 -0.1899 -0.3586
 5918SOL    HW129216   1.120   4.002   0.493  2.1555 -1.1550  0.7630
 5918SOL    HW229217   1.050   3.943   0.612 -0.0142 -0.0227 -0.2895
 5919SOL     OW29218   3.399   0.566   3.592  0.5266  0.5234  0.1118
 5919SOL    HW129219   3.460   0.507   3.548  0.1430  1.0488 -1.1238
 5919SOL    HW229220   3.319   0.514   3.584 -1.3600  2.7831  4.2646
 5920SOL     OW29221   1.866   0.306   4.038 -0.0598 -0.3214 -0.3132
 5920SOL    HW129222   1.892   0.359   4.114 -0.5027  1.7254 -1.5778
 5920SOL    HW229223   1.937   0.242   4.043 -0.3699 -0.7473 -1.4692
 5921SOL     OW29224   1.069   1.264  13.317 -0.3455 -0.4441  0.2138
 5921SOL    HW129225   1.132   1.199  13.285  0.5230  0.5913 -0.1865
 5921SOL    HW229226   1.031   1.222  13.394 -0.8166  0.7989  0.6565
 5922SOL     OW29227   2.584   2.332  13.092  0.2384  0.7753  0.0335
 5922SOL    HW129228   2.642   2.317  13.018 -0.7240  0.3581 -0.6437
 5922SOL    HW229229   2.529   2.255  13.076 -0.9790  1.0460  2.8857
 5923SOL     OW29230   1.858   3.458   5.411 -0.4368  0.4686 -0.0470
 5923SOL    HW129231   1.933   3.446   5.469  0.2183  1.6053 -0.6678
 5923SOL    HW229232   1.833   3.365   5.414 -1.7848  0.7942 -0.9591
 5924SOL     OW29233   1.144   4.383   4.748 -0.1136 -0.6505 -0.6161
 5924SOL    HW129234   1.186   4.352   4.667 -2.0113  0.6243 -2.0651
 5924SOL    HW229235   1.187   4.468   4.751  0.8605 -1.1413 -0.6109
 5925SOL     OW29236   0.387   3.419  14.484 -0.5709  0.0714 -0.2797
 5925SOL    HW129237   0.396   3.512  14.463 -1.2256 -0.0358 -1.0454
 5925SOL    HW229238   0.479   3.405  14.460 -0.2308  2.0085 -0.0806
 5926SOL     OW29239   0.736   1.693   0.910 -0.0003  0.1452  0.4284
 5926SOL    HW129240   0.809   1.754   0.900  0.4656 -0.6968 -1.1992
 5926SOL    HW229241   0.748   1.644   0.830 -2.2511 -0.6017  0.5321
 5927SOL     OW29242   0.594   3.969   8.605  0.0888 -0.3315 -0.1594
 5927SOL    HW129243   0.579   3.899   8.668  2.7210  1.1610  2.1160
 5927SOL    HW229244   0.683   3.992   8.630  0.7231 -2.0749 -0.7827
 5928SOL     OW29245   2.069   2.040  11.920 -0.0549 -0.3550 -0.3075
 5928SOL    HW129246   2.138   2.107  11.922 -0.6821  0.1415  4.2465
 5928SOL    HW229247   2.108   1.959  11.888  3.0068  1.3268 -0.9425
 5929SOL     OW29248   1.080   1.420  12.989  0.2368  0.2971  0.2257
 5929SOL    HW129249   1.047   1.493  12.937  0.1029 -1.2279 -1.8833
 5929SOL    HW229250   0.997   1.385  13.022  0.5337 -0.8503 -0.2281
 5930SOL     OW29251   1.517   4.622   0.824  0.1262  0.5093  0.2050
 5930SOL    HW129252   1.540   4.557   0.890 -1.5955  1.9745  2.2565
 5930SOL    HW229253   1.587   4.602   0.763 -0.4486 -1.1150  0.0990
 5931SOL     OW29254   0.627   4.674   6.674  0.0159 -0.2058 -0.6453
 5931SOL    HW129255   0.673   4.694   6.593  1.2942 -4.2373 -0.9366
 5931SOL    HW229256   0.628   0.034   6.719 -1.1542 -0.7697  0.4471
 5932SOL     OW29257   1.278   4.080   2.849  0.3003 -0.9916 -0.4719
 5932SOL    HW129258   1.235   4.037   2.774 -0.8715 -1.7790  0.6560
 5932SOL    HW229259   1.206   4.129   2.889  1.5471  0.4117  0.0648
 5933SOL     OW29260   4.010   0.345   6.603 -0.0635 -0.5454 -0.0790
 5933SOL    HW129261   4.002   0.436   6.632 -0.8047 -0.5045 -0.4169
 5933SOL    HW229262   3.941   0.336   6.538 -0.2024 -0.6835  0.0895
 5934SOL     OW29263   3.637   3.884  10.075 -0.4662 -0.0037 -0.0416
 5934SOL    HW129264   3.586   3.805  10.055 -0.5430  0.3574 -1.2588
 5934SOL    HW229265   3.599   3.894  10.163  0.6487 -0.5750  0.5112
 5935SOL     OW29266   4.712   0.700  13.860  0.0000 -0.7198  0.0960
 5935SOL    HW129267   4.654   0.665  13.928  2.0837 -1.2128  1.6166
 5935SOL    HW229268   0.076   0.697  13.896  0.6494  1.3221 -1.3363
 5936SOL     OW29269   2.253   1.760   1.468  0.3812  0.0547  0.0497
 5936SOL    HW129270   2.186   1.732   1.406 -0.7118  1.2420  0.6884
 5936SOL    HW229271   2.296   1.828   1.417  0.7030  0.8952  1.4497
 5937SOL     OW29272   0.299   3.463   3.663 -0.6102 -0.0656 -0.6134
 5937SOL    HW129273   0.259   3.535   3.712 -1.1922  0.6381 -2.1201
 5937SOL    HW229274   0.393   3.458   3.680 -0.3142  1.4663 -1.7285
 5938SOL     OW29275   3.194   0.349   0.466 -0.2962 -0.1138 -0.4039
 5938SOL    HW129276   3.289   0.344   0.457  0.0119  2.9820  1.1413
 5938SOL    HW229277   3.183   0.393   0.551  2.3330 -0.9661  0.3657
 5939SOL     OW29278   4.081   4.645   3.558  0.1668 -0.1919 -0.1135
 5939SOL    HW129279   4.150   4.589   3.593 -0.7139 -0.4785  1.1853
 5939SOL    HW229280   4.129   4.722   3.528  0.7110 -0.1427  0.8900
 5940SOL     OW29281   4.052   2.013   2.150 -0.2605 -0.1907  0.5227
 5940SOL    HW129282   4.022   2.062   2.074  1.1725  0.6765  0.5287
 5940SOL    HW229283   4.146   2.016   2.133  0.0213  2.2661  2.4302
 5941SOL     OW29284   2.572   2.087   1.876 -0.4032  0.2682  0.2219
 5941SOL    HW129285   2.484   2.113   1.904 -0.8951  0.6401 -1.6982
 5941SOL    HW229286   2.612   2.171   1.854 -0.4202  0.4024  0.6924
 5942SOL     OW29287   1.836   1.420  14.961  0.1491 -0.6886 -0.4094
 5942SOL    HW129288   1.854   1.422  14.867  0.1695 -1.3633 -0.4166
 5942SOL    HW229289   1.781   1.343  14.971 -0.6959  0.0805  0.9703
 5943SOL     OW29290   1.223   3.075  17.278  0.3804  0.0194 -0.0488
 5943SOL    HW129291   1.276   3.153  17.260 -0.0659 -0.2129 -2.3173
 5943SOL    HW229292   1.295   3.013  17.265 -0.2174 -1.1199  2.1338
 5944SOL     OW29293   3.546   0.193  15.598 -0.0837  0.0185 -0.7215
 5944SOL    HW129294   3.609   0.171  15.529 -1.3087 -1.7940 -1.2581
 5944SOL    HW229295   3.474   0.135  15.571 -2.1122  1.7377  0.9993
 5945SOL     OW29296   1.928   0.405   2.344  0.6174  0.1949  0.9523
 5945SOL    HW129297   1.921   0.489   2.390 -0.9374  0.5694  0.0174
 5945SOL    HW229298   2.018   0.418   2.314  0.2841  0.6689  0.1544
 5946SOL     OW29299   0.737   1.653   9.764  0.0234  0.1510 -0.0700
 5946SOL    HW129300   0.729   1.573   9.713  0.5369 -0.3700  0.6581
 5946SOL    HW229301   0.750   1.627   9.856  0.1876  0.2616 -0.0620
 5947SOL     OW29302   1.856   2.821  15.730  0.6643 -0.5579 -0.5084
 5947SOL    HW129303   1.867   2.742  15.677 -1.6998 -0.7570 -0.7231
 5947SOL    HW229304   1.851   2.781  15.817 -2.5842  2.5922  0.7547
 5948SOL     OW29305   3.180   2.046   1.646  0.3806 -0.3473  0.5734
 5948SOL    HW129306   3.117   2.000   1.702  0.9371  0.2059  1.6433
 5948SOL    HW229307   3.258   1.997   1.669  0.5263  1.2417  3.4648
 5949SOL     OW29308   4.189   0.384   7.629 -0.2354 -0.0277 -0.3487
 5949SOL    HW129309   4.269   0.341   7.600  1.0256  1.0159  1.6032
 5949SOL    HW229310   4.221   0.445   7.695  3.2172 -0.6909 -1.3989
 5950SOL     OW29311   2.812   0.486   5.483 -0.0831  0.3448  0.0343
 5950SOL    HW129312   2.809   0.390   5.482 -1.3379  0.3953 -0.9389
 5950SOL    HW229313   2.735   0.502   5.537  0.8785  1.2407  1.1391
 5951SOL     OW29314   2.522   3.562   2.100 -0.0929  0.2666 -0.0730
 5951SOL    HW129315   2.576   3.483   2.110 -0.6718 -0.0689  0.3726
 5951SOL    HW229316   2.583   3.617   2.051  1.2207 -0.7444  0.4337
 5952SOL     OW29317   2.528   3.968   0.936 -0.2458 -0.0938 -0.6053
 5952SOL    HW129318   2.619   3.937   0.932 -0.1328  0.0357  0.8666
 5952SOL    HW229319   2.495   3.921   0.860  2.1412 -1.3966 -0.8276
 5953SOL     OW29320   0.918   2.891  16.831  0.0272 -0.2922  0.1903
 5953SOL    HW129321   0.853   2.865  16.896  0.5288  3.7928  2.3237
 5953SOL    HW229322   0.864   2.925  16.760 -0.6441 -2.9790 -0.5859
 5954SOL     OW29323   3.311   1.655  10.639 -0.3565  0.0212 -0.8445
 5954SOL    HW129324   3.305   1.717  10.567  0.7073  1.6656  0.4952
 5954SOL    HW229325   3.388   1.611  10.603  1.2432  1.2859  1.0049
 5955SOL     OW29326   0.417   1.721  12.197  0.0548  0.1848  0.1649
 5955SOL    HW129327   0.412   1.815  12.177  1.2114 -0.0456 -1.1500
 5955SOL    HW229328   0.474   1.677  12.135 -1.2106 -2.6539  1.0122
 5956SOL     OW29329   1.618   2.868  12.073  0.7377  0.1658  0.1677
 5956SOL    HW129330   1.533   2.899  12.101  1.5135 -0.1648  2.8496
 5956SOL    HW229331   1.626   2.803  12.143  0.1972  0.6784  0.6980
 5957SOL     OW29332   1.986   4.545   6.754 -0.1013 -0.0575  0.2206
 5957SOL    HW129333   2.071   4.565   6.715 -0.9158  2.4865 -0.2357
 5957SOL    HW229334   2.009   4.476   6.816 -0.7508 -0.4595  0.0122
 5958SOL     OW29335   3.589   0.371   5.691 -0.4067  0.2060  0.5112
 5958SOL    HW129336   3.612   0.453   5.646  2.3201 -1.0101 -0.3191
 5958SOL    HW229337   3.677   0.335   5.693 -0.3955  0.1778 -0.3576
 5959SOL     OW29338   1.295   2.066   4.109 -0.2115 -0.3306  0.4576
 5959SOL    HW129339   1.293   1.977   4.075 -0.1736  0.0109 -0.4387
 5959SOL    HW229340   1.369   2.096   4.057 -2.6700  2.5510 -1.3715
 5960SOL     OW29341   2.741   3.705   4.614  0.0130  0.0058  0.0162
 5960SOL    HW129342   2.777   3.765   4.679  2.3024  0.0693 -1.3125
 5960SOL    HW229343   2.651   3.703   4.648  0.0223 -2.9966 -0.2022
 5961SOL     OW29344   1.513   3.300   9.024  0.0644  0.1872  0.2857
 5961SOL    HW129345   1.551   3.212   9.025 -1.4793 -0.4852  0.3801
 5961SOL    HW229346   1.424   3.270   9.006 -0.0698  0.0740  1.1300
 5962SOL     OW29347   4.072   2.631  13.831  0.2997  0.0858  0.3916
 5962SOL    HW129348   4.019   2.573  13.777  0.4225 -0.6961  1.1148
 5962SOL    HW229349   4.015   2.704  13.856  0.1214  0.4376 -1.0756
 5963SOL     OW29350   1.326   0.934  16.941  0.6769 -0.2724  0.3170
 5963SOL    HW129351   1.335   1.027  16.963 -0.9370 -0.3020  1.1296
 5963SOL    HW229352   1.395   0.929  16.875  0.7130 -0.3941  0.3632
 5964SOL     OW29353   2.879   0.382   3.727  0.0229 -0.5017  0.0209
 5964SOL    HW129354   2.907   0.309   3.671  0.1982 -0.5029  0.1096
 5964SOL    HW229355   2.829   0.436   3.666 -2.2265 -1.3554  1.1232
 5965SOL     OW29356   0.781   3.374   9.039 -0.3720 -0.0839  0.4020
 5965SOL    HW129357   0.821   3.321   8.970 -2.9600  1.3221 -2.1682
 5965SOL    HW229358   0.794   3.311   9.110 -2.2366 -2.0412 -1.0031
 5966SOL     OW29359   4.416   2.868   2.148 -0.3263 -0.0185 -0.7407
 5966SOL    HW129360   4.468   2.948   2.151 -2.6523  1.5432 -1.5556
 5966SOL    HW229361   4.483   2.814   2.106  0.8935  1.1861 -0.3132
 5967SOL     OW29362   2.080   0.934   9.630  0.4948  0.2853  0.2104
 5967SOL    HW129363   2.055   1.025   9.614  1.7391  0.4660 -0.7174
 5967SOL    HW229364   2.161   0.935   9.579  1.0231  0.7766  1.0603
 5968SOL     OW29365   1.265   3.564  17.582 -0.2977 -0.2803  0.2311
 5968SOL    HW129366   1.279   3.529  17.670 -1.0976  0.3661  0.6138
 5968SOL    HW229367   1.211   3.490  17.554  1.4544 -1.1947 -0.7875
 5969SOL     OW29368   4.360   0.368   5.940  0.2116 -0.5912  0.2480
 5969SOL    HW129369   4.342   0.319   6.021 -1.2154  1.1374  0.9799
 5969SOL    HW229370   4.446   0.331   5.918 -0.2062 -2.3791  1.5804
 5970SOL     OW29371   2.013   0.109   4.303 -0.5293 -0.2546  0.1788
 5970SOL    HW129372   1.958   0.159   4.363 -3.1481  0.1347 -2.4988
 5970SOL    HW229373   2.097   0.127   4.345 -0.6846  1.0046 -0.0397
 5971SOL     OW29374   0.140   0.303  14.721 -0.0525 -0.2605  0.3140
 5971SOL    HW129375   0.146   0.238  14.791  0.4786  0.8090  1.2663
 5971SOL    HW229376   0.218   0.356  14.738 -2.2881  2.7331  1.3765
 5972SOL     OW29377   1.334   2.138   6.818 -0.9105  0.3729 -0.1754
 5972SOL    HW129378   1.301   2.226   6.800 -0.1176  0.3667 -1.6947
 5972SOL    HW229379   1.282   2.115   6.895  0.2856  0.2216  0.5890
 5973SOL     OW29380   2.613   1.509   7.407 -0.3499 -0.0454  0.0605
 5973SOL    HW129381   2.533   1.527   7.457  0.7273 -1.4795  2.3195
 5973SOL    HW229382   2.675   1.553   7.465  1.4080 -1.5989 -0.6554
 5974SOL     OW29383   3.462   0.453  16.364  0.3410 -0.4829 -0.2212
 5974SOL    HW129384   3.426   0.440  16.277  0.3744 -1.9642 -0.0160
 5974SOL    HW229385   3.393   0.494  16.416  0.6976  0.4940 -0.5290
 5975SOL     OW29386   4.508   1.602   3.795  0.1287  0.1079  0.0696
 5975SOL    HW129387   4.492   1.610   3.701  2.8391  0.2940 -0.3697
 5975SOL    HW229388   4.601   1.582   3.791 -0.1863 -1.0463 -1.4378
 5976SOL     OW29389   2.403   4.198  14.947  0.1958 -0.6824  0.1549
 5976SOL    HW129390   2.401   4.142  14.869 -0.7761  1.1364 -1.1262
 5976SOL    HW229391   2.350   4.275  14.926 -0.0700 -0.0095  3.3294
 5977SOL     OW29392   0.614   0.261   7.695 -0.5159 -0.0751  0.4194
 5977SOL    HW129393   0.562   0.182   7.708 -2.2112  0.9095 -0.3398
 5977SOL    HW229394   0.665   0.259   7.776 -0.6816 -1.1972  0.4984
 5978SOL     OW29395   4.501   0.457  15.471 -0.5085  0.2132  0.1287
 5978SOL    HW129396   4.455   0.380  15.506  0.8191 -0.1988  0.9677
 5978SOL    HW229397   4.491   0.517  15.545 -0.7196 -2.0671  1.9516
 5979SOL     OW29398   0.776   4.655  13.606 -0.1039  0.2611  0.3186
 5979SOL    HW129399   0.791   4.666  13.699  0.5785 -0.6395  0.3120
 5979SOL    HW229400   0.832   0.001  13.574  0.4662 -0.1737  0.3645
 5980SOL     OW29401   4.040   4.361   1.950 -1.0980  0.1110 -0.1763
 5980SOL    HW129402   4.123   4.336   1.909 -1.4762 -1.8561  0.2451
 5980SOL    HW229403   4.022   4.276   1.991  3.7767 -0.3040  1.0565
 5981SOL     OW29404   0.016   2.456   1.385  0.6438 -0.3671 -0.0048
 5981SOL    HW129405   0.006   2.468   1.480 -1.9761 -1.4493 -0.1362
 5981SOL    HW229406   4.720   2.543   1.351 -0.0364  0.0608  1.4766
 5982SOL     OW29407   4.497   3.754   7.451  0.4575 -0.3161 -0.3195
 5982SOL    HW129408   4.434   3.823   7.430  1.2806 -0.1147 -2.1453
 5982SOL    HW229409   4.563   3.799   7.504 -0.1144 -1.0193  0.9844
 5983SOL     OW29410   0.291   4.692   3.221  0.2742  0.7776  0.3782
 5983SOL    HW129411   0.307   4.598   3.213  0.2281  0.6343  1.9765
 5983SOL    HW229412   0.339   4.713   3.141 -2.3822 -0.9185 -1.6477
 5984SOL     OW29413   0.647   2.209   7.137  0.2257  0.1645  0.1412
 5984SOL    HW129414   0.566   2.249   7.106 -0.0300 -1.7214 -1.6840
 5984SOL    HW229415   0.699   2.289   7.129  0.5211  0.0045  0.4609
 5985SOL     OW29416   3.914   0.354   9.291 -0.3771  0.5372 -0.1905
 5985SOL    HW129417   3.869   0.370   9.374 -0.9069 -2.4804  0.0787
 5985SOL    HW229418   3.916   0.259   9.287  0.6432  0.6224 -1.7880
 5986SOL     OW29419   4.358   3.255   4.562  0.4155  0.2250  0.1057
 5986SOL    HW129420   4.403   3.323   4.511 -0.0597 -0.9066 -1.8433
 5986SOL    HW229421   4.406   3.175   4.540  0.3738  0.8558 -2.3455
 5987SOL     OW29422   1.842   0.093   6.714 -0.2006  0.2550  0.1392
 5987SOL    HW129423   1.748   0.089   6.697  0.1033 -2.1990 -1.0839
 5987SOL    HW229424   1.871   0.001   6.715  2.2634  1.0413  0.8342
 5988SOL     OW29425   0.162   1.348   3.190  0.3121  0.5077 -0.2371
 5988SOL    HW129426   0.198   1.294   3.120 -1.9509  0.5314 -1.4254
 5988SOL    HW229427   0.233   1.412   3.198 -0.9396  2.0200 -1.3504
 5989SOL     OW29428   3.177   4.230   6.666  0.8860  0.4055 -0.5439
 5989SOL    HW129429   3.245   4.168   6.695  0.4235  0.3257  0.3795
 5989SOL    HW229430   3.182   4.292   6.739  1.4315  0.0720 -0.2953
 5990SOL     OW29431   4.016   2.636  17.662 -0.6853  0.4706  0.3942
 5990SOL    HW129432   4.006   2.593   0.047 -1.0112  0.3710  0.3024
 5990SOL    HW229433   4.002   2.567  17.598  0.7133  1.0856 -0.5795
 5991SOL     OW29434   1.294   4.318   5.365  0.4485  0.0579 -0.5885
 5991SOL    HW129435   1.301   4.329   5.270  1.3648 -0.3265 -0.5702
 5991SOL    HW229436   1.319   4.226   5.370 -2.2159 -0.7011 -1.7032
 5992SOL     OW29437   0.786   0.848  12.381 -0.0697 -0.0751 -0.2119
 5992SOL    HW129438   0.827   0.890  12.457 -0.8693  2.5900 -1.2783
 5992SOL    HW229439   0.707   0.900  12.389  0.0052  0.0688 -0.4190
 5993SOL     OW29440   1.997   2.402   4.888  0.2761  0.1389 -0.0909
 5993SOL    HW129441   2.029   2.480   4.932  0.0887  0.2135 -0.0876
 5993SOL    HW229442   2.080   2.369   4.853  1.4329  1.0997  1.7831
 5994SOL     OW29443   3.615   1.508   2.798  0.5687  0.8293  0.2503
 5994SOL    HW129444   3.575   1.534   2.881  1.6534 -1.2811  1.4196
 5994SOL    HW229445   3.579   1.586   2.754  1.9730  0.6378 -1.2294
 5995SOL     OW29446   0.591   3.199   7.889  0.2854 -0.7978  0.1728
 5995SOL    HW129447   0.681   3.168   7.879 -0.7166 -3.4330 -0.7621
 5995SOL    HW229448   0.591   3.262   7.817 -1.5575 -0.9136  0.0785
 5996SOL     OW29449   3.076   2.818  16.788 -0.1482  0.2972  0.3308
 5996SOL    HW129450   2.993   2.861  16.807 -0.1115 -0.2543  1.7216
 5996SOL    HW229451   3.055   2.731  16.755  1.3112  0.0592  0.0317
 5997SOL     OW29452   4.111   1.715  10.740  0.0528  0.3169  0.1527
 5997SOL    HW129453   4.094   1.783  10.806  0.4978  0.0486  0.5464
 5997SOL    HW229454   4.201   1.742  10.720  0.8382 -0.8468  2.0458
 5998SOL     OW29455   1.236   3.683   4.629  0.3318  0.5283 -0.4593
 5998SOL    HW129456   1.315   3.712   4.583  0.2417  0.0212 -0.9319
 5998SOL    HW229457   1.279   3.630   4.696 -0.0825 -1.0358 -1.4333
 5999SOL     OW29458   1.629   2.632  12.236 -0.1377  0.0911 -0.0263
 5999SOL    HW129459   1.615   2.606  12.327 -1.3189 -1.7709 -0.7255
 5999SOL    HW229460   1.715   2.599  12.212 -1.4829 -1.1050 -3.3181
 6000SOL     OW29461   0.149   0.945   2.711 -0.2308  0.3480 -0.1053
 6000SOL    HW129462   0.124   0.952   2.803 -2.3670  3.1426 -0.9007
 6000SOL    HW229463   0.081   0.997   2.669 -1.1756 -0.5603  0.2907
 6001SOL     OW29464   4.334   2.280   4.206  0.2527  0.5055  0.5970
 6001SOL    HW129465   4.248   2.322   4.195 -0.1798 -0.1657  1.4038
 6001SOL    HW229466   4.380   2.305   4.126 -1.8766 -0.2729 -0.8785
 6002SOL     OW29467   1.537   3.945   5.501  0.0049 -0.4006 -0.2564
 6002SOL    HW129468   1.517   4.008   5.432 -0.3990  1.4963  1.5778
 6002SOL    HW229469   1.560   4.001   5.574 -1.6606  1.9533 -1.5367
 6003SOL     OW29470   2.096   0.086   5.508  0.0377  0.6586  0.4281
 6003SOL    HW129471   2.169   0.143   5.484 -0.5550  1.3058  0.1403
 6003SOL    HW229472   2.030   0.109   5.442 -1.9470 -1.2620  1.7316
 6004SOL     OW29473   1.737   3.857   9.389  0.0004  0.1958 -0.0598
 6004SOL    HW129474   1.746   3.918   9.316 -3.9154  0.4655 -0.3558
 6004SOL    HW229475   1.653   3.889   9.424  0.0155  0.9325 -0.7004
 6005SOL     OW29476   3.702   4.537   6.946  0.2171 -0.7995  0.2896
 6005SOL    HW129477   3.631   4.491   6.901  1.4719 -2.3050 -0.1687
 6005SOL    HW229478   3.778   4.525   6.888 -1.1768  0.4365 -1.8067
 6006SOL     OW29479   0.839   0.285   2.763  0.0655 -0.4400 -0.2991
 6006SOL    HW129480   0.832   0.196   2.798 -3.6514 -0.3620 -0.8626
 6006SOL    HW229481   0.935   0.290   2.755 -0.0671 -1.0692 -2.4215
 6007SOL     OW29482   0.522   3.121   7.196  0.4875 -1.2645  1.2139
 6007SOL    HW129483   0.569   3.168   7.127 -0.3639 -1.6832  0.3386
 6007SOL    HW229484   0.555   3.032   7.186 -0.2213 -1.2778 -0.9785
 6008SOL     OW29485   1.895   2.709   5.494 -0.0416  0.1574 -0.0387
 6008SOL    HW129486   1.941   2.668   5.420 -1.2424  0.2583 -0.8348
 6008SOL    HW229487   1.805   2.688   5.469  0.3122  1.8328 -2.7858
 6009SOL     OW29488   2.768   2.080   4.011  0.1592  0.2930 -0.3950
 6009SOL    HW129489   2.739   1.992   4.039  0.3250  0.6080  0.7848
 6009SOL    HW229490   2.857   2.076   4.046 -0.0020 -1.3215 -0.1446
 6010SOL     OW29491   2.155   3.550   3.719 -0.0663  0.2021  0.1086
 6010SOL    HW129492   2.175   3.557   3.625 -2.0367  1.6024 -0.1857
 6010SOL    HW229493   2.076   3.603   3.728  0.6596  1.4158 -0.6255
 6011SOL     OW29494   2.674   1.774   7.957 -0.4060 -0.5400  0.6971
 6011SOL    HW129495   2.735   1.817   8.018  0.2863 -0.3952 -0.1003
 6011SOL    HW229496   2.649   1.843   7.895  1.7445 -0.6376 -0.2767
 6012SOL     OW29497   0.976   3.743  14.828 -0.8349  0.5908  0.2945
 6012SOL    HW129498   1.071   3.746  14.835 -0.9238 -0.8433  2.0890
 6012SOL    HW229499   0.973   3.658  14.785 -0.0702  1.0754 -0.7095
 6013SOL     OW29500   2.536   4.376   8.744 -0.7427 -0.1580  0.5254
 6013SOL    HW129501   2.473   4.448   8.738  1.8872  2.1747  1.2627
 6013SOL    HW229502   2.617   4.426   8.745 -1.3821  0.8572  0.9384
 6014SOL     OW29503   1.111   0.195   2.305 -0.1200  0.2279 -0.1577
 6014SOL    HW129504   1.080   0.277   2.266 -0.0575  0.0846 -0.5037
 6014SOL    HW229505   1.035   0.136   2.308 -0.1752  0.2796 -0.5698
 6015SOL     OW29506   4.428   2.225   9.104 -0.4318  0.8202  0.1702
 6015SOL    HW129507   4.402   2.179   9.184  1.1706  1.3724  0.9849
 6015SOL    HW229508   4.449   2.146   9.053 -0.3644  0.6769  0.4238
 6016SOL     OW29509   0.517   1.649   6.952 -0.1895  0.1133 -0.3108
 6016SOL    HW129510   0.466   1.730   6.955 -0.9586 -0.4007  0.7275
 6016SOL    HW229511   0.444   1.588   6.943 -2.0296  2.3734 -0.5487
 6017SOL     OW29512   4.536   2.938   8.549  0.0455  0.3036 -0.8151
 6017SOL    HW129513   4.483   2.997   8.496 -0.7066  0.6510  0.3182
 6017SOL    HW229514   4.569   2.993   8.620 -1.6623  1.0137 -0.5872
 6018SOL     OW29515   0.978   0.196   8.278 -0.0027 -0.3140 -0.5790
 6018SOL    HW129516   0.992   0.237   8.363 -0.5020 -0.9575 -0.1823
 6018SOL    HW229517   1.056   0.223   8.229  0.7814  0.9039  1.3477
 6019SOL     OW29518   0.975   1.971  10.225  0.0476  0.5302  0.1552
 6019SOL    HW129519   0.973   1.907  10.296 -0.8770  1.6614  1.1551
 6019SOL    HW229520   1.012   1.918  10.154 -1.1927 -1.3495  0.9004
 6020SOL     OW29521   2.838   0.095   4.937  0.0068 -0.0537  0.5425
 6020SOL    HW129522   2.747   0.119   4.927 -0.0780 -1.0460 -1.0421
 6020SOL    HW229523   2.868   0.133   4.855  0.4868 -2.0715 -0.2141
 6021SOL     OW29524   2.608   4.363   6.917  1.4923  0.2112 -0.1029
 6021SOL    HW129525   2.654   4.343   6.836 -0.8951 -0.6859 -1.2503
 6021SOL    HW229526   2.533   4.411   6.881  0.9655  1.1196  2.1793
 6022SOL     OW29527   4.030   0.321   1.294  0.2908 -0.8585  0.5410
 6022SOL    HW129528   4.098   0.388   1.301  2.7398 -3.5758  3.1821
 6022SOL    HW229529   3.989   0.338   1.379  0.9394 -0.5360  0.7954
 6023SOL     OW29530   3.689   3.170   8.799 -0.2182  0.1820 -0.5479
 6023SOL    HW129531   3.715   3.080   8.781 -0.2649  0.2485 -0.9478
 6023SOL    HW229532   3.762   3.224   8.770  3.0610 -2.1157  3.5296
 6024SOL     OW29533   4.696   1.083   1.385  0.4328 -0.3685 -0.3881
 6024SOL    HW129534   4.642   1.090   1.307 -0.6179  1.3431  0.5127
 6024SOL    HW229535   4.664   0.999   1.418 -0.3738 -0.2631 -0.9159
 6025SOL     OW29536   1.801   3.141   2.152 -0.4932  0.1296  0.3653
 6025SOL    HW129537   1.838   3.224   2.184  0.2531 -0.5734  1.3094
 6025SOL    HW229538   1.872   3.079   2.137 -1.8024 -0.6835 -2.3285
 6026SOL     OW29539   0.791   2.652   6.162 -0.1573  0.2379  0.7734
 6026SOL    HW129540   0.770   2.681   6.251 -0.4421  1.9391  0.1665
 6026SOL    HW229541   0.713   2.597   6.158 -0.8892  1.4348 -1.6910
 6027SOL     OW29542   4.577   2.999   4.829 -0.3412  0.2371  0.0513
 6027SOL    HW129543   4.592   3.091   4.851  2.3312 -0.1049 -0.2725
 6027SOL    HW229544   4.600   2.976   4.919  2.7488  2.7469 -0.0728
 6028SOL     OW29545   1.139   2.551   3.618  0.2465  0.4631 -0.4212
 6028SOL    HW129546   1.046   2.544   3.593  0.3251  1.4679 -1.0026
 6028SOL    HW229547   1.155   2.635   3.576 -1.5415  0.6851 -0.6922
 6029SOL     OW29548   1.293   3.069   4.839 -0.7631  0.8816  0.4087
 6029SOL    HW129549   1.381   3.038   4.815 -1.1244  0.2949 -0.1639
 6029SOL    HW229550   1.264   2.985   4.876  1.0410  0.2901  0.4841
 6030SOL     OW29551   4.151   0.472   8.341 -0.0948  0.1705  0.3771
 6030SOL    HW129552   4.071   0.513   8.309  0.5560  1.9805  1.0652
 6030SOL    HW229553   4.192   0.541   8.393  1.4266 -1.5980  1.5550
 6031SOL     OW29554   4.234   4.133   4.124  0.1010  0.5213 -0.2187
 6031SOL    HW129555   4.253   4.222   4.153  1.8662 -0.4314  1.5149
 6031SOL    HW229556   4.281   4.089   4.195  0.8447  1.6811 -0.0029
 6032SOL     OW29557   3.664   0.885   4.206  0.2757  0.2181  0.2232
 6032SOL    HW129558   3.658   0.957   4.269  2.7968  1.6076 -1.1379
 6032SOL    HW229559   3.698   0.933   4.130  2.2532  1.4633  1.8753
 6033SOL     OW29560   0.848   3.455  11.507  0.6178  0.1318 -0.2481
 6033SOL    HW129561   0.757   3.480  11.488  0.5415 -0.7996 -1.1187
 6033SOL    HW229562   0.824   3.417  11.591  0.9758  1.3771  0.4057
 6034SOL     OW29563   0.981   4.248   4.915  0.1915  0.3375  1.0663
 6034SOL    HW129564   0.898   4.279   4.879  1.3591  1.8231 -0.3575
 6034SOL    HW229565   1.039   4.287   4.849  0.4121  1.5627  1.9739
 6035SOL     OW29566   2.554   2.391   3.169 -0.0555  0.0663  0.0175
 6035SOL    HW129567   2.478   2.333   3.167 -0.6179  0.8455 -1.0631
 6035SOL    HW229568   2.618   2.339   3.219 -1.1930  0.6177  2.0337
 6036SOL     OW29569   0.565   1.777   2.928  0.1924  0.5494  0.0748
 6036SOL    HW129570   0.544   1.870   2.939 -1.8905  0.3081 -1.8170
 6036SOL    HW229571   0.660   1.785   2.939  0.1328 -1.7034  2.1066
 6037SOL     OW29572   4.269   0.091  13.269  0.2860 -0.5410 -0.0973
 6037SOL    HW129573   4.267   0.120  13.360 -0.0490 -0.3590 -0.1623
 6037SOL    HW229574   4.178   0.070  13.249 -0.1307 -1.1572  2.4254
 6038SOL     OW29575   4.586   1.721   5.273 -0.0250  0.3441  0.1341
 6038SOL    HW129576   4.541   1.677   5.346 -0.0170  0.5062  0.2364
 6038SOL    HW229577   4.520   1.711   5.204 -0.9964 -0.1944  1.1273
 6039SOL     OW29578   3.015   0.002   8.794 -0.0863  0.3411  0.4239
 6039SOL    HW129579   3.104   0.021   8.821 -0.6118  1.1260  1.5889
 6039SOL    HW229580   3.021   4.701   8.702  0.3439  2.0174 -0.0049
 6040SOL     OW29581   3.974   1.144   1.797  0.4697 -0.2682 -0.8230
 6040SOL    HW129582   4.039   1.099   1.851 -0.3389  1.5524  1.6812
 6040SOL    HW229583   3.900   1.085   1.787  0.4752 -0.3595 -0.3202
 6041SOL     OW29584   1.382   4.385   5.757 -0.2173  0.2694 -0.0106
 6041SOL    HW129585   1.441   4.460   5.764  0.0176  0.1078 -0.2542
 6041SOL    HW229586   1.313   4.418   5.699  1.5015  2.2622 -0.8867
 6042SOL     OW29587   1.270   4.158   8.400 -0.1682  0.3352  0.3823
 6042SOL    HW129588   1.302   4.087   8.457 -0.9348 -1.1183 -0.9957
 6042SOL    HW229589   1.179   4.129   8.397 -0.1368  0.3060 -0.1422
 6043SOL     OW29590   0.202   0.105   4.878  0.4754  0.3660  0.2594
 6043SOL    HW129591   0.252   0.047   4.935  0.8864 -0.2245 -0.7127
 6043SOL    HW229592   0.189   0.052   4.800  3.2379 -0.6371  0.4875
 6044SOL     OW29593   2.829   2.948   3.338 -0.3794 -0.1771  0.1640
 6044SOL    HW129594   2.894   3.011   3.309 -1.3527  1.7519  2.1020
 6044SOL    HW229595   2.806   2.930   3.247  0.3781  0.8866 -0.2348
 6045SOL     OW29596   1.278   3.439   4.818 -0.6335 -0.2761  0.0498
 6045SOL    HW129597   1.264   3.353   4.857  0.7729 -0.6056 -0.1826
 6045SOL    HW229598   1.347   3.424   4.753 -1.6594 -1.2192 -0.8361
 6046SOL     OW29599   1.409   0.872   7.793  0.1150 -0.0460  0.1923
 6046SOL    HW129600   1.376   0.871   7.883 -1.9816 -1.2820 -0.5998
 6046SOL    HW229601   1.398   0.780   7.769  4.2045 -0.0561 -1.5755
 6047SOL     OW29602   0.442   3.546   9.646  0.1202  0.9032  0.0552
 6047SOL    HW129603   0.368   3.505   9.602  1.0230 -0.8397  0.1738
 6047SOL    HW229604   0.483   3.474   9.694 -1.1147 -2.2393 -3.5874
 6048SOL     OW29605   4.650   0.249   5.897  0.1832  0.3869 -0.3748
 6048SOL    HW129606   4.622   0.212   5.814 -1.4371 -2.3363  1.3740
 6048SOL    HW229607   4.712   0.309   5.856 -0.5595  0.6856 -1.0521
 6049SOL     OW29608   0.858   4.724   7.681  0.0438  0.2530  0.4956
 6049SOL    HW129609   0.904   4.673   7.615  1.4278 -0.2825  1.8674
 6049SOL    HW229610   0.772   0.017   7.643  0.5141 -0.7095 -1.0061
 6050SOL     OW29611   0.949   0.933   5.143  0.0580  0.6098  0.0634
 6050SOL    HW129612   0.991   0.847   5.150  0.4204  0.9161  1.6766
 6050SOL    HW229613   0.876   0.898   5.091  0.9858 -1.5099  0.1999
 6051SOL     OW29614   0.218   4.389   4.841 -0.4278  0.8313  0.4001
 6051SOL    HW129615   0.122   4.386   4.834 -0.6400  3.3705  2.1080
 6051SOL    HW229616   0.233   4.390   4.936 -0.9509  2.9347  0.4612
 6052SOL     OW29617   1.247   2.904   2.679 -0.8032  0.4471  0.0744
 6052SOL    HW129618   1.281   2.984   2.718 -0.8437  0.4316  0.1417
 6052SOL    HW229619   1.217   2.934   2.594 -1.8654  0.8766  0.5967
 6053SOL     OW29620   2.477   2.920   3.807 -0.5233 -0.3863  0.2510
 6053SOL    HW129621   2.416   2.906   3.879 -1.1117  0.1535 -0.1294
 6053SOL    HW229622   2.529   2.997   3.826 -0.7317 -0.9784  3.1138
 6054SOL     OW29623   0.446   1.947   7.253 -0.0192  0.0832 -0.2944
 6054SOL    HW129624   0.464   1.998   7.173 -0.7513 -0.5438 -0.8498
 6054SOL    HW229625   0.518   1.884   7.252 -0.2711 -0.1734 -1.6285
 6055SOL     OW29626   4.089   0.706   5.527 -0.0258  0.2724  0.1553
 6055SOL    HW129627   4.022   0.771   5.507  0.4428  1.0552  1.0944
 6055SOL    HW229628   4.067   0.627   5.477 -0.7262  0.2419  0.5072
 6056SOL     OW29629   0.519   2.208   1.871 -0.4879  0.6062  0.3000
 6056SOL    HW129630   0.440   2.190   1.924  0.0271 -1.0689  0.4909
 6056SOL    HW229631   0.490   2.279   1.814 -1.5249 -2.1508 -2.6111
 6057SOL     OW29632   4.676   4.189   5.105 -0.2574 -0.1396  0.0456
 6057SOL    HW129633   0.026   4.245   5.124  0.8615 -2.2455  1.9284
 6057SOL    HW229634   4.636   4.227   5.026 -0.7928 -0.0361  0.3671
 6058SOL     OW29635   2.696   2.002   3.222  0.1261  0.3516 -0.2421
 6058SOL    HW129636   2.619   2.006   3.165  0.6696  1.2844 -0.9196
 6058SOL    HW229637   2.738   1.920   3.193 -0.4901  0.2853 -0.9219
 6059SOL     OW29638   1.156   1.399  13.956 -0.1427 -0.4731 -0.1939
 6059SOL    HW129639   1.099   1.415  14.031  3.2017 -1.8171  2.6556
 6059SOL    HW229640   1.239   1.385  14.002  0.0339  0.9039 -0.1208
 6060SOL     OW29641   4.006   2.322   0.581 -0.1133 -0.3774  0.3159
 6060SOL    HW129642   4.058   2.383   0.529 -2.8898  0.8000 -1.0574
 6060SOL    HW229643   3.920   2.337   0.542  0.6795 -1.1433 -1.7617
 6061SOL     OW29644   1.852   0.599   7.549 -0.3480 -0.0954  0.1367
 6061SOL    HW129645   1.787   0.528   7.551 -0.8931  0.4862  2.2816
 6061SOL    HW229646   1.897   0.580   7.467  1.1362 -0.4613  1.0488
 6062SOL     OW29647   4.367   4.188   6.552 -0.1128 -0.5036 -0.0662
 6062SOL    HW129648   4.313   4.244   6.496 -0.1113 -1.3600 -0.9057
 6062SOL    HW229649   4.309   4.157   6.622  1.6683  0.1413  1.7181
 6063SOL     OW29650   2.594   0.018   2.715 -0.3819 -0.3391  0.1642
 6063SOL    HW129651   2.592   4.668   2.655  1.2659 -0.1211 -0.1578
 6063SOL    HW229652   2.503   0.040   2.735 -0.1261  0.2970  0.6153
 6064SOL     OW29653   4.683   4.457  12.665 -0.1957  0.1178 -0.1008
 6064SOL    HW129654   0.010   4.466  12.745 -2.4603  0.0330  1.3880
 6064SOL    HW229655   4.695   4.363  12.650 -0.0350 -0.2009  1.9964
 6065SOL     OW29656   3.017   4.407   4.401 -0.0266 -0.1291 -0.7862
 6065SOL    HW129657   2.976   4.335   4.352 -1.4791 -0.7617  1.3599
 6065SOL    HW229658   3.057   4.348   4.465  1.9358  1.6370 -0.3744
 6066SOL     OW29659   0.090   2.611   3.324 -0.2013 -0.1225  0.3848
 6066SOL    HW129660   0.122   2.531   3.283  2.1333  0.8880  0.1892
 6066SOL    HW229661   0.178   2.650   3.330  0.3125 -1.1777 -0.3073
 6067SOL     OW29662   2.900   0.761   7.168  0.3892 -0.7051  0.0972
 6067SOL    HW129663   2.845   0.825   7.214  0.2958  0.2312 -1.3433
 6067SOL    HW229664   2.962   0.820   7.125  1.1759 -1.6579 -0.0743
 6068SOL     OW29665   2.423   2.992   0.653  0.3971  0.2587  0.0563
 6068SOL    HW129666   2.486   2.923   0.677 -0.9321 -0.7240  0.6977
 6068SOL    HW229667   2.344   2.946   0.628  1.0517 -1.0042  0.2983
 6069SOL     OW29668   1.700   0.479  11.194 -0.4055 -0.7673  0.6614
 6069SOL    HW129669   1.788   0.504  11.221  0.0715  0.1555 -1.7799
 6069SOL    HW229670   1.682   0.432  11.275 -1.0297 -1.6096  0.0359
 6070SOL     OW29671   2.391   3.488   5.904  0.0537 -0.4011  0.6153
 6070SOL    HW129672   2.394   3.450   5.816 -1.0610  2.3531 -0.5841
 6070SOL    HW229673   2.298   3.478   5.921 -0.2621  1.1137 -0.2741
 6071SOL     OW29674   0.385   2.894   9.794 -0.2706  0.0677 -0.2619
 6071SOL    HW129675   0.420   2.825   9.738  3.9504  2.3514 -0.4443
 6071SOL    HW229676   0.293   2.902   9.769 -0.0726 -1.3041 -1.3637
 6072SOL     OW29677   3.146   2.727   5.076 -0.1564  0.3024 -0.6611
 6072SOL    HW129678   3.183   2.709   4.990  1.5596  1.5215 -0.1637
 6072SOL    HW229679   3.054   2.714   5.050  0.3890 -1.8801 -1.5130
 6073SOL     OW29680   2.770   3.383   6.571 -0.0202 -0.1120  0.2337
 6073SOL    HW129681   2.793   3.300   6.529  0.7419  1.0155 -1.5665
 6073SOL    HW229682   2.770   3.359   6.664 -0.0445  1.5180  0.6510
 6074SOL     OW29683   3.708   3.479   4.787  0.9625  0.2396 -0.3534
 6074SOL    HW129684   3.712   3.383   4.794  0.0401  0.2951  0.8999
 6074SOL    HW229685   3.620   3.498   4.754  0.7315 -2.1285 -1.0990
 6075SOL     OW29686   4.583   3.657   7.827 -0.0316 -0.8192  0.3407
 6075SOL    HW129687   4.650   3.607   7.875 -1.0760 -0.8690  1.7555
 6075SOL    HW229688   4.600   3.643   7.734 -0.1392  0.8667  0.0658
 6076SOL     OW29689   3.986   2.747   3.252  0.5349 -0.4205 -0.0633
 6076SOL    HW129690   3.948   2.785   3.331 -0.0522  1.0616 -1.0654
 6076SOL    HW229691   3.975   2.813   3.184 -0.2746  3.3533  3.6951
 6077SOL     OW29692   2.229   3.263  14.926  0.4328  0.2816  0.2964
 6077SOL    HW129693   2.236   3.298  14.837  1.0188 -2.2271 -0.6595
 6077SOL    HW229694   2.257   3.340  14.976  0.0668 -0.1776  1.2042
 6078SOL     OW29695   1.845   2.933   9.991  0.6212  0.0251  0.3744
 6078SOL    HW129696   1.831   2.907   9.900 -0.1572  1.3617  0.1000
 6078SOL    HW229697   1.908   2.868  10.021 -1.1383 -2.0331 -0.3763
 6079SOL     OW29698   3.206   0.205   5.826 -0.4439  0.0066  0.5492
 6079SOL    HW129699   3.233   0.296   5.838 -0.2983 -0.2762  2.3266
 6079SOL    HW229700   3.255   0.176   5.748  0.2128 -0.5411  1.1610
 6080SOL     OW29701   2.910   1.536  13.542  0.1061 -0.1359 -0.6283
 6080SOL    HW129702   2.889   1.544  13.449  1.2242 -1.8174 -1.0388
 6080SOL    HW229703   2.906   1.625  13.577  0.5398 -0.8184  1.1541
 6081SOL     OW29704   1.784   0.186   8.774  0.7680  0.4415  0.1779
 6081SOL    HW129705   1.852   0.171   8.840 -0.0080 -0.9191  0.6637
 6081SOL    HW229706   1.820   0.135   8.702 -1.6907  1.8644 -2.0545
 6082SOL     OW29707   0.918   2.356  15.015  0.4012 -0.4764 -0.2803
 6082SOL    HW129708   0.967   2.292  14.963 -1.8000 -0.5398 -2.3064
 6082SOL    HW229709   0.925   2.430  14.955  1.7397 -0.9060 -0.6595
 6083SOL     OW29710   1.063   4.190   2.967 -0.2930 -0.0410  0.4114
 6083SOL    HW129711   1.037   4.173   3.058 -0.1671 -1.7207  0.1436
 6083SOL    HW229712   0.982   4.160   2.927  0.3562  1.0513 -1.7454
 6084SOL     OW29713   3.124   0.759  12.853  0.1382  0.4012 -0.4783
 6084SOL    HW129714   3.135   0.829  12.788 -1.9648  1.4228  0.2505
 6084SOL    HW229715   3.213   0.759  12.888 -0.4178  0.3973  0.9322
 6085SOL     OW29716   4.574   3.593   0.616  0.7491 -0.6700 -0.5183
 6085SOL    HW129717   4.668   3.605   0.624  0.6032  1.3594 -1.9240
 6085SOL    HW229718   4.564   3.674   0.566  0.3835  0.2520  1.0319
 6086SOL     OW29719   1.126   4.572   8.003  0.1580  0.1292  0.3389
 6086SOL    HW129720   1.213   4.578   8.044  0.4254 -0.8456 -0.0826
 6086SOL    HW229721   1.129   4.660   7.968 -1.0022 -0.0488 -0.2015
 6087SOL     OW29722   4.598   3.583  16.292 -0.3448 -0.4743 -0.5110
 6087SOL    HW129723   4.650   3.583  16.212 -0.4664  2.5069 -0.5951
 6087SOL    HW229724   4.653   3.636  16.348 -2.0219 -1.1984  1.8548
 6088SOL     OW29725   0.063   1.670  15.813  0.0147  0.0007 -0.0872
 6088SOL    HW129726   4.717   1.678  15.749 -1.5609 -0.0133  1.6609
 6088SOL    HW229727   0.025   1.595  15.859  0.8144  0.2532  0.9835
 6089SOL     OW29728   1.218   1.148  13.737  0.1121  0.2607 -0.1125
 6089SOL    HW129729   1.126   1.138  13.711  0.5722 -1.5448 -1.0320
 6089SOL    HW229730   1.211   1.133  13.831 -1.4900  0.7029 -0.1485
 6090SOL     OW29731   4.679   2.828   6.469  0.2203 -0.0582 -0.1458
 6090SOL    HW129732   4.584   2.838   6.476  0.5572  1.9431  1.5921
 6090SOL    HW229733   4.701   2.738   6.496  2.1206  0.1010 -1.2050
 6091SOL     OW29734   1.752   2.120   2.631 -0.4406 -0.0848 -0.1273
 6091SOL    HW129735   1.689   2.177   2.588  0.2057  0.3141 -0.5525
 6091SOL    HW229736   1.833   2.166   2.611  1.0961 -1.5856  2.5819
 6092SOL     OW29737   1.145   3.080   1.279  0.0499 -0.4960 -0.1885
 6092SOL    HW129738   1.211   3.013   1.294 -0.0064 -1.0340 -2.3287
 6092SOL    HW229739   1.180   3.145   1.341 -0.3809 -0.6250  0.1920
 6093SOL     OW29740   4.329   1.733   6.409 -0.8884  0.3044 -0.5097
 6093SOL    HW129741   4.309   1.648   6.372 -0.1177  0.3792 -1.0907
 6093SOL    HW229742   4.250   1.751   6.460 -1.9979 -1.9751 -1.4618
 6094SOL     OW29743   1.177   1.419   5.831 -0.6176 -0.3197 -0.0547
 6094SOL    HW129744   1.171   1.487   5.899  2.4583 -0.5547  0.4611
 6094SOL    HW229745   1.239   1.360   5.873 -1.2064 -0.2673  0.8925
 6095SOL     OW29746   2.311   0.464   8.541  0.3988 -0.4250 -0.4090
 6095SOL    HW129747   2.275   0.495   8.458 -2.3431  1.0281  1.3039
 6095SOL    HW229748   2.350   0.544   8.577 -0.7879  0.3527 -0.8384
 6096SOL     OW29749   2.750   0.677   5.037 -0.0362  0.1017  0.3654
 6096SOL    HW129750   2.749   0.744   5.106  0.8855  1.1904 -0.6862
 6096SOL    HW229751   2.693   0.712   4.969 -1.1867 -1.6326  0.4423
 6097SOL     OW29752   1.741   0.795   9.812  0.2319 -0.3353  0.4078
 6097SOL    HW129753   1.750   0.889   9.799 -1.7392 -0.2058  0.0440
 6097SOL    HW229754   1.760   0.795   9.906 -0.0365  1.8615  0.4537
 6098SOL     OW29755   4.552   2.862   0.438  0.5298 -0.5034 -0.0224
 6098SOL    HW129756   4.513   2.907   0.364  2.3840 -2.2577 -2.0431
 6098SOL    HW229757   4.611   2.932   0.463 -1.7368  0.6692  2.0500
 6099SOL     OW29758   2.979   4.034   8.005 -0.3880  0.1275  0.3045
 6099SOL    HW129759   2.964   3.941   7.992 -1.3411  0.3346 -0.0887
 6099SOL    HW229760   3.048   4.042   7.939  0.0105  1.7453  0.8932
 6100SOL     OW29761   1.170   4.110   1.016 -0.2952 -0.1357  0.6007
 6100SOL    HW129762   1.111   4.174   0.976 -0.6403  0.3921  1.9423
 6100SOL    HW229763   1.229   4.081   0.947 -0.3065 -1.1958  1.0447
 6101SOL     OW29764   1.530   4.244   2.558  0.2721  0.1057 -0.2714
 6101SOL    HW129765   1.512   4.309   2.490  1.7033 -1.4507 -2.1241
 6101SOL    HW229766   1.599   4.192   2.517  0.7369  1.4821 -1.2312
 6102SOL     OW29767   0.442   2.955   3.059  0.1515 -0.6487  0.3869
 6102SOL    HW129768   0.507   3.017   3.091  0.2202 -1.0804  1.0846
 6102SOL    HW229769   0.494   2.877   3.077  0.0360 -0.4377  1.6162
 6103SOL     OW29770   1.283   4.614   4.883 -0.0208  0.4644 -0.2222
 6103SOL    HW129771   1.360   4.613   4.827 -0.1634  0.6792 -0.4197
 6103SOL    HW229772   1.254   4.705   4.889 -4.7333 -1.0442 -0.2820
 6104SOL     OW29773   0.099   4.613   4.415 -0.4813  0.1391 -0.4876
 6104SOL    HW129774   0.173   4.568   4.373 -0.3009  2.2588 -2.4519
 6104SOL    HW229775   0.043   4.537   4.398 -1.8588  1.4282 -1.7126
 6105SOL     OW29776   2.474   3.282  11.251  0.0723 -0.2101 -0.2789
 6105SOL    HW129777   2.566   3.280  11.228  0.4369  0.3026  1.1286
 6105SOL    HW229778   2.439   3.230  11.179 -1.1650 -2.0261  1.6112
 6106SOL     OW29779   3.770   1.690   9.024 -0.6325 -0.8895 -0.1051
 6106SOL    HW129780   3.845   1.650   9.067  0.7711  2.0566  0.1864
 6106SOL    HW229781   3.797   1.717   8.936  0.5009  1.1191  0.8532
 6107SOL     OW29782   0.783   1.603   4.134  0.2521 -0.2772  0.1511
 6107SOL    HW129783   0.864   1.637   4.172  0.8543  0.6543 -1.9936
 6107SOL    HW229784   0.759   1.529   4.190  2.7308 -2.1160 -1.1907
 6108SOL     OW29785   1.617   1.646   4.044  0.0915 -0.5750  0.0263
 6108SOL    HW129786   1.562   1.569   4.035  1.1084 -1.2538 -0.4066
 6108SOL    HW229787   1.597   1.689   3.961  2.0841 -0.7900 -0.5785
 6109SOL     OW29788   1.618   2.422  12.456 -0.2022 -0.2692 -0.2351
 6109SOL    HW129789   1.611   2.347  12.515 -1.1765  0.4200  0.5098
 6109SOL    HW229790   1.710   2.415  12.429 -0.2873  3.2320 -1.4085
 6110SOL     OW29791   1.182   2.638   9.278 -0.1809 -0.2135 -0.2708
 6110SOL    HW129792   1.155   2.546   9.286 -1.1152  0.0696 -0.2060
 6110SOL    HW229793   1.125   2.680   9.342 -0.0602  1.0371 -0.9963
 6111SOL     OW29794   0.545   4.312  14.728  0.6304 -0.1777  0.4952
 6111SOL    HW129795   0.552   4.355  14.813  3.1136 -0.0368  0.2204
 6111SOL    HW229796   0.450   4.322  14.721  0.5947 -1.8130 -1.5934
 6112SOL     OW29797   4.113   3.150   2.642 -0.6617  0.2403  0.1855
 6112SOL    HW129798   4.142   3.133   2.732 -1.2087 -0.5554  0.2149
 6112SOL    HW229799   4.180   3.098   2.596 -1.0837  1.2749 -1.5865
 6113SOL     OW29800   4.513   2.056  15.431 -0.3552  0.1845 -0.2713
 6113SOL    HW129801   4.576   2.002  15.479 -1.7129  0.7902  2.1500
 6113SOL    HW229802   4.482   1.991  15.368  0.1443 -1.0308  0.7308
 6114SOL     OW29803   1.499   2.901   6.861 -1.4062  0.1803 -0.7100
 6114SOL    HW129804   1.474   2.887   6.952  0.8534 -1.4832 -0.3409
 6114SOL    HW229805   1.505   2.996   6.866  1.3579 -0.1449  2.1418
 6115SOL     OW29806   3.175   0.012   6.025  0.0686 -0.2779  0.2650
 6115SOL    HW129807   3.092   0.048   6.055 -0.5454 -0.1672 -1.5745
 6115SOL    HW229808   3.201   0.082   5.964  1.6633 -0.2958  0.9150
 6116SOL     OW29809   4.455   3.858  16.852 -0.5350  0.2415 -0.4173
 6116SOL    HW129810   4.533   3.868  16.797 -1.7050  1.8918 -1.7659
 6116SOL    HW229811   4.389   3.925  16.831  0.3265  0.9638 -0.8381
 6117SOL     OW29812   4.407   0.626   3.441  0.1137 -0.1187  0.5796
 6117SOL    HW129813   4.496   0.590   3.436  0.3859  0.5173  0.7419
 6117SOL    HW229814   4.421   0.717   3.414 -1.1873  1.0992  4.0316
 6118SOL     OW29815   3.203   2.990  10.962 -0.5529 -0.3101 -0.4979
 6118SOL    HW129816   3.264   3.060  10.986 -1.0514 -0.0044 -0.1202
 6118SOL    HW229817   3.252   2.957  10.887 -2.0199 -0.7173 -1.2859
 6119SOL     OW29818   0.744   3.746  14.649  0.3011  0.8228 -0.7122
 6119SOL    HW129819   0.678   3.731  14.718 -0.7877 -0.1064 -1.9577
 6119SOL    HW229820   0.824   3.753  14.701 -1.7175 -2.4837  2.8410
 6120SOL     OW29821   0.042   1.992   7.068  0.3582 -0.2063  0.4343
 6120SOL    HW129822   0.084   1.910   7.044  0.5240 -0.4252  1.4749
 6120SOL    HW229823   4.673   1.985   7.052  0.1399 -0.4767  1.8177
 6121SOL     OW29824   0.124   1.066  16.210 -0.3173  0.1725  0.1913
 6121SOL    HW129825   0.119   1.148  16.160  2.6896  0.5869  0.5869
 6121SOL    HW229826   0.081   1.004  16.151 -0.3002  1.3928 -1.1155
 6122SOL     OW29827   4.657   4.451   9.046  0.0036 -0.3847 -0.1423
 6122SOL    HW129828   4.676   4.449   8.952 -0.6849  2.7383 -0.3210
 6122SOL    HW229829   4.711   4.524   9.075 -1.3427  0.5730 -0.0651
 6123SOL     OW29830   4.356   3.087   5.686  0.1988  0.1109 -0.1596
 6123SOL    HW129831   4.409   3.167   5.677 -0.8565  1.2515  3.5554
 6123SOL    HW229832   4.337   3.074   5.594  0.9779 -2.2214 -0.0042
 6124SOL     OW29833   1.576   4.184   5.667 -0.0155  0.3074 -0.2595
 6124SOL    HW129834   1.499   4.236   5.692  0.3975  0.5199  0.5571
 6124SOL    HW229835   1.648   4.235   5.703 -1.4418  0.4528  2.4749
 6125SOL     OW29836   2.368   2.236   4.647  0.3037 -0.1928  0.2836
 6125SOL    HW129837   2.314   2.251   4.569  0.9611  3.0537  0.4475
 6125SOL    HW229838   2.348   2.146   4.674  0.7904 -0.2526  0.4403
 6126SOL     OW29839   2.374   3.490  16.554 -0.7295 -0.0500  0.2507
 6126SOL    HW129840   2.447   3.449  16.508 -0.4766  0.8487 -0.1455
 6126SOL    HW229841   2.422   3.559  16.600 -0.0246  0.1003 -0.7259
 6127SOL     OW29842   4.008   2.579   9.188  0.1382  0.3730  0.4850
 6127SOL    HW129843   4.048   2.665   9.198  3.2582 -0.8963 -1.0641
 6127SOL    HW229844   3.916   2.603   9.199 -0.4294 -1.4050 -0.4449
 6128SOL     OW29845   4.642   1.231   6.768 -0.5086 -0.0112 -0.3074
 6128SOL    HW129846   4.574   1.211   6.704  0.1275 -1.1122 -0.6280
 6128SOL    HW229847   4.638   1.155   6.825  1.4122  0.9116  1.0814
 6129SOL     OW29848   1.007   1.155  11.567 -0.0482 -0.2129 -0.1577
 6129SOL    HW129849   1.075   1.088  11.580  0.1081  0.1636  0.9660
 6129SOL    HW229850   0.934   1.112  11.521 -0.5922  1.7807 -1.1157
 6130SOL     OW29851   2.541   1.912   6.570 -0.1312  0.3225  0.6121
 6130SOL    HW129852   2.581   1.911   6.656  0.6912 -1.6866  0.2096
 6130SOL    HW229853   2.501   1.825   6.569  0.9675 -0.1870  1.7475
 6131SOL     OW29854   4.248   1.449   6.367 -0.0513 -0.1447  0.6339
 6131SOL    HW129855   4.192   1.397   6.309 -1.8510  2.5828 -0.0594
 6131SOL    HW229856   4.246   1.409   6.454  3.4854 -0.6496  0.4917
 6132SOL     OW29857   0.195   0.112   6.340  0.2598 -0.3210 -0.5661
 6132SOL    HW129858   0.174   0.102   6.433 -0.5780 -0.5270 -0.7737
 6132SOL    HW229859   0.115   0.149   6.305  2.0672  2.6353 -1.5112
 6133SOL     OW29860   1.168   2.608   8.607  0.0742  0.8325  0.7058
 6133SOL    HW129861   1.159   2.514   8.591 -1.0871  1.1491 -0.4620
 6133SOL    HW229862   1.263   2.619   8.611  0.1999  0.1974 -0.5548
 6134SOL     OW29863   3.054   1.604   3.915 -0.0047  0.2922 -0.7197
 6134SOL    HW129864   3.064   1.566   3.828 -1.1075 -1.6104 -0.0147
 6134SOL    HW229865   3.063   1.518   3.956  1.1767  1.3005  1.1550
 6135SOL     OW29866   3.056   3.758   5.521 -0.0629  0.0386 -0.5043
 6135SOL    HW129867   2.965   3.741   5.546 -0.9217  1.1839 -2.7566
 6135SOL    HW229868   3.099   3.770   5.605 -1.7136  2.4492  0.0229
 6136SOL     OW29869   0.604   2.945   7.646 -0.9641  0.2174  0.1120
 6136SOL    HW129870   0.670   2.886   7.683  0.2723  1.8066  0.4551
 6136SOL    HW229871   0.650   3.029   7.638 -1.6628  0.7001  1.1946
 6137SOL     OW29872   0.378   4.251   6.997  0.5890 -0.1587  0.1833
 6137SOL    HW129873   0.443   4.231   6.930  1.8039 -0.5251  1.4809
 6137SOL    HW229874   0.383   4.171   7.048  0.7784 -0.4832 -0.3438
 6138SOL     OW29875   3.623   2.067   2.065  0.6041 -0.2876 -0.3396
 6138SOL    HW129876   3.676   2.146   2.057  0.6315 -0.3762 -1.0384
 6138SOL    HW229877   3.692   2.001   2.060 -0.2101 -1.2079  0.4797
 6139SOL     OW29878   2.200   3.062   0.866  0.0243  0.5097 -0.5829
 6139SOL    HW129879   2.264   3.099   0.805 -0.5018  2.0830 -0.1876
 6139SOL    HW229880   2.203   2.968   0.846 -1.4354  0.8074 -2.2496
 6140SOL     OW29881   4.487   2.179   8.659  0.4599 -0.2662  0.3138
 6140SOL    HW129882   4.409   2.153   8.609  1.2318  0.1757 -1.1224
 6140SOL    HW229883   4.507   2.266   8.625  1.7655 -1.0116 -0.7882
 6141SOL     OW29884   2.764   0.338   0.974  0.3296  0.2704  0.2501
 6141SOL    HW129885   2.810   0.367   0.895 -1.8431  2.3181 -0.2640
 6141SOL    HW229886   2.677   0.348   0.934  0.9250 -1.3786 -1.4160
 6142SOL     OW29887   2.479   3.730   5.484 -0.1200 -0.1087  0.6237
 6142SOL    HW129888   2.440   3.744   5.398  0.4131  0.9012  0.5553
 6142SOL    HW229889   2.447   3.795   5.546 -1.6329 -0.4718  0.2308
 6143SOL     OW29890   2.677   1.798   0.393 -0.0305 -0.4294  0.0331
 6143SOL    HW129891   2.609   1.811   0.459 -2.1899  0.9022 -2.4039
 6143SOL    HW229892   2.642   1.716   0.356 -1.2822  1.3121 -2.6403
 6144SOL     OW29893   0.964   3.301   6.300  0.3039 -0.1976  0.1061
 6144SOL    HW129894   0.923   3.354   6.368 -0.3110 -1.3985  0.6714
 6144SOL    HW229895   1.056   3.293   6.323  0.6162  0.6274 -0.8627
 6145SOL     OW29896   3.324   4.422   8.061 -0.1853 -0.0677  0.3446
 6145SOL    HW129897   3.368   4.488   8.114 -1.7373 -0.1514  1.7351
 6145SOL    HW229898   3.238   4.418   8.103 -0.6912  0.8580 -0.5882
 6146SOL     OW29899   1.318   2.478  15.143  0.1045 -0.0896 -0.0655
 6146SOL    HW129900   1.239   2.513  15.185  0.2276 -1.5934  1.4025
 6146SOL    HW229901   1.339   2.549  15.083  1.5946 -0.5817 -0.1171
 6147SOL     OW29902   1.431   0.858   8.667 -0.3766  0.3836  0.5796
 6147SOL    HW129903   1.367   0.927   8.645 -2.0690 -0.9698  1.2285
 6147SOL    HW229904   1.372   0.799   8.715 -1.4219 -0.0438 -1.2491
 6148SOL     OW29905   2.534   0.861   7.185 -0.0856 -0.2986 -0.1177
 6148SOL    HW129906   2.553   0.778   7.141 -0.5697  1.3616 -3.5233
 6148SOL    HW229907   2.588   0.848   7.262  1.4154 -1.0774 -1.3000
 6149SOL     OW29908   2.591   2.716   2.586  0.3277  0.8264  0.9749
 6149SOL    HW129909   2.513   2.662   2.593  0.5876  0.3962  0.5184
 6149SOL    HW229910   2.557   2.789   2.534 -0.8435 -0.7970 -0.5302
 6150SOL     OW29911   1.558   2.242   8.475  0.2136 -0.7020  0.4395
 6150SOL    HW129912   1.553   2.249   8.380 -1.4547 -0.2746  0.5487
 6150SOL    HW229913   1.651   2.234   8.496 -0.1264  0.6278  2.5661
 6151SOL     OW29914   4.297   3.639   5.218 -0.1969 -0.2110  0.5178
 6151SOL    HW129915   4.258   3.677   5.297 -0.3892  1.1465 -0.2268
 6151SOL    HW229916   4.389   3.649   5.241 -0.1490 -3.6286  1.6992
 6152SOL     OW29917   1.838   4.489   9.196 -0.2747  0.2888 -0.5103
 6152SOL    HW129918   1.853   4.408   9.245 -2.8307  0.5962  0.7439
 6152SOL    HW229919   1.927   4.520   9.180 -0.5292  0.5835 -1.3538
 6153SOL     OW29920   4.423   2.916  15.235  0.1058 -0.0868  0.2291
 6153SOL    HW129921   4.453   2.956  15.154  1.5928  0.3015  0.9719
 6153SOL    HW229922   4.490   2.847  15.233  0.0520 -0.0605 -2.0134
 6154SOL     OW29923   0.489   2.750   1.146  0.0042 -0.0299  0.7086
 6154SOL    HW129924   0.508   2.719   1.235 -1.3019  1.4537  1.4906
 6154SOL    HW229925   0.519   2.840   1.155  0.6093 -0.1032 -0.6022
 6155SOL     OW29926   2.580   0.413   6.583 -0.4546  0.8562 -0.0187
 6155SOL    HW129927   2.536   0.328   6.577  1.5643 -0.2050  0.0523
 6155SOL    HW229928   2.531   0.462   6.517  0.4810 -0.6858 -1.8556
 6156SOL     OW29929   3.511   4.337  10.486 -0.4061  0.2416  0.2550
 6156SOL    HW129930   3.520   4.296  10.400 -1.8268  0.7701 -0.1556
 6156SOL    HW229931   3.593   4.385  10.486  0.5034 -1.3133 -0.5558
 6157SOL     OW29932   2.528   3.351   4.132 -0.5495  0.0890 -0.3212
 6157SOL    HW129933   2.467   3.413   4.092  0.5567  0.6795 -1.1048
 6157SOL    HW229934   2.617   3.375   4.104 -0.8014  1.1528 -0.2056
 6158SOL     OW29935   2.892   3.617  11.164  0.1898  0.1317 -0.6718
 6158SOL    HW129936   2.817   3.605  11.223 -0.3992 -0.3590 -1.5109
 6158SOL    HW229937   2.950   3.636  11.238  0.2331  0.7567 -0.8642
 6159SOL     OW29938   0.107   0.244  11.526  0.3481  0.0009  0.0667
 6159SOL    HW129939   0.029   0.254  11.471  2.2643  0.2976 -2.6140
 6159SOL    HW229940   0.078   0.187  11.597 -2.3020 -0.3237 -1.2596
 6160SOL     OW29941   3.665   3.147  10.394 -0.5056  0.4578 -0.3381
 6160SOL    HW129942   3.592   3.186  10.346 -2.5075 -1.5065  1.0700
 6160SOL    HW229943   3.646   3.054  10.385 -0.3792  0.5009 -1.0826
 6161SOL     OW29944   0.783   2.342   1.825  0.1517 -0.2745  0.2117
 6161SOL    HW129945   0.750   2.255   1.847 -0.3408  0.0049  0.6034
 6161SOL    HW229946   0.732   2.371   1.749  2.4061  1.9485 -0.4700
 6162SOL     OW29947   4.253   1.061   8.316 -0.9693 -0.3353  0.4733
 6162SOL    HW129948   4.318   1.068   8.246 -1.3853  0.3187  0.1556
 6162SOL    HW229949   4.190   1.007   8.269 -2.2083  0.9295  0.6854
 6163SOL     OW29950   4.309   2.590  14.463  0.1657 -0.0891 -0.0840
 6163SOL    HW129951   4.244   2.632  14.407  0.9205  0.2439 -0.7109
 6163SOL    HW229952   4.316   2.510  14.412 -1.1657 -2.1894  3.0266
 6164SOL     OW29953   1.860   4.506   1.920  0.4635 -0.1523  0.1661
 6164SOL    HW129954   1.881   4.426   1.873 -0.9893 -0.5612  0.2251
 6164SOL    HW229955   1.776   4.479   1.958 -1.1286  1.8325 -1.9446
 6165SOL     OW29956   1.540   1.545   2.293  0.9961 -0.0448  0.5193
 6165SOL    HW129957   1.532   1.593   2.375 -0.1401  1.0046 -0.2118
 6165SOL    HW229958   1.568   1.615   2.235 -2.3870  0.4446 -0.4939
 6166SOL     OW29959   3.543   2.814   1.877 -0.2143 -0.1481 -0.2522
 6166SOL    HW129960   3.590   2.777   1.951 -0.1163 -1.8762 -1.1871
 6166SOL    HW229961   3.469   2.754   1.870 -0.3760 -0.0050  0.2505
 6167SOL     OW29962   3.097   3.103   4.671 -0.2870  0.1960  0.3922
 6167SOL    HW129963   3.038   3.145   4.608 -0.7497 -1.7822 -0.4891
 6167SOL    HW229964   3.139   3.035   4.618  2.8181  2.3710  0.0567
 6168SOL     OW29965   0.877   3.700   5.076 -0.1940 -0.6401  0.3694
 6168SOL    HW129966   0.936   3.630   5.050 -2.9274 -2.3197 -1.3945
 6168SOL    HW229967   0.791   3.667   5.049  0.7066 -0.9706 -2.0615
 6169SOL     OW29968   0.197   4.171  16.811  0.2469  0.1167  0.1376
 6169SOL    HW129969   0.103   4.185  16.818  0.0992 -0.9481  0.2688
 6169SOL    HW229970   0.206   4.129  16.726 -0.5333 -1.3664  0.7981
 6170SOL     OW29971   3.335   0.237   7.455  0.3852 -0.0061  0.1534
 6170SOL    HW129972   3.357   0.148   7.425 -2.1556 -0.1451 -1.3511
 6170SOL    HW229973   3.406   0.258   7.514  1.5301  0.3927 -1.3774
 6171SOL     OW29974   0.663   2.754   4.296 -0.5643 -0.2244 -0.4107
 6171SOL    HW129975   0.606   2.772   4.221 -0.5601 -1.6665 -0.7548
 6171SOL    HW229976   0.746   2.786   4.259  0.4148 -2.2276  0.0933
 6172SOL     OW29977   3.883   2.804   4.032 -0.5254  0.2761  0.1851
 6172SOL    HW129978   3.976   2.823   4.029 -0.0709 -1.7931  1.0973
 6172SOL    HW229979   3.887   2.708   4.033 -1.3826  0.2238 -3.1849
 6173SOL     OW29980   1.217   0.497  13.616 -0.0210 -0.3724  0.4803
 6173SOL    HW129981   1.151   0.544  13.667 -1.4609 -0.5449 -1.1831
 6173SOL    HW229982   1.235   0.417  13.665  1.4772 -0.9705 -1.0678
 6174SOL     OW29983   3.635   3.576   8.483  0.0131 -0.7477  0.4023
 6174SOL    HW129984   3.578   3.649   8.460 -1.1140 -1.8583 -0.3337
 6174SOL    HW229985   3.610   3.539   8.567  0.1387 -2.9756 -0.5424
 6175SOL     OW29986   2.734   0.622  16.301 -0.2794 -0.2250  0.1342
 6175SOL    HW129987   2.709   0.543  16.252 -0.8572 -0.2819  0.5232
 6175SOL    HW229988   2.812   0.587  16.345 -0.0972 -0.2937 -0.2414
 6176SOL     OW29989   4.242   2.654   6.237 -0.0446 -0.3942  0.0065
 6176SOL    HW129990   4.288   2.737   6.251  0.1825 -0.3865 -0.7940
 6176SOL    HW229991   4.322   2.601   6.228  0.0515 -0.3973  0.9432
 6177SOL     OW29992   2.305   0.465  10.378 -0.0271 -0.2155 -0.2748
 6177SOL    HW129993   2.235   0.400  10.365 -1.2437  0.7835  1.2437
 6177SOL    HW229994   2.386   0.434  10.339 -0.6812 -1.4068 -0.6950
 6178SOL     OW29995   2.839   1.129  14.033  0.6064 -0.0785 -0.2297
 6178SOL    HW129996   2.887   1.211  14.046  0.6645 -0.0822 -0.4280
 6178SOL    HW229997   2.777   1.122  14.105 -0.3479 -0.7275 -1.1228
 6179SOL     OW29998   4.310   0.824   7.586  0.9589 -0.3880 -0.4745
 6179SOL    HW129999   4.363   0.782   7.654  0.9760 -1.5323 -1.2101
 6179SOL    HW230000   4.241   0.871   7.633  0.8890 -0.6045 -0.3639
 6180SOL     OW30001   1.851   2.204   2.004 -0.2924  0.3166  0.4487
 6180SOL    HW130002   1.899   2.281   1.971 -2.2589  0.7410 -1.4270
 6180SOL    HW230003   1.883   2.140   1.940  1.1074  0.8213  0.6495
 6181SOL     OW30004   2.227   0.412  15.839  0.1589  0.4884 -0.2666
 6181SOL    HW130005   2.146   0.390  15.794  0.3979 -0.2864 -0.3225
 6181SOL    HW230006   2.264   0.489  15.796  0.5798 -0.8166 -2.2425
 6182SOL     OW30007   3.318   3.389  10.595  0.9546  0.4729 -0.2209
 6182SOL    HW130008   3.366   3.411  10.515  0.7564 -2.1193 -1.0493
 6182SOL    HW230009   3.239   3.349  10.560  0.4936  1.9124 -0.8388
 6183SOL     OW30010   0.662   3.463  14.674  0.4036  1.1365  0.2405
 6183SOL    HW130011   0.595   3.395  14.680 -0.2335  1.8570  1.3074
 6183SOL    HW230012   0.617   3.533  14.721 -1.6579  0.8120 -1.2550
 6184SOL     OW30013   3.011   3.960   2.543 -0.2213  0.3012  0.0331
 6184SOL    HW130014   3.053   3.971   2.458  1.0730 -2.6324  0.2729
 6184SOL    HW230015   2.932   3.914   2.514  0.5707 -0.8959 -0.2371
 6185SOL     OW30016   3.822   2.214   0.197 -0.0357  0.1196 -0.0110
 6185SOL    HW130017   3.799   2.121   0.197  0.4309  0.0019  0.6811
 6185SOL    HW230018   3.773   2.228   0.116 -2.9035 -1.1512  1.5132
 6186SOL     OW30019   0.236   2.672   2.622  0.2848 -0.0883  0.4097
 6186SOL    HW130020   0.265   2.747   2.570  2.1972  0.3109  2.0454
 6186SOL    HW230021   0.160   2.650   2.568  0.5413 -0.4839  0.2165
 6187SOL     OW30022   2.022   2.492   4.577  0.0272  0.0847  0.6162
 6187SOL    HW130023   1.932   2.461   4.584  0.4670 -2.1660 -3.5908
 6187SOL    HW230024   2.007   2.575   4.532  0.3193  0.2861  0.8950
 6188SOL     OW30025   0.494   3.783  11.947  0.2091  0.6860  0.1542
 6188SOL    HW130026   0.560   3.713  11.944 -0.1546  0.3826 -0.7135
 6188SOL    HW230027   0.541   3.839  11.886  1.1518 -1.7668 -1.3961
 6189SOL     OW30028   4.503   2.895   5.806  0.9625  0.4252  0.4480
 6189SOL    HW130029   4.460   2.919   5.887  0.2553 -0.7665  0.4250
 6189SOL    HW230030   4.444   2.931   5.740  1.3651  0.4484  0.0990
 6190SOL     OW30031   1.131   3.428   9.733  0.5161  0.2349 -0.4065
 6190SOL    HW130032   1.086   3.345   9.717  0.5881 -0.2860  2.1975
 6190SOL    HW230033   1.071   3.492   9.694  0.2675  1.4619  2.0160
 6191SOL     OW30034   0.368   1.636   9.819 -0.2657 -0.4378 -0.3524
 6191SOL    HW130035   0.414   1.609   9.899 -0.3363  2.3168  0.5989
 6191SOL    HW230036   0.388   1.574   9.749  1.2578 -0.2082 -0.1058
 6192SOL     OW30037   2.589   2.081  12.684 -0.4968 -0.0372  0.2416
 6192SOL    HW130038   2.623   2.121  12.605 -0.7154  0.8518  0.5971
 6192SOL    HW230039   2.504   2.053  12.650 -0.6097 -0.1600  0.6165
 6193SOL     OW30040   4.695   2.712  15.921  0.2866 -0.2965 -0.6951
 6193SOL    HW130041   0.051   2.721  15.971 -0.6887 -2.0627  1.1580
 6193SOL    HW230042   4.688   2.617  15.911 -0.4540 -0.4522  1.4186
 6194SOL     OW30043   1.024   0.322   3.496  0.3587  0.2478  0.0795
 6194SOL    HW130044   1.118   0.329   3.507  0.2114 -0.7425  1.8310
 6194SOL    HW230045   1.016   0.301   3.403 -2.5653  1.3399  0.0622
 6195SOL     OW30046   1.836   4.411  10.251  0.1623  0.2871  0.0693
 6195SOL    HW130047   1.813   4.319  10.242  0.1345  0.2752  0.2562
 6195SOL    HW230048   1.931   4.410  10.236  0.2999 -1.7418  0.9776
 6196SOL     OW30049   4.218   3.880  14.606 -0.1311  0.3193  0.0763
 6196SOL    HW130050   4.251   3.802  14.562 -0.1166  0.4574 -0.1585
 6196SOL    HW230051   4.126   3.854  14.614 -0.0670  0.6519  1.7821
 6197SOL     OW30052   1.886   2.744  15.204 -0.1141  0.6335 -0.4784
 6197SOL    HW130053   1.810   2.788  15.242  0.0523 -1.3745  2.2157
 6197SOL    HW230054   1.853   2.655  15.210  0.3190  0.5840  1.2633
 6198SOL     OW30055   2.472   1.297  17.107  0.1637 -0.2343  0.0197
 6198SOL    HW130056   2.444   1.380  17.146  1.0827 -0.1681  0.5279
 6198SOL    HW230057   2.550   1.274  17.157  0.3949  0.8554  0.1575
 6199SOL     OW30058   1.199   4.523   1.068 -0.2703  0.0855 -0.7062
 6199SOL    HW130059   1.269   4.460   1.080 -1.1240 -0.8413 -0.5795
 6199SOL    HW230060   1.212   4.542   0.975 -0.3476 -0.1786 -0.7709
 6200SOL     OW30061   0.716   0.005   4.143  0.4780 -0.0284  0.4142
 6200SOL    HW130062   0.632   4.683   4.137 -0.6040  2.0737 -0.8783
 6200SOL    HW230063   0.776   4.680   4.087 -1.1417 -0.1001 -1.2757
 6201SOL     OW30064   1.458   1.378  16.855 -0.0584 -0.3262  0.0026
 6201SOL    HW130065   1.416   1.318  16.917 -1.4151  0.0244 -0.5559
 6201SOL    HW230066   1.483   1.307  16.796 -1.0167  0.6071 -1.5327
 6202SOL     OW30067   2.490   4.232   1.723 -0.2093 -0.2023  0.4451
 6202SOL    HW130068   2.516   4.259   1.811 -1.4937  0.3950  0.6389
 6202SOL    HW230069   2.506   4.138   1.726 -1.5629 -0.4768 -1.0225
 6203SOL     OW30070   1.574   3.469  11.327  0.9249  0.5293  0.2267
 6203SOL    HW130071   1.538   3.382  11.339  0.1670  0.5920 -1.5765
 6203SOL    HW230072   1.503   3.514  11.281 -0.3102 -1.5720  0.0972
 6204SOL     OW30073   0.829   0.545   8.654 -0.0384 -0.7483  0.0887
 6204SOL    HW130074   0.771   0.523   8.728 -0.3959 -0.9908 -0.2632
 6204SOL    HW230075   0.859   0.635   8.666  1.0701 -1.0842 -0.2259
 6205SOL     OW30076   4.498   3.570   1.231 -0.3775  0.9113 -0.4737
 6205SOL    HW130077   4.581   3.571   1.278 -0.0087  1.3498 -1.1288
 6205SOL    HW230078   4.445   3.524   1.296 -0.1442  1.5739  0.1798
 6206SOL     OW30079   4.610   3.054   2.142 -0.0354  0.5766 -0.6639
 6206SOL    HW130080   4.668   3.060   2.066 -1.9966 -1.8261 -2.3481
 6206SOL    HW230081   4.662   3.026   2.217 -1.2822 -1.5825 -0.6170
 6207SOL     OW30082   2.456   1.539  10.146 -0.7778  0.3994  0.3038
 6207SOL    HW130083   2.385   1.570  10.089  1.8552  0.3937 -2.9104
 6207SOL    HW230084   2.404   1.484  10.205 -1.4230  2.5118  1.7037
 6208SOL     OW30085   0.004   4.341  16.036  0.4735 -0.0269  0.0792
 6208SOL    HW130086   4.665   4.284  16.080  0.4967  0.5523  0.8689
 6208SOL    HW230087   0.080   4.287  16.016  0.1829 -0.0313 -0.9949
 6209SOL     OW30088   4.717   1.471   7.230  0.0608  0.4512 -0.0182
 6209SOL    HW130089   4.719   1.439   7.140 -2.0947  0.7344 -0.1560
 6209SOL    HW230090   4.675   1.390   7.259  1.2930  0.6464  2.3067
 6210SOL     OW30091   2.658   3.609   8.149 -0.1519  0.3022  0.7797
 6210SOL    HW130092   2.685   3.542   8.086 -2.2325 -0.2226  0.4297
 6210SOL    HW230093   2.576   3.569   8.180 -1.6780  4.2348  1.7601
 6211SOL     OW30094   0.588   3.298  11.418 -0.5422 -0.3232  0.4512
 6211SOL    HW130095   0.499   3.318  11.446 -2.0986 -3.2587 -2.5014
 6211SOL    HW230096   0.612   3.370  11.360  1.6190 -1.0695  0.4216
 6212SOL     OW30097   1.864   0.659   4.446 -0.3750 -0.8811  0.3006
 6212SOL    HW130098   1.816   0.742   4.450  1.2846  0.0689  0.5672
 6212SOL    HW230099   1.943   0.702   4.412 -2.7035  1.2440 -2.4293
 6213SOL     OW30100   1.214   4.661   4.047 -0.0195  0.2370 -0.5332
 6213SOL    HW130101   1.200   0.029   4.026  1.7344  0.5857 -0.1253
 6213SOL    HW230102   1.134   4.623   4.011  0.2203 -0.5974 -0.1930
 6214SOL     OW30103   1.947   2.459   2.289  0.8780 -0.2244  0.1226
 6214SOL    HW130104   1.955   2.399   2.215 -2.8392 -1.3380  0.6261
 6214SOL    HW230105   1.922   2.536   2.238 -1.2803 -1.4807 -0.7332
 6215SOL     OW30106   2.770   3.789   1.270  0.0624 -0.1872  0.1422
 6215SOL    HW130107   2.809   3.855   1.328 -1.1340 -0.4618  1.2602
 6215SOL    HW230108   2.678   3.811   1.258 -0.2438 -0.8809  1.1530
 6216SOL     OW30109   0.450   3.960   2.869  0.0267  0.1788 -0.1041
 6216SOL    HW130110   0.447   3.935   2.777  2.0631  1.5468 -0.5417
 6216SOL    HW230111   0.499   3.887   2.907 -1.5940 -1.6499 -1.5426
 6217SOL     OW30112   3.325   1.732   7.337  1.1591  0.0708 -0.5976
 6217SOL    HW130113   3.262   1.710   7.406  0.6867 -1.2105 -1.4297
 6217SOL    HW230114   3.360   1.816   7.368 -0.2459  0.1350  0.8291
 6218SOL     OW30115   1.753   4.389   9.631 -0.5048  0.2383 -0.1117
 6218SOL    HW130116   1.664   4.419   9.613 -0.8938 -1.5403 -1.1551
 6218SOL    HW230117   1.764   4.331   9.556  0.1386  1.5013 -0.9916
 6219SOL     OW30118   2.669   4.101   8.799 -0.2984  0.2192  0.9797
 6219SOL    HW130119   2.669   4.008   8.818 -2.3331 -0.4244 -2.1270
 6219SOL    HW230120   2.746   4.096   8.742  0.6267  0.0226  2.2555
 6220SOL     OW30121   2.806   2.207   1.186 -0.1154  0.0586 -0.7875
 6220SOL    HW130122   2.851   2.249   1.259 -0.6030  1.1686 -1.1175
 6220SOL    HW230123   2.861   2.232   1.112 -0.2144  0.2320 -0.8021
 6221SOL     OW30124   2.305   4.405   3.057  0.2068 -1.0192  0.1341
 6221SOL    HW130125   2.327   4.484   3.106 -1.2123 -0.5862  0.0742
 6221SOL    HW230126   2.327   4.334   3.118 -1.4554 -1.2737  0.4492
 6222SOL     OW30127   2.044   1.077   3.354 -0.6651 -0.1156 -0.3775
 6222SOL    HW130128   2.019   1.117   3.271 -0.9200 -0.4036 -0.4394
 6222SOL    HW230129   2.075   1.158   3.395 -0.1071 -0.1695 -0.6883
 6223SOL     OW30130   4.474   0.490   2.298  0.0899 -0.1622  0.0789
 6223SOL    HW130131   4.543   0.495   2.232  0.6631 -1.0142  0.6010
 6223SOL    HW230132   4.394   0.472   2.248  0.3295  0.7000 -0.6089
 6224SOL     OW30133   4.675   1.428   6.931  0.4397 -0.1648 -0.5065
 6224SOL    HW130134   4.660   1.369   6.857  0.8777  1.2435 -1.7215
 6224SOL    HW230135   4.593   1.397   6.968  1.4848  0.8686  2.6323
 6225SOL     OW30136   0.251   3.441   1.478  0.2001  0.6090 -0.8993
 6225SOL    HW130137   0.281   3.380   1.411  0.9581 -0.0385  0.0427
 6225SOL    HW230138   0.331   3.459   1.526 -0.6883  1.9117  0.1115
 6226SOL     OW30139   1.948   0.827   4.933 -0.4736  0.4284 -0.4915
 6226SOL    HW130140   1.951   0.894   5.001  1.5125 -1.6049  1.4499
 6226SOL    HW230141   1.945   0.758   5.000 -1.5251  1.1646  0.2028
 6227SOL     OW30142   3.822   0.930   2.921 -0.5705  0.1841 -0.3579
 6227SOL    HW130143   3.780   0.850   2.887  1.2149  0.2983 -2.8070
 6227SOL    HW230144   3.916   0.922   2.907 -0.2328  1.3835  1.3035
 6228SOL     OW30145   0.048   2.780   6.186 -0.3216  0.2005 -0.1237
 6228SOL    HW130146   0.058   2.849   6.121  0.9669  1.5028  1.4582
 6228SOL    HW230147   0.002   2.820   6.260  1.0694  0.8182  0.4028
 6229SOL     OW30148   4.136   4.267  16.593  0.2174 -0.4419 -0.0870
 6229SOL    HW130149   4.062   4.319  16.563  1.3804  0.1244 -1.9728
 6229SOL    HW230150   4.117   4.190  16.540 -1.8603  0.0692 -0.0902
 6230SOL     OW30151   2.611   4.061   2.814 -0.2371 -0.3141 -0.3072
 6230SOL    HW130152   2.674   4.132   2.803  0.5567 -0.8236  0.9959
 6230SOL    HW230153   2.579   4.100   2.895  1.2104  1.2159 -0.4667
 6231SOL     OW30154   2.893   0.294   7.556  0.1228  0.0934  0.3636
 6231SOL    HW130155   2.972   0.334   7.592  0.9259 -0.8782 -0.3128
 6231SOL    HW230156   2.860   0.372   7.512  0.8564  0.6365  0.7665
 6232SOL     OW30157   3.858   2.628   0.991  0.2193  0.0395 -0.0362
 6232SOL    HW130158   3.781   2.679   1.015 -1.4578 -1.8792 -1.3637
 6232SOL    HW230159   3.843   2.625   0.897  2.0004 -0.4269 -0.2994
 6233SOL     OW30160   0.974   4.534   5.112  0.1124  0.4413  0.5189
 6233SOL    HW130161   0.965   4.573   5.026  0.5048 -0.5756  0.0112
 6233SOL    HW230162   0.894   4.483   5.124  1.5653 -1.7749  0.8218
 6234SOL     OW30163   2.673   3.053   8.140 -0.3481  0.4651  0.0945
 6234SOL    HW130164   2.643   3.019   8.055 -1.4264  2.2746 -0.2480
 6234SOL    HW230165   2.594   3.033   8.189 -0.1217 -0.4929  0.0686
 6235SOL     OW30166   1.130   0.534   7.855 -0.0956  0.0356  0.3573
 6235SOL    HW130167   1.183   0.494   7.923 -0.3649 -2.3349 -0.8379
 6235SOL    HW230168   1.043   0.506   7.885 -0.1408  0.7703  0.9218
 6236SOL     OW30169   0.048   3.851  14.760  0.4366 -0.3797 -0.0091
 6236SOL    HW130170   4.682   3.839  14.730 -0.5486  1.8544  2.1484
 6236SOL    HW230171   0.034   3.823  14.850  0.2697  2.3543  0.7831
 6237SOL     OW30172   2.365   1.385  13.917  0.0700 -0.5255 -0.1832
 6237SOL    HW130173   2.405   1.304  13.883  1.9040  0.0928  0.4853
 6237SOL    HW230174   2.278   1.351  13.939 -0.4080  1.3328  0.7167
 6238SOL     OW30175   3.095   4.321  11.196 -0.1575 -0.2770 -0.7007
 6238SOL    HW130176   3.022   4.271  11.161 -1.1184  0.6145  0.0362
 6238SOL    HW230177   3.134   4.255  11.253  0.7548  1.4161  0.6266
 6239SOL     OW30178   1.627   0.562   4.214  0.7324  0.1657  0.3820
 6239SOL    HW130179   1.697   0.554   4.149 -0.8917 -1.9692 -1.1082
 6239SOL    HW230180   1.595   0.651   4.199 -0.2136 -0.0077  1.3718
 6240SOL     OW30181   3.520   4.030   4.711 -0.1123  0.2765 -0.3173
 6240SOL    HW130182   3.525   4.095   4.780 -1.3085  0.0702 -0.0324
 6240SOL    HW230183   3.486   4.093   4.647  0.0510 -0.9330 -1.5905
 6241SOL     OW30184   0.565   3.776   9.584 -0.8436  0.0008 -0.3369
 6241SOL    HW130185   0.509   3.701   9.606 -0.2423 -0.2050  0.4949
 6241SOL    HW230186   0.606   3.797   9.668 -1.1912 -2.1862  0.3646
 6242SOL     OW30187   4.466   0.656  15.645 -0.6753  0.0984 -0.1482
 6242SOL    HW130188   4.441   0.628  15.733  0.0920 -1.2047 -0.3387
 6242SOL    HW230189   4.484   0.749  15.658 -0.1794  0.4897 -3.5820
 6243SOL     OW30190   1.965   2.622   5.943  0.0512 -0.3457 -0.0149
 6243SOL    HW130191   1.963   2.610   6.038  0.9063 -3.0583 -0.3466
 6243SOL    HW230192   1.894   2.564   5.916 -1.3956  1.8228 -0.8680
 6244SOL     OW30193   1.934   0.590   7.973  0.7205  0.1304  0.2931
 6244SOL    HW130194   1.946   0.579   8.068 -0.0060 -0.8983  0.2640
 6244SOL    HW230195   1.958   0.683   7.963 -1.7572  0.9598  2.0414
 6245SOL     OW30196   4.186   4.212   3.060 -0.0479  0.3303  0.4995
 6245SOL    HW130197   4.130   4.137   3.040 -0.9479  0.8980  0.9059
 6245SOL    HW230198   4.250   4.168   3.116  1.0600 -0.1034 -1.1049
 6246SOL     OW30199   2.544   1.826   5.499  0.1226  0.7079 -0.5127
 6246SOL    HW130200   2.587   1.811   5.415 -0.0952  3.8673 -1.2015
 6246SOL    HW230201   2.567   1.745   5.543 -0.0521  0.6583 -0.5123
 6247SOL     OW30202   0.714   1.155   6.360  0.8294  0.3297 -0.0594
 6247SOL    HW130203   0.652   1.114   6.298  0.4223 -0.4609  0.8666
 6247SOL    HW230204   0.785   1.092   6.353  2.7671  2.5361 -0.2428
 6248SOL     OW30205   2.038   3.672  16.740 -0.4965  0.3526  0.0172
 6248SOL    HW130206   2.072   3.756  16.712  1.9736  0.5285  3.6043
 6248SOL    HW230207   2.015   3.696  16.829 -0.1856  0.0089  0.1912
 6249SOL     OW30208   3.092   0.873   3.515 -0.4943 -0.7012 -0.2470
 6249SOL    HW130209   3.148   0.944   3.482  1.9385 -2.1389  0.7735
 6249SOL    HW230210   3.136   0.858   3.599 -0.7431  1.6132  0.3026
 6250SOL     OW30211   3.987   2.481   5.808 -0.1151 -0.7037  0.2557
 6250SOL    HW130212   4.043   2.548   5.846 -0.2450 -0.2773 -0.3191
 6250SOL    HW230213   3.914   2.469   5.869 -0.5796 -1.3785 -0.4228
 6251SOL     OW30214   3.967   2.634   8.017  0.7414  0.4844 -0.4961
 6251SOL    HW130215   3.990   2.712   7.966  0.0815  1.2111  0.3060
 6251SOL    HW230216   4.046   2.632   8.071 -0.7034  0.9651  1.6539
 6252SOL     OW30217   3.969   4.601   6.810  0.0094 -0.1481 -0.2130
 6252SOL    HW130218   4.018   4.682   6.822 -1.3933  0.6445  0.1802
 6252SOL    HW230219   4.042   4.546   6.780  1.1398  0.0594  2.1623
 6253SOL     OW30220   0.036   2.770   3.547  0.3535 -0.0970  0.2062
 6253SOL    HW130221   0.048   2.858   3.511  0.7662  0.1877  1.0671
 6253SOL    HW230222   0.023   2.721   3.465  1.7094  0.4291 -0.3095
 6254SOL     OW30223   0.117   1.116   3.342 -0.1417 -0.2939 -0.1486
 6254SOL    HW130224   0.204   1.077   3.339 -0.8571 -1.8495 -0.7965
 6254SOL    HW230225   0.133   1.196   3.293  0.5023 -0.2030  0.2198
 6255SOL     OW30226   3.778   4.366  10.049 -0.4443  0.4556 -0.3085
 6255SOL    HW130227   3.785   4.279  10.009  0.7094  1.1995 -1.7137
 6255SOL    HW230228   3.853   4.366  10.107 -0.2464 -2.1424 -0.5632
 6256SOL     OW30229   2.475   2.980  17.230  0.3413 -0.2414 -0.4383
 6256SOL    HW130230   2.551   3.025  17.193  0.8039 -0.1041  0.6670
 6256SOL    HW230231   2.395   3.031  17.217  0.5552  0.0673 -0.5304
 6257SOL     OW30232   1.374   0.621   4.686 -0.0619 -0.5833 -0.6049
 6257SOL    HW130233   1.423   0.586   4.611  0.1706 -2.5163  0.4434
 6257SOL    HW230234   1.292   0.644   4.641  0.3242 -2.4586 -2.3084
 6258SOL     OW30235   0.904   4.473  16.048 -0.1032 -0.8707 -0.2889
 6258SOL    HW130236   0.814   4.503  16.050  0.8519  1.9310  0.6028
 6258SOL    HW230237   0.914   4.435  15.960 -0.2044  0.1875 -0.7568
 6259SOL     OW30238   2.158   1.744   2.868  0.1383 -0.2153  0.2695
 6259SOL    HW130239   2.232   1.790   2.828 -0.4413 -0.4482 -1.0682
 6259SOL    HW230240   2.083   1.795   2.837 -0.1258 -0.8767 -0.1695
 6260SOL     OW30241   2.212   2.395   8.462  0.0976  0.0208 -0.0451
 6260SOL    HW130242   2.255   2.465   8.512  0.3634 -0.2622  0.1226
 6260SOL    HW230243   2.239   2.328   8.525  1.2215 -0.5465 -1.1525
 6261SOL     OW30244   4.191   3.047   5.443 -0.0050  0.6336 -0.2056
 6261SOL    HW130245   4.193   3.024   5.350  3.4759 -2.2508  0.6083
 6261SOL    HW230246   4.120   3.112   5.445 -1.3718 -0.8272 -0.7330
 6262SOL     OW30247   1.776   0.716   0.001 -0.8038  0.1323  0.0228
 6262SOL    HW130248   1.726   0.681   0.074  0.5686 -3.3646 -0.6683
 6262SOL    HW230249   1.796   0.806   0.025  1.0035 -0.7161  1.6807
 6263SOL     OW30250   0.933   2.577   9.016  0.1940  0.0260 -0.1935
 6263SOL    HW130251   0.869   2.511   8.989 -0.4382  0.3342  0.5499
 6263SOL    HW230252   1.003   2.517   9.040  0.2720 -0.3305 -1.2913
 6264SOL     OW30253   3.343   1.768   0.517 -0.0134  0.3730 -0.0264
 6264SOL    HW130254   3.375   1.831   0.582 -1.4323 -0.5221  1.5288
 6264SOL    HW230255   3.273   1.724   0.566  0.6040  1.9432  2.2472
 6265SOL     OW30256   4.549   0.862  10.962  0.3191  0.1412  0.1596
 6265SOL    HW130257   4.508   0.933  10.913 -0.0083 -1.0629 -1.3030
 6265SOL    HW230258   4.601   0.918  11.020 -0.1008  0.1054  0.5744
 6266SOL     OW30259   3.840   1.780   8.781  0.2076  0.2777 -0.5348
 6266SOL    HW130260   3.926   1.823   8.776 -0.1938  1.5136  2.8834
 6266SOL    HW230261   3.789   1.861   8.771  1.5934  1.4473  1.6545
 6267SOL     OW30262   4.159   3.278   4.312 -0.0272  0.3071 -0.6755
 6267SOL    HW130263   4.121   3.327   4.240  0.1207  1.2374 -0.1283
 6267SOL    HW230264   4.226   3.337   4.348  2.3439 -1.4043 -2.3578
 6268SOL     OW30265   3.747   4.048   1.877  0.1261 -0.5447  0.0745
 6268SOL    HW130266   3.659   4.042   1.916 -0.7128  2.1352 -1.4124
 6268SOL    HW230267   3.785   4.091   1.953  2.1967  0.3461 -1.4818
 6269SOL     OW30268   4.239   2.990   7.973  0.2042  0.1107 -0.2843
 6269SOL    HW130269   4.243   3.074   8.018  0.1184 -0.8976  1.6117
 6269SOL    HW230270   4.263   2.927   8.041 -2.3936  0.1790  0.6812
 6270SOL     OW30271   1.805   4.469   4.177  1.0698 -0.5526  0.1433
 6270SOL    HW130272   1.808   4.557   4.216  1.5806 -1.6992  2.6785
 6270SOL    HW230273   1.714   4.449   4.200  1.1969 -0.9131  0.3303
 6271SOL     OW30274   2.646   0.171   2.060 -0.2585 -0.0245 -0.0653
 6271SOL    HW130275   2.613   0.153   2.149 -1.2462  1.3116 -0.1596
 6271SOL    HW230276   2.641   0.080   2.029 -4.5130 -0.1354  0.9527
 6272SOL     OW30277   1.156   3.296   3.625 -0.0642 -0.0036 -0.0298
 6272SOL    HW130278   1.125   3.252   3.705 -1.7050  3.4528  1.2756
 6272SOL    HW230279   1.234   3.250   3.597 -0.6496 -0.9195 -0.1457
 6273SOL     OW30280   4.192   1.181  16.381 -0.2670 -0.0284 -0.2725
 6273SOL    HW130281   4.147   1.107  16.339 -1.0334 -0.3927  1.1879
 6273SOL    HW230282   4.120   1.243  16.381 -1.1785 -1.0768  0.1236
 6274SOL     OW30283   3.178   2.736   6.694 -0.2205 -0.4579  0.5248
 6274SOL    HW130284   3.137   2.675   6.632  1.7269 -0.4114 -0.8111
 6274SOL    HW230285   3.254   2.759   6.640  2.6983 -0.4158  4.6639
 6275SOL     OW30286   1.186   4.317   5.110 -0.2843 -0.6225 -0.0096
 6275SOL    HW130287   1.252   4.319   5.041 -1.0812  0.2942 -0.7482
 6275SOL    HW230288   1.103   4.293   5.069 -1.6159  0.9521  1.7591
 6276SOL     OW30289   0.702   2.354   5.673 -0.2219 -0.0471  0.1528
 6276SOL    HW130290   0.630   2.292   5.662 -1.6791  1.7348 -0.2967
 6276SOL    HW230291   0.767   2.321   5.610  0.4282 -0.5005  1.0529
 6277SOL     OW30292   4.239   0.129   2.872 -0.3756  0.4411  0.0848
 6277SOL    HW130293   4.251   0.046   2.827 -1.1637  0.4846 -0.2109
 6277SOL    HW230294   4.328   0.144   2.904 -0.4220  1.7774 -0.3920
 6278SOL     OW30295   0.679   1.854   2.478 -0.5398  0.1420 -0.0371
 6278SOL    HW130296   0.771   1.868   2.502  0.0434 -4.6888  0.5101
 6278SOL    HW230297   0.676   1.760   2.493  0.6000  0.0729 -0.2261
 6279SOL     OW30298   3.661   3.914   6.047  0.1219 -0.1178  0.7171
 6279SOL    HW130299   3.572   3.883   6.061  0.0124 -0.6100 -1.0423
 6279SOL    HW230300   3.708   3.831   6.053  2.4137  1.1054 -0.2861
 6280SOL     OW30301   1.795   2.204   3.103 -0.2790  0.9734 -0.4269
 6280SOL    HW130302   1.772   2.147   3.030 -0.2328  1.4932 -0.8411
 6280SOL    HW230303   1.805   2.293   3.071 -1.5689  1.3417  0.1911
 6281SOL     OW30304   3.120   3.997   7.382  0.1303  0.1831  0.1239
 6281SOL    HW130305   3.095   4.068   7.324  1.4782  1.3363  0.9522
 6281SOL    HW230306   3.068   4.017   7.460  0.0972  0.2988  0.0719
 6282SOL     OW30307   2.691   0.033   0.898  0.2336 -0.3648 -0.1556
 6282SOL    HW130308   2.773   0.026   0.849  0.6991  1.2446  0.4135
 6282SOL    HW230309   2.695   0.119   0.940 -1.4052 -0.0111 -0.6964
 6283SOL     OW30310   1.182   2.887   8.304  0.3276 -0.1282 -0.0604
 6283SOL    HW130311   1.264   2.872   8.350 -0.8030 -0.5244  1.8270
 6283SOL    HW230312   1.209   2.958   8.245  0.7089  1.1070  1.5771
 6284SOL     OW30313   2.019   0.039   6.308  0.2338  0.3178 -0.2309
 6284SOL    HW130314   1.975   4.679   6.317 -0.2586  0.8826  2.7290
 6284SOL    HW230315   2.099   0.014   6.354 -1.6842 -3.0024  1.2652
 6285SOL     OW30316   4.387   1.538   5.126 -0.6056 -0.2740 -0.1422
 6285SOL    HW130317   4.347   1.552   5.211  3.1196 -1.3563  1.8197
 6285SOL    HW230318   4.394   1.442   5.129 -1.0744 -0.2846  0.5125
 6286SOL     OW30319   2.196   1.193   6.209 -0.1409 -0.5946  0.1857
 6286SOL    HW130320   2.206   1.151   6.294 -0.3653  1.1640  1.0870
 6286SOL    HW230321   2.182   1.115   6.156 -0.8619 -0.2564 -0.1198
 6287SOL     OW30322   2.196   4.622   7.870  0.5236 -0.2115  0.0194
 6287SOL    HW130323   2.154   4.539   7.846  2.1736 -0.8395 -0.6345
 6287SOL    HW230324   2.182   4.671   7.789  0.0587 -2.7640 -1.4403
 6288SOL     OW30325   3.787   1.616   7.356  0.5039 -0.7004 -1.1183
 6288SOL    HW130326   3.743   1.584   7.435  1.9143  0.9958  0.3553
 6288SOL    HW230327   3.758   1.707   7.352  0.0244 -0.7535  1.3110
 6289SOL     OW30328   3.115   3.104   0.083  0.8628  0.4232  0.3032
 6289SOL    HW130329   3.148   3.193   0.069 -0.5920  0.6504 -1.5826
 6289SOL    HW230330   3.086   3.087  17.694 -0.7313  0.9209  0.7314
 6290SOL     OW30331   3.744   0.947  10.460  0.0369  0.1238 -0.5655
 6290SOL    HW130332   3.706   1.003  10.391  0.9105  2.9564  1.2646
 6290SOL    HW230333   3.816   0.911  10.407  0.5240 -0.2992  0.3941
 6291SOL     OW30334   1.762   2.738  10.207  0.2544 -0.4584 -0.3408
 6291SOL    HW130335   1.854   2.729  10.180  0.0249 -0.2915 -1.1482
 6291SOL    HW230336   1.779   2.696  10.292 -0.9307 -0.4771 -0.1189
 6292SOL     OW30337   0.740   0.840   4.988 -0.7700  0.2719 -0.0269
 6292SOL    HW130338   0.777   0.755   5.011 -0.0172  0.9417  1.2841
 6292SOL    HW230339   0.647   0.822   5.003 -0.4857 -0.5514  0.7114
 6293SOL     OW30340   3.469   0.344  15.800 -0.3964  0.3750 -0.1582
 6293SOL    HW130341   3.477   0.269  15.741  1.8652 -1.9756  3.0689
 6293SOL    HW230342   3.531   0.407  15.763 -2.0140  1.5556 -0.8536
 6294SOL     OW30343   3.320   0.563   2.118  0.2127 -0.5759 -0.3987
 6294SOL    HW130344   3.373   0.522   2.049 -1.8855 -0.5560 -2.0275
 6294SOL    HW230345   3.312   0.651   2.082 -0.0550  0.0403  1.1601
 6295SOL     OW30346   1.669   0.620   0.823 -0.5385  0.2487  0.1040
 6295SOL    HW130347   1.764   0.629   0.832 -0.3333 -1.4925 -0.1638
 6295SOL    HW230348   1.636   0.686   0.883 -3.0079  1.0288 -2.0961
 6296SOL     OW30349   3.284   2.007  13.160  0.5371  0.1923  0.1461
 6296SOL    HW130350   3.276   2.066  13.235 -0.4069  0.6763 -0.3344
 6296SOL    HW230351   3.205   1.953  13.158  0.9969 -0.4173 -1.9811
 6297SOL     OW30352   4.145   0.877   5.959 -0.1546 -0.4155 -0.4043
 6297SOL    HW130353   4.210   0.807   5.948 -0.4208 -0.9689  1.5228
 6297SOL    HW230354   4.203   0.950   5.983  0.5383  0.1470 -3.6962
 6298SOL     OW30355   0.832   0.819   6.965  0.1475  0.5610 -0.0275
 6298SOL    HW130356   0.831   0.913   6.986 -0.8412  0.1277  1.8596
 6298SOL    HW230357   0.919   0.800   6.929 -0.3100 -1.1386 -0.2124
 6299SOL     OW30358   1.060   2.073   5.292  0.2289  0.4300 -0.2635
 6299SOL    HW130359   0.990   2.041   5.349 -0.7192  1.1670 -1.0134
 6299SOL    HW230360   1.104   2.135   5.350 -0.8641 -1.1971  2.2996
 6300SOL     OW30361   0.208   3.232   7.800 -0.5605 -0.5937  0.0739
 6300SOL    HW130362   0.229   3.225   7.707 -3.8067 -0.4555 -0.6724
 6300SOL    HW230363   0.217   3.326   7.809 -1.0511 -0.4065 -1.4473
 6301SOL     OW30364   0.821   3.521   2.166  0.2312 -0.1749 -0.0151
 6301SOL    HW130365   0.867   3.589   2.117 -1.4238 -0.4296 -1.9407
 6301SOL    HW230366   0.733   3.558   2.159 -0.8177 -2.9595 -1.7363
 6302SOL     OW30367   1.901   1.686   5.157  0.6550  0.1171 -0.1822
 6302SOL    HW130368   1.882   1.612   5.215  1.2227 -0.7656 -1.1193
 6302SOL    HW230369   1.852   1.749   5.210 -2.2526 -3.2197  1.1095
 6303SOL     OW30370   2.963   4.282   1.338 -0.6062 -0.2941 -0.3927
 6303SOL    HW130371   3.051   4.315   1.356 -0.7394 -0.0355 -0.2251
 6303SOL    HW230372   3.000   4.213   1.283 -2.3635 -0.9356 -0.7508
 6304SOL     OW30373   3.846   4.030   8.252 -0.0184 -0.7648 -0.2150
 6304SOL    HW130374   3.839   4.012   8.159 -1.0852 -0.5928 -0.1656
 6304SOL    HW230375   3.798   3.954   8.285  1.9398 -2.0803 -0.3877
 6305SOL     OW30376   0.532   0.762   2.779 -0.0788 -0.0730  0.4092
 6305SOL    HW130377   0.488   0.770   2.695  0.0703 -2.0190  0.1279
 6305SOL    HW230378   0.564   0.852   2.781  0.0202 -0.1395  1.5837
 6306SOL     OW30379   2.203   4.313   4.447 -0.1169 -0.4720  0.4096
 6306SOL    HW130380   2.250   4.385   4.405  1.5718 -1.7237  0.1925
 6306SOL    HW230381   2.226   4.318   4.539  0.1552 -1.2805  0.3814
 6307SOL     OW30382   4.076   3.107  17.644 -0.8370  0.3326 -0.0674
 6307SOL    HW130383   3.994   3.154  17.626 -0.8515  0.2508 -0.2167
 6307SOL    HW230384   4.053   3.023  17.605  3.0718  0.4637 -2.6170
 6308SOL     OW30385   4.163   4.043   1.682  0.1887 -0.1378  0.0208
 6308SOL    HW130386   4.128   4.108   1.620 -0.9561 -0.1830  0.6335
 6308SOL    HW230387   4.109   3.967   1.661  2.5010 -1.8816  0.4910
 6309SOL     OW30388   2.026   0.615   5.118  0.0943 -0.3793 -0.1530
 6309SOL    HW130389   1.981   0.630   5.201 -0.7514  1.7392 -0.9789
 6309SOL    HW230390   2.039   0.522   5.135 -0.0958 -0.1165  1.4358
 6310SOL     OW30391   4.374   2.271   3.063 -0.2003 -0.2571 -0.1441
 6310SOL    HW130392   4.342   2.360   3.080 -0.2190  0.0153 -1.5219
 6310SOL    HW230393   4.415   2.253   3.147 -1.3107  0.5067  0.5513
 6311SOL     OW30394   3.691   3.683   5.355 -0.4928 -0.2775 -0.4609
 6311SOL    HW130395   3.643   3.761   5.383  1.3052  1.0522 -1.0431
 6311SOL    HW230396   3.620   3.642   5.304  0.6582 -1.5853 -1.0094
 6312SOL     OW30397   2.660   3.136   5.442  0.7277 -0.1375  0.2102
 6312SOL    HW130398   2.754   3.121   5.445  0.7781  0.2036  0.4307
 6312SOL    HW230399   2.632   3.132   5.534  1.8955 -0.0190  0.5691
 6313SOL     OW30400   0.604   3.889   3.617 -0.2153  0.3817  0.0368
 6313SOL    HW130401   0.539   3.957   3.600 -0.4974  0.3205  0.8281
 6313SOL    HW230402   0.683   3.923   3.576  1.7345 -3.3172  0.7424
 6314SOL     OW30403   0.174   2.954  16.039  0.1658  0.3142  0.0817
 6314SOL    HW130404   0.131   2.922  16.118 -0.5082 -0.2260 -0.5070
 6314SOL    HW230405   0.230   3.024  16.073 -0.2093  0.5210  0.2778
 6315SOL     OW30406   0.050   2.413   1.108  0.0651  0.0149 -0.2817
 6315SOL    HW130407   0.004   2.370   1.181  2.7065 -2.7068 -0.2008
 6315SOL    HW230408   0.030   2.506   1.120 -1.8086 -0.3151 -0.9094
 6316SOL     OW30409   3.192   3.581   3.449 -0.4028  0.4515 -0.1912
 6316SOL    HW130410   3.119   3.571   3.387 -0.2061  0.2509 -0.3876
 6316SOL    HW230411   3.226   3.666   3.421 -1.5390  0.5882 -1.1672
 6317SOL     OW30412   1.861   3.199  16.247  0.0586  0.2428 -0.6052
 6317SOL    HW130413   1.932   3.253  16.213  0.6023  0.2327  0.4865
 6317SOL    HW230414   1.846   3.247  16.329 -2.0813 -1.1124 -0.2059
 6318SOL     OW30415   3.009   3.457   9.545  0.3527  0.0504 -0.4573
 6318SOL    HW130416   3.084   3.504   9.508  0.5669 -1.0152 -1.3531
 6318SOL    HW230417   2.944   3.450   9.475  0.7105 -1.6033 -0.6253
 6319SOL     OW30418   2.649   0.427  13.497 -0.1233 -0.2553  0.2726
 6319SOL    HW130419   2.736   0.395  13.519  0.1271  1.4135  1.7335
 6319SOL    HW230420   2.644   0.402  13.405  1.7470 -1.8747  0.6219
 6320SOL     OW30421   3.578   2.943   6.797 -0.0917  0.0439  0.1219
 6320SOL    HW130422   3.639   3.003   6.754 -0.2024 -0.6642 -1.0332
 6320SOL    HW230423   3.635   2.873   6.827  0.0785 -0.3793 -1.1849
 6321SOL     OW30424   2.984   0.785   2.717 -0.3067  0.5209 -0.5623
 6321SOL    HW130425   2.925   0.804   2.791  0.8783  0.5163  0.3930
 6321SOL    HW230426   3.065   0.825   2.750 -0.7593  1.5312 -0.6707
 6322SOL     OW30427   3.836   3.251   5.887 -0.4228 -0.4793  0.7666
 6322SOL    HW130428   3.856   3.175   5.941  2.1676  0.6286  1.3339
 6322SOL    HW230429   3.855   3.218   5.799  0.3023  2.0284 -0.0196
 6323SOL     OW30430   3.645   1.715   9.622 -0.2880 -0.0124 -0.2351
 6323SOL    HW130431   3.561   1.669   9.615  0.6348 -1.9019  1.4049
 6323SOL    HW230432   3.687   1.669   9.694 -0.8646  0.2650  0.2792
 6324SOL     OW30433   4.466   1.448   4.015  0.1846 -0.3954  0.5067
 6324SOL    HW130434   4.492   1.507   3.944 -2.0104 -0.2245 -0.1334
 6324SOL    HW230435   4.540   1.388   4.019  1.7190  1.2447 -2.7723
 6325SOL     OW30436   1.770   1.687  11.376 -0.0345  0.1062 -0.2844
 6325SOL    HW130437   1.769   1.733  11.292 -0.8667 -0.9573 -0.8567
 6325SOL    HW230438   1.780   1.766  11.428 -2.5363 -0.5945  1.2483
 6326SOL     OW30439   4.647   1.302   7.586 -0.1302 -0.4573 -0.4550
 6326SOL    HW130440   4.656   1.388   7.545  0.7744 -0.5257 -0.3852
 6326SOL    HW230441   4.581   1.305   7.655 -0.2079  0.9724 -0.5928
 6327SOL     OW30442   3.944   3.577  11.909  0.3609 -0.1815  0.0647
 6327SOL    HW130443   3.955   3.511  11.840  0.8439 -1.1180  1.0440
 6327SOL    HW230444   3.965   3.655  11.858  0.6515 -0.3235 -0.0320
 6328SOL     OW30445   0.678   1.263   2.110  0.3061 -0.1482  0.6280
 6328SOL    HW130446   0.607   1.273   2.047  1.9859 -0.6392 -1.3178
 6328SOL    HW230447   0.715   1.350   2.095  1.6092 -0.9587 -0.7464
 6329SOL     OW30448   1.290   3.401   9.970  0.3335  0.1612  0.6198
 6329SOL    HW130449   1.260   3.375   9.883  1.3396  0.5814  0.1408
 6329SOL    HW230450   1.265   3.333  10.033 -1.2733  0.4278  0.2448
 6330SOL     OW30451   4.621   1.874   3.780  0.4682  0.7907  0.0228
 6330SOL    HW130452   4.667   1.791   3.794  1.2817  0.7509 -2.7814
 6330SOL    HW230453   4.530   1.864   3.752  0.3927 -1.1680  0.9768
 6331SOL     OW30454   4.345   0.009  17.677 -0.2351  0.1284 -0.0841
 6331SOL    HW130455   4.343   4.680  17.598  1.3522 -0.2798  0.1516
 6331SOL    HW230456   4.288   4.687   0.039 -2.9089  1.2080 -1.7481
 6332SOL     OW30457   1.780   0.452  10.662  0.2603  0.8631 -0.2207
 6332SOL    HW130458   1.722   0.420  10.731  1.6068 -1.6001 -0.2422
 6332SOL    HW230459   1.813   0.374  10.617 -1.9486  0.6669 -1.4856
 6333SOL     OW30460   1.929   2.413  16.669  0.2062 -0.5263 -0.1592
 6333SOL    HW130461   1.885   2.390  16.751 -1.6470  0.1479 -0.9716
 6333SOL    HW230462   2.015   2.427  16.709 -0.2271  1.5977  0.0611
 6334SOL     OW30463   2.890   1.400   8.934 -0.2581 -0.1681 -0.5139
 6334SOL    HW130464   2.919   1.370   9.020  1.0362  0.6384 -0.6737
 6334SOL    HW230465   2.798   1.377   8.948  0.1265 -1.5349 -0.2994
 6335SOL     OW30466   2.163   1.133  15.615  0.0525  0.6401 -0.3070
 6335SOL    HW130467   2.251   1.096  15.614 -0.6041 -1.0278  2.5610
 6335SOL    HW230468   2.169   1.194  15.542 -0.3061 -0.3439 -1.1565
 6336SOL     OW30469   1.924   2.337   5.159  0.2794  0.8457 -0.4179
 6336SOL    HW130470   1.960   2.271   5.099 -0.7259  0.3359 -0.4625
 6336SOL    HW230471   1.845   2.374   5.120  0.7752 -0.9260 -3.1084
 6337SOL     OW30472   3.556   3.271   2.805  0.5533  0.0114 -0.0307
 6337SOL    HW130473   3.630   3.316   2.764 -0.1344  1.5131  0.3386
 6337SOL    HW230474   3.561   3.190   2.755  0.6184 -0.7340  1.1818
 6338SOL     OW30475   1.652   3.124   8.100 -0.2324 -0.3225 -0.5483
 6338SOL    HW130476   1.692   3.163   8.023 -0.0068  2.4166  0.9926
 6338SOL    HW230477   1.567   3.168   8.105 -1.2246 -2.1334 -1.1651
 6339SOL     OW30478   1.955   3.410   5.015  0.4091 -0.2143 -0.3959
 6339SOL    HW130479   1.967   3.317   5.035 -2.2471 -0.2248  1.1013
 6339SOL    HW230480   1.862   3.423   5.033  0.2435 -1.0791 -0.6448
 6340SOL     OW30481   1.822   2.155  10.402  0.6969 -0.0892  0.2178
 6340SOL    HW130482   1.742   2.190  10.363  1.7845  2.5361  0.2701
 6340SOL    HW230483   1.847   2.086  10.342  1.4450  4.0203 -4.2161
 6341SOL     OW30484   0.252   2.817   8.219  0.5243 -0.0695 -0.2655
 6341SOL    HW130485   0.321   2.797   8.156 -0.9349 -0.0399 -1.8411
 6341SOL    HW230486   0.173   2.821   8.167  0.9288  0.7850 -0.8116
 6342SOL     OW30487   0.215   0.364   3.961 -0.3282 -0.0324 -0.0579
 6342SOL    HW130488   0.282   0.326   3.904 -0.6629  0.1840 -0.6006
 6342SOL    HW230489   0.277   0.410   4.018  0.4360 -1.0493 -0.0681
 6343SOL     OW30490   0.966   4.222  16.122 -0.2958  0.3450  0.2845
 6343SOL    HW130491   1.056   4.193  16.107 -0.8074 -0.5688 -0.9954
 6343SOL    HW230492   0.967   4.317  16.115 -1.2275  0.3301 -0.1013
 6344SOL     OW30493   3.383   3.710   7.204  0.2015  0.4546 -0.4773
 6344SOL    HW130494   3.431   3.793   7.210 -0.7157  0.9998 -0.6009
 6344SOL    HW230495   3.435   3.665   7.271 -1.6444  1.0588  1.3959
 6345SOL     OW30496   1.145   1.205  11.238 -0.0122  0.0532 -0.0358
 6345SOL    HW130497   1.076   1.160  11.287  0.4000 -1.2499 -0.6647
 6345SOL    HW230498   1.114   1.296  11.244  0.8998  0.5911 -3.3431
 6346SOL     OW30499   4.576   4.510  14.204 -0.0686 -0.0573  0.2062
 6346SOL    HW130500   4.482   4.520  14.191 -0.2030 -1.0058  0.4289
 6346SOL    HW230501   4.604   4.601  14.193 -1.2120  0.2409 -0.2043
 6347SOL     OW30502   0.273   1.733  17.503 -0.3344  0.1746 -0.0478
 6347SOL    HW130503   0.261   1.638  17.509  1.0463  0.0771  1.0541
 6347SOL    HW230504   0.248   1.758  17.592  1.2425 -2.8947  1.2636
 6348SOL     OW30505   0.386   0.155   6.763 -0.6000  0.0318 -0.5479
 6348SOL    HW130506   0.356   0.126   6.850 -0.1288 -1.1125 -0.7692
 6348SOL    HW230507   0.364   0.248   6.772  0.7455  0.5684 -2.8757
 6349SOL     OW30508   3.699   2.759   8.274 -0.3768  0.2158  0.1887
 6349SOL    HW130509   3.613   2.717   8.281 -0.0214 -0.4978  0.2544
 6349SOL    HW230510   3.744   2.684   8.235  0.4709  1.1062 -0.5349
 6350SOL     OW30511   0.647   3.050   9.303 -0.5447  0.1614  0.9830
 6350SOL    HW130512   0.554   3.052   9.278 -0.7322 -0.4897  1.6347
 6350SOL    HW230513   0.671   2.961   9.277  0.2089  0.6860 -0.1088
 6351SOL     OW30514   1.587   2.125   6.530  0.5946 -0.0456 -0.4903
 6351SOL    HW130515   1.539   2.206   6.514  0.1109 -0.0690  0.7914
 6351SOL    HW230516   1.642   2.142   6.607 -1.6432  0.6345  0.9682
 6352SOL     OW30517   1.523   2.931   4.860  0.1587  0.7333 -0.0352
 6352SOL    HW130518   1.496   2.852   4.907  0.4659 -1.0521 -2.8460
 6352SOL    HW230519   1.609   2.953   4.897 -0.8904  0.3192  2.6420
 6353SOL     OW30520   2.056   0.819   7.208 -0.3122  0.2519  0.5122
 6353SOL    HW130521   2.034   0.858   7.124  1.4921  0.5799  0.1845
 6353SOL    HW230522   1.980   0.844   7.260 -1.3283 -1.8264  0.0341
 6354SOL     OW30523   2.261   3.846   1.360 -0.4367 -0.3958 -0.2630
 6354SOL    HW130524   2.173   3.839   1.323 -0.0518 -0.4567 -1.1664
 6354SOL    HW230525   2.285   3.754   1.372 -0.1959 -0.0889  1.5951
 6355SOL     OW30526   4.566   2.255   4.358 -0.5429  0.1987  0.6053
 6355SOL    HW130527   4.496   2.271   4.295 -0.5739 -0.5895  0.4384
 6355SOL    HW230528   4.628   2.234   4.288 -1.5821 -1.5307  0.2266
 6356SOL     OW30529   2.980   1.075   4.922  0.0384  0.3026  0.5179
 6356SOL    HW130530   2.983   1.007   4.855  1.5957 -0.6403  1.5445
 6356SOL    HW230531   2.929   1.041   4.996  0.6597  1.5726  1.5314
 6357SOL     OW30532   3.624   3.366  10.084 -0.4764 -0.1779  0.3025
 6357SOL    HW130533   3.605   3.273  10.102 -1.4746  0.4991  2.7923
 6357SOL    HW230534   3.695   3.372  10.021  1.4946 -0.0062  2.5557
 6358SOL     OW30535   0.543   4.021   5.172 -0.2281 -0.2052 -0.2427
 6358SOL    HW130536   0.528   3.944   5.227  0.5768 -0.8714 -0.9607
 6358SOL    HW230537   0.637   4.036   5.172 -0.4121  0.9253 -0.5500
 6359SOL     OW30538   1.652   3.378  17.443  0.1122  0.3200 -0.3195
 6359SOL    HW130539   1.701   3.444  17.394 -1.2835  0.3343 -1.6941
 6359SOL    HW230540   1.574   3.378  17.387 -0.0471  2.8152 -0.0959
 6360SOL     OW30541   0.826   3.723  13.866 -0.4122  0.1680 -0.7961
 6360SOL    HW130542   0.813   3.678  13.949 -1.1154 -0.0704 -1.0379
 6360SOL    HW230543   0.750   3.780  13.855 -1.1468 -1.2500 -3.2554
 6361SOL     OW30544   0.108   3.956   6.969  0.3523 -0.0438  0.1086
 6361SOL    HW130545   0.043   3.889   6.991  0.5670 -0.3772 -0.2553
 6361SOL    HW230546   0.134   3.997   7.051 -0.0589 -0.8472  0.6367
 6362SOL     OW30547   1.352   2.680   0.080 -0.2355  0.1802 -0.0233
 6362SOL    HW130548   1.335   2.718   0.167 -1.5091  0.4911 -0.4095
 6362SOL    HW230549   1.371   2.588   0.098  0.2861 -0.1808 -2.5297
 6363SOL     OW30550   4.011   4.127  10.167  0.0383 -0.4019  0.1576
 6363SOL    HW130551   4.024   4.218  10.193 -1.5203 -0.5706  1.5381
 6363SOL    HW230552   4.033   4.123  10.074  1.2504 -2.6003  0.5654
 6364SOL     OW30553   2.702   3.278  14.996  0.6610 -0.5343 -0.1042
 6364SOL    HW130554   2.637   3.307  14.932  0.5262  0.0800  0.3093
 6364SOL    HW230555   2.656   3.212  15.046  0.8711  0.2203  1.0822
 6365SOL     OW30556   0.279   2.291  11.447  0.1961  0.7908  0.2056
 6365SOL    HW130557   0.329   2.353  11.500  1.9977  1.3509 -2.1471
 6365SOL    HW230558   0.335   2.213  11.446 -0.2579  0.4710 -0.3280
 6366SOL     OW30559   4.187   2.373   2.606  0.0022 -0.7974 -0.0977
 6366SOL    HW130560   4.097   2.394   2.581 -0.8497 -2.5294  1.4671
 6366SOL    HW230561   4.209   2.326   2.526  0.2337 -2.3739  0.9026
 6367SOL     OW30562   0.068   1.964   4.284 -0.0430  0.4612 -0.0051
 6367SOL    HW130563   0.084   1.897   4.218 -2.4612  0.4611 -0.5917
 6367SOL    HW230564   0.054   2.046   4.237 -2.4026  0.3222  0.4183
 6368SOL     OW30565   2.219   1.342   7.281 -0.4120  0.0350  0.1079
 6368SOL    HW130566   2.142   1.292   7.308 -1.6725  2.2478  0.5839
 6368SOL    HW230567   2.201   1.421   7.332  1.6641 -0.0151  0.9224
 6369SOL     OW30568   0.009   0.250   6.795  0.3934 -0.2008  0.2481
 6369SOL    HW130569   0.080   0.292   6.841 -0.9802  1.0715  1.1890
 6369SOL    HW230570   4.718   0.184   6.862 -0.0557 -0.0108  0.3293
 6370SOL     OW30571   2.610   4.231  14.707  0.4182  0.3869 -0.7229
 6370SOL    HW130572   2.526   4.187  14.698  1.0848 -1.1348  0.5030
 6370SOL    HW230573   2.642   4.185  14.785 -0.3049 -1.0261 -1.2536
 6371SOL     OW30574   1.042   2.138  13.957  0.0653 -0.3526 -0.4616
 6371SOL    HW130575   1.106   2.075  13.991  0.6387  1.0578  1.0540
 6371SOL    HW230576   1.089   2.219  13.978  1.1218 -0.6003 -1.8989
 6372SOL     OW30577   3.330   3.294  14.276  0.2516 -0.4405  0.1886
 6372SOL    HW130578   3.318   3.309  14.369  1.1951  1.4994  0.0126
 6372SOL    HW230579   3.270   3.359  14.238  1.4628 -0.8682 -2.5018
 6373SOL     OW30580   0.910   2.934   6.239  1.0102  0.7084  0.3596
 6373SOL    HW130581   0.818   2.952   6.255  1.1311  0.1682  1.6710
 6373SOL    HW230582   0.909   2.850   6.284  0.2466  1.5371  1.8994
 6374SOL     OW30583   4.399   3.116   7.231 -0.0697 -0.1217 -0.1817
 6374SOL    HW130584   4.317   3.155   7.200  0.1789  0.5443 -0.0230
 6374SOL    HW230585   4.382   3.085   7.320  0.2933 -3.0832 -1.1580
 6375SOL     OW30586   3.267   0.463   3.055  0.1856  0.0117 -0.3021
 6375SOL    HW130587   3.290   0.442   2.964 -1.5617  0.8259 -0.9249
 6375SOL    HW230588   3.322   0.538   3.077 -0.3654  0.9946 -2.3026
 6376SOL     OW30589   0.945   0.633  12.269  0.1230  0.4785  0.0688
 6376SOL    HW130590   1.039   0.619  12.262 -0.0571  0.1159 -1.7802
 6376SOL    HW230591   0.913   0.546  12.291  0.5008  0.5422  0.8493
 6377SOL     OW30592   2.356   1.142  15.229 -0.0699 -0.2568  0.8125
 6377SOL    HW130593   2.298   1.110  15.160  0.8210 -1.1560  0.4748
 6377SOL    HW230594   2.422   1.073  15.224 -0.8121 -0.9077 -0.1485
 6378SOL     OW30595   0.233   1.863   5.426  0.7510 -0.0744 -0.4641
 6378SOL    HW130596   0.180   1.818   5.361 -1.1862 -0.0812  1.1229
 6378SOL    HW230597   0.246   1.797   5.494  1.8034 -1.6321 -2.1688
 6379SOL     OW30598   2.335   1.045   7.733 -0.2412 -0.4412 -0.1715
 6379SOL    HW130599   2.314   1.127   7.688  0.7996  1.2324  2.3793
 6379SOL    HW230600   2.394   1.014   7.664 -1.4188  0.6816 -1.6872
 6380SOL     OW30601   0.352   3.620   3.288  0.0623  0.3129  0.2702
 6380SOL    HW130602   0.370   3.600   3.196  0.0815  0.2467  0.2881
 6380SOL    HW230603   0.436   3.604   3.331  0.0760 -1.5709 -0.4329
 6381SOL     OW30604   0.636   0.245   4.569  0.6573  0.0726  0.4898
 6381SOL    HW130605   0.580   0.169   4.553 -1.3905  0.9201  3.5544
 6381SOL    HW230606   0.636   0.266   4.663  3.4330  0.5199  0.3704
 6382SOL     OW30607   4.143   1.080   5.350 -0.0522 -0.9149  0.2521
 6382SOL    HW130608   4.167   1.076   5.258 -0.3419 -0.1543  0.1432
 6382SOL    HW230609   4.186   1.002   5.385  1.3229 -0.9129 -1.4438
 6383SOL     OW30610   0.111   4.098   7.545  0.4968  0.2292 -0.2986
 6383SOL    HW130611   0.080   4.185   7.570 -1.4801 -1.2516  2.4034
 6383SOL    HW230612   0.206   4.106   7.557  0.6154  1.1497 -1.8264
 6384SOL     OW30613   4.723   0.660  13.282  0.4897 -0.0708  0.1200
 6384SOL    HW130614   4.680   0.594  13.337  2.2391 -1.2430  0.0512
 6384SOL    HW230615   0.081   0.678  13.327 -0.6351  1.1913  1.7051
 6385SOL     OW30616   2.092   4.537  13.491 -0.2895  0.2546  0.0631
 6385SOL    HW130617   2.072   4.579  13.575  1.1209  0.8201  0.1170
 6385SOL    HW230618   2.045   4.454  13.484  0.1741  0.1677 -2.0085
 6386SOL     OW30619   2.383   1.181  17.372 -0.2909  0.8082  0.3981
 6386SOL    HW130620   2.318   1.124  17.415 -0.4520  0.2645 -0.5537
 6386SOL    HW230621   2.324   1.249  17.339  0.3312  2.3952  2.5784
 6387SOL     OW30622   1.345   0.510   1.128 -0.2638 -0.2356 -0.5148
 6387SOL    HW130623   1.268   0.492   1.182  1.0528  0.4886  1.6140
 6387SOL    HW230624   1.405   0.557   1.186  2.6180 -0.6765 -3.1455
 6388SOL     OW30625   1.533   1.989   7.786 -0.6560  0.2229 -0.1169
 6388SOL    HW130626   1.512   1.897   7.801 -0.8412  0.5542  1.5860
 6388SOL    HW230627   1.454   2.008   7.735 -2.6326  0.0351  2.9121
 6389SOL     OW30628   2.167   3.327  13.353  0.0856 -0.0345 -0.4870
 6389SOL    HW130629   2.127   3.267  13.290  0.3587 -2.2522  1.4310
 6389SOL    HW230630   2.108   3.401  13.339 -0.6776 -0.8298 -1.4743
 6390SOL     OW30631   4.536   4.484  16.881  0.1829 -0.2858  0.0544
 6390SOL    HW130632   4.569   4.395  16.891 -3.5705 -1.7357 -0.6904
 6390SOL    HW230633   4.452   4.469  16.839 -0.3477 -1.5305  1.5999
 6391SOL     OW30634   0.987   3.167  17.441 -0.5747  0.0784  0.5502
 6391SOL    HW130635   1.063   3.138  17.390 -1.3194  0.1299 -0.5868
 6391SOL    HW230636   1.009   3.184  17.532  0.6587 -1.3938  0.5367
 6392SOL     OW30637   4.376   3.627   8.002 -0.0742 -0.5421  0.1626
 6392SOL    HW130638   4.463   3.610   7.967 -0.3566 -3.4274  0.8212
 6392SOL    HW230639   4.376   3.719   8.029  2.9056 -0.8131  1.0700
 6393SOL     OW30640   3.000   3.686   6.677  0.4476 -0.3277  0.0096
 6393SOL    HW130641   2.999   3.726   6.589  0.4354 -2.3387 -0.9011
 6393SOL    HW230642   2.911   3.652   6.685 -0.2760  1.8266  1.1987
 6394SOL     OW30643   0.012   3.981   7.910 -0.0676 -0.3680  0.7741
 6394SOL    HW130644   4.679   3.934   7.970 -0.9930 -1.6238 -1.0817
 6394SOL    HW230645   4.672   4.042   7.873  0.2266 -1.0324 -0.8436
 6395SOL     OW30646   3.569   4.041   7.274  0.1902  0.6365 -0.4291
 6395SOL    HW130647   3.500   4.057   7.338  0.5263 -3.9555  1.1422
 6395SOL    HW230648   3.636   3.998   7.328 -1.1377  0.6437  1.2256
 6396SOL     OW30649   4.344   2.259   1.874 -0.5116  0.1746 -0.9125
 6396SOL    HW130650   4.404   2.252   1.800 -2.4094  2.7935 -2.6760
 6396SOL    HW230651   4.312   2.169   1.879  1.2276 -0.2497  2.9989
 6397SOL     OW30652   0.875   1.051  12.970 -0.8619  0.0678 -0.1319
 6397SOL    HW130653   0.794   1.010  12.941 -3.0142  4.2311 -0.1067
 6397SOL    HW230654   0.852   1.144  12.975 -3.9529 -0.6764 -0.5706
 6398SOL     OW30655   1.459   4.624  10.394  0.2190  0.3148 -0.2152
 6398SOL    HW130656   1.425   4.537  10.411 -1.2109  1.4922  2.9241
 6398SOL    HW230657   1.550   4.595  10.408 -0.6060 -2.8473 -1.4495
 6399SOL     OW30658   4.242   1.577   2.767 -0.2965  0.2334  0.2186
 6399SOL    HW130659   4.307   1.548   2.831 -0.9798  0.8962  1.2055
 6399SOL    HW230660   4.252   1.528   2.685  1.7102  1.9640 -0.5657
 6400SOL     OW30661   2.751   1.082   7.016 -0.1138 -0.3431 -0.1426
 6400SOL    HW130662   2.808   1.084   7.092 -1.0473 -2.7828  0.6039
 6400SOL    HW230663   2.692   1.154   7.040  1.6742  1.1997 -0.3181
 6401SOL     OW30664   3.195   1.884   3.309  0.3893  0.7777 -0.2823
 6401SOL    HW130665   3.167   1.962   3.260 -1.2974 -0.1631 -0.8263
 6401SOL    HW230666   3.110   1.858   3.346  0.6175 -2.1778 -1.8375
 6402SOL     OW30667   1.174   4.588   7.033 -0.1760  0.0671  0.0806
 6402SOL    HW130668   1.129   4.646   6.972  1.5292  0.0333 -1.2336
 6402SOL    HW230669   1.268   4.600   7.020 -0.4707  3.0905  0.8140
 6403SOL     OW30670   3.607   3.964   8.998  0.5200 -0.3604  0.2536
 6403SOL    HW130671   3.651   4.002   9.074  0.9507 -0.4162  0.0345
 6403SOL    HW230672   3.623   4.024   8.925  0.4589  0.1158  0.6348
 6404SOL     OW30673   2.613   4.521   0.979  0.4619  0.6122 -0.2037
 6404SOL    HW130674   2.579   4.574   1.050 -3.0514  0.4544 -1.7668
 6404SOL    HW230675   2.636   4.605   0.939  1.3334  0.9228  0.9461
 6405SOL     OW30676   3.458   4.182   8.546 -0.0863 -0.6678  0.2687
 6405SOL    HW130677   3.377   4.147   8.581 -0.2994 -0.1481  0.2940
 6405SOL    HW230678   3.433   4.223   8.463  0.9681  0.7138  0.6363
 6406SOL     OW30679   0.021   2.353  17.161  0.2993  0.0712 -0.2458
 6406SOL    HW130680   0.113   2.356  17.187  0.5294  0.9380 -1.1304
 6406SOL    HW230681   4.717   2.267  17.190  2.0665  0.1525  1.7186
 6407SOL     OW30682   0.252   1.418   2.921 -0.5075 -0.0179 -0.3882
 6407SOL    HW130683   0.173   1.369   2.900  0.1863 -1.3133  0.0409
 6407SOL    HW230684   0.239   1.494   2.865  1.4621  1.6708  1.4375
 6408SOL     OW30685   1.227   1.574   5.217  0.1187 -0.0627  0.5734
 6408SOL    HW130686   1.242   1.619   5.301 -0.7748  0.7193  0.3087
 6408SOL    HW230687   1.146   1.612   5.183  0.7317 -0.1169 -0.9406
 6409SOL     OW30688   3.186   4.261  14.791 -0.6598  0.0881  0.0125
 6409SOL    HW130689   3.126   4.309  14.734 -0.3834  0.4667  0.0351
 6409SOL    HW230690   3.265   4.316  14.788 -1.2646  1.0164  1.4360
 6410SOL     OW30691   1.038   2.380   6.278 -0.7839  0.3741 -0.3959
 6410SOL    HW130692   1.097   2.349   6.346  0.1261  1.2465 -0.7895
 6410SOL    HW230693   1.098   2.428   6.220  1.4678 -1.2843  0.5691
 6411SOL     OW30694   4.043   0.421   2.477  0.1505 -0.7493  0.0285
 6411SOL    HW130695   4.025   0.487   2.410  0.1974 -1.6216 -0.8480
 6411SOL    HW230696   4.040   0.474   2.557  2.0177  0.1846 -0.5210
 6412SOL     OW30697   1.031   2.514   6.893  0.2906 -0.1435 -1.0750
 6412SOL    HW130698   1.069   2.568   6.962 -2.9390 -0.5959  1.0705
 6412SOL    HW230699   0.940   2.502   6.922  0.8530 -0.8073  0.3962
 6413SOL     OW30700   1.189   1.086   4.047  0.2108  0.0297 -0.2127
 6413SOL    HW130701   1.178   1.181   4.048 -1.0961 -0.1109 -1.0742
 6413SOL    HW230702   1.210   1.073   4.139 -0.4095  0.1396 -0.0548
 6414SOL     OW30703   3.347   0.556  12.142 -0.3164  0.1905 -0.1201
 6414SOL    HW130704   3.427   0.509  12.164  0.0249  0.0051 -1.7295
 6414SOL    HW230705   3.277   0.491  12.148  0.1616 -0.3423 -0.3545
 6415SOL     OW30706   2.680   0.994  16.303  0.2307 -0.4114 -0.4346
 6415SOL    HW130707   2.619   0.926  16.273  0.6948 -1.3902  0.8565
 6415SOL    HW230708   2.693   1.023  16.212 -1.4080  0.3198 -0.4324
 6416SOL     OW30709   0.772   2.408   6.385 -0.1112 -0.4573 -0.0641
 6416SOL    HW130710   0.866   2.398   6.367 -0.2726  0.4043 -1.3724
 6416SOL    HW230711   0.732   2.370   6.307 -0.0517 -1.3969  0.3571
 6417SOL     OW30712   3.984   4.326  12.934  0.1442 -0.2905  0.2027
 6417SOL    HW130713   3.968   4.250  12.990  1.3572 -1.1356 -0.5966
 6417SOL    HW230714   4.031   4.385  12.993  1.1991 -0.6417 -0.2899
 6418SOL     OW30715   0.896   4.433   2.099  0.4408  0.1819  0.3465
 6418SOL    HW130716   0.943   4.353   2.074  1.5616  1.0932 -0.4999
 6418SOL    HW230717   0.963   4.498   2.076 -0.6692  1.1282 -0.2257
 6419SOL     OW30718   3.933   3.813   5.663  0.0400 -0.2381 -0.1492
 6419SOL    HW130719   3.985   3.803   5.583  0.4496  1.0686 -0.0427
 6419SOL    HW230720   3.868   3.743   5.654 -0.1019 -0.2844  1.1808
 6420SOL     OW30721   1.722   2.946   6.160  0.5664 -0.3387  0.4918
 6420SOL    HW130722   1.807   2.907   6.140  2.2217  2.8656  1.3840
 6420SOL    HW230723   1.738   3.040   6.165  1.9689 -0.5527 -0.0573
 6421SOL     OW30724   0.256   4.469   4.238  0.3406  0.0026  0.2893
 6421SOL    HW130725   0.172   4.474   4.192 -0.3469  1.7499  1.7610
 6421SOL    HW230726   0.241   4.377   4.261 -0.9642 -0.4497 -2.4539
 6422SOL     OW30727   2.914   4.345   0.693 -0.3167  0.4321 -0.2523
 6422SOL    HW130728   2.951   4.397   0.764  0.1703  1.5473 -1.3088
 6422SOL    HW230729   2.828   4.317   0.723  1.0214 -3.2137  0.1679
 6423SOL     OW30730   3.506   3.753  10.883 -0.0340  0.8277 -0.1949
 6423SOL    HW130731   3.519   3.658  10.881 -1.0871  0.6617  0.3422
 6423SOL    HW230732   3.503   3.754  10.979  1.5799 -2.2735 -0.1140
 6424SOL     OW30733   0.048   0.014   2.597  0.3490  0.2718 -1.0787
 6424SOL    HW130734   4.707   0.082   2.608 -1.7325 -1.8398 -0.3943
 6424SOL    HW230735   0.009   4.687   2.527 -1.0503  2.0029 -1.5730
 6425SOL     OW30736   4.059   1.761   4.885 -0.1363 -0.2134  0.0167
 6425SOL    HW130737   3.995   1.819   4.843 -1.5960  0.3031  2.9240
 6425SOL    HW230738   4.118   1.765   4.810 -0.1738 -1.4956 -0.0900
 6426SOL     OW30739   2.594   2.336  13.361 -0.3540 -0.3345 -0.1100
 6426SOL    HW130740   2.582   2.335  13.266 -0.6865 -1.7375 -0.0518
 6426SOL    HW230741   2.557   2.424  13.369  1.1185  0.2647  0.1442
 6427SOL     OW30742   1.915   0.835  11.963  0.0443  0.1983  0.8254
 6427SOL    HW130743   1.987   0.857  11.903  0.6005 -0.1305  1.3711
 6427SOL    HW230744   1.962   0.808  12.042 -0.4744  1.1953  1.4650
 6428SOL     OW30745   3.779   2.316   6.717  0.4278 -0.1828  0.4695
 6428SOL    HW130746   3.693   2.274   6.712  0.4580 -0.4647  2.4504
 6428SOL    HW230747   3.830   2.235   6.706  1.2265  0.5189 -0.9981
 6429SOL     OW30748   3.261   3.704   2.448  0.1821 -0.2921  0.5763
 6429SOL    HW130749   3.263   3.780   2.389  0.0630 -0.7382 -0.0057
 6429SOL    HW230750   3.236   3.745   2.531  1.2228  1.0488  0.2460
 6430SOL     OW30751   1.088   4.647   4.343 -0.1319  0.7945 -0.1158
 6430SOL    HW130752   1.160   4.626   4.283  0.7482  1.0048  0.8643
 6430SOL    HW230753   1.017   4.585   4.323  1.9390 -1.0090 -1.9273
 6431SOL     OW30754   4.724   3.065   0.597 -0.2289 -0.1869  0.5133
 6431SOL    HW130755   0.078   3.026   0.560  0.3763  0.4502  1.1333
 6431SOL    HW230756   4.699   3.124   0.525 -0.5859 -1.7959 -0.6821
 6432SOL     OW30757   1.010   0.585   2.560  0.3577  0.4299  0.0779
 6432SOL    HW130758   1.044   0.653   2.618  2.2155 -0.3453 -0.1149
 6432SOL    HW230759   1.089   0.540   2.532 -0.2040 -0.5238  0.0264
 6433SOL     OW30760   1.636   4.506   3.666 -0.4304 -0.4856 -0.3889
 6433SOL    HW130761   1.594   4.593   3.669 -1.7633 -1.1279 -0.2101
 6433SOL    HW230762   1.693   4.507   3.743 -1.8863  0.8119  0.6739
 6434SOL     OW30763   0.906   0.747   7.466 -0.1214  0.2073 -0.0421
 6434SOL    HW130764   0.968   0.734   7.538  0.8270 -1.1717 -1.1001
 6434SOL    HW230765   0.952   0.815   7.416 -1.4337  0.1350 -1.3402
 6435SOL     OW30766   0.264   1.276   4.865 -0.2003 -0.2641 -0.7397
 6435SOL    HW130767   0.283   1.286   4.772 -1.3041 -0.7061 -1.0138
 6435SOL    HW230768   0.310   1.349   4.906  0.7983 -0.7745 -0.9299
 6436SOL     OW30769   3.676   2.746   3.849 -0.5503 -0.4317 -0.3930
 6436SOL    HW130770   3.615   2.732   3.921  1.6413  2.8996  2.0911
 6436SOL    HW230771   3.754   2.747   3.905 -2.3816  1.3185  2.1279
 6437SOL     OW30772   0.325   0.182   3.723 -0.1000 -0.3866 -0.1732
 6437SOL    HW130773   0.272   0.116   3.679  0.9226 -1.1786 -0.2048
 6437SOL    HW230774   0.368   0.126   3.787  0.8675 -0.8705 -1.2375
 6438SOL     OW30775   4.138   3.671   1.001  0.6102  0.7715 -0.2182
 6438SOL    HW130776   4.179   3.620   1.070  0.0996  0.9098  0.1816
 6438SOL    HW230777   4.081   3.603   0.965 -0.0915  2.2068 -1.8456
 6439SOL     OW30778   3.073   1.921  12.872 -0.0620  0.2173 -0.1132
 6439SOL    HW130779   3.044   2.002  12.914  0.2339 -0.3706  1.2184
 6439SOL    HW230780   3.061   1.862  12.947 -2.0329  0.3803 -0.2935
 6440SOL     OW30781   3.935   2.499  16.053  0.9299 -0.6094 -0.1975
 6440SOL    HW130782   3.925   2.483  15.959 -1.7842  0.9987 -0.1929
 6440SOL    HW230783   4.016   2.454  16.073 -0.2761 -2.4720  0.4821
 6441SOL     OW30784   4.174   0.102   1.018 -0.2863  0.4153  0.2006
 6441SOL    HW130785   4.170   0.151   0.935  3.0174 -0.0707 -0.2376
 6441SOL    HW230786   4.256   0.053   1.019 -1.1142 -0.9337  1.3657
 6442SOL     OW30787   3.131   4.153   5.685  0.7153 -0.2722 -0.0757
 6442SOL    HW130788   3.102   4.120   5.600  0.2593 -1.6524  0.5988
 6442SOL    HW230789   3.220   4.182   5.665  0.0456  1.7681 -0.0818
 6443SOL     OW30790   4.236   2.686   2.475  0.4794 -0.4899 -0.2305
 6443SOL    HW130791   4.273   2.656   2.559  0.3581 -0.8981 -0.3228
 6443SOL    HW230792   4.298   2.753   2.449  0.3050  0.2399  1.2077
 6444SOL     OW30793   2.103   1.516   3.485  0.1732  0.0117  0.3486
 6444SOL    HW130794   2.134   1.471   3.407  1.0538  1.1179  0.0686
 6444SOL    HW230795   2.055   1.588   3.445  1.5440  0.2629 -0.8517
 6445SOL     OW30796   3.099   3.063  10.149  0.1800  0.0669  0.3585
 6445SOL    HW130797   3.137   3.142  10.188  0.1831  1.2400 -2.0535
 6445SOL    HW230798   3.179   3.027  10.112  1.0344 -1.5449  3.6931
 6446SOL     OW30799   0.180   4.421  13.092 -0.1993 -0.3682 -0.4774
 6446SOL    HW130800   0.153   4.360  13.161 -0.4518 -1.4807 -1.5441
 6446SOL    HW230801   0.099   4.472  13.091  0.5614  0.8309 -1.0988
 6447SOL     OW30802   4.464   3.376   8.305  0.2580  0.1404  0.0365
 6447SOL    HW130803   4.396   3.433   8.271 -1.3556 -0.1819  2.7434
 6447SOL    HW230804   4.529   3.446   8.314 -1.4567  1.9841 -2.0909
 6448SOL     OW30805   0.133   2.901   1.709 -0.4852  0.2402  0.0798
 6448SOL    HW130806   0.229   2.898   1.715 -0.7110 -0.9897  2.8858
 6448SOL    HW230807   0.122   2.981   1.658 -0.0312  1.0486  1.2700
 6449SOL     OW30808   2.898   0.577   6.876  0.1339 -0.4541  0.2953
 6449SOL    HW130809   2.909   0.523   6.797  0.9663 -0.2403  0.2601
 6449SOL    HW230810   2.986   0.574   6.914  1.9119 -0.3079 -3.7548
 6450SOL     OW30811   2.929   0.117   9.364 -0.4481  0.1947 -0.2313
 6450SOL    HW130812   2.914   0.137   9.271 -0.8708  0.6459 -0.0686
 6450SOL    HW230813   2.862   0.055   9.393 -0.8308 -0.0160 -1.5462
 6451SOL     OW30814   1.613   1.333   4.927 -0.4609  0.0091  0.0520
 6451SOL    HW130815   1.670   1.282   4.985  1.0838  2.5389  0.7539
 6451SOL    HW230816   1.676   1.380   4.873 -0.5977 -1.6137 -1.4987
 6452SOL     OW30817   1.297   1.012   8.427  0.3729 -0.0172  0.2236
 6452SOL    HW130818   1.212   1.031   8.388  0.7468  0.0509 -0.5664
 6452SOL    HW230819   1.334   1.095   8.395 -2.5749  1.4354  0.6558
 6453SOL     OW30820   3.994   1.336  16.415 -0.1426 -0.3042  0.2863
 6453SOL    HW130821   3.900   1.318  16.420 -0.5385  1.4947 -0.6635
 6453SOL    HW230822   3.987   1.398  16.487  1.7910  1.3944 -0.9943
 6454SOL     OW30823   2.317   4.392   4.714  0.3941 -0.2278  0.0946
 6454SOL    HW130824   2.333   4.473   4.763  0.3216 -0.6956  0.8845
 6454SOL    HW230825   2.265   4.351   4.783  1.2569 -2.2550 -0.4682
 6455SOL     OW30826   1.749   1.254   7.606 -0.2237  0.6792  0.1501
 6455SOL    HW130827   1.829   1.213   7.637 -1.1541 -1.1956  0.1118
 6455SOL    HW230828   1.694   1.176   7.608 -1.9019  1.8976  1.9352
 6456SOL     OW30829   2.702   0.682   8.222 -0.4413 -0.1079  0.2683
 6456SOL    HW130830   2.664   0.614   8.278  0.7414  0.0490  1.2716
 6456SOL    HW230831   2.794   0.664   8.238 -0.0934  0.6826 -0.9429
 6457SOL     OW30832   1.233   1.067  13.229  0.0928 -0.2865 -0.1981
 6457SOL    HW130833   1.193   0.980  13.240  0.6705 -0.6531 -0.9424
 6457SOL    HW230834   1.323   1.045  13.253  0.3909  0.7107 -0.4305
 6458SOL     OW30835   3.152   1.759  10.817 -0.1553  0.0532  0.3389
 6458SOL    HW130836   3.215   1.745  10.888  1.4381  0.0536 -1.0697
 6458SOL    HW230837   3.198   1.718  10.744 -0.6574 -0.1818  0.1524
 6459SOL     OW30838   2.463   0.737   2.740 -0.2566  0.3643  0.0332
 6459SOL    HW130839   2.475   0.829   2.763  2.3473  0.1006 -0.3019
 6459SOL    HW230840   2.426   0.742   2.652  1.2260 -2.0651 -0.7420
 6460SOL     OW30841   0.498   2.417   6.499 -0.1784 -0.0320 -0.2902
 6460SOL    HW130842   0.588   2.410   6.468 -0.4909 -3.1693 -0.4162
 6460SOL    HW230843   0.449   2.341   6.468  0.7283 -0.8145  0.2330
 6461SOL     OW30844   2.364   4.292   6.729  0.6518  0.1164  0.0738
 6461SOL    HW130845   2.321   4.216   6.770  0.6166 -1.0112 -2.0932
 6461SOL    HW230846   2.431   4.249   6.676  0.8071 -0.0678  0.4181
 6462SOL     OW30847   1.159   0.715   4.555 -0.3053  0.6655  0.2594
 6462SOL    HW130848   1.168   0.733   4.462 -0.0967  0.0217  0.1548
 6462SOL    HW230849   1.109   0.794   4.575 -1.0469 -0.3211  2.3522
 6463SOL     OW30850   1.796   0.916   4.481  0.4458  0.0447  0.0122
 6463SOL    HW130851   1.744   0.975   4.427 -0.1151 -1.2805 -0.9114
 6463SOL    HW230852   1.755   0.925   4.566  1.3417  0.7153  0.3795
 6464SOL     OW30853   2.274   4.492   6.995  0.3021  0.1313  0.1645
 6464SOL    HW130854   2.296   4.447   7.077  0.4360  0.9488  0.5872
 6464SOL    HW230855   2.206   4.432   6.966  0.9142 -1.5879  2.2750
 6465SOL     OW30856   3.300   3.225   5.326 -0.4739  0.3920  0.0677
 6465SOL    HW130857   3.297   3.133   5.352  1.0851  0.4469  0.4352
 6465SOL    HW230858   3.386   3.218   5.285  0.4081  2.7605  1.5595
 6466SOL     OW30859   2.609   0.570   5.648 -0.4031  0.0128  0.3049
 6466SOL    HW130860   2.603   0.644   5.708  0.1635  1.4075 -1.3760
 6466SOL    HW230861   2.580   0.498   5.703 -1.3388  1.4453  1.6771
 6467SOL     OW30862   3.482   3.416   0.424  0.5460 -0.0002 -0.5050
 6467SOL    HW130863   3.454   3.330   0.455 -2.0305  0.6863 -0.9240
 6467SOL    HW230864   3.446   3.405   0.336  1.0053  1.5168 -0.8862
 6468SOL     OW30865   3.873   1.168  11.772  0.4661  0.3645 -0.6677
 6468SOL    HW130866   3.850   1.153  11.680  0.1450  0.8979 -0.6691
 6468SOL    HW230867   3.968   1.153  11.768  0.1693 -1.1815 -1.8067
 6469SOL     OW30868   4.371   3.228   2.030  0.4698  0.0363  0.2666
 6469SOL    HW130869   4.338   3.164   1.968  2.1718 -1.7373  1.1627
 6469SOL    HW230870   4.459   3.194   2.045  0.8094 -0.5955 -3.1854
 6470SOL     OW30871   3.946   1.895   5.578  0.4496 -0.4281  0.1915
 6470SOL    HW130872   4.006   1.902   5.504 -0.8150 -0.6568 -0.8590
 6470SOL    HW230873   3.875   1.841   5.543  0.1361 -0.5855  1.0756
 6471SOL     OW30874   4.249   3.189   8.164  0.0735  0.2482 -0.6933
 6471SOL    HW130875   4.193   3.257   8.200  0.1118  0.9974 -2.0362
 6471SOL    HW230876   4.289   3.161   8.246 -0.3959 -1.9598 -1.2182
 6472SOL     OW30877   2.620   3.370   7.962 -0.0424  0.4586  0.0817
 6472SOL    HW130878   2.531   3.373   7.925 -1.1343 -0.6709  2.6053
 6472SOL    HW230879   2.642   3.277   7.960 -0.2370  0.4019  0.5516
 6473SOL     OW30880   4.029   4.666   2.160 -0.6737  0.6948 -0.2746
 6473SOL    HW130881   3.945   4.655   2.203 -1.1573 -1.1152 -1.6718
 6473SOL    HW230882   4.041   0.029   2.196 -1.3901 -0.2578  2.2260
 6474SOL     OW30883   0.862   0.942   3.845 -0.1375  0.5977  0.4725
 6474SOL    HW130884   0.786   0.999   3.834  0.6238  1.8778  1.7492
 6474SOL    HW230885   0.820   0.858   3.827  0.2433  0.6710 -0.7430
 6475SOL     OW30886   1.548   0.480  10.149  0.1943  0.0170  0.3279
 6475SOL    HW130887   1.532   0.520  10.234  0.0780 -0.5929  0.5895
 6475SOL    HW230888   1.472   0.423  10.139 -1.0414  1.8450 -0.6761
 6476SOL     OW30889   3.203   4.222   4.783 -0.1522  0.2942  0.2667
 6476SOL    HW130890   3.169   4.311   4.793 -1.5233 -0.3274  1.1502
 6476SOL    HW230891   3.221   4.220   4.689  0.6809  0.3320  0.4202
 6477SOL     OW30892   2.872   4.525  14.228  0.1426 -0.1478 -0.0751
 6477SOL    HW130893   2.888   4.619  14.236 -0.7930  0.1339 -1.5916
 6477SOL    HW230894   2.953   4.498  14.185  1.1094  2.2717  0.2352
 6478SOL     OW30895   2.646   2.494   8.636  0.2170  0.0655 -0.6007
 6478SOL    HW130896   2.662   2.564   8.573  1.8926 -1.6162 -2.0355
 6478SOL    HW230897   2.690   2.527   8.714 -0.5907 -0.5786  0.1348
 6479SOL     OW30898   2.316   1.646   0.881  0.4790  0.4070 -0.2941
 6479SOL    HW130899   2.300   1.709   0.952 -0.7637 -0.1468 -0.0763
 6479SOL    HW230900   2.299   1.703   0.806 -1.5685  2.6461  1.8499
 6480SOL     OW30901   2.455   1.818  14.513 -0.0782 -0.4072  0.2292
 6480SOL    HW130902   2.380   1.760  14.524  0.4579 -1.6139 -2.5229
 6480SOL    HW230903   2.497   1.772  14.440  1.7689 -1.0277  1.6852
 6481SOL     OW30904   3.775   2.582  16.232 -0.1280  0.3030 -0.4646
 6481SOL    HW130905   3.707   2.592  16.166 -0.4450  1.9051  0.0951
 6481SOL    HW230906   3.837   2.542  16.172  0.1166  1.4598 -0.9777
 6482SOL     OW30907   0.130   2.329  10.317 -0.0429 -0.0350  0.0357
 6482SOL    HW130908   0.103   2.408  10.364  2.0352 -0.4053  1.8697
 6482SOL    HW230909   0.203   2.292  10.367 -0.6557  0.3138  1.1861
 6483SOL     OW30910   2.600   1.972  12.288  0.3786  0.7444 -0.5823
 6483SOL    HW130911   2.642   2.046  12.331  1.3274 -0.2180  0.1430
 6483SOL    HW230912   2.576   1.920  12.364 -1.6588  2.7716  0.1439
 6484SOL     OW30913   1.728   0.812   3.500 -0.1658 -0.2104 -0.0787
 6484SOL    HW130914   1.707   0.904   3.514  2.7075 -0.0330  3.0220
 6484SOL    HW230915   1.810   0.830   3.455 -0.1844 -2.2546 -0.9428
 6485SOL     OW30916   2.039   3.507   0.533  0.3415 -0.5273 -0.1392
 6485SOL    HW130917   1.970   3.565   0.502  1.0187  0.1452 -0.4014
 6485SOL    HW230918   1.997   3.450   0.597 -0.6996  0.2181 -0.1656
 6486SOL     OW30919   1.757   0.163  10.343  0.1049 -0.3887  0.2129
 6486SOL    HW130920   1.767   0.073  10.311 -1.3029  0.3059 -2.1281
 6486SOL    HW230921   1.772   0.222  10.269 -1.6729 -2.0846 -1.4903
 6487SOL     OW30922   0.895   0.321   7.752  0.7524 -0.4222  0.4130
 6487SOL    HW130923   0.885   0.370   7.834 -2.3272 -1.4467  0.6432
 6487SOL    HW230924   0.889   0.383   7.679 -2.4384 -0.8539  0.3114
 6488SOL     OW30925   4.262   1.633  16.325  0.1615 -0.1848  0.5790
 6488SOL    HW130926   4.341   1.667  16.283 -0.7509  0.5162 -0.5839
 6488SOL    HW230927   4.220   1.712  16.358  2.3988  0.4470  1.8832
 6489SOL     OW30928   3.931   3.256   8.127  0.4512  0.0080  0.6383
 6489SOL    HW130929   3.982   3.275   8.206  0.6944 -2.1557  1.0145
 6489SOL    HW230930   3.941   3.161   8.126 -0.4969 -0.1429  3.3429
 6490SOL     OW30931   3.060   3.867   3.712  0.3831  0.2228  0.6297
 6490SOL    HW130932   3.031   3.776   3.721 -1.8320  0.8407 -0.3213
 6490SOL    HW230933   3.155   3.861   3.702  0.2198 -1.5412  0.0207
 6491SOL     OW30934   3.717   1.393   2.377 -0.1374  0.6581  0.1166
 6491SOL    HW130935   3.765   1.413   2.457 -0.8814  2.8223  0.0416
 6491SOL    HW230936   3.759   1.311   2.353  0.8709  0.9401  0.9450
 6492SOL     OW30937   3.403   0.179   2.700  0.0128  0.0743 -0.2054
 6492SOL    HW130938   3.462   0.193   2.774  1.5146 -1.2629 -1.1595
 6492SOL    HW230939   3.373   0.090   2.719 -1.8393  1.2421  2.3232
 6493SOL     OW30940   2.339   1.462  15.607  0.1439 -0.0316  0.0751
 6493SOL    HW130941   2.295   1.396  15.555 -0.0300 -0.6961  1.0639
 6493SOL    HW230942   2.431   1.434  15.612  0.1435 -0.4101 -1.9846
 6494SOL     OW30943   1.821   3.354  16.477  0.2515 -0.2551 -0.4450
 6494SOL    HW130944   1.814   3.434  16.425 -2.7680  0.0681  0.4685
 6494SOL    HW230945   1.903   3.359  16.527  0.1460  2.7329 -0.5463
 6495SOL     OW30946   1.855   0.176   3.537  0.1889 -0.2432 -0.2697
 6495SOL    HW130947   1.854   0.082   3.522 -1.2059 -0.1835 -0.5663
 6495SOL    HW230948   1.898   0.184   3.622 -0.3410  2.7825 -0.2829
 6496SOL     OW30949   3.380   1.584   3.580 -0.7296 -0.1664  0.1581
 6496SOL    HW130950   3.468   1.555   3.605 -1.2754 -2.4506 -0.5281
 6496SOL    HW230951   3.400   1.670   3.544 -0.6490 -0.0039  0.5953
 6497SOL     OW30952   1.838   0.611   8.752  0.6241 -0.1816 -0.8937
 6497SOL    HW130953   1.768   0.671   8.776  0.5106 -1.7742  2.8501
 6497SOL    HW230954   1.888   0.593   8.832 -1.2794 -0.2676  0.2799
 6498SOL     OW30955   3.193   2.110   9.249  0.0451  0.2362  0.2747
 6498SOL    HW130956   3.109   2.109   9.295 -0.7236 -0.2633 -1.1186
 6498SOL    HW230957   3.260   2.119   9.316  0.1916 -2.3473  0.5047
 6499SOL     OW30958   3.281   0.348  11.351  0.2730  0.6481  0.0348
 6499SOL    HW130959   3.350   0.378  11.291  0.8978 -3.4123 -1.2735
 6499SOL    HW230960   3.246   0.428  11.389 -0.1995 -0.6255  2.2681
 6500SOL     OW30961   1.271   4.132   1.678 -0.0562  0.2170 -0.6792
 6500SOL    HW130962   1.257   4.222   1.650 -0.8252  0.4728  0.5459
 6500SOL    HW230963   1.182   4.109   1.705 -0.0284 -1.5242 -2.0291
 6501SOL     OW30964   0.061   0.242   7.181  0.4842  0.3613  0.0313
 6501SOL    HW130965   4.709   0.212   7.231 -0.8120 -1.1564 -2.8673
 6501SOL    HW230966   0.052   0.190   7.102 -3.1367  1.2642 -0.1706
 6502SOL     OW30967   3.862   2.840  12.667  0.3288 -0.0773  0.2827
 6502SOL    HW130968   3.849   2.884  12.583 -3.1104 -0.4022  0.6365
 6502SOL    HW230969   3.954   2.862  12.681 -0.4933  4.1239 -0.9674
 6503SOL     OW30970   2.547   4.240   5.364 -0.0356 -0.3575  0.3409
 6503SOL    HW130971   2.597   4.241   5.446 -0.9951 -2.4956  0.9623
 6503SOL    HW230972   2.467   4.211   5.407 -0.7094 -0.5399 -1.0407
 6504SOL     OW30973   4.109   4.710   4.101  0.0674  0.4866  0.2734
 6504SOL    HW130974   4.126   0.076   4.125 -0.1248  1.2873 -2.5788
 6504SOL    HW230975   4.020   4.694   4.131  1.3771 -1.0817  3.3080
 6505SOL     OW30976   1.233   4.198  12.646 -0.5737 -0.9316  0.5290
 6505SOL    HW130977   1.236   4.190  12.741 -0.6401  1.5400  0.7324
 6505SOL    HW230978   1.295   4.129  12.623  1.5083  1.7245 -1.9050
 6506SOL     OW30979   1.933   3.136  10.136  0.6721  0.2793 -0.3790
 6506SOL    HW130980   1.898   3.075  10.071 -1.1305  0.4309  0.4465
 6506SOL    HW230981   2.018   3.097  10.155  0.6193  0.1832 -0.3446
 6507SOL     OW30982   3.353   1.317   3.443  0.5778  0.1505 -0.1853
 6507SOL    HW130983   3.402   1.262   3.504 -1.2558  1.7311  2.6840
 6507SOL    HW230984   3.393   1.401   3.462 -2.5510  1.7935 -0.8676
 6508SOL     OW30985   4.453   4.409   0.030 -0.1435 -0.0779 -0.4355
 6508SOL    HW130986   4.415   4.342  17.673 -1.5734  0.6990 -0.4006
 6508SOL    HW230987   4.377   4.441   0.078 -3.5902 -1.3647 -5.0166
 6509SOL     OW30988   4.302   2.228   7.817 -0.1846 -0.5747 -0.6818
 6509SOL    HW130989   4.377   2.183   7.856  0.8996 -0.5696 -2.7923
 6509SOL    HW230990   4.315   2.317   7.850  1.5868 -0.1833 -2.5013
 6510SOL     OW30991   3.850   2.969   8.369 -0.2319 -0.1181  0.0285
 6510SOL    HW130992   3.904   2.973   8.291 -0.0879  0.9087  0.1702
 6510SOL    HW230993   3.815   2.881   8.358  1.6824 -0.6141 -1.9863
 6511SOL     OW30994   2.760   3.892  17.303  0.0094  0.3146 -0.1642
 6511SOL    HW130995   2.712   3.920  17.381 -0.9776 -0.7804 -0.3860
 6511SOL    HW230996   2.720   3.953  17.242 -1.3996 -0.2549  0.1865
 6512SOL     OW30997   1.321   2.252   5.441  0.5944 -0.6255  0.8706
 6512SOL    HW130998   1.394   2.229   5.384  2.2822 -0.1528  2.8143
 6512SOL    HW230999   1.358   2.203   5.515  0.6388 -0.2081  1.1258
 6513SOL     OW31000   1.004   3.869   4.878  0.4811  0.1715  0.0978
 6513SOL    HW131001   1.012   3.820   4.960 -0.8474 -2.2016 -1.1969
 6513SOL    HW231002   0.910   3.877   4.863  0.8085  0.7553 -1.6764
 6514SOL     OW31003   2.063   3.912   5.442  0.5767  0.0967  0.1495
 6514SOL    HW131004   2.012   3.842   5.400 -0.4618  0.2656  1.1127
 6514SOL    HW231005   2.049   3.977   5.374  1.1115  1.8404  1.7283
 6515SOL     OW31006   3.432   1.592   1.820  0.1944  0.2974 -0.0047
 6515SOL    HW131007   3.385   1.670   1.849 -1.1763 -0.6847  0.4207
 6515SOL    HW231008   3.379   1.555   1.748  0.5549  2.2202 -1.2489
 6516SOL     OW31009   0.876   3.275   3.328 -0.1776  0.0448 -0.2157
 6516SOL    HW131010   0.904   3.224   3.253 -1.6303  0.2596 -0.8826
 6516SOL    HW231011   0.782   3.293   3.323  0.0046  1.4797  1.2806
 6517SOL     OW31012   0.138   1.354  14.573 -0.4603  0.3351 -0.0610
 6517SOL    HW131013   0.154   1.260  14.586  0.6530  0.6008  0.4832
 6517SOL    HW231014   0.045   1.355  14.592 -0.4386  4.5876 -0.3090
 6518SOL     OW31015   3.041   1.956   5.512 -0.1201  0.6107  0.0275
 6518SOL    HW131016   2.984   1.912   5.575 -1.0116  0.3814 -0.9390
 6518SOL    HW231017   3.035   1.904   5.431  0.0042 -1.8696  1.6149
 6519SOL     OW31018   3.487   3.343   5.926  0.5143  0.5391 -0.0005
 6519SOL    HW131019   3.574   3.302   5.926  1.1296  1.8082 -1.8667
 6519SOL    HW231020   3.473   3.346   6.021 -0.1087 -0.6791 -0.0552
 6520SOL     OW31021   2.003   4.602   9.550  0.8615 -0.0228 -0.0388
 6520SOL    HW131022   1.959   4.654   9.618 -2.0857 -2.0931 -0.3666
 6520SOL    HW231023   1.948   4.607   9.472  0.0608 -2.7471  0.3781
 6521SOL     OW31024   0.325   2.128   3.349 -0.0764  0.6329 -0.0679
 6521SOL    HW131025   0.264   2.058   3.325 -0.1490 -0.0120  2.0283
 6521SOL    HW231026   0.359   2.100   3.434 -1.2299 -1.0147 -0.1441
 6522SOL     OW31027   0.939   1.389  14.135  0.0205 -0.3113  0.3691
 6522SOL    HW131028   0.883   1.432  14.200 -2.5986 -0.3698 -1.8576
 6522SOL    HW231029   0.882   1.320  14.102 -1.1686  0.4614  0.8094
 6523SOL     OW31030   3.057   3.590  17.650 -0.6124  0.5179  0.1617
 6523SOL    HW131031   3.027   3.549   0.031  0.2897  1.7428  1.1084
 6523SOL    HW231032   3.002   3.548  17.584 -0.2799 -0.1678  0.3134
 6524SOL     OW31033   0.817   3.498   4.063 -0.0353 -0.6979  0.2877
 6524SOL    HW131034   0.759   3.574   4.065 -1.1600 -1.6563  3.7420
 6524SOL    HW231035   0.881   3.528   4.127 -1.3065 -0.2364  1.3485
 6525SOL     OW31036   0.815   3.072  12.112 -0.0984  0.0145 -0.1695
 6525SOL    HW131037   0.858   3.102  12.192 -0.1996  1.0414 -0.5033
 6525SOL    HW231038   0.732   3.040  12.148  1.6093 -1.3690  2.4650
 6526SOL     OW31039   4.192   1.720   7.754  0.4462 -0.0165 -0.5357
 6526SOL    HW131040   4.167   1.764   7.835  2.3682 -0.5186  0.3365
 6526SOL    HW231041   4.118   1.661   7.741  1.1555 -0.3929 -2.8124
 6527SOL     OW31042   2.039   4.301   9.505 -0.6989 -0.5128  0.1550
 6527SOL    HW131043   2.041   4.302   9.601  2.2560  2.0795  0.0614
 6527SOL    HW231044   2.010   4.392   9.508 -1.0298 -0.7538  4.4679
 6528SOL     OW31045   1.895   2.030  12.169 -0.3508 -0.8370  0.2687
 6528SOL    HW131046   1.942   2.022  12.086  1.2531  0.0513  1.1059
 6528SOL    HW231047   1.867   2.121  12.158 -1.5568 -1.1984  0.3039
 6529SOL     OW31048   0.552   4.654   6.326  0.1782  0.3095  0.0118
 6529SOL    HW131049   0.630   4.634   6.377  1.1235  0.8002 -1.2402
 6529SOL    HW231050   0.521   0.010   6.369  0.1056  1.1079 -1.5387
 6530SOL     OW31051   2.434   3.249  13.334 -0.6240 -0.0972  0.4281
 6530SOL    HW131052   2.349   3.291  13.332 -0.1973  0.7749  0.6069
 6530SOL    HW231053   2.431   3.200  13.252 -1.9802  0.5450  0.0932
 6531SOL     OW31054   1.503   4.229   4.653 -0.2665 -0.6777  0.1558
 6531SOL    HW131055   1.586   4.273   4.672 -1.3876  1.7396 -0.5517
 6531SOL    HW231056   1.538   4.142   4.634  0.0613 -0.1951 -1.4704
 6532SOL     OW31057   2.618   3.154   3.357 -0.0516  0.1828 -0.2903
 6532SOL    HW131058   2.593   3.148   3.265 -0.3357  0.4137 -0.2301
 6532SOL    HW231059   2.695   3.098   3.355 -1.0618 -1.2069 -0.2571
 6533SOL     OW31060   2.229   2.796   5.924 -0.1861  0.3721 -0.4136
 6533SOL    HW131061   2.159   2.737   5.894 -0.4869  0.4514  0.1370
 6533SOL    HW231062   2.205   2.865   5.861  2.8093  0.5206 -1.3795
 6534SOL     OW31063   2.405   2.556   8.566 -0.0965 -0.0975 -0.4509
 6534SOL    HW131064   2.371   2.573   8.654  0.9404 -1.6475  0.2431
 6534SOL    HW231065   2.479   2.507   8.600 -1.6882 -1.2601  1.3606
 6535SOL     OW31066   4.665   0.528   3.415 -0.3753 -0.7655  0.4015
 6535SOL    HW131067   4.643   0.453   3.360  0.2768 -0.0473 -0.8427
 6535SOL    HW231068   4.722   0.480   3.475  0.8735 -0.2909 -0.3911
 6536SOL     OW31069   1.741   3.902  11.304 -0.5246 -0.3227 -0.8205
 6536SOL    HW131070   1.666   3.845  11.288  1.0317 -3.5982  3.6141
 6536SOL    HW231071   1.800   3.884  11.230  0.0652 -1.0144 -0.1771
 6537SOL     OW31072   0.767   1.424   5.079  0.4642 -0.1330 -0.0642
 6537SOL    HW131073   0.832   1.371   5.126  0.9692 -0.9008 -1.6109
 6537SOL    HW231074   0.780   1.506   5.125  0.0523  0.4787 -1.0463
 6538SOL     OW31075   0.627   0.557   4.911 -0.3025 -0.0522 -0.6457
 6538SOL    HW131076   0.609   0.463   4.919  0.5550 -0.1751 -0.1495
 6538SOL    HW231077   0.578   0.587   4.989  1.0106  0.7548 -0.1374
 6539SOL     OW31078   2.482   2.809   8.833 -0.1868  0.1110  0.1705
 6539SOL    HW131079   2.577   2.797   8.834 -0.0533  1.0079 -2.2489
 6539SOL    HW231080   2.479   2.840   8.924 -1.5484  5.6814 -1.7293
 6540SOL     OW31081   1.007   4.546   7.551  0.8193 -0.2698 -0.5082
 6540SOL    HW131082   1.082   4.600   7.578 -0.7443  0.9739  1.3482
 6540SOL    HW231083   1.033   4.523   7.462  0.4618 -1.7557 -0.2213
 6541SOL     OW31084   3.049   2.711   2.145 -0.6034  0.1669  0.0803
 6541SOL    HW131085   3.044   2.643   2.078 -0.1384  1.0522 -0.8676
 6541SOL    HW231086   3.072   2.657   2.220  0.7222 -0.5893 -0.8788
 6542SOL     OW31087   0.508   1.401   8.355 -0.0773 -0.3979  0.2767
 6542SOL    HW131088   0.505   1.419   8.449  0.4977  1.8278 -0.1331
 6542SOL    HW231089   0.530   1.308   8.364 -0.1218 -0.4945 -0.6019
 6543SOL     OW31090   2.602   2.073   6.362 -0.3807  0.3626 -0.2429
 6543SOL    HW131091   2.593   2.028   6.446 -0.3364  2.2420  0.7640
 6543SOL    HW231092   2.696   2.083   6.351 -0.5230 -0.6155 -2.4800
 6544SOL     OW31093   1.803   3.581   0.865  0.0896  0.2440 -0.0506
 6544SOL    HW131094   1.804   3.563   0.771  2.4319 -0.4721  0.1016
 6544SOL    HW231095   1.887   3.628   0.866 -0.5005  1.3231 -1.3985
 6545SOL     OW31096   3.459   2.978   7.158 -0.1886  0.0403 -0.1881
 6545SOL    HW131097   3.378   2.983   7.107 -0.1024 -0.8396 -0.4132
 6545SOL    HW231098   3.436   3.046   7.220 -0.5330  0.5966 -0.9193
 6546SOL     OW31099   1.063   1.268   5.633  1.1396  0.0416 -0.1367
 6546SOL    HW131100   1.059   1.312   5.548  1.3684  0.3049 -0.0079
 6546SOL    HW231101   1.118   1.328   5.682 -0.2959 -0.2291  1.8256
 6547SOL     OW31102   1.188   2.070  12.858  0.0807  0.1743  0.0442
 6547SOL    HW131103   1.233   2.135  12.912 -0.7675  0.4056  0.4610
 6547SOL    HW231104   1.113   2.061  12.917  0.1024  0.7840  0.1613
 6548SOL     OW31105   1.281   0.642  13.062  0.2319 -0.0851 -0.3042
 6548SOL    HW131106   1.313   0.568  13.113 -0.0603  0.9695  1.4215
 6548SOL    HW231107   1.219   0.675  13.127  0.8790 -0.4673  0.5032
 6549SOL     OW31108   2.796   2.963   2.440  0.4461 -0.2833 -0.0912
 6549SOL    HW131109   2.772   2.904   2.368 -2.0298 -0.3487  0.7893
 6549SOL    HW231110   2.891   2.962   2.444  0.5036 -1.6542 -1.6073
 6550SOL     OW31111   4.654   2.484   4.979  0.2099  0.0001 -0.3804
 6550SOL    HW131112   0.022   2.461   4.976  0.2793  0.0725  1.3896
 6550SOL    HW231113   4.657   2.571   4.938 -1.9746  0.4262  0.3480
 6551SOL     OW31114   0.193   3.131  16.465  0.1713 -0.1320 -0.2558
 6551SOL    HW131115   0.241   3.172  16.537  0.0988 -1.2130  0.4141
 6551SOL    HW231116   0.165   3.210  16.419 -0.3833 -1.2811 -1.8975
 6552SOL     OW31117   0.791   2.648   6.668 -0.0111 -0.7665  0.2656
 6552SOL    HW131118   0.830   2.581   6.725 -1.8967 -2.0919  0.0314
 6552SOL    HW231119   0.753   2.589   6.603  1.2787 -1.8499  0.4933
 6553SOL     OW31120   3.294   3.171   3.272  0.6587  0.0969  0.2013
 6553SOL    HW131121   3.280   3.203   3.361 -1.9549  2.3147 -0.9777
 6553SOL    HW231122   3.375   3.217   3.248 -0.3548  1.6298 -0.2982
 6554SOL     OW31123   2.253   1.649  14.520  0.2658  0.1801  0.1830
 6554SOL    HW131124   2.267   1.557  14.498 -1.5524 -0.5496  2.1762
 6554SOL    HW231125   2.218   1.651  14.609 -1.2009  3.0476 -0.4640
 6555SOL     OW31126   1.797   3.898   3.703 -0.1184  0.0298 -1.0239
 6555SOL    HW131127   1.761   3.888   3.616 -2.8155 -1.9540  0.3223
 6555SOL    HW231128   1.729   3.948   3.748  1.9359  0.6578  1.4612
 6556SOL     OW31129   4.201   2.055   3.855 -0.4380  0.2871  0.0229
 6556SOL    HW131130   4.209   1.979   3.797  1.0714 -1.6144  2.6845
 6556SOL    HW231131   4.254   2.029   3.931 -0.9846 -1.2531 -0.1116
 6557SOL     OW31132   3.520   3.862   7.602  0.0086 -0.1249 -0.1500
 6557SOL    HW131133   3.488   3.905   7.522 -1.4442  0.2802  0.6437
 6557SOL    HW231134   3.569   3.939   7.631  2.0813 -1.9434  1.1760
 6558SOL     OW31135   1.183   1.053   5.085 -0.4589 -0.0830 -0.6677
 6558SOL    HW131136   1.175   1.088   4.996 -2.2853  2.7903  0.6204
 6558SOL    HW231137   1.102   1.002   5.085  0.0421 -0.8775  2.4007
 6559SOL     OW31138   2.295   1.796  12.909 -0.3227 -0.2557 -0.6972
 6559SOL    HW131139   2.282   1.844  12.991 -1.4697 -0.8867 -0.5057
 6559SOL    HW231140   2.339   1.716  12.937  0.8943  0.2205 -1.2589
 6560SOL     OW31141   0.243   4.430   2.831 -0.0737 -0.5382  0.7557
 6560SOL    HW131142   0.224   4.364   2.764  1.0581  1.2447 -1.3059
 6560SOL    HW231143   0.161   4.428   2.881  0.3108  0.8854  1.4482
 6561SOL     OW31144   2.252   3.693   2.733 -0.2584  0.2674 -0.7884
 6561SOL    HW131145   2.322   3.758   2.726 -2.8983  2.9830 -1.7725
 6561SOL    HW231146   2.191   3.728   2.668 -2.3698  1.6984  1.9657
 6562SOL     OW31147   3.357   2.820   2.174  0.7788 -0.4877 -0.2121
 6562SOL    HW131148   3.293   2.748   2.168  0.2274  0.0758 -1.2400
 6562SOL    HW231149   3.423   2.803   2.240  0.8970 -0.0889 -0.2253
 6563SOL     OW31150   0.834   4.285   9.127 -0.1074  0.2716  0.4408
 6563SOL    HW131151   0.755   4.288   9.073 -0.0052 -0.9845  0.2279
 6563SOL    HW231152   0.806   4.331   9.206 -0.7141 -2.1980  1.6600
 6564SOL     OW31153   2.708   0.673   9.084  0.0965 -0.4123  0.4809
 6564SOL    HW131154   2.720   0.767   9.090 -0.7046 -0.2372 -0.5797
 6564SOL    HW231155   2.794   0.642   9.054 -0.8432 -1.5668 -1.0360
 6565SOL     OW31156   4.419   3.927   4.560 -0.2752 -0.5803  0.2239
 6565SOL    HW131157   4.432   3.890   4.648  1.7601 -1.3654 -0.4294
 6565SOL    HW231158   4.420   4.022   4.552 -0.7855 -0.3981  2.1285
 6566SOL     OW31159   3.354   0.454   5.485 -0.0493 -0.0314 -0.1537
 6566SOL    HW131160   3.299   0.411   5.550 -0.4673 -1.1365 -1.2290
 6566SOL    HW231161   3.428   0.475   5.542  0.1122  0.0729 -0.4003
 6567SOL     OW31162   1.015   3.557  16.786  0.2158  0.5896 -0.0463
 6567SOL    HW131163   0.942   3.600  16.741 -2.0890 -2.5332  0.7078
 6567SOL    HW231164   1.026   3.482  16.728  0.7552  0.8039 -0.2182
 6568SOL     OW31165   0.353   1.049   5.004 -0.3370 -0.1805 -0.4473
 6568SOL    HW131166   0.389   0.996   4.932 -0.9050  0.7435 -1.4092
 6568SOL    HW231167   0.326   1.129   4.959  0.8572 -1.0988 -2.7868
 6569SOL     OW31168   0.206   1.028   4.294 -0.9717  0.3603 -0.5946
 6569SOL    HW131169   0.143   1.022   4.223 -2.5870  0.8368  0.8109
 6569SOL    HW231170   0.233   1.118   4.272 -0.9922  0.5947  0.3217
 6570SOL     OW31171   3.655   4.356   5.038  0.0011 -0.2752 -0.4623
 6570SOL    HW131172   3.591   4.316   4.979 -0.5405 -0.4017  0.2184
 6570SOL    HW231173   3.651   4.293   5.110 -0.9685  0.1846 -0.1271
 6571SOL     OW31174   1.756   2.756   1.930 -0.1344 -0.1860  0.0850
 6571SOL    HW131175   1.737   2.735   1.839 -1.0751 -0.5227  0.3553
 6571SOL    HW231176   1.734   2.849   1.930 -0.6662 -0.2994  2.7638
 6572SOL     OW31177   1.153   0.860  16.406 -0.1432  0.8123 -0.3075
 6572SOL    HW131178   1.193   0.855  16.319 -0.4966 -0.5740 -0.3913
 6572SOL    HW231179   1.119   0.949  16.401 -1.3641  0.4940  2.7893
 6573SOL     OW31180   3.720   2.164  16.580  0.5401  0.0607  0.1325
 6573SOL    HW131181   3.756   2.096  16.637 -0.2274  0.2065  0.8084
 6573SOL    HW231182   3.652   2.205  16.634  1.8761  1.0176  1.0856
 6574SOL     OW31183   4.226   2.002   4.921 -0.1813  0.0463  0.5575
 6574SOL    HW131184   4.281   2.032   4.994 -1.8271 -1.0996  2.2939
 6574SOL    HW231185   4.287   1.990   4.849 -0.0551  2.6306  0.2418
 6575SOL     OW31186   1.331   1.840   7.016  0.2409 -0.3261  0.6330
 6575SOL    HW131187   1.301   1.930   7.003 -1.0784 -0.9759 -0.7965
 6575SOL    HW231188   1.305   1.793   6.938  0.8664 -0.4646  0.5071
 6576SOL     OW31189   4.475   2.332   7.492 -0.2720  0.1548  0.4172
 6576SOL    HW131190   4.493   2.400   7.428 -2.3565  1.1447  0.8819
 6576SOL    HW231191   4.381   2.316   7.478 -0.1269 -1.0600  0.8178
 6577SOL     OW31192   2.165   3.442   2.034 -0.1655 -0.1256 -0.4532
 6577SOL    HW131193   2.140   3.534   2.027  2.0933  0.4429 -1.1489
 6577SOL    HW231194   2.172   3.415   1.942  1.9131  2.1190 -0.9721
 6578SOL     OW31195   3.878   0.998   7.841  0.2333 -0.1798 -0.2115
 6578SOL    HW131196   3.816   0.948   7.788  1.2057  0.8279 -2.2733
 6578SOL    HW231197   3.962   0.975   7.803 -0.0492 -1.3212 -0.1604
 6579SOL     OW31198   0.571   2.744  13.540 -0.6196 -0.5875  0.3822
 6579SOL    HW131199   0.553   2.738  13.446  3.2064  1.6785 -0.4973
 6579SOL    HW231200   0.634   2.674  13.555  2.1492  1.9320  0.7315
 6580SOL     OW31201   2.074   0.969   2.062  0.1609 -0.3706  0.0940
 6580SOL    HW131202   2.137   0.950   1.992  1.2528 -3.0050  1.8049
 6580SOL    HW231203   2.126   0.953   2.141 -1.1273 -0.7531  0.8578
 6581SOL     OW31204   1.464   0.211   3.985 -0.2574 -0.3760  0.6482
 6581SOL    HW131205   1.472   0.132   3.931 -0.8488 -0.0997  0.1566
 6581SOL    HW231206   1.407   0.272   3.938  0.4539  1.9143  2.7504
 6582SOL     OW31207   1.110   2.686   0.225  0.0381 -0.0300 -0.7657
 6582SOL    HW131208   1.112   2.627   0.300  1.5871  0.7284 -0.2125
 6582SOL    HW231209   1.122   2.776   0.256  0.6937 -0.1926 -0.5622
 6583SOL     OW31210   2.590   0.311   7.741 -0.3729  0.2249 -0.2694
 6583SOL    HW131211   2.672   0.346   7.708 -0.1998  1.5165  1.5551
 6583SOL    HW231212   2.528   0.372   7.701 -1.6048  1.2072  3.0958
 6584SOL     OW31213   2.948   2.825   1.221 -0.2768  0.0752  0.0047
 6584SOL    HW131214   2.994   2.862   1.297 -0.2609 -0.6968  0.3777
 6584SOL    HW231215   2.977   2.734   1.233  1.2102  0.6638  0.8624
 6585SOL     OW31216   1.076   2.381   5.400  0.0073 -0.1907  0.1501
 6585SOL    HW131217   1.160   2.336   5.395  0.2609  0.3805 -0.8669
 6585SOL    HW231218   1.095   2.458   5.453 -0.7024 -0.8439  1.3561
 6586SOL     OW31219   1.877   3.621  16.378  0.4595 -0.2844 -0.5427
 6586SOL    HW131220   1.877   3.681  16.452 -1.4697  0.1969 -0.9116
 6586SOL    HW231221   1.965   3.584  16.371  0.3752 -0.5413 -0.2396
 6587SOL     OW31222   1.750   1.705  16.216 -0.1354 -0.2352  0.3255
 6587SOL    HW131223   1.776   1.795  16.237  1.2284 -0.2663 -1.2259
 6587SOL    HW231224   1.831   1.694  16.166 -1.1251 -0.7204 -1.1487
 6588SOL     OW31225   2.887   0.998   1.011 -0.1851  0.1558  0.1479
 6588SOL    HW131226   2.801   0.977   0.973 -1.3053 -1.3582  3.5131
 6588SOL    HW231227   2.933   0.930   0.962 -0.4201  0.3493 -0.3362
 6589SOL     OW31228   3.743   0.720   1.987 -0.3591 -0.1426 -0.1585
 6589SOL    HW131229   3.688   0.716   1.908 -0.5935  0.3564 -0.0167
 6589SOL    HW231230   3.696   0.784   2.040  2.8600  2.3184 -0.2755
 6590SOL     OW31231   2.684   3.861   3.509 -0.3739 -0.0632 -1.0059
 6590SOL    HW131232   2.743   3.935   3.497 -0.1066 -0.3376 -1.4154
 6590SOL    HW231233   2.707   3.815   3.428  1.6806 -1.0180  0.1119
 6591SOL     OW31234   3.220   4.044   8.623 -0.5916  0.4535 -0.1523
 6591SOL    HW131235   3.234   4.002   8.538  1.5171  3.2473 -1.1900
 6591SOL    HW231236   3.169   3.975   8.665 -1.8262  1.0170 -0.7360
 6592SOL     OW31237   3.970   1.704   2.502  0.1177  0.1715  0.2161
 6592SOL    HW131238   4.008   1.761   2.568 -0.1482  1.0504 -0.3858
 6592SOL    HW231239   3.932   1.766   2.440 -0.0726  1.0029  1.1602
 6593SOL     OW31240   0.440   1.508  10.063  1.0439 -0.1698 -0.3122
 6593SOL    HW131241   0.391   1.459  10.129  0.1992  0.6116 -0.3474
 6593SOL    HW231242   0.445   1.434  10.004 -0.1964 -0.4377 -0.0786
 6594SOL     OW31243   1.280   1.946   7.652 -0.1588  0.2501  0.0080
 6594SOL    HW131244   1.189   1.974   7.667  0.8430  2.1809  2.4897
 6594SOL    HW231245   1.295   1.871   7.710  0.3669  0.0222 -0.4297
 6595SOL     OW31246   2.018   3.380  14.024 -0.4138  0.1151 -0.6140
 6595SOL    HW131247   1.958   3.448  14.054 -1.3978 -0.4013 -1.3846
 6595SOL    HW231248   2.034   3.321  14.098  0.2128  0.5063 -0.4321
 6596SOL     OW31249   0.471   3.658   8.987 -0.2836  0.4640  0.5581
 6596SOL    HW131250   0.484   3.564   8.999 -1.1361  0.2351 -0.2895
 6596SOL    HW231251   0.531   3.689   9.054  0.4324  0.5230 -0.1115
 6597SOL     OW31252   4.017   3.163   9.377  0.3908 -0.1724 -0.2849
 6597SOL    HW131253   4.042   3.073   9.395 -1.0834 -0.8434 -1.5934
 6597SOL    HW231254   3.934   3.163   9.423  1.0085  2.3010  0.8371
 6598SOL     OW31255   1.915   1.676   2.560 -0.4608  0.1480 -0.1965
 6598SOL    HW131256   1.946   1.612   2.495  0.2066 -0.7036  0.9602
 6598SOL    HW231257   1.977   1.748   2.554 -0.2949 -0.0208 -0.5515
 6599SOL     OW31258   0.989   2.228   8.704 -0.0089  0.4783  0.0302
 6599SOL    HW131259   1.046   2.167   8.751 -0.3195  0.2770  0.1465
 6599SOL    HW231260   1.041   2.257   8.629 -0.6688 -0.9450 -0.9786
 6600SOL     OW31261   3.560   1.364   9.157 -0.0265  0.5437 -0.1653
 6600SOL    HW131262   3.522   1.432   9.212  3.7096  1.8873  0.7775
 6600SOL    HW231263   3.635   1.343   9.212 -2.1921 -0.0904  2.5419
 6601SOL     OW31264   4.604   2.473   3.763  0.3260  0.0747 -0.0656
 6601SOL    HW131265   4.541   2.541   3.787  1.7434  2.1910 -2.3607
 6601SOL    HW231266   4.648   2.508   3.686 -0.5686 -2.0249 -1.5342
 6602SOL     OW31267   1.946   2.295   4.316 -0.0611 -0.3521 -0.4949
 6602SOL    HW131268   1.995   2.280   4.397 -1.7857  1.0747  0.8207
 6602SOL    HW231269   2.011   2.336   4.260 -1.3782  1.8389 -0.4447
 6603SOL     OW31270   3.129   0.473   2.294 -0.0455  0.2421 -0.5969
 6603SOL    HW131271   3.163   0.390   2.327  0.6898 -0.3646 -2.8765
 6603SOL    HW231272   3.205   0.504   2.245 -0.1348  0.1875 -0.7677
 6604SOL     OW31273   0.549   2.207   9.290  0.0199 -0.4297  0.0108
 6604SOL    HW131274   0.635   2.215   9.330 -0.1641 -0.8595  0.4912
 6604SOL    HW231275   0.488   2.202   9.363 -1.7202  0.6942 -1.3547
 6605SOL     OW31276   3.161   3.585   1.664 -0.8129 -0.1897 -0.0768
 6605SOL    HW131277   3.068   3.597   1.647 -0.6489  0.5016 -0.4630
 6605SOL    HW231278   3.187   3.667   1.705 -1.2753  0.0581 -0.2811
 6606SOL     OW31279   3.412   2.195   3.301 -0.3373 -0.3030  0.3975
 6606SOL    HW131280   3.437   2.284   3.326  0.4611 -0.1277 -1.0043
 6606SOL    HW231281   3.339   2.176   3.360  1.5374 -0.8361  2.5665
 6607SOL     OW31282   1.448   3.389   3.302 -0.4667  0.1210  0.4258
 6607SOL    HW131283   1.513   3.457   3.284  0.4931 -1.2951 -1.4202
 6607SOL    HW231284   1.416   3.420   3.387 -0.4101 -0.0244  0.4985
 6608SOL     OW31285   1.820   0.577  13.296 -0.3662 -0.3543  0.1439
 6608SOL    HW131286   1.845   0.553  13.385 -0.2116 -1.2623 -0.1466
 6608SOL    HW231287   1.727   0.553  13.296 -0.6988  0.9283  0.9252
 6609SOL     OW31288   1.351   1.982   8.621 -0.1098  0.0054 -0.5099
 6609SOL    HW131289   1.355   2.030   8.539  0.3686  2.6254  1.0682
 6609SOL    HW231290   1.409   2.035   8.676  0.6809 -1.4466  0.0534
 6610SOL     OW31291   0.021   1.825   1.184  0.1828  0.9899  0.1749
 6610SOL    HW131292   0.101   1.774   1.172 -0.2173  0.4874 -0.3632
 6610SOL    HW231293   4.679   1.760   1.160  1.1739 -0.4968  1.4509
 6611SOL     OW31294   1.299   0.564  16.956 -0.4155  0.0068 -0.0979
 6611SOL    HW131295   1.380   0.566  16.904  0.1849  0.1254  0.8337
 6611SOL    HW231296   1.304   0.646  17.005  1.7406 -1.6431  2.4709
 6612SOL     OW31297   1.827   2.901   9.085 -0.0852 -0.1809  0.3123
 6612SOL    HW131298   1.844   2.990   9.118 -1.1060  0.4380 -0.8450
 6612SOL    HW231299   1.918   2.888   9.061 -0.1284  0.4396 -0.1912
 6613SOL     OW31300   4.676   0.525   2.580  0.4639 -0.0681 -0.3383
 6613SOL    HW131301   4.581   0.526   2.568  0.1722 -1.7267  1.9071
 6613SOL    HW231302   4.694   0.589   2.511 -2.4428  2.3334  1.1518
 6614SOL     OW31303   2.311   2.192   1.929 -0.2006  0.5939  0.1197
 6614SOL    HW131304   2.269   2.144   2.001  0.6161  0.1515  0.3063
 6614SOL    HW231305   2.243   2.173   1.864  1.6492 -1.0723 -1.3475
 6615SOL     OW31306   2.641   2.144   4.432 -0.1793 -0.0974 -0.2989
 6615SOL    HW131307   2.634   2.057   4.472  1.3889 -0.9083 -1.7547
 6615SOL    HW231308   2.735   2.156   4.420  0.2648 -1.5998  1.6916
 6616SOL     OW31309   3.748   1.650   8.442  0.0866  0.2345 -0.0684
 6616SOL    HW131310   3.728   1.743   8.429 -0.1453  0.4295  1.6967
 6616SOL    HW231311   3.744   1.647   8.538  2.4907  3.0124  0.1195
 6617SOL     OW31312   4.646   2.966  16.791  0.1102 -0.0816  0.0316
 6617SOL    HW131313   4.655   3.056  16.761  0.2707  0.0759  0.5543
 6617SOL    HW231314   4.582   2.942  16.724  0.0334 -0.7498  0.3344
 6618SOL     OW31315   3.964   2.483   4.371  0.1099  0.6984 -0.0860
 6618SOL    HW131316   4.054   2.508   4.351 -0.4641  1.6013 -1.5475
 6618SOL    HW231317   3.955   2.412   4.308 -0.7815 -0.2798  1.1369
 6619SOL     OW31318   2.085   1.017   0.036 -0.3885 -0.2434 -0.0977
 6619SOL    HW131319   2.079   0.970   0.120  1.7401  1.7276  1.1424
 6619SOL    HW231320   1.994   1.035   0.011 -0.0358  1.7360  0.0796
 6620SOL     OW31321   4.236   4.517   6.684 -0.1866  0.2232  0.3899
 6620SOL    HW131322   4.263   4.525   6.775 -3.1628  0.7910  1.2308
 6620SOL    HW231323   4.318   4.494   6.640  0.3107  0.6873  1.0822
 6621SOL     OW31324   1.190   0.523   8.619  0.4116  0.1558  0.5404
 6621SOL    HW131325   1.132   0.597   8.601 -0.4501 -0.4840  0.7185
 6621SOL    HW231326   1.258   0.571   8.666  0.7002  0.4795 -0.1956
 6622SOL     OW31327   4.382   2.038   5.151 -0.3956 -0.0078  0.4791
 6622SOL    HW131328   4.358   1.945   5.157 -1.0636  0.0758 -0.8882
 6622SOL    HW231329   4.474   2.019   5.135 -0.3636  0.6296 -0.0580
 6623SOL     OW31330   4.699   4.511   3.345  0.4539 -0.6588 -0.0677
 6623SOL    HW131331   0.043   4.487   3.407 -0.2169 -0.1740  0.8641
 6623SOL    HW231332   4.625   4.480   3.396  0.5740 -0.9438 -0.0658
 6624SOL     OW31333   3.648   0.415   6.022 -0.0207 -0.0344 -0.1951
 6624SOL    HW131334   3.739   0.399   5.997  0.2181 -0.6103  1.0564
 6624SOL    HW231335   3.606   0.416   5.936 -1.4457  1.5543  0.5281
 6625SOL     OW31336   1.801   4.325   2.301  0.5445  0.1101  0.0036
 6625SOL    HW131337   1.776   4.244   2.346 -0.2051 -1.1584 -2.7074
 6625SOL    HW231338   1.849   4.290   2.227 -1.3422 -1.6733 -0.3913
 6626SOL     OW31339   0.186   4.391  12.356 -0.0136  0.2414 -0.6278
 6626SOL    HW131340   0.242   4.359  12.426  1.2125 -0.3156 -1.8641
 6626SOL    HW231341   0.103   4.347  12.375  1.0014 -0.7435  1.4621
 6627SOL     OW31342   0.695   3.636   0.175 -0.2816  0.2169  0.1684
 6627SOL    HW131343   0.637   3.668   0.245 -0.2712 -0.6421  0.5693
 6627SOL    HW231344   0.786   3.641   0.203  0.1726  3.5456 -1.8455
 6628SOL     OW31345   0.258   2.060  10.446 -0.3120  0.4034 -0.1154
 6628SOL    HW131346   0.230   1.990  10.387  0.5945  0.7112 -0.9297
 6628SOL    HW231347   0.352   2.041  10.439 -0.7706 -1.9834  0.1343
 6629SOL     OW31348   2.149   0.012   7.039 -0.4895 -0.1147  0.0535
 6629SOL    HW131349   2.168   0.069   6.965  0.7789  2.8190  2.6266
 6629SOL    HW231350   2.191   4.653   7.017  1.5672  0.2373  2.5645
 6630SOL     OW31351   3.084   3.014   5.108  0.2232  0.5031 -0.0026
 6630SOL    HW131352   3.130   2.932   5.089  1.6272  1.4379 -0.6767
 6630SOL    HW231353   3.101   3.067   5.030  2.7515  1.5453  1.2251
 6631SOL     OW31354   2.127   4.580   5.650 -0.3217 -1.1422 -0.0214
 6631SOL    HW131355   2.097   4.632   5.726 -0.3847 -0.8863 -0.2209
 6631SOL    HW231356   2.143   4.651   5.588 -2.4541 -1.7594 -1.3041
 6632SOL     OW31357   2.321   1.530   1.230 -0.1219 -0.6724  0.6277
 6632SOL    HW131358   2.337   1.585   1.307 -0.7932  2.5054 -1.4983
 6632SOL    HW231359   2.242   1.570   1.194 -1.2932 -3.5193  0.0684
 6633SOL     OW31360   2.015   0.973   5.447 -0.4116  0.5887  0.0124
 6633SOL    HW131361   1.982   0.922   5.520  0.3101 -0.3667 -0.3310
 6633SOL    HW231362   2.048   1.053   5.489 -1.5841  0.1961  1.6759
 6634SOL     OW31363   0.660   2.201   6.211  0.0470 -0.7482  0.2600
 6634SOL    HW131364   0.678   2.107   6.216  0.8569 -0.5588  0.8002
 6634SOL    HW231365   0.573   2.207   6.171  0.0815 -0.0162  0.3003
 6635SOL     OW31366   1.864   3.981   5.807  0.0364 -0.0045 -0.3921
 6635SOL    HW131367   1.880   3.919   5.879  2.1255 -2.1174 -2.6441
 6635SOL    HW231368   1.779   4.023   5.820  0.2711  0.4348 -0.2926
 6636SOL     OW31369   3.224   3.687   7.557  0.2523  0.0102 -0.5234
 6636SOL    HW131370   3.186   3.733   7.632  0.5812 -0.2942 -0.1663
 6636SOL    HW231371   3.142   3.662   7.514  0.0651 -1.3231  0.5955
 6637SOL     OW31372   1.112   1.775   5.943  0.1954 -0.0404  0.6247
 6637SOL    HW131373   1.202   1.806   5.931  0.6416 -1.5582  0.0715
 6637SOL    HW231374   1.087   1.833   6.015  0.9527 -0.1610  0.9813
 6638SOL     OW31375   0.502   0.457   1.685  0.0621  0.4900  0.0620
 6638SOL    HW131376   0.469   0.370   1.664  2.5721 -0.9112  1.9643
 6638SOL    HW231377   0.478   0.454   1.778  1.4906 -0.3355  0.4166
 6639SOL     OW31378   1.712   0.423   9.249 -0.1528  0.1572  0.0599
 6639SOL    HW131379   1.702   0.328   9.253  1.4453  0.0004  0.3144
 6639SOL    HW231380   1.624   0.449   9.278 -0.3897  0.2070 -0.6928
 6640SOL     OW31381   3.960   1.779   1.947  0.7414  0.1123 -0.2638
 6640SOL    HW131382   4.022   1.706   1.947  2.1296  1.2662 -1.9647
 6640SOL    HW231383   3.914   1.757   1.866  1.1395  1.1574 -0.7895
 6641SOL     OW31384   3.416   0.682   2.866  0.2983 -0.3844 -0.4827
 6641SOL    HW131385   3.485   0.695   2.801  1.3771 -1.1568  0.5255
 6641SOL    HW231386   3.389   0.593   2.843 -0.8254 -0.4113  0.9708
 6642SOL     OW31387   3.569   1.855   2.914 -0.1147  0.4184 -0.4003
 6642SOL    HW131388   3.549   1.902   2.995  1.3469 -1.1544  0.8857
 6642SOL    HW231389   3.555   1.765   2.944  0.3899 -0.0526 -1.5894
 6643SOL     OW31390   2.917   0.832   4.839  0.0978  1.0427 -0.3908
 6643SOL    HW131391   2.876   0.788   4.914  0.5485  0.3519 -0.5505
 6643SOL    HW231392   2.987   0.767   4.835 -1.0587 -0.1725 -1.1721
 6644SOL     OW31393   4.535   3.786  14.628 -0.4065  0.0838  0.1926
 6644SOL    HW131394   4.522   3.705  14.678 -0.1735 -0.1334 -0.1019
 6644SOL    HW231395   4.472   3.782  14.556 -0.2227 -0.8590  0.0934
 6645SOL     OW31396   0.265   0.845   6.903 -0.4304 -0.5909 -0.1464
 6645SOL    HW131397   0.268   0.751   6.884 -1.0435 -0.1520 -2.4008
 6645SOL    HW231398   0.350   0.880   6.876 -0.4062 -0.3950  0.1910
 6646SOL     OW31399   3.453   2.908   4.934 -0.0572  0.1375 -0.1561
 6646SOL    HW131400   3.400   2.961   4.874  0.2070  1.8989  1.1937
 6646SOL    HW231401   3.523   2.968   4.957 -0.7515  0.8833 -0.0093
 6647SOL     OW31402   2.566   2.035   6.921 -0.0542 -0.1695  0.0922
 6647SOL    HW131403   2.479   2.026   6.959  1.0485 -1.7004  2.2958
 6647SOL    HW231404   2.574   2.128   6.899  1.9737 -0.8558 -2.1353
 6648SOL     OW31405   1.411   2.539   7.921 -0.1231  0.3082  0.3208
 6648SOL    HW131406   1.452   2.612   7.875  2.0602 -1.7260 -0.9610
 6648SOL    HW231407   1.329   2.580   7.948 -1.0003 -0.3827 -1.2670
 6649SOL     OW31408   1.229   0.955  11.033  0.2111  0.2637  0.0227
 6649SOL    HW131409   1.281   0.890  11.080  0.8399 -0.7547 -2.0445
 6649SOL    HW231410   1.229   0.907  10.950 -0.3216 -0.7531  0.6191
 6650SOL     OW31411   0.016   0.803   5.423  0.6581 -0.1567 -0.0643
 6650SOL    HW131412   4.689   0.744   5.367 -1.4018 -0.1469  1.8321
 6650SOL    HW231413   4.686   0.801   5.502  0.3761 -2.7224 -0.3221
 6651SOL     OW31414   0.869   1.945   0.463 -0.0831 -0.2417  0.2882
 6651SOL    HW131415   0.814   1.971   0.536 -1.5623 -1.8455 -0.2618
 6651SOL    HW231416   0.951   1.993   0.476  0.7840 -1.8240  0.6298
 6652SOL     OW31417   2.209   3.861  12.636 -0.1186  0.1859 -0.2069
 6652SOL    HW131418   2.221   3.767  12.624  1.0539  0.3466 -0.2608
 6652SOL    HW231419   2.114   3.865  12.630 -0.2934 -1.5274  1.3609
 6653SOL     OW31420   2.239   1.862  12.414 -0.0141 -0.0417  0.0699
 6653SOL    HW131421   2.292   1.807  12.473  1.2497  1.0091 -0.1005
 6653SOL    HW231422   2.245   1.826  12.326  2.5753 -1.4062  0.7818
 6654SOL     OW31423   2.689   1.623  12.893  0.2947  0.1121 -0.4092
 6654SOL    HW131424   2.719   1.538  12.925  0.0172  0.3903  0.5809
 6654SOL    HW231425   2.597   1.611  12.916  0.6140  1.1612  1.4227
 6655SOL     OW31426   0.313   1.477  17.551  1.0638 -0.2329 -0.3273
 6655SOL    HW131427   0.398   1.437  17.529  1.2954 -1.3438  2.5155
 6655SOL    HW231428   0.295   1.446  17.640  1.1463  0.7790  0.0372
 6656SOL     OW31429   0.238   2.094   1.269  0.1124  0.3500 -0.3695
 6656SOL    HW131430   0.201   2.106   1.182 -1.9951 -0.8653  0.3606
 6656SOL    HW231431   0.272   2.004   1.265 -1.2646 -0.0993 -2.1047
 6657SOL     OW31432   2.112   2.064   4.009 -0.5414  0.0294  0.8415
 6657SOL    HW131433   2.124   2.005   4.084 -0.6319 -0.1726  0.6975
 6657SOL    HW231434   2.052   2.014   3.954  0.0165 -0.8014  0.9786
 6658SOL     OW31435   1.326   2.909   5.427  0.1444 -0.0832  0.2040
 6658SOL    HW131436   1.357   2.921   5.517  1.8169 -1.5156 -0.1834
 6658SOL    HW231437   1.284   2.991   5.400  2.1715 -0.0170 -2.7850
 6659SOL     OW31438   4.395   3.952  14.797 -0.0610 -0.0460  0.2256
 6659SOL    HW131439   4.449   3.890  14.747  0.2439 -0.2782  0.8475
 6659SOL    HW231440   4.316   3.961  14.743  0.8784  1.5708 -0.8716
 6660SOL     OW31441   2.282   4.526  13.288 -0.4764 -0.0047 -0.1925
 6660SOL    HW131442   2.211   4.537  13.351 -0.6809 -1.0306 -0.2450
 6660SOL    HW231443   2.349   4.576  13.334  0.4277 -0.8795 -0.5588
 6661SOL     OW31444   1.334   3.849  15.747  0.0990 -0.6414 -0.2127
 6661SOL    HW131445   1.317   3.944  15.751  1.6354 -0.3869  0.4056
 6661SOL    HW231446   1.288   3.831  15.666 -0.1449  1.7236 -0.6216
 6662SOL     OW31447   4.156   1.700   9.587  0.4189  0.5118 -0.0690
 6662SOL    HW131448   4.097   1.625   9.596  2.5098 -1.1688 -0.2198
 6662SOL    HW231449   4.227   1.661   9.536 -0.9310 -3.8783  1.3959
 6663SOL     OW31450   3.254   1.010   3.289  0.6905  1.0756  0.2013
 6663SOL    HW131451   3.175   0.978   3.246  2.3570 -3.3917  0.4680
 6663SOL    HW231452   3.316   0.955   3.240  1.5346  2.6582 -0.4984
 6664SOL     OW31453   2.024   0.537   8.223 -0.2167 -0.1738  0.1174
 6664SOL    HW131454   2.118   0.552   8.217 -0.2378 -0.3761 -0.7614
 6664SOL    HW231455   2.018   0.517   8.316 -1.3641  0.6206  0.2232
 6665SOL     OW31456   0.927   3.459   3.534  0.2534 -0.9783 -0.1949
 6665SOL    HW131457   0.891   3.409   3.460 -1.2594 -1.5748  0.9408
 6665SOL    HW231458   1.011   3.416   3.548 -0.1044 -1.3934  0.6946
 6666SOL     OW31459   3.831   3.714   6.083  0.1318 -0.1930  0.2150
 6666SOL    HW131460   3.911   3.737   6.034 -0.9910  0.5317 -1.2720
 6666SOL    HW231461   3.816   3.622   6.062  3.3906 -0.9716  1.1865
 6667SOL     OW31462   2.273   1.492  15.209 -0.2281  0.2272  0.0539
 6667SOL    HW131463   2.280   1.544  15.289 -3.0483  0.1932  0.3376
 6667SOL    HW231464   2.269   1.566  15.148  2.4897 -1.6116 -2.3342
 6668SOL     OW31465   2.474   2.871   3.007 -0.0949 -0.4498 -0.1269
 6668SOL    HW131466   2.428   2.930   2.948  0.1027  0.7962  0.9767
 6668SOL    HW231467   2.565   2.902   3.007  0.0417 -0.8457 -0.0518
 6669SOL     OW31468   4.073   1.110   8.641 -0.5418 -0.3961 -0.1834
 6669SOL    HW131469   4.039   1.200   8.640  1.4902  0.3803 -0.2633
 6669SOL    HW231470   4.113   1.098   8.727  3.7609 -0.6022 -2.1725
 6670SOL     OW31471   2.836   4.539   4.682  0.3319 -0.0822 -0.2039
 6670SOL    HW131472   2.774   4.612   4.687  0.7206  0.1454  1.2752
 6670SOL    HW231473   2.779   4.467   4.655  3.5544 -1.9750 -1.8859
 6671SOL     OW31474   3.962   4.669   6.176 -0.2877  0.3677 -0.2477
 6671SOL    HW131475   3.870   4.685   6.196 -1.4180 -3.5091 -2.3655
 6671SOL    HW231476   4.007   4.651   6.258  1.1321 -1.1027 -1.3498
 6672SOL     OW31477   3.016   3.896   6.479  0.2119 -0.1948  0.4967
 6672SOL    HW131478   3.013   3.880   6.384  0.0695 -1.3962  0.7133
 6672SOL    HW231479   3.110   3.902   6.497 -0.1574 -2.3832  3.0483
 6673SOL     OW31480   2.899   1.870   1.536  0.8677  0.1025  0.3714
 6673SOL    HW131481   2.819   1.856   1.586  0.4831 -1.7609 -0.7647
 6673SOL    HW231482   2.962   1.897   1.603  0.4030 -1.0330  1.2659
 6674SOL     OW31483   0.162   3.770   8.157 -0.2679  0.5244  0.3836
 6674SOL    HW131484   0.137   3.848   8.207 -1.6199  0.2520  0.1261
 6674SOL    HW231485   0.255   3.788   8.141 -0.0913 -1.2151 -0.5246
 6675SOL     OW31486   1.349   3.997   2.208 -0.1829  0.1453  0.0972
 6675SOL    HW131487   1.397   3.954   2.279  2.7118  0.3433 -1.7304
 6675SOL    HW231488   1.275   4.038   2.252  1.0655  1.0341  1.3360
 6676SOL     OW31489   3.528   1.865   0.298 -0.3816  0.1570 -0.3230
 6676SOL    HW131490   3.466   1.818   0.354 -2.0938  2.6281 -0.1291
 6676SOL    HW231491   3.481   1.856   0.215 -2.4177  2.6060  0.5348
 6677SOL     OW31492   3.411   2.036   7.692  0.7679  0.5679 -0.1238
 6677SOL    HW131493   3.316   2.024   7.689  1.2084 -2.9112 -0.2101
 6677SOL    HW231494   3.414   2.123   7.732 -1.9280 -0.0343  1.4516
 6678SOL     OW31495   1.288   4.704  11.041 -0.0961  0.6432  0.3862
 6678SOL    HW131496   1.328   4.724  11.125  1.3335  0.6230 -0.2831
 6678SOL    HW231497   1.349   4.636  11.014  0.8167  1.0572  1.4428
 6679SOL     OW31498   1.740   3.081  13.191 -0.9722 -0.4404  0.2003
 6679SOL    HW131499   1.770   3.088  13.282 -2.3737  0.8382  0.5788
 6679SOL    HW231500   1.763   3.171  13.165  1.3590 -0.5823  1.7108
 6680SOL     OW31501   2.917   4.378  10.414  0.6140 -0.4122 -0.2074
 6680SOL    HW131502   2.995   4.430  10.436  0.3105 -0.3143  0.6256
 6680SOL    HW231503   2.950   4.325  10.341  2.1806 -0.3408  0.4461
 6681SOL     OW31504   0.563   4.413   5.910  1.2257  0.2631 -0.7540
 6681SOL    HW131505   0.545   4.496   5.865 -0.5684 -0.2448 -0.9810
 6681SOL    HW231506   0.475   4.377   5.923  0.4317  2.2417 -0.5928
 6682SOL     OW31507   0.345   3.181   3.223  0.5154 -0.5420 -0.3006
 6682SOL    HW131508   0.284   3.107   3.227  0.3044 -0.3923 -0.8184
 6682SOL    HW231509   0.359   3.179   3.129  1.2471  2.1354 -0.2438
 6683SOL     OW31510   1.382   1.573   6.944 -0.0196 -0.1798 -0.5552
 6683SOL    HW131511   1.362   1.571   7.038 -2.4984  0.1730 -1.0854
 6683SOL    HW231512   1.403   1.480   6.936 -3.2203 -0.7231 -2.4010
 6684SOL     OW31513   1.958   2.723   8.374 -0.3180  0.1197 -0.2480
 6684SOL    HW131514   1.911   2.705   8.455  1.0778 -1.6772  0.1648
 6684SOL    HW231515   1.903   2.780   8.320 -1.1526 -2.2615 -1.9106
 6685SOL     OW31516   2.130   2.584   5.308  0.2037 -0.1361 -0.0334
 6685SOL    HW131517   2.105   2.495   5.332 -0.4079 -0.7284 -2.7746
 6685SOL    HW231518   2.190   2.607   5.379  0.5059 -1.1583  0.0334
 6686SOL     OW31519   4.355   0.555   6.359  0.4976 -0.2622 -0.1435
 6686SOL    HW131520   4.329   0.469   6.394 -0.2750 -0.5919 -1.4863
 6686SOL    HW231521   4.390   0.580   6.444 -0.0698 -2.6659  0.8191
 6687SOL     OW31522   3.139   2.476  13.625 -0.3044 -0.5375 -0.0020
 6687SOL    HW131523   3.234   2.464  13.625 -0.2044  0.1822 -2.9787
 6687SOL    HW231524   3.137   2.549  13.686  3.4742 -0.1031 -0.4320
 6688SOL     OW31525   3.086   4.511   4.757 -0.1682  0.2012 -0.1348
 6688SOL    HW131526   3.129   4.586   4.715  0.0686 -0.9788 -2.0177
 6688SOL    HW231527   3.002   4.511   4.710 -0.6757  1.6608  0.7592
 6689SOL     OW31528   0.846   3.530  14.491  0.1768 -0.3879 -0.4879
 6689SOL    HW131529   0.861   3.617  14.528 -1.1023 -0.4674  0.2438
 6689SOL    HW231530   0.777   3.497  14.549  0.0339 -0.6912 -0.8286
 6690SOL     OW31531   3.509   0.656   7.940 -0.1423 -0.1197  0.0093
 6690SOL    HW131532   3.498   0.600   8.017  0.2714 -0.4197 -0.1496
 6690SOL    HW231533   3.527   0.735   7.991 -0.8292  0.4368 -0.5989
 6691SOL     OW31534   1.061   1.053  12.779 -0.1159 -0.0783  0.4001
 6691SOL    HW131535   1.125   1.077  12.846 -0.6966  0.4552  0.7603
 6691SOL    HW231536   0.984   1.038  12.833 -1.1043 -0.0643 -0.9912
 6692SOL     OW31537   3.986   2.365  17.350 -0.5865  1.0972  0.2305
 6692SOL    HW131538   3.935   2.377  17.430 -1.3184  2.0366 -0.3763
 6692SOL    HW231539   4.060   2.424  17.363 -1.8815  2.3573  1.7885
 6693SOL     OW31540   3.366   3.652   8.014  0.5124 -0.6212 -0.1352
 6693SOL    HW131541   3.449   3.629   8.057 -0.4146 -0.1091  1.9450
 6693SOL    HW231542   3.325   3.568   7.994 -0.4057  0.8602 -4.5534
 6694SOL     OW31543   3.960   1.190   2.592  0.0388  0.0632 -0.2090
 6694SOL    HW131544   3.990   1.215   2.505  3.1092  1.7580  1.3434
 6694SOL    HW231545   3.922   1.273   2.624  0.7116 -0.6714  2.5091
 6695SOL     OW31546   3.737   3.506   5.735 -0.0582  0.0421 -0.1757
 6695SOL    HW131547   3.653   3.543   5.762 -1.0467 -1.4018 -1.2835
 6695SOL    HW231548   3.755   3.446   5.807  0.5886  0.9530  0.4121
 6696SOL     OW31549   1.715   3.616   8.705  0.4391 -0.0115 -0.4027
 6696SOL    HW131550   1.730   3.628   8.799 -0.7876 -1.1300 -0.0701
 6696SOL    HW231551   1.636   3.667   8.693  0.8434  1.2015  2.2197
 6697SOL     OW31552   0.297   1.721   8.104  0.1862  0.5052  0.0568
 6697SOL    HW131553   0.280   1.769   8.023 -0.0257  1.4739  0.6813
 6697SOL    HW231554   0.258   1.786   8.162 -0.1981 -0.5607  0.9800
 6698SOL     OW31555   2.078   1.514   9.593  0.0421 -0.0064  0.0956
 6698SOL    HW131556   2.099   1.567   9.516  0.8018  0.4032  0.5830
 6698SOL    HW231557   2.163   1.471   9.603 -1.2478 -2.6693 -0.4734
 6699SOL     OW31558   4.294   3.812  17.087  0.0644  0.1743 -0.3062
 6699SOL    HW131559   4.289   3.810  16.992 -3.7334 -0.2592 -0.0821
 6699SOL    HW231560   4.327   3.724  17.106 -1.2275 -0.2661 -0.1377
 6700SOL     OW31561   3.064   3.263   4.222  0.2052  0.2076  0.7094
 6700SOL    HW131562   3.031   3.201   4.158  1.9285 -1.1055  1.1028
 6700SOL    HW231563   3.043   3.346   4.180  0.3789  0.0442  0.3084
 6701SOL     OW31564   0.527   3.357   8.955 -1.0737 -0.1835 -0.2132
 6701SOL    HW131565   0.559   3.271   8.925  1.0885 -0.0246  1.6192
 6701SOL    HW231566   0.606   3.378   9.005 -0.0829 -3.4204 -0.4139
 6702SOL     OW31567   0.368   3.725   4.839 -0.2310  0.1399  0.0324
 6702SOL    HW131568   0.405   3.812   4.852 -0.2393  0.4883 -2.2636
 6702SOL    HW231569   0.411   3.695   4.759  0.4808 -1.6037  1.0657
 6703SOL     OW31570   0.056   1.547   4.131  0.1947  0.1032  0.1429
 6703SOL    HW131571   0.018   1.485   4.069  0.1937 -0.0375  0.2833
 6703SOL    HW231572   0.065   1.494   4.210  0.4503  0.7114  0.5285
 6704SOL     OW31573   2.919   4.115  17.122  0.1946  0.1943  0.3488
 6704SOL    HW131574   2.940   4.093  17.213  1.3985  0.7208  0.2024
 6704SOL    HW231575   2.826   4.094  17.128  0.2442  0.2921  1.5143
 6705SOL     OW31576   2.075   3.851  17.637  0.2564 -0.1755  0.1540
 6705SOL    HW131577   2.114   3.908   0.004 -0.7394 -1.5797  1.9505
 6705SOL    HW231578   2.128   3.885  17.565  0.8438 -0.5213  0.4224
 6706SOL     OW31579   2.414   2.622  11.770 -0.3088  0.3639 -0.0769
 6706SOL    HW131580   2.500   2.663  11.758 -0.1198  0.5252  1.7907
 6706SOL    HW231581   2.429   2.527  11.777  1.7476  0.7864  1.2574
 6707SOL     OW31582   2.783   2.721   0.003  0.1602  0.3013  0.0987
 6707SOL    HW131583   2.816   2.661  17.636  1.6682  0.8533  0.3547
 6707SOL    HW231584   2.724   2.784  17.661 -0.2656  0.7963  1.4420
 6708SOL     OW31585   4.514   1.171   5.572  0.0815  0.3394  0.3368
 6708SOL    HW131586   4.519   1.081   5.539 -0.2265  0.1370  0.8361
 6708SOL    HW231587   4.497   1.155   5.665 -2.0665  1.9221  0.2250
 6709SOL     OW31588   0.946   1.964   8.332 -0.2053 -0.4205  0.3289
 6709SOL    HW131589   0.913   1.947   8.244 -1.8870 -1.3868  1.1652
 6709SOL    HW231590   0.952   2.059   8.327  1.9854 -0.5389  0.3218
 6710SOL     OW31591   1.544   3.382  10.194  0.0041 -0.9592 -0.4395
 6710SOL    HW131592   1.487   3.305  10.195  0.7978 -1.5371 -0.0305
 6710SOL    HW231593   1.550   3.408  10.286 -0.7724 -0.5243 -0.5112
 6711SOL     OW31594   3.130   4.548   7.185  0.0889  0.1469 -0.0576
 6711SOL    HW131595   3.213   4.502   7.171 -0.8377 -2.2997  2.4072
 6711SOL    HW231596   3.121   4.536   7.280  2.3734  0.1805  0.1607
 6712SOL     OW31597   4.021   3.895   0.911  0.3806  0.2143 -0.5596
 6712SOL    HW131598   4.067   3.817   0.943 -0.1551 -0.2113 -0.8140
 6712SOL    HW231599   4.052   3.968   0.965 -1.0743  0.2769  0.1917
 6713SOL     OW31600   2.871   1.534   6.062 -0.4753  0.3588 -0.1589
 6713SOL    HW131601   2.855   1.628   6.070 -1.1334  0.4649 -2.9587
 6713SOL    HW231602   2.793   1.502   6.016 -0.5078 -3.8117  2.7853
 6714SOL     OW31603   2.365   2.393  16.816 -0.1463  0.2419 -0.1823
 6714SOL    HW131604   2.298   2.374  16.882 -1.4902  1.6589 -1.1350
 6714SOL    HW231605   2.307   2.421  16.745 -0.2311  0.3126 -0.0850
 6715SOL     OW31606   1.216   0.313   7.660 -0.2009 -0.1712  0.0690
 6715SOL    HW131607   1.149   0.250   7.634 -0.9613  0.1615  1.2073
 6715SOL    HW231608   1.161   0.377   7.706 -1.1120 -0.1845 -1.0109
 6716SOL     OW31609   2.482   2.546   3.398 -0.2347  0.1558 -0.8662
 6716SOL    HW131610   2.552   2.499   3.353 -0.9271  1.0459 -2.8819
 6716SOL    HW231611   2.489   2.633   3.360  3.4863 -0.0529 -0.7113
 6717SOL     OW31612   4.607   2.252   4.795 -0.3223 -0.3802  0.3851
 6717SOL    HW131613   4.569   2.340   4.800 -1.7978 -1.0869  1.9899
 6717SOL    HW231614   4.570   2.225   4.711 -2.1763 -1.8650  1.6876
 6718SOL     OW31615   0.059   2.241   4.168 -0.3209  0.2134  0.1435
 6718SOL    HW131616   0.148   2.276   4.176 -0.5661  0.2262  2.6847
 6718SOL    HW231617   0.046   2.247   4.073 -1.1765 -2.1844  0.1280
 6719SOL     OW31618   2.110   3.623   3.459 -0.4528 -0.5336  0.3799
 6719SOL    HW131619   2.019   3.599   3.441 -0.5380  0.1674 -0.1367
 6719SOL    HW231620   2.144   3.618   3.369 -1.0904 -0.5870  0.1371
 6720SOL     OW31621   1.192   3.558   1.340 -0.0103  0.5360  0.5303
 6720SOL    HW131622   1.139   3.603   1.406  1.3257  0.0598  1.9281
 6720SOL    HW231623   1.219   3.634   1.288  1.0107 -0.4020 -0.3288
 6721SOL     OW31624   2.134   1.717  11.196 -0.5418 -0.2587 -0.2671
 6721SOL    HW131625   2.225   1.691  11.184 -0.5186 -0.3167  0.0430
 6721SOL    HW231626   2.111   1.756  11.111  0.8225 -0.5096 -0.7490
 6722SOL     OW31627   1.857   3.947   2.129  0.8300  0.4636 -0.3615
 6722SOL    HW131628   1.941   3.920   2.167  0.8198 -0.9891 -1.3873
 6722SOL    HW231629   1.795   3.892   2.176  1.1512  1.7826  1.6385
 6723SOL     OW31630   1.582   1.861  16.463  0.4117 -0.1975  0.0113
 6723SOL    HW131631   1.554   1.885  16.552  0.2254 -1.8866  0.4034
 6723SOL    HW231632   1.671   1.831  16.481  0.1514 -1.4690 -0.7972
 6724SOL     OW31633   1.196   0.150   8.038  0.2515 -0.1408  0.2488
 6724SOL    HW131634   1.213   0.241   8.012 -2.2368  0.5688  1.0718
 6724SOL    HW231635   1.155   0.113   7.960 -0.8726 -0.4289  0.9831
 6725SOL     OW31636   1.834   0.003   8.582 -0.0897 -0.2728  0.1659
 6725SOL    HW131637   1.900   4.690   8.524 -0.5315 -1.5259  0.4925
 6725SOL    HW231638   1.745   4.715   8.549  0.1322  0.8271 -0.8520
 6726SOL     OW31639   2.952   0.272  11.002  0.1216  0.1006  0.3733
 6726SOL    HW131640   3.018   0.218  10.958  0.1397  1.2568 -1.0036
 6726SOL    HW231641   2.927   0.205  11.066 -2.1048  1.0349  0.4486
 6727SOL     OW31642   2.610   3.693   5.967  0.0142  0.1456  0.0208
 6727SOL    HW131643   2.533   3.639   5.948  1.0249 -1.5723  0.8632
 6727SOL    HW231644   2.620   3.751   5.891  0.5448 -2.4219 -1.8688
 6728SOL     OW31645   3.234   2.692   4.321 -0.7377 -0.3996 -0.4481
 6728SOL    HW131646   3.229   2.764   4.258 -0.9611  0.5659  0.6569
 6728SOL    HW231647   3.155   2.690   4.376 -0.4997  0.9709 -0.0462
 6729SOL     OW31648   0.365   2.894   4.389  0.1076  0.0381 -0.3655
 6729SOL    HW131649   0.438   2.947   4.422  2.3417 -3.6586  0.6387
 6729SOL    HW231650   0.394   2.884   4.298 -2.0013  0.4036 -1.0750
 6730SOL     OW31651   1.126   0.556   6.736  0.0933  0.3538 -0.0538
 6730SOL    HW131652   1.162   0.469   6.720 -1.2684 -0.3875  0.8416
 6730SOL    HW231653   1.128   0.602   6.652  0.5208  0.4789  0.0259
 6731SOL     OW31654   1.937   3.450   8.620  0.2017 -0.1722  0.4011
 6731SOL    HW131655   1.998   3.522   8.606  0.0362  0.1040  1.1261
 6731SOL    HW231656   1.859   3.505   8.633  0.5732 -0.0060  1.8963
 6732SOL     OW31657   2.477   3.973   7.534 -0.6913  0.5367  0.5200
 6732SOL    HW131658   2.477   3.933   7.447 -0.9523 -0.2648  0.8898
 6732SOL    HW231659   2.493   3.894   7.585  1.4987  1.4304  1.2461
 6733SOL     OW31660   4.344   0.342   5.532 -0.2870  0.6216  0.1870
 6733SOL    HW131661   4.258   0.331   5.572  0.7374 -0.9760  1.9749
 6733SOL    HW231662   4.361   0.431   5.565  0.0549  0.9153 -0.7975
 6734SOL     OW31663   1.470   1.522   8.940 -0.2101  0.2305 -0.3203
 6734SOL    HW131664   1.434   1.585   8.878 -0.8178  0.5799  0.3814
 6734SOL    HW231665   1.531   1.576   8.991  2.4158 -1.4256 -1.7293
 6735SOL     OW31666   1.190   3.009   6.707  0.1821  0.4905  0.1913
 6735SOL    HW131667   1.201   2.941   6.774  0.9608  0.6268  0.2041
 6735SOL    HW231668   1.172   2.963   6.625 -0.6050  1.5317 -0.2164
 6736SOL     OW31669   2.937   4.546   0.910  0.4975  0.0690 -0.0572
 6736SOL    HW131670   2.934   4.632   0.868  2.6891 -0.3880 -1.1569
 6736SOL    HW231671   2.981   4.575   0.989  1.2759  0.7465 -0.7351
 6737SOL     OW31672   2.968   0.685   9.758 -0.0155  0.5347  0.1128
 6737SOL    HW131673   3.024   0.729   9.822  1.2433 -0.6759 -0.1365
 6737SOL    HW231674   2.882   0.697   9.798 -0.9237 -2.0429 -1.0394
 6738SOL     OW31675   3.980   4.401   7.930  0.0384 -0.3394 -0.2190
 6738SOL    HW131676   3.958   4.374   8.020  2.0592 -0.1890  0.3337
 6738SOL    HW231677   4.073   4.376   7.925  0.1123  0.0242 -0.5899
 6739SOL     OW31678   0.325   2.640   6.577  0.2425  0.1119  0.1471
 6739SOL    HW131679   0.241   2.644   6.532  0.1458 -3.6942 -0.0291
 6739SOL    HW231680   0.367   2.562   6.541  0.9045  0.5176  0.0404
 6740SOL     OW31681   1.259   3.257  10.637  0.4795 -0.1291 -0.0371
 6740SOL    HW131682   1.225   3.192  10.698  1.7230 -1.2953 -0.5987
 6740SOL    HW231683   1.351   3.252  10.663  0.2693 -0.8101  0.5755
 6741SOL     OW31684   4.588   4.334   3.874 -0.2741  0.2245 -0.0788
 6741SOL    HW131685   4.608   4.420   3.911  3.1383  0.5501 -2.7284
 6741SOL    HW231686   4.502   4.312   3.912  0.2284 -0.5317  0.6237
 6742SOL     OW31687   4.323   0.778   7.106 -0.1519 -0.2382  0.2866
 6742SOL    HW131688   4.320   0.825   7.023 -3.3644 -2.3419 -0.8191
 6742SOL    HW231689   4.303   0.854   7.160 -1.2506  0.5509 -1.2495
 6743SOL     OW31690   2.733   1.198   7.663 -0.0544 -0.3575 -0.8952
 6743SOL    HW131691   2.725   1.118   7.715  1.8157  0.1471  0.1638
 6743SOL    HW231692   2.668   1.251   7.710  0.4634 -0.9297  0.4515
 6744SOL     OW31693   4.320   4.658   8.399  0.2525 -0.0275  0.2979
 6744SOL    HW131694   4.317   0.029   8.402  3.0947 -0.0233  2.3431
 6744SOL    HW231695   4.296   4.640   8.308  0.6251  1.1640 -0.0361
 6745SOL     OW31696   0.803   2.848   3.441  0.5015  0.6937 -0.6976
 6745SOL    HW131697   0.727   2.904   3.454  1.3107  1.8936 -1.0685
 6745SOL    HW231698   0.875   2.894   3.484  0.5867  0.5083 -0.6421
 6746SOL     OW31699   0.230   1.211   8.963  0.4527 -0.0605 -0.7073
 6746SOL    HW131700   0.214   1.235   8.872 -0.8566 -0.5168 -0.6075
 6746SOL    HW231701   0.185   1.279   9.013  0.9514 -1.2647  1.3905
 6747SOL     OW31702   0.329   3.551   7.732 -0.2936  0.4209  0.1830
 6747SOL    HW131703   0.377   3.494   7.672 -1.3712 -2.1833  1.8454
 6747SOL    HW231704   0.363   3.512   7.813  1.8422 -1.8827 -1.8202
 6748SOL     OW31705   3.513   1.427  11.144  0.3689  0.2820  0.0552
 6748SOL    HW131706   3.577   1.364  11.176  0.6969  0.2135 -0.7349
 6748SOL    HW231707   3.549   1.486  11.077 -0.6501  1.9007  0.9253
 6749SOL     OW31708   1.069   0.515  16.501 -0.0658 -0.1286  0.5277
 6749SOL    HW131709   1.104   0.427  16.518  3.2843  1.2145  0.6841
 6749SOL    HW231710   1.078   0.542  16.593 -0.3551  2.7944 -0.3162
 6750SOL     OW31711   3.732   0.978   0.035  0.0832 -0.2416 -0.0441
 6750SOL    HW131712   3.658   0.936  17.693  0.3306 -0.5861 -0.1306
 6750SOL    HW231713   3.733   1.060  17.685 -1.0473  0.1268  0.5393
 6751SOL     OW31714   3.887   3.902   6.930 -0.2384  0.8654  0.0547
 6751SOL    HW131715   3.976   3.918   6.963 -0.9296  2.7931  0.9965
 6751SOL    HW231716   3.901   3.827   6.872 -0.9629 -0.1386  1.1838
 6752SOL     OW31717   4.183   0.217   4.900 -0.1543  0.2069 -0.1102
 6752SOL    HW131718   4.133   0.263   4.833 -1.8218 -2.5907 -0.7688
 6752SOL    HW231719   4.223   0.140   4.858  0.0072  1.0772 -1.5351
 6753SOL     OW31720   1.446   2.573   5.495 -0.9371  0.6742  0.3455
 6753SOL    HW131721   1.533   2.608   5.475 -1.4967  0.1837 -2.8762
 6753SOL    HW231722   1.476   2.521   5.570 -0.9516 -0.0382 -0.1370
 6754SOL     OW31723   0.105   0.208   9.892 -0.3630 -0.2714 -0.1975
 6754SOL    HW131724   0.185   0.247   9.857 -0.1435 -1.0325 -0.5447
 6754SOL    HW231725   0.037   0.238   9.831 -0.4601 -0.3299 -0.1186
 6755SOL     OW31726   2.964   1.903  17.187  0.0879  0.2309 -0.0799
 6755SOL    HW131727   2.958   1.992  17.152 -0.5861  0.0060 -0.5415
 6755SOL    HW231728   3.050   1.882  17.151 -0.1412  0.2147 -0.6244
 6756SOL     OW31729   3.135   3.341   7.190 -0.4928  0.4629  0.0075
 6756SOL    HW131730   3.047   3.374   7.168  0.0691 -0.0605 -3.0012
 6756SOL    HW231731   3.185   3.411   7.148 -0.1332  0.7868  0.9934
 6757SOL     OW31732   1.834   1.362  12.453  0.0710  0.4324  0.0681
 6757SOL    HW131733   1.913   1.307  12.453 -1.1155 -1.2672 -0.5217
 6757SOL    HW231734   1.875   1.448  12.456 -1.2893  1.1001 -0.8858
 6758SOL     OW31735   1.604   1.096   4.375 -0.2259  0.3214  0.3382
 6758SOL    HW131736   1.562   1.036   4.313 -0.3570  1.3043 -0.5321
 6758SOL    HW231737   1.593   1.181   4.331  1.7278  0.0026 -0.8035
 6759SOL     OW31738   2.723   2.590   5.856  0.0093 -0.1685 -0.1564
 6759SOL    HW131739   2.630   2.610   5.840 -0.4629 -0.8423  1.6615
 6759SOL    HW231740   2.721   2.500   5.826 -0.0477  0.3763 -1.7952
 6760SOL     OW31741   0.079   4.344  11.382  0.2754 -0.2479  0.3546
 6760SOL    HW131742   0.069   4.427  11.430  5.7202  0.1291  0.8980
 6760SOL    HW231743   0.098   4.380  11.295  0.6155  2.7594  1.6460
 6761SOL     OW31744   4.233   3.547   8.223  0.3533  0.4909  0.1903
 6761SOL    HW131745   4.280   3.578   8.146 -1.7340 -1.1374 -1.7138
 6761SOL    HW231746   4.203   3.621   8.277 -0.9123 -2.1320  3.0922
 6762SOL     OW31747   0.510   2.700  11.212 -0.1606  0.5566  0.4380
 6762SOL    HW131748   0.560   2.716  11.292 -0.0274 -0.9761  0.6568
 6762SOL    HW231749   0.433   2.651  11.239 -0.2069 -0.3393 -1.3169
 6763SOL     OW31750   2.021   4.133  12.394 -0.6950  0.2574  0.3028
 6763SOL    HW131751   2.053   4.217  12.362 -1.2934  0.5550  0.4763
 6763SOL    HW231752   2.024   4.146  12.489  1.7848 -0.4119  0.3147
 6764SOL     OW31753   0.675   1.127  17.135  0.9842 -0.5668  0.5557
 6764SOL    HW131754   0.673   1.167  17.048 -0.0012 -0.9271  0.4136
 6764SOL    HW231755   0.726   1.050  17.113  1.3976  0.3725 -1.7225
 6765SOL     OW31756   0.016   2.002   9.685  0.6811 -0.4862 -0.1556
 6765SOL    HW131757   0.028   1.907   9.688  1.6916 -0.3034  1.4451
 6765SOL    HW231758   4.663   2.015   9.630  0.8947  1.5069  0.0369
 6766SOL     OW31759   2.959   4.025  15.708 -0.1783  0.6047  0.4164
 6766SOL    HW131760   2.942   4.014  15.802 -2.3051 -0.8310 -0.1384
 6766SOL    HW231761   2.926   3.940  15.680  1.0405  0.1041  0.5382
 6767SOL     OW31762   0.793   2.461   9.429  0.0333  0.2861  0.0730
 6767SOL    HW131763   0.783   2.391   9.363  1.2043 -0.6775  0.9378
 6767SOL    HW231764   0.702   2.476   9.455  0.5250  1.7803  0.8792
 6768SOL     OW31765   4.114   2.711   6.997  0.3168 -0.3215 -0.6769
 6768SOL    HW131766   4.207   2.688   6.994  0.4452  0.2201 -0.6755
 6768SOL    HW231767   4.073   2.626   7.016  0.6579 -0.3023  0.0993
 6769SOL     OW31768   2.708   1.393   8.696  0.0933  0.9301  0.5048
 6769SOL    HW131769   2.683   1.423   8.784 -0.4820 -0.1523  0.7119
 6769SOL    HW231770   2.729   1.302   8.719  0.3935  0.3182 -2.2464
 6770SOL     OW31771   0.511   4.568   9.132 -0.0163 -0.6305  0.3329
 6770SOL    HW131772   0.582   4.545   9.193  0.8346 -0.5762 -0.6255
 6770SOL    HW231773   0.548   4.522   9.057 -0.5633 -0.5979  0.0513
 6771SOL     OW31774   2.572   1.475   3.642  0.8327 -0.7174 -0.2547
 6771SOL    HW131775   2.655   1.517   3.616 -0.0327  1.9901  1.3460
 6771SOL    HW231776   2.530   1.549   3.686 -1.0754 -1.1667 -1.3272
 6772SOL     OW31777   1.058   1.270   6.094  0.1276  0.2811 -0.2525
 6772SOL    HW131778   1.142   1.227   6.078  0.0939  0.6562 -1.3960
 6772SOL    HW231779   1.092   1.359   6.089  0.2074  0.2507 -0.2576
 6773SOL     OW31780   2.390   0.860   4.505  0.6561  0.7009  0.1187
 6773SOL    HW131781   2.394   0.777   4.458  0.5796  0.0514  1.2555
 6773SOL    HW231782   2.301   0.878   4.475 -0.2792 -2.1213  1.2471
 6774SOL     OW31783   3.682   1.867   7.317 -0.1994  0.4298  0.1389
 6774SOL    HW131784   3.660   1.883   7.225  2.2759  1.8019 -0.2246
 6774SOL    HW231785   3.602   1.887   7.364  1.5942  1.9040  2.5732
 6775SOL     OW31786   1.506   0.984   5.949 -0.2192  0.5616  0.3675
 6775SOL    HW131787   1.525   0.991   5.856 -0.0795 -0.2513  0.3376
 6775SOL    HW231788   1.548   1.067   5.970  0.2239  1.0246 -2.3646
 6776SOL     OW31789   1.752   3.855   2.376  0.0780 -0.0182  0.1555
 6776SOL    HW131790   1.817   3.790   2.349 -0.1314 -0.2813  0.2904
 6776SOL    HW231791   1.679   3.796   2.393  0.0292  0.4042  1.3900
 6777SOL     OW31792   1.373   2.671   9.054 -0.1126 -0.4028  0.8833
 6777SOL    HW131793   1.282   2.680   9.085 -0.6045 -0.8272 -0.4419
 6777SOL    HW231794   1.413   2.677   9.141 -0.7029 -1.1229  1.2103
 6778SOL     OW31795   1.881   2.458   8.967  0.7152 -0.2985  0.2313
 6778SOL    HW131796   1.860   2.548   8.944 -1.9043 -0.8763  0.2965
 6778SOL    HW231797   1.973   2.456   8.992  1.6033 -0.5500 -3.1246
 6779SOL     OW31798   4.097   4.141   2.245  0.0089 -0.0039 -0.3809
 6779SOL    HW131799   4.146   4.221   2.267 -0.9492  0.8334 -1.2876
 6779SOL    HW231800   4.167   4.077   2.259  0.1919  0.3190  0.1937
 6780SOL     OW31801   0.648   3.101  10.858  0.4981 -0.1552  0.0745
 6780SOL    HW131802   0.578   3.058  10.907 -0.7069  3.8430  1.8562
 6780SOL    HW231803   0.598   3.089  10.777  0.1601 -0.8061  0.3806
 6781SOL     OW31804   3.840   0.520   3.795 -0.1671 -0.0088 -0.2733
 6781SOL    HW131805   3.866   0.599   3.841  0.8292 -0.6522  0.2640
 6781SOL    HW231806   3.823   0.558   3.709  0.2162  1.6064  0.3617
 6782SOL     OW31807   0.402   2.354   5.330 -0.1116  0.3508 -0.0228
 6782SOL    HW131808   0.466   2.420   5.305  0.5463 -0.4624 -0.4791
 6782SOL    HW231809   0.457   2.282   5.361 -1.2453  0.0769  1.3838
 6783SOL     OW31810   1.048   0.619   9.625  0.3080 -0.0682  0.3516
 6783SOL    HW131811   1.040   0.611   9.720  0.0490 -0.9877  0.2598
 6783SOL    HW231812   0.979   0.558   9.597  0.3625 -0.6674  1.5491
 6784SOL     OW31813   1.488   3.184   6.549  1.2899 -0.5025  0.5773
 6784SOL    HW131814   1.459   3.150   6.465  2.4769 -0.6912  0.2491
 6784SOL    HW231815   1.549   3.113   6.568  0.1362 -1.8368 -0.7285
 6785SOL     OW31816   0.784   1.096  14.781  0.1170  0.1956 -0.3195
 6785SOL    HW131817   0.800   1.102  14.875  1.1142 -2.4734 -0.3230
 6785SOL    HW231818   0.868   1.072  14.742  1.4315  1.2511  1.9146
 6786SOL     OW31819   1.137   4.564  13.615  0.2293  0.1868 -0.1312
 6786SOL    HW131820   1.077   4.513  13.668 -0.9546  1.5714 -0.1260
 6786SOL    HW231821   1.127   4.654  13.646  0.6488 -0.4920  1.9780
 6787SOL     OW31822   1.014   2.901   1.694  0.3230  0.1208  0.2076
 6787SOL    HW131823   1.072   2.913   1.770  0.1592  2.6154 -0.0558
 6787SOL    HW231824   1.059   2.833   1.644  2.1594  1.4238  0.0881
 6788SOL     OW31825   2.382   4.678  16.644  0.1500  0.0961 -0.1386
 6788SOL    HW131826   2.400   0.046  16.661 -1.7336  0.3280  0.6524
 6788SOL    HW231827   2.468   4.639  16.658 -0.4321 -2.3567 -3.2262
 6789SOL     OW31828   2.852   0.457   6.627  0.2536 -0.6200 -0.1264
 6789SOL    HW131829   2.759   0.448   6.647  0.0116  1.2903 -0.4402
 6789SOL    HW231830   2.868   0.370   6.590  1.3714  0.8334 -2.9809
 6790SOL     OW31831   4.081   0.857   8.178 -0.1185 -0.3688 -0.0398
 6790SOL    HW131832   4.071   0.862   8.273 -0.7657 -2.1482 -0.0235
 6790SOL    HW231833   4.008   0.797   8.165  0.0121 -0.5152 -0.1004
 6791SOL     OW31834   3.665   4.026   2.283  0.1800  0.3526  0.3604
 6791SOL    HW131835   3.736   4.055   2.341  0.9375  0.2084 -0.4897
 6791SOL    HW231836   3.594   4.086   2.305  0.9641  1.8518 -1.2166
 6792SOL     OW31837   4.585   1.605   7.429  0.0900 -0.6816 -0.1159
 6792SOL    HW131838   4.578   1.687   7.381 -0.6964  0.2091  1.5073
 6792SOL    HW231839   4.631   1.558   7.360  0.7150  0.3504 -0.3957
 6793SOL     OW31840   4.470   1.152   3.278 -0.2475 -0.2995  0.3092
 6793SOL    HW131841   4.428   1.194   3.204 -0.9156  1.5111  1.7228
 6793SOL    HW231842   4.521   1.226   3.310  0.8747 -0.2694 -1.5906
 6794SOL     OW31843   3.467   4.379  14.920 -0.2532  0.0960  0.2754
 6794SOL    HW131844   3.487   4.333  15.001 -1.4168 -1.5739 -0.3878
 6794SOL    HW231845   3.523   4.346  14.850 -0.7980  1.2115 -0.6924
 6795SOL     OW31846   1.357   0.419   3.208  0.1490 -0.1742  0.0350
 6795SOL    HW131847   1.332   0.356   3.276  2.1824 -1.4625 -0.4026
 6795SOL    HW231848   1.402   0.351   3.158 -0.5648 -1.2266  0.7963
 6796SOL     OW31849   1.167   0.235  17.589 -0.6328  0.4122  0.0476
 6796SOL    HW131850   1.192   0.278  17.671 -0.5100  1.1891 -0.3982
 6796SOL    HW231851   1.127   0.157  17.627  1.3699 -1.8305 -2.4819
 6797SOL     OW31852   1.051   2.356   3.344  0.2596 -0.2455  0.1459
 6797SOL    HW131853   1.036   2.420   3.413 -0.8684 -1.1556  0.7545
 6797SOL    HW231854   0.961   2.330   3.322 -0.1300  1.0645  0.2075
 6798SOL     OW31855   0.023   3.805   5.896  0.3141 -0.0452  0.9712
 6798SOL    HW131856   0.030   3.842   5.808 -0.6994  0.0149  0.9200
 6798SOL    HW231857   0.077   3.726   5.886  0.1582 -0.2313  1.5861
 6799SOL     OW31858   0.756   0.623   1.258  0.2338  0.4476  0.1242
 6799SOL    HW131859   0.703   0.696   1.291 -1.5752 -0.7578 -0.1295
 6799SOL    HW231860   0.699   0.547   1.265  1.3861 -0.4926 -0.6404
 6800SOL     OW31861   2.395   2.563  13.082 -0.2964  0.2857 -0.1996
 6800SOL    HW131862   2.441   2.482  13.104 -1.6595 -1.0637 -2.2600
 6800SOL    HW231863   2.400   2.611  13.165  3.5408 -3.0361  1.5212
 6801SOL     OW31864   3.370   3.210   6.898  0.3581 -0.7230 -0.7637
 6801SOL    HW131865   3.409   3.222   6.984  0.5196 -0.3470 -0.8910
 6801SOL    HW231866   3.299   3.274   6.900  1.5001  0.5938 -2.5124
 6802SOL     OW31867   2.246   1.124  12.020 -0.1362  0.3641 -0.3384
 6802SOL    HW131868   2.154   1.150  12.028 -0.4126 -1.2126  1.7447
 6802SOL    HW231869   2.276   1.210  11.991  0.5495  0.1186 -0.3496
 6803SOL     OW31870   1.890   3.922   9.587  0.5215  0.1501  0.3024
 6803SOL    HW131871   1.830   3.907   9.514  1.1765  2.7048 -0.7615
 6803SOL    HW231872   1.952   3.976   9.539  0.0774  2.2006  2.0608
 6804SOL     OW31873   4.401   0.630  11.055  0.2553 -0.0913 -1.0633
 6804SOL    HW131874   4.447   0.674  10.983 -2.1283  1.1076 -1.8401
 6804SOL    HW231875   4.311   0.619  11.024  0.1554 -0.9097 -0.4873
 6805SOL     OW31876   3.720   2.241  17.225  0.1679  0.1956 -0.0682
 6805SOL    HW131877   3.803   2.287  17.233  0.1076  0.3067 -0.0889
 6805SOL    HW231878   3.673   2.283  17.296  0.2960  0.8272 -0.3547
 6806SOL     OW31879   3.190   1.323   8.987 -0.1483  0.1045 -0.5393
 6806SOL    HW131880   3.282   1.330   8.962 -0.0052 -0.3401 -0.1051
 6806SOL    HW231881   3.165   1.397   8.931  2.3499  0.3630 -1.3150
 6807SOL     OW31882   1.273   4.354   6.323 -0.0118 -0.0884 -0.6789
 6807SOL    HW131883   1.328   4.387   6.252  1.4752  0.6712  0.8420
 6807SOL    HW231884   1.190   4.377   6.281  2.7645  3.5739 -4.1895
 6808SOL     OW31885   1.004   3.455   5.321 -0.0729 -0.3333 -0.1122
 6808SOL    HW131886   0.920   3.410   5.313  0.8654 -1.7820 -1.6609
 6808SOL    HW231887   1.042   3.419   5.401  0.9865  2.4545  0.6470
 6809SOL     OW31888   1.797   1.183   5.377 -0.1499  0.6749 -0.1692
 6809SOL    HW131889   1.882   1.140   5.368  0.9071  2.4269  1.4203
 6809SOL    HW231890   1.776   1.166   5.469  0.0313 -0.5033 -0.3377
 6810SOL     OW31891   2.238   0.950   9.217 -0.3251  0.4203 -0.0555
 6810SOL    HW131892   2.288   0.939   9.298  0.1472 -0.1569 -0.4298
 6810SOL    HW231893   2.275   1.036   9.195 -1.2112  0.0018 -3.1319
 6811SOL     OW31894   0.772   1.375   9.881 -0.0828 -0.0704 -0.4021
 6811SOL    HW131895   0.848   1.319   9.864  1.3403  2.4927 -2.4292
 6811SOL    HW231896   0.786   1.393   9.974 -1.2224 -0.7191 -0.1036
 6812SOL     OW31897   2.027   0.382   2.673  0.3032 -0.3473 -0.8251
 6812SOL    HW131898   1.967   0.438   2.624 -0.7650 -0.5395  0.2623
 6812SOL    HW231899   2.100   0.383   2.612  1.8250  0.2783  1.0075
 6813SOL     OW31900   2.080   3.034   2.184 -0.5144  0.4898  0.0356
 6813SOL    HW131901   2.089   2.967   2.116 -0.2085  0.4360  0.1317
 6813SOL    HW231902   2.171   3.042   2.212 -0.8247  0.5277  1.0415
 6814SOL     OW31903   2.098   2.760   5.110 -0.3927  0.1456  0.3637
 6814SOL    HW131904   2.102   2.690   5.176  0.2565  1.6029  1.8629
 6814SOL    HW231905   2.053   2.831   5.155 -0.8635  0.0937 -0.0293
 6815SOL     OW31906   0.336   0.022   8.996 -0.0670  0.5915  0.0317
 6815SOL    HW131907   0.386   4.665   8.989 -2.2156 -0.6371 -1.0484
 6815SOL    HW231908   0.394   0.065   9.057 -0.7948  1.8273 -0.1507
 6816SOL     OW31909   1.796   4.674  10.922 -0.1223 -0.1588  0.2294
 6816SOL    HW131910   1.863   4.633  10.866  0.9911 -0.5252  1.8315
 6816SOL    HW231911   1.730   4.702  10.858 -1.1594 -1.7772  0.5847
 6817SOL     OW31912   0.597   2.421   2.591  0.0251  0.4130  0.3522
 6817SOL    HW131913   0.534   2.489   2.568  1.1470  1.5945  0.7980
 6817SOL    HW231914   0.547   2.340   2.579 -0.1339  0.4404  0.8369
 6818SOL     OW31915   2.610   3.783   0.511  0.2431 -0.5681 -0.1222
 6818SOL    HW131916   2.612   3.862   0.458  0.5134 -0.7577 -0.3929
 6818SOL    HW231917   2.569   3.722   0.449  1.8230 -0.3688 -1.3524
 6819SOL     OW31918   1.236   2.468  16.860 -0.4541 -0.6464 -0.4622
 6819SOL    HW131919   1.329   2.476  16.839 -1.4148 -0.0461 -4.5709
 6819SOL    HW231920   1.197   2.547  16.821  0.2028 -0.2814 -0.3737
 6820SOL     OW31921   3.166   3.666   1.284  0.5816 -0.1044 -0.0687
 6820SOL    HW131922   3.238   3.638   1.340 -0.5987 -0.9269  1.0318
 6820SOL    HW231923   3.125   3.725   1.348  1.0184  0.0102  0.1100
 6821SOL     OW31924   1.235   2.314   3.153 -0.4604  0.2489 -0.7937
 6821SOL    HW131925   1.293   2.384   3.126 -0.0659  0.4062  0.4660
 6821SOL    HW231926   1.188   2.352   3.227  2.6009 -1.3562  1.9554
 6822SOL     OW31927   3.048   1.467  11.033  0.3739 -0.1252 -0.5890
 6822SOL    HW131928   3.011   1.527  11.098 -0.9267 -1.5415 -0.0076
 6822SOL    HW231929   3.138   1.488  11.056  0.8740 -0.8222 -1.9750
 6823SOL     OW31930   3.608   4.176  10.264 -0.3049 -0.3775 -0.4230
 6823SOL    HW131931   3.578   4.091  10.296 -0.5895 -0.4120 -0.7846
 6823SOL    HW231932   3.702   4.167  10.279 -0.1474  0.2411 -1.0243
 6824SOL     OW31933   2.724   4.278   0.399 -0.0018 -0.0391  0.3839
 6824SOL    HW131934   2.646   4.266   0.453 -1.0760  1.4375 -0.8513
 6824SOL    HW231935   2.784   4.214   0.438  0.3595  0.3419  0.4592
 6825SOL     OW31936   3.407   0.533   8.167 -0.5737 -0.3755  0.6408
 6825SOL    HW131937   3.397   0.552   8.260  3.2694  2.1988  0.5455
 6825SOL    HW231938   3.352   0.455   8.162 -1.5903  0.4026 -0.1451
 6826SOL     OW31939   0.761   0.268   4.220 -0.1111 -0.0495  0.0730
 6826SOL    HW131940   0.852   0.269   4.249  0.1485  0.8700 -0.8167
 6826SOL    HW231941   0.738   0.176   4.235  0.2445  0.2355  2.3500
 6827SOL     OW31942   4.363   3.098   3.910  0.5331 -0.2306 -0.3167
 6827SOL    HW131943   4.418   3.036   3.958  1.4643 -1.0598 -2.3964
 6827SOL    HW231944   4.295   3.040   3.876  1.3959 -0.8465 -1.0042
 6828SOL     OW31945   3.583   3.248  11.117 -0.8310  0.4915 -0.1641
 6828SOL    HW131946   3.492   3.231  11.094 -0.9823 -0.1604  0.9295
 6828SOL    HW231947   3.577   3.342  11.136  0.3267  0.6800 -0.6672
 6829SOL     OW31948   1.195   1.432   2.887 -0.0113  0.0011 -0.1379
 6829SOL    HW131949   1.272   1.442   2.943  0.3671 -0.2096 -0.6172
 6829SOL    HW231950   1.233   1.480   2.813 -0.2762  0.2792 -0.0903
 6830SOL     OW31951   0.848   2.337   8.933 -0.3877 -0.2250 -0.7499
 6830SOL    HW131952   0.894   2.324   8.850 -1.6320  1.7389 -1.7440
 6830SOL    HW231953   0.812   2.249   8.944 -3.2622  1.1182  0.5675
 6831SOL     OW31954   2.288   0.335   1.774 -0.0803  0.0986  0.1948
 6831SOL    HW131955   2.338   0.343   1.855 -0.6152 -1.2036  0.6612
 6831SOL    HW231956   2.361   0.328   1.711  0.1472 -0.6505  0.5346
 6832SOL     OW31957   3.939   4.455   7.157 -0.0855  0.3157 -0.0486
 6832SOL    HW131958   3.973   4.366   7.167 -0.9832 -0.0595 -0.4207
 6832SOL    HW231959   3.863   4.440   7.102  0.7964 -0.0344 -1.1663
 6833SOL     OW31960   4.365   2.352  10.355 -0.1197 -0.0028  0.4304
 6833SOL    HW131961   4.294   2.302  10.315  0.0622  0.5788 -0.6525
 6833SOL    HW231962   4.426   2.282  10.378 -0.4631 -0.4366  0.0299
 6834SOL     OW31963   3.169   4.708   5.299  0.4366 -0.2372  0.8049
 6834SOL    HW131964   3.175   4.615   5.319 -0.7941 -0.9464 -2.0334
 6834SOL    HW231965   3.205   4.701   5.210 -1.0493 -0.5894  0.2189
 6835SOL     OW31966   1.759   1.969   9.565  0.2195  0.2212 -0.0114
 6835SOL    HW131967   1.777   1.975   9.659  1.2558  1.3369 -0.2878
 6835SOL    HW231968   1.723   2.054   9.539 -0.5507  0.2926  1.2674
 6836SOL     OW31969   3.308   3.218  10.283 -0.1626 -0.4133 -0.2335
 6836SOL    HW131970   3.342   3.159  10.350 -1.1536 -0.1945  0.4580
 6836SOL    HW231971   3.362   3.295  10.300 -0.2647 -0.8741  2.0688
 6837SOL     OW31972   2.603   1.706   5.843 -0.1597  0.2376  0.0195
 6837SOL    HW131973   2.508   1.709   5.832 -0.3873 -3.4769  0.9215
 6837SOL    HW231974   2.604   1.617   5.877  1.7474  1.3614  2.9085
 6838SOL     OW31975   2.318   0.222   0.131 -0.2403  0.0870  0.6603
 6838SOL    HW131976   2.236   0.178   0.109  0.3683 -0.3673 -0.6734
 6838SOL    HW231977   2.305   0.306   0.088  0.7141  0.2027  0.6029
 6839SOL     OW31978   0.194   4.356   6.220  0.3515 -0.6857 -0.0337
 6839SOL    HW131979   0.262   4.417   6.190 -1.7832  1.4535 -0.5771
 6839SOL    HW231980   0.114   4.396   6.185  0.0197 -2.3524 -1.1725
 6840SOL     OW31981   0.190   4.660   7.925  0.7616  0.1080 -0.9699
 6840SOL    HW131982   0.276   4.667   7.883  1.4749 -0.6028  0.3852
 6840SOL    HW231983   0.207   4.609   8.004  0.4008 -0.2114 -1.0977
 6841SOL     OW31984   3.624   4.593   4.853  0.0897  0.1351 -0.6977
 6841SOL    HW131985   3.699   4.631   4.807  1.3172 -0.3259  0.9323
 6841SOL    HW231986   3.659   4.514   4.894 -1.0560 -0.3555 -0.6716
 6842SOL     OW31987   0.638   4.568   4.737 -0.5261  0.1372  0.0491
 6842SOL    HW131988   0.543   4.576   4.747 -0.6835 -0.7685 -0.7817
 6842SOL    HW231989   0.644   4.613   4.653  2.2376  1.8555  1.1911
 6843SOL     OW31990   0.861   2.858   4.116 -0.1313  0.0248  0.5860
 6843SOL    HW131991   0.836   2.799   4.045 -3.2426  2.0260  0.0219
 6843SOL    HW231992   0.929   2.901   4.064 -0.0658  1.9002  2.1986
 6844SOL     OW31993   4.360   1.865   7.555  0.0021 -0.0998  0.2008
 6844SOL    HW131994   4.366   1.953   7.591  4.0277 -0.4006  0.2792
 6844SOL    HW231995   4.332   1.811   7.629 -2.7299  0.1100 -0.6697
 6845SOL     OW31996   2.104   3.510  17.540  0.3181  0.4941 -0.0797
 6845SOL    HW131997   2.093   3.479  17.630 -1.0303 -1.7517 -1.0376
 6845SOL    HW231998   2.081   3.603  17.543  3.1666  1.1656  1.0872
 6846SOL     OW31999   0.620   4.416   5.486 -0.0029  0.3792  0.5403
 6846SOL    HW132000   0.614   4.342   5.546  1.8671 -0.7547 -0.6524
 6846SOL    HW232001   0.652   4.485   5.543  1.5619  0.4066 -0.3606
 6847SOL     OW32002   3.728   0.932   6.828  0.6595  0.1359 -0.3122
 6847SOL    HW132003   3.633   0.921   6.831  0.6382  0.8308  1.5206
 6847SOL    HW232004   3.753   0.846   6.861  2.3342  0.2597 -1.2430
 6848SOL     OW32005   0.549   1.260   9.128 -0.1357  0.0698 -0.1113
 6848SOL    HW132006   0.573   1.168   9.130 -0.1382  0.0874  0.6345
 6848SOL    HW232007   0.453   1.256   9.127 -0.1148 -0.2338 -0.8167
 6849SOL     OW32008   2.553   2.999  12.384 -0.2807  0.3833 -0.4145
 6849SOL    HW132009   2.461   3.002  12.356 -1.0363  0.1915  2.0900
 6849SOL    HW232010   2.577   3.092  12.381  0.0369  0.3114 -0.0125
 6850SOL     OW32011   4.048   1.337  16.928 -0.1389  0.5547 -0.1848
 6850SOL    HW132012   4.070   1.329  17.021  1.8711  3.8119 -0.3663
 6850SOL    HW232013   4.046   1.243  16.910 -1.3499  0.7307 -0.9754
 6851SOL     OW32014   4.542   3.196   5.218 -0.1562  0.1462  0.3597
 6851SOL    HW132015   4.560   3.103   5.232 -0.4584  0.0947  0.4095
 6851SOL    HW232016   4.470   3.202   5.281 -1.1459  2.0843 -0.9600
 6852SOL     OW32017   1.166   2.952   0.295 -0.4576 -0.3056  0.1162
 6852SOL    HW132018   1.178   2.954   0.200 -0.7487  2.8950  0.1542
 6852SOL    HW232019   1.140   3.040   0.322 -1.3890  0.0483 -1.9764
 6853SOL     OW32020   3.267   2.120   5.643  0.0890 -0.5697  0.2336
 6853SOL    HW132021   3.251   2.199   5.591  0.1595  0.0910  1.2133
 6853SOL    HW232022   3.199   2.068   5.600  0.0070 -0.0964 -0.2014
 6854SOL     OW32023   4.081   2.575   8.890  0.5508  0.6788 -0.2386
 6854SOL    HW132024   4.014   2.539   8.832 -1.7427  0.1039  2.7714
 6854SOL    HW232025   4.024   2.599   8.963  0.3688 -1.6770  0.3759
 6855SOL     OW32026   0.835   3.999   9.675  0.1505 -0.4108 -0.4159
 6855SOL    HW132027   0.901   3.930   9.676  0.8403  0.2604 -0.5438
 6855SOL    HW232028   0.875   4.065   9.732  1.9437 -2.9056  1.2070
 6856SOL     OW32029   0.249   1.797   7.026  0.3845 -0.7589 -0.3109
 6856SOL    HW132030   0.240   1.770   7.117 -0.2209 -1.5404 -0.6108
 6856SOL    HW232031   0.181   1.745   6.983  1.5947 -2.5423 -0.0668
 6857SOL     OW32032   1.118   0.716   2.265 -0.1492 -0.1856 -0.2017
 6857SOL    HW132033   1.203   0.681   2.292 -0.8499 -1.4145  0.3776
 6857SOL    HW232034   1.106   0.683   2.176 -0.8690 -0.5921  0.0492
 6858SOL     OW32035   1.812   2.243   8.772  0.5387  0.2856  0.6185
 6858SOL    HW132036   1.841   2.305   8.839 -0.6818 -1.1870  2.4977
 6858SOL    HW232037   1.787   2.160   8.814  0.2558 -0.2177 -0.5396
 6859SOL     OW32038   1.961   4.291  13.457 -0.0704  0.0104  0.2592
 6859SOL    HW132039   2.016   4.240  13.516 -2.9786 -2.8236  0.5053
 6859SOL    HW232040   1.917   4.219  13.411  0.6648 -0.8881  0.9486
 6860SOL     OW32041   4.496   4.135   7.340 -0.7440  0.1254 -0.1208
 6860SOL    HW132042   4.470   4.121   7.431 -0.6273 -0.3193 -0.1568
 6860SOL    HW232043   4.581   4.091   7.343 -0.1432  1.2354 -1.0441
 6861SOL     OW32044   2.853   1.427   3.148  0.1323  0.1119 -0.6925
 6861SOL    HW132045   2.763   1.404   3.169 -0.6851  3.1415 -0.9552
 6861SOL    HW232046   2.831   1.455   3.059  1.7275  0.4807 -0.9855
 6862SOL     OW32047   4.485   4.408   6.617 -0.0823  0.1599 -0.2327
 6862SOL    HW132048   4.573   4.420   6.580  0.4061 -2.6593 -0.0001
 6862SOL    HW232049   4.465   4.316   6.602  0.8699  0.1601 -1.5301
 6863SOL     OW32050   4.251   0.694   8.492 -0.0023  0.7419 -0.6307
 6863SOL    HW132051   4.324   0.649   8.534 -0.1997  2.2668  1.3349
 6863SOL    HW232052   4.275   0.784   8.513 -0.3338  0.7784 -0.4148
 6864SOL     OW32053   1.396   3.534  17.322  0.6547  0.3888  0.1089
 6864SOL    HW132054   1.318   3.484  17.298  0.7251 -0.1164  0.9078
 6864SOL    HW232055   1.383   3.540  17.417  1.5229  0.6308  0.2084
 6865SOL     OW32056   0.055   1.040   4.036 -0.4140 -0.6503 -0.1161
 6865SOL    HW132057   4.693   1.043   3.996 -0.0180  0.2924 -0.8972
 6865SOL    HW232058   0.092   0.964   3.990  0.6993 -1.0776  1.5105
 6866SOL     OW32059   2.219   2.370  10.331 -0.1309  0.4784 -0.1322
 6866SOL    HW132060   2.262   2.305  10.386 -2.7413 -1.3237 -0.2707
 6866SOL    HW232061   2.239   2.457  10.366  1.0737  0.7447 -1.4851
 6867SOL     OW32062   1.812   1.616   8.487  0.2539  0.4550  0.6234
 6867SOL    HW132063   1.830   1.656   8.403  0.8793  0.2680  0.6724
 6867SOL    HW232064   1.732   1.661   8.515 -1.7863 -0.7006 -3.3748
 6868SOL     OW32065   1.810   3.554   3.408 -0.4141 -0.0309 -0.1133
 6868SOL    HW132066   1.803   3.489   3.477  0.1193  0.2804  0.2291
 6868SOL    HW232067   1.793   3.504   3.328 -2.0194  1.3148 -0.6259
 6869SOL     OW32068   0.246   2.727  16.387  0.2917 -0.6319  0.2688
 6869SOL    HW132069   0.331   2.768  16.402 -0.2557  0.1707  1.1468
 6869SOL    HW232070   0.272   2.659  16.325  2.4244 -0.9114  1.4701
 6870SOL     OW32071   0.561   3.891   0.748 -0.1594 -0.4586  0.2669
 6870SOL    HW132072   0.602   3.942   0.817  0.1240 -1.9169  1.1751
 6870SOL    HW232073   0.468   3.911   0.760 -0.5720 -1.0387 -1.7984
 6871SOL     OW32074   2.168   2.590   8.273 -0.1171  0.1888 -0.1132
 6871SOL    HW132075   2.154   2.510   8.324  1.4925  0.7209  1.1396
 6871SOL    HW232076   2.087   2.636   8.295 -0.5715  0.4642 -2.3466
 6872SOL     OW32077   2.093   3.354   6.560  0.0271 -0.0083 -0.3193
 6872SOL    HW132078   2.131   3.433   6.522  1.5295 -1.2457 -1.3681
 6872SOL    HW232079   2.092   3.383   6.652  0.5136 -1.9855  0.3123
 6873SOL     OW32080   2.228   4.626   6.395  0.7072 -0.5271  0.1944
 6873SOL    HW132081   2.200   4.580   6.474  0.1911  2.4601  1.7813
 6873SOL    HW232082   2.268   4.555   6.345  0.5454  1.0871 -2.1856
 6874SOL     OW32083   2.583   3.676  15.809 -0.0868 -0.3224  0.0786
 6874SOL    HW132084   2.540   3.620  15.744 -1.4935 -0.1470  0.8453
 6874SOL    HW232085   2.547   3.652  15.895 -0.1895  0.3302  0.2197
 6875SOL     OW32086   3.264   0.297   8.322  0.0914  0.2542 -0.2142
 6875SOL    HW132087   3.180   0.338   8.342  0.7364  0.7632  1.4355
 6875SOL    HW232088   3.265   0.222   8.382  1.8301  0.4283 -0.0211
 6876SOL     OW32089   3.995   1.974   4.247  0.4361 -0.2829 -0.2325
 6876SOL    HW132090   3.918   1.919   4.258 -0.6252  0.9948 -1.3544
 6876SOL    HW232091   4.008   2.000   4.339  1.2853  0.6735 -0.6174
 6877SOL     OW32092   2.375   2.538   2.534  0.3094  0.5492 -0.3915
 6877SOL    HW132093   2.421   2.482   2.471 -0.0785 -1.1920  0.8870
 6877SOL    HW232094   2.297   2.559   2.483  0.3235  0.2628 -0.5310
 6878SOL     OW32095   3.440   2.556  11.818 -0.2590 -0.5592  0.0302
 6878SOL    HW132096   3.487   2.633  11.850  1.1686 -1.7217  0.7410
 6878SOL    HW232097   3.496   2.514  11.753 -0.3525  0.7989 -0.9424
 6879SOL     OW32098   4.362   0.958   8.537 -0.0292 -0.1434 -0.8262
 6879SOL    HW132099   4.310   1.001   8.470 -0.2676 -0.4499 -0.8393
 6879SOL    HW232100   4.430   1.024   8.529 -0.3858  0.5210  1.6268
 6880SOL     OW32101   1.452   3.425   8.461  0.5632  0.3805  0.2599
 6880SOL    HW132102   1.514   3.421   8.533 -1.6966  1.1840  2.2637
 6880SOL    HW232103   1.445   3.335   8.430 -0.4774  0.3180  0.6446
 6881SOL     OW32104   3.208   3.465   9.027  0.5192 -0.3783  0.2889
 6881SOL    HW132105   3.300   3.448   9.047  0.5157 -1.8051 -0.8662
 6881SOL    HW232106   3.198   3.559   9.044  0.0090 -0.9976  3.3196
 6882SOL     OW32107   1.073   0.004  17.678  0.4114  0.3144  0.7683
 6882SOL    HW132108   1.127   4.661  17.637  0.6579 -1.0425  3.3239
 6882SOL    HW232109   0.981   4.701  17.673 -0.3912  2.9647  0.6232
 6883SOL     OW32110   4.439   1.522   4.602  0.0953 -0.5446  0.3693
 6883SOL    HW132111   4.526   1.555   4.625 -0.1852 -0.0861  0.7637
 6883SOL    HW232112   4.460   1.486   4.515  0.6228 -2.8028  1.4179
 6884SOL     OW32113   1.052   2.736   2.896 -0.4761 -0.0922 -0.3866
 6884SOL    HW132114   1.101   2.747   2.814 -0.1527 -0.3766 -0.2290
 6884SOL    HW232115   1.060   2.642   2.912 -1.0456 -0.3563 -1.7022
 6885SOL     OW32116   4.382   0.978  11.829 -0.8000  0.3274 -0.1779
 6885SOL    HW132117   4.407   0.886  11.827  0.2086  0.6215 -1.1836
 6885SOL    HW232118   4.422   1.020  11.753  0.7851 -0.2821  0.3146
 6886SOL     OW32119   0.833   1.702   3.260  0.0108 -0.5669 -0.2851
 6886SOL    HW132120   0.848   1.689   3.354 -2.5309 -2.0935 -0.0857
 6886SOL    HW232121   0.903   1.649   3.221  0.7605 -0.8205  1.3988
 6887SOL     OW32122   2.033   4.069   3.099 -0.1146  0.0868  0.1359
 6887SOL    HW132123   1.979   4.125   3.044 -0.0450 -0.1494 -0.1751
 6887SOL    HW232124   1.983   4.072   3.180 -2.8681  3.5421 -1.6914
 6888SOL     OW32125   4.098   4.714   0.235 -0.0675  0.2326 -0.2399
 6888SOL    HW132126   4.141   4.630   0.220 -0.6449 -0.3905  1.5804
 6888SOL    HW232127   4.117   4.720   0.329 -0.7575 -0.8343 -0.0347
 6889SOL     OW32128   3.520   0.116   3.663 -0.0256 -0.5822 -0.0807
 6889SOL    HW132129   3.496   0.183   3.599 -0.7486 -0.0462  0.7570
 6889SOL    HW232130   3.435   0.104   3.705  0.6377 -2.0716  0.8412
 6890SOL     OW32131   1.794   0.654   4.009 -0.1135 -0.3652  0.1279
 6890SOL    HW132132   1.848   0.731   3.995  0.2872 -1.2017 -2.9409
 6890SOL    HW232133   1.831   0.599   3.940  1.3379  0.7753  0.0045
 6891SOL     OW32134   1.762   4.088   0.656  0.1302  0.4432  0.1037
 6891SOL    HW132135   1.770   4.033   0.734  3.5865  0.8318 -0.0033
 6891SOL    HW232136   1.727   4.030   0.589  0.1676  1.3796 -0.7254
 6892SOL     OW32137   2.813   3.912   1.740  0.0371 -0.1899  0.0138
 6892SOL    HW132138   2.799   3.819   1.758  2.0081 -0.8885 -2.0570
 6892SOL    HW232139   2.799   3.932   1.648 -1.5565  0.3806  0.3780
 6893SOL     OW32140   0.289   0.345   4.903  0.8339  0.0998  0.0030
 6893SOL    HW132141   0.345   0.324   4.977  1.6209  3.2142  0.2851
 6893SOL    HW232142   0.255   0.258   4.881  0.4893  0.2047  0.1301
 6894SOL     OW32143   2.507   3.288   4.479  0.2609  0.1126  0.2437
 6894SOL    HW132144   2.549   3.333   4.552  0.4453 -0.4497  0.4885
 6894SOL    HW232145   2.419   3.325   4.482  1.3436  2.5287  1.3235
 6895SOL     OW32146   2.753   4.284   1.494 -0.3119  0.0469 -0.1717
 6895SOL    HW132147   2.818   4.304   1.427  0.2773  0.5012  0.5268
 6895SOL    HW232148   2.676   4.275   1.438 -0.2826 -0.5455 -0.1160
 6896SOL     OW32149   2.780   1.385   2.209 -0.1807  0.0686  0.8186
 6896SOL    HW132150   2.833   1.370   2.131  0.3769 -1.0131  1.4174
 6896SOL    HW232151   2.712   1.317   2.210  1.2664 -1.3532  1.1335
 6897SOL     OW32152   0.737   1.530   3.634 -0.4574  0.4528 -0.4782
 6897SOL    HW132153   0.744   1.442   3.596  0.3634 -0.3600  1.5530
 6897SOL    HW232154   0.789   1.519   3.714 -0.3347  0.3985 -0.5669
 6898SOL     OW32155   1.377   2.811   3.214  0.2635 -0.0665  0.2756
 6898SOL    HW132156   1.371   2.907   3.219 -0.2659 -0.0722 -0.2253
 6898SOL    HW232157   1.466   2.794   3.183  0.1332 -1.7545  0.8744
 6899SOL     OW32158   0.161   1.509   2.226  0.2765 -0.6755 -0.0899
 6899SOL    HW132159   0.218   1.565   2.279 -0.0926 -0.4734  0.0856
 6899SOL    HW232160   0.135   1.438   2.286  0.1062 -0.1236  0.4880
 6900SOL     OW32161   2.509   1.722   1.603  0.2411 -0.0347 -0.0357
 6900SOL    HW132162   2.442   1.754   1.543  0.1371 -0.0022  0.0989
 6900SOL    HW232163   2.530   1.629   1.587  1.2222  0.2092 -0.1892
 6901SOL     OW32164   0.294   4.208   8.104 -0.0887  0.2983 -0.1257
 6901SOL    HW132165   0.252   4.149   8.167 -0.0219  1.9451  1.4553
 6901SOL    HW232166   0.252   4.291   8.125  0.1270 -0.7753  4.5613
 6902SOL     OW32167   1.555   1.933   5.074 -0.7074  0.3154  0.1064
 6902SOL    HW132168   1.621   1.891   5.018 -1.4704 -0.1074 -0.4761
 6902SOL    HW232169   1.489   1.938   5.004  0.9337 -0.4773 -1.5121
 6903SOL     OW32170   3.858   1.605   4.075 -0.2058 -0.0750 -0.2275
 6903SOL    HW132171   3.883   1.674   4.014  1.2792  0.2986  0.8017
 6903SOL    HW232172   3.851   1.650   4.159  0.7802 -1.2257  0.4741
 6904SOL     OW32173   0.943   3.161   2.587  0.1711  0.3533 -0.4064
 6904SOL    HW132174   0.867   3.189   2.535 -0.3318  1.6820  1.0434
 6904SOL    HW232175   1.013   3.137   2.527  0.5556 -0.9439  0.5564
 6905SOL     OW32176   2.352   1.788   7.666 -0.6300  0.4122 -0.5251
 6905SOL    HW132177   2.362   1.847   7.592  0.4379  0.0477 -0.6755
 6905SOL    HW232178   2.387   1.837   7.740  1.5205  0.1492 -1.3628
 6906SOL     OW32179   3.908   3.614   8.620 -0.6890 -0.2507  0.0346
 6906SOL    HW132180   3.901   3.592   8.527  1.6066 -1.8770  0.2270
 6906SOL    HW232181   3.857   3.694   8.629  1.5883  1.1421  0.4116
 6907SOL     OW32182   0.714   3.125   5.533 -0.1339 -0.0619 -0.6727
 6907SOL    HW132183   0.797   3.083   5.512  0.0804  0.4057 -0.7649
 6907SOL    HW232184   0.715   3.126   5.629  0.1465  0.4704 -0.6844
 6908SOL     OW32185   3.058   2.007   5.845  0.3693  0.5698  0.2260
 6908SOL    HW132186   3.013   1.929   5.810 -2.9418  2.3086  0.6046
 6908SOL    HW232187   3.107   2.035   5.767  0.6084  3.2119  1.3410
 6909SOL     OW32188   1.572   2.613   2.901  0.0657 -0.7030 -0.5060
 6909SOL    HW132189   1.483   2.587   2.924 -0.7825  0.5554 -2.3558
 6909SOL    HW232190   1.560   2.637   2.810  0.0171  0.9832 -0.0617
 6910SOL     OW32191   2.240   2.546   4.753 -0.4637  0.0202 -0.1447
 6910SOL    HW132192   2.256   2.460   4.793  1.5150 -0.5125 -2.0904
 6910SOL    HW232193   2.181   2.521   4.683 -0.8543 -0.8706  0.5080
 6911SOL     OW32194   4.335   3.403   7.398 -0.0041 -0.1742  0.5219
 6911SOL    HW132195   4.295   3.469   7.341  2.1915  1.2096  0.5658
 6911SOL    HW232196   4.419   3.394   7.353  1.2758  0.3772  2.7469
 6912SOL     OW32197   0.018   0.343   2.755 -0.7220  0.4404  0.3610
 6912SOL    HW132198   4.711   0.264   2.711  1.1268  0.3020 -0.7145
 6912SOL    HW232199   0.005   0.414   2.691 -0.8194 -0.3675 -0.5176
 6913SOL     OW32200   1.614   4.001   7.952  0.3131  0.3314  0.1032
 6913SOL    HW132201   1.670   4.050   8.012  0.2714 -0.8348  1.0957
 6913SOL    HW232202   1.617   4.045   7.867  0.8801 -1.9855 -1.0846
 6914SOL     OW32203   2.796   4.571   7.735  0.3492 -0.1225  0.4358
 6914SOL    HW132204   2.745   4.652   7.743 -1.0852 -1.0553  0.7606
 6914SOL    HW232205   2.839   4.593   7.652  0.4318  0.1943  0.5631
 6915SOL     OW32206   3.157   2.997   7.609 -0.1290 -0.1927  0.0943
 6915SOL    HW132207   3.250   2.980   7.623  0.1342  0.3640 -0.9150
 6915SOL    HW232208   3.136   3.007   7.702 -0.9894 -2.7732  0.1902
 6916SOL     OW32209   0.012   2.163   8.035  1.2846  0.2444  0.4325
 6916SOL    HW132210   0.022   2.130   7.946 -0.0821  1.1704 -0.0541
 6916SOL    HW232211   0.098   2.167   8.077  0.3184 -2.3315  2.7066
 6917SOL     OW32212   4.315   0.773   2.992  0.4111 -0.3232  0.2876
 6917SOL    HW132213   4.372   0.832   3.041 -1.0689 -0.8806  2.6514
 6917SOL    HW232214   4.378   0.705   2.969  0.7279 -0.1015  0.4944
 6918SOL     OW32215   3.698   0.610  13.136 -0.2415  0.0693 -0.0588
 6918SOL    HW132216   3.676   0.613  13.043  0.9713 -0.4931 -0.3639
 6918SOL    HW232217   3.790   0.636  13.141 -0.4276  1.0927 -1.8218
 6919SOL     OW32218   2.196   3.559   8.596 -0.1241  0.1492 -0.3796
 6919SOL    HW132219   2.277   3.511   8.579  0.6823  0.5253  2.4011
 6919SOL    HW232220   2.188   3.565   8.691  0.7693  2.5989 -0.4790
 6920SOL     OW32221   1.860   4.400   7.247  0.2056 -0.2599  0.4438
 6920SOL    HW132222   1.952   4.390   7.223 -0.7144 -1.1038 -2.7333
 6920SOL    HW232223   1.838   4.325   7.302 -2.6195  0.6794  0.6329
 6921SOL     OW32224   4.616   2.943   4.249  0.1167 -0.1695  0.6722
 6921SOL    HW132225   4.686   2.898   4.294  0.4614 -1.4536 -1.1526
 6921SOL    HW232226   4.663   2.978   4.173 -0.7671 -1.4203 -0.4628
 6922SOL     OW32227   0.052   2.544   6.500 -0.6015 -0.1298  0.5141
 6922SOL    HW132228   0.056   2.504   6.414  1.7105  1.0991  0.0264
 6922SOL    HW232229   0.015   2.477   6.557 -1.4155 -0.2606 -0.1805
 6923SOL     OW32230   0.079   3.468   3.931 -0.0543  0.2076  0.3095
 6923SOL    HW132231   0.042   3.499   3.849  0.9147 -0.8369 -0.5274
 6923SOL    HW232232   0.128   3.540   3.972 -0.4889  0.6237  0.1005
 6924SOL     OW32233   2.642   4.314   5.609 -0.4253  0.4236  0.4651
 6924SOL    HW132234   2.623   4.404   5.581  1.0283  0.9045  1.0045
 6924SOL    HW232235   2.729   4.332   5.646  0.1623  0.4850 -0.9468
 6925SOL     OW32236   4.150   0.259   5.165  0.5775 -0.0976  0.3436
 6925SOL    HW132237   4.168   0.264   5.071 -1.6388  0.2215 -0.0765
 6925SOL    HW232238   4.056   0.241   5.174  0.4690 -0.2984 -1.1904
 6926SOL     OW32239   1.206   0.309   9.224 -0.0096 -0.2588  0.3553
 6926SOL    HW132240   1.229   0.349   9.141  1.1409 -3.5119 -0.8860
 6926SOL    HW232241   1.113   0.328   9.236  0.3337  2.0117 -0.6754
 6927SOL     OW32242   3.998   1.228  17.169  0.1109  0.1637  0.1339
 6927SOL    HW132243   4.023   1.190  17.254  0.8730  1.0831  0.3241
 6927SOL    HW232244   3.910   1.258  17.190  1.7050  3.0344  2.7635
 6928SOL     OW32245   2.773   0.199   2.683  0.0853 -0.2222 -0.0039
 6928SOL    HW132246   2.717   0.123   2.667 -0.5203  0.3731 -0.7642
 6928SOL    HW232247   2.769   0.210   2.778  0.0789 -0.1781 -0.0089
 6929SOL     OW32248   0.490   3.574   3.042  0.3054 -0.9416  0.2060
 6929SOL    HW132249   0.489   3.616   2.956 -0.4891 -1.2855  0.0430
 6929SOL    HW232250   0.452   3.492   3.009  0.0640 -0.7575  0.0269
 6930SOL     OW32251   1.682   2.213   3.348  0.5959 -0.1874  1.0262
 6930SOL    HW132252   1.669   2.122   3.377  0.5320 -0.6310 -0.3672
 6930SOL    HW232253   1.707   2.201   3.256 -1.1676  0.4473  0.4655
 6931SOL     OW32254   2.661   0.281  14.646  0.3471 -0.0771 -0.1643
 6931SOL    HW132255   2.685   0.193  14.676 -2.8594 -1.3947 -1.5088
 6931SOL    HW232256   2.739   0.337  14.639  1.8320 -1.9469  1.1889
 6932SOL     OW32257   2.023   0.367   4.483 -0.4246  0.2898  0.3810
 6932SOL    HW132258   2.020   0.429   4.556 -1.1826 -0.9878  1.4307
 6932SOL    HW232259   2.118   0.370   4.469 -0.4855 -0.9495 -0.2537
 6933SOL     OW32260   3.651   4.364   7.615 -0.2678 -0.0517 -0.2091
 6933SOL    HW132261   3.598   4.317   7.679  0.4501  1.1375  1.2660
 6933SOL    HW232262   3.712   4.408   7.674  0.3186 -1.3759  0.1506
 6934SOL     OW32263   2.213   4.254  12.957 -0.0712 -0.1617 -0.7896
 6934SOL    HW132264   2.245   4.181  12.905 -0.5132 -1.1587  0.3439
 6934SOL    HW232265   2.187   4.318  12.891 -0.6048  0.4865  0.0368
 6935SOL     OW32266   3.819   4.682   4.065 -0.1952 -0.3746 -0.3781
 6935SOL    HW132267   3.799   0.038   4.112  0.7345 -0.1434 -0.3871
 6935SOL    HW232268   3.792   4.703   3.975 -0.6479  1.0775  0.1002
 6936SOL     OW32269   1.909   2.034  12.636 -0.0861  0.4732  0.0716
 6936SOL    HW132270   1.899   1.992  12.550  1.6562 -0.7529  0.4553
 6936SOL    HW232271   1.986   1.989  12.671  1.0285  1.7169 -0.7626
 6937SOL     OW32272   4.616   1.394   3.231 -0.3601 -0.3043  0.3599
 6937SOL    HW132273   4.699   1.350   3.217  0.2739  0.8507  0.4498
 6937SOL    HW232274   4.602   1.452   3.155  3.4117  1.2754  0.8821
 6938SOL     OW32275   0.173   3.706   6.755  0.0160  0.3711 -0.0941
 6938SOL    HW132276   0.130   3.657   6.686 -0.0129 -2.7534  2.1444
 6938SOL    HW232277   0.141   3.794   6.734  1.5163  0.7821 -0.6607
 6939SOL     OW32278   2.224   3.094   2.597 -0.3079  0.2730 -0.0354
 6939SOL    HW132279   2.153   3.151   2.566  1.4766  2.6279  0.1843
 6939SOL    HW232280   2.210   3.013   2.550  0.6818  0.2081 -0.2088
 6940SOL     OW32281   0.561   4.195   2.709 -0.1328 -0.2011  0.0472
 6940SOL    HW132282   0.557   4.232   2.797 -3.3232 -1.0884  0.2488
 6940SOL    HW232283   0.469   4.175   2.695  0.3417 -2.0651 -0.3855
 6941SOL     OW32284   2.173   2.295   4.161 -0.1495 -0.0222  0.2655
 6941SOL    HW132285   2.126   2.261   4.086 -0.5590 -1.7012  1.2810
 6941SOL    HW232286   2.249   2.237   4.153 -0.1244 -0.1450  1.3390
 6942SOL     OW32287   0.180   2.930   0.307  0.5364 -0.3397 -0.1292
 6942SOL    HW132288   0.111   2.946   0.243  0.3335 -0.0047  0.1755
 6942SOL    HW232289   0.260   2.929   0.253  0.7281 -0.2125  0.1524
 6943SOL     OW32290   3.508   0.921   4.797  0.0201 -0.2236 -0.0599
 6943SOL    HW132291   3.494   0.913   4.891 -0.5232  1.4202 -0.0025
 6943SOL    HW232292   3.604   0.923   4.796  0.0696 -3.5392 -1.9111
 6944SOL     OW32293   3.110   3.777   7.787 -0.4320  0.1156  0.4919
 6944SOL    HW132294   3.198   3.794   7.821  0.5292  0.7553 -2.2971
 6944SOL    HW232295   3.055   3.750   7.860 -0.1186 -0.5594  0.4768
 6945SOL     OW32296   1.693   0.993  11.070 -0.2937  0.3961 -0.6943
 6945SOL    HW132297   1.755   1.030  11.007  0.0911  2.9069  1.1291
 6945SOL    HW232298   1.612   1.002  11.021  0.8732  1.7289 -2.3821
 6946SOL     OW32299   2.284   0.263   5.444 -0.1257  0.1069 -0.0759
 6946SOL    HW132300   2.342   0.200   5.488 -0.0840  1.3214  1.6273
 6946SOL    HW232301   2.344   0.336   5.431 -0.8228  0.9651  1.5994
 6947SOL     OW32302   1.501   3.129   4.247 -0.1703  0.0279 -0.0615
 6947SOL    HW132303   1.506   3.067   4.175 -0.2834  0.0668 -0.1025
 6947SOL    HW232304   1.568   3.082   4.298 -0.2927  0.2693  0.3272
 6948SOL     OW32305   2.130   0.979   6.024  0.5825 -0.6206  0.0153
 6948SOL    HW132306   2.136   0.987   5.929 -1.1464  2.4625  0.1764
 6948SOL    HW232307   2.040   0.945   6.024 -0.4961  2.2650  1.4038
 6949SOL     OW32308   0.607   0.024   3.288 -0.0847 -0.3796  0.2093
 6949SOL    HW132309   0.675   0.039   3.353 -0.1272 -1.5724  0.5287
 6949SOL    HW232310   0.621   0.101   3.232  0.5262 -1.7254 -1.5067
 6950SOL     OW32311   2.503   1.561   7.952 -0.3033 -0.2954 -0.1966
 6950SOL    HW132312   2.480   1.555   8.045  1.8148  0.2390  0.3496
 6950SOL    HW232313   2.523   1.654   7.950 -0.8193 -0.2123 -1.7879
 6951SOL     OW32314   0.240   0.695  13.400  0.3445 -0.1394  0.2618
 6951SOL    HW132315   0.208   0.642  13.473 -0.8171 -0.3887 -0.4260
 6951SOL    HW232316   0.326   0.716  13.437 -0.0668 -0.0631  1.1500
 6952SOL     OW32317   2.819   3.297   5.660  0.4761 -0.0330 -0.0081
 6952SOL    HW132318   2.835   3.385   5.695 -1.1761 -0.0508  0.7950
 6952SOL    HW232319   2.737   3.271   5.702  0.2891  1.7271  0.7239
 6953SOL     OW32320   3.742   1.661   4.526 -0.1455 -0.0223 -0.5182
 6953SOL    HW132321   3.788   1.687   4.606  1.4330  0.8985 -1.7100
 6953SOL    HW232322   3.694   1.581   4.546 -0.0200  0.2727  0.9274
 6954SOL     OW32323   3.748   2.463   4.522  0.9549  0.2669 -0.0047
 6954SOL    HW132324   3.688   2.523   4.477 -1.3902 -0.9135  1.5413
 6954SOL    HW232325   3.821   2.464   4.460  0.4478  1.3734 -0.5881
 6955SOL     OW32326   3.889   3.829   2.608 -0.5049  0.0205  0.0605
 6955SOL    HW132327   3.797   3.806   2.596  0.0641 -1.7440 -0.9556
 6955SOL    HW232328   3.921   3.861   2.524  0.8759 -1.2405  0.0966
 6956SOL     OW32329   0.690   1.676   5.164  0.4500  0.2325 -0.3347
 6956SOL    HW132330   0.654   1.641   5.246 -0.4111  1.4929 -0.1651
 6956SOL    HW232331   0.644   1.760   5.159  0.0362 -0.0898 -1.7967
 6957SOL     OW32332   3.825   3.915   4.859  0.3721 -0.5474  0.0085
 6957SOL    HW132333   3.804   3.860   4.934 -0.2141 -1.0349 -0.5226
 6957SOL    HW232334   3.827   3.850   4.789 -0.7146  0.6353 -1.1139
 6958SOL     OW32335   1.678   4.295   5.432 -0.1333 -0.2419 -0.2062
 6958SOL    HW132336   1.642   4.245   5.505 -0.1798 -2.9895 -2.1037
 6958SOL    HW232337   1.729   4.365   5.473  0.4113  0.5608 -2.2590
 6959SOL     OW32338   3.824   0.229   5.677 -0.1494 -0.1454  0.0016
 6959SOL    HW132339   3.814   0.151   5.623  0.0201  0.3418 -0.7474
 6959SOL    HW232340   3.872   0.200   5.754  0.4489  0.9135  0.0371
 6960SOL     OW32341   4.652   0.424   4.788 -0.1655  0.1701  0.1378
 6960SOL    HW132342   0.004   0.379   4.822 -1.0332 -2.7772 -1.7917
 6960SOL    HW232343   4.666   0.513   4.820  2.4337  0.8700 -2.9697
 6961SOL     OW32344   2.311   3.343  16.760  0.3819  0.1636  0.2089
 6961SOL    HW132345   2.338   3.385  16.679  1.8833 -0.4189  0.4102
 6961SOL    HW232346   2.328   3.403  16.833  1.3447 -0.1007  0.1928
 6962SOL     OW32347   1.960   4.267   6.063  0.2461  0.8359  1.1162
 6962SOL    HW132348   2.004   4.220   5.993  0.6012  2.7377  0.0525
 6962SOL    HW232349   1.870   4.235   6.052  1.3750 -1.6116 -0.6840
 6963SOL     OW32350   1.836   1.589   9.070  0.0043 -0.1699 -0.2780
 6963SOL    HW132351   1.822   1.682   9.089  0.3399  0.1474 -1.6066
 6963SOL    HW232352   1.830   1.542   9.154  0.2470 -2.2692 -1.4283
 6964SOL     OW32353   3.285   3.184   0.496 -0.9151 -0.4676 -0.3106
 6964SOL    HW132354   3.261   3.185   0.588  1.6648  1.1611  0.3678
 6964SOL    HW232355   3.365   3.133   0.508 -0.6077  0.8354  3.2744
 6965SOL     OW32356   4.040   0.603   1.028  0.4808 -0.0406 -0.5957
 6965SOL    HW132357   3.967   0.642   1.075 -0.3892 -0.2210 -1.7834
 6965SOL    HW232358   4.099   0.600   1.103 -1.6308 -3.7063  0.8749
 6966SOL     OW32359   2.248   3.575   7.890  0.5591  0.6829  0.4102
 6966SOL    HW132360   2.241   3.601   7.981 -3.1853 -4.2389  1.5146
 6966SOL    HW232361   2.253   3.657   7.842 -0.9614  1.2641  1.2546
 6967SOL     OW32362   2.779   1.903   8.312 -0.1287 -0.7663 -0.4291
 6967SOL    HW132363   2.700   1.857   8.342  1.1773 -3.4068 -1.0248
 6967SOL    HW232364   2.741   1.990   8.305 -0.1365 -0.7164  0.2718
 6968SOL     OW32365   1.346   2.558   3.060  0.2527 -0.7307 -0.6062
 6968SOL    HW132366   1.307   2.646   3.061  0.6465 -0.5736  0.7187
 6968SOL    HW232367   1.369   2.553   3.153 -0.0900  1.4883 -0.3881
 6969SOL     OW32368   2.641   3.046   4.358  0.5835 -0.3116 -0.9085
 6969SOL    HW132369   2.593   3.097   4.423  3.2102  0.6443  0.2664
 6969SOL    HW232370   2.617   3.086   4.274 -2.5322 -0.1431  0.0622
 6970SOL     OW32371   4.691   0.215   6.214  0.3007 -0.3482 -0.1918
 6970SOL    HW132372   4.612   0.164   6.229 -0.1772 -0.2372 -2.3092
 6970SOL    HW232373   4.681   0.265   6.133  1.0550  0.5979  0.3006
 6971SOL     OW32374   1.222   4.631   5.152  0.2562 -0.5157  0.4398
 6971SOL    HW132375   1.240   4.626   5.058  3.0898 -2.0962  1.0793
 6971SOL    HW232376   1.130   4.605   5.152 -0.3417  1.6046 -0.9944
 6972SOL     OW32377   2.755   0.550   7.546 -0.3854  0.2564  0.0774
 6972SOL    HW132378   2.661   0.546   7.560 -0.0013 -0.8375  2.3813
 6972SOL    HW232379   2.754   0.590   7.459  0.5605  1.0717  0.4431
 6973SOL     OW32380   2.256   1.243   9.327  0.3290  0.2366  0.5656
 6973SOL    HW132381   2.295   1.280   9.248  0.9435 -0.9346  0.3058
 6973SOL    HW232382   2.284   1.298   9.400 -2.1484 -0.1980  1.8438
 6974SOL     OW32383   0.302   2.836   2.386  0.4826 -0.3167  0.0086
 6974SOL    HW132384   0.359   2.907   2.416 -1.2427  1.2363 -0.4323
 6974SOL    HW232385   0.231   2.890   2.351  2.2782  1.2317 -1.2851
 6975SOL     OW32386   1.265   0.643   3.331  0.3356  0.4014 -0.3655
 6975SOL    HW132387   1.278   0.556   3.293  1.9131  0.6542 -0.4286
 6975SOL    HW232388   1.358   0.667   3.340 -0.2669  0.4380  6.0963
 6976SOL     OW32389   4.499   2.462   2.807 -0.7770  0.8722 -0.0203
 6976SOL    HW132390   4.531   2.501   2.888 -0.0885  1.1757 -0.4384
 6976SOL    HW232391   4.405   2.451   2.816 -0.5929  0.6954  1.6927
 6977SOL     OW32392   1.140   0.998   3.779  0.1563 -0.1090  0.1914
 6977SOL    HW132393   1.174   1.055   3.848  0.0048  1.7003 -1.1912
 6977SOL    HW232394   1.050   0.980   3.806  0.2708 -3.1944 -1.5844
 6978SOL     OW32395   4.218   4.359   5.067  0.4296  0.0439  0.0231
 6978SOL    HW132396   4.214   4.323   5.156 -2.1466  2.1204  0.7537
 6978SOL    HW232397   4.129   4.393   5.068  0.8006  1.0237  0.7651
 6979SOL     OW32398   0.023   3.517  16.068  0.4204 -0.0359  0.0763
 6979SOL    HW132399   0.002   3.573  15.993 -1.7741  1.0953  1.5366
 6979SOL    HW232400   4.711   3.439  16.027  0.2934  0.0778 -0.0264
 6980SOL     OW32401   3.870   4.499   7.698  0.1931  0.2607  0.5555
 6980SOL    HW132402   3.872   4.580   7.748  0.3705  0.4267  0.2793
 6980SOL    HW232403   3.897   4.438   7.767  0.0102  1.2526  1.5009
 6981SOL     OW32404   3.806   1.199   2.835 -0.0529  0.3917  0.1355
 6981SOL    HW132405   3.833   1.108   2.845  0.8915  0.8155  1.5291
 6981SOL    HW232406   3.765   1.212   2.921 -0.0471  2.1520 -0.1332
 6982SOL     OW32407   2.186   2.249   0.748  0.9990 -0.2222 -0.0139
 6982SOL    HW132408   2.281   2.257   0.738  1.0640  0.7414  1.4381
 6982SOL    HW232409   2.171   2.344   0.748 -1.1031 -0.5644 -1.1867
 6983SOL     OW32410   0.244   1.839  15.693  0.0735 -0.2939 -0.6274
 6983SOL    HW132411   0.206   1.786  15.762  1.4995 -1.5390 -0.8189
 6983SOL    HW232412   0.210   1.784  15.623  0.9260 -1.6739  0.0417
 6984SOL     OW32413   1.774   0.636   5.948  0.3685  0.0011  0.5651
 6984SOL    HW132414   1.803   0.561   5.896 -0.6931  0.4097 -0.6152
 6984SOL    HW232415   1.753   0.583   6.025 -1.1191  1.1887  0.9920
 6985SOL     OW32416   3.111   2.029  10.915 -0.9704 -0.4167  0.2482
 6985SOL    HW132417   3.202   2.058  10.905 -1.4348  0.8483 -0.2859
 6985SOL    HW232418   3.110   1.941  10.878  1.3629 -1.1939  1.9594
 6986SOL     OW32419   4.512   3.209  16.712  0.2985  0.0691  0.2676
 6986SOL    HW132420   4.487   3.257  16.791  0.7545  0.3596  0.2349
 6986SOL    HW232421   4.448   3.252  16.656 -1.4095  0.2071  2.3294
 6987SOL     OW32422   0.642   3.844   5.588 -0.5949  0.1734  0.0405
 6987SOL    HW132423   0.687   3.766   5.557 -2.4765 -0.3149 -1.4076
 6987SOL    HW232424   0.617   3.885   5.505 -2.7615  0.3479  0.7764
 6988SOL     OW32425   3.626   1.429  13.040 -0.4569  0.2343 -0.4910
 6988SOL    HW132426   3.701   1.444  12.982 -0.3629  1.6091 -0.0241
 6988SOL    HW232427   3.577   1.509  13.020  1.2712  1.5054  0.2880
 6989SOL     OW32428   1.752   1.134   7.945  0.0715  0.0613  0.0049
 6989SOL    HW132429   1.806   1.212   7.929  0.8789 -0.2885  1.0258
 6989SOL    HW232430   1.741   1.147   8.039 -0.9137 -0.6775 -0.0099
 6990SOL     OW32431   0.020   3.379   5.226 -0.0143  0.4689 -0.6927
 6990SOL    HW132432   4.710   3.464   5.251 -2.3129 -0.5222 -0.5226
 6990SOL    HW232433   4.662   3.330   5.221  0.5837 -0.6016 -0.2336
 6991SOL     OW32434   3.811   4.293   7.433 -0.0502 -0.5277 -0.0337
 6991SOL    HW132435   3.757   4.314   7.356  2.1479  0.0856 -1.3853
 6991SOL    HW232436   3.753   4.321   7.504  2.1011  0.7155  1.2299
 6992SOL     OW32437   1.494   1.181   7.875  0.6581  0.2654  0.4654
 6992SOL    HW132438   1.587   1.164   7.891  0.9008  0.6760 -0.5018
 6992SOL    HW232439   1.483   1.121   7.801  2.6224 -0.7561  0.9822
 6993SOL     OW32440   4.229   1.312  15.982 -0.1358 -0.0474  0.1629
 6993SOL    HW132441   4.191   1.359  16.056 -1.5108 -1.1479  0.1502
 6993SOL    HW232442   4.143   1.280  15.954 -0.1309 -0.1486  0.2630
 6994SOL     OW32443   4.391   0.647   9.450 -0.0734 -0.0908  1.1552
 6994SOL    HW132444   4.386   0.730   9.497  1.1008 -0.0958  1.2961
 6994SOL    HW232445   4.374   0.591   9.525 -2.0136 -0.6446  0.2857
 6995SOL     OW32446   2.729   4.216   7.113  0.8943  0.3943  0.0604
 6995SOL    HW132447   2.721   4.135   7.063 -0.5472  1.3036 -1.1443
 6995SOL    HW232448   2.674   4.278   7.065 -1.0859 -0.8472  0.7058
 6996SOL     OW32449   0.693   1.994  10.231 -0.2580  0.0875 -0.3173
 6996SOL    HW132450   0.783   1.974  10.208 -0.2811 -2.0710  1.4400
 6996SOL    HW232451   0.641   1.929  10.183  0.1742  0.0477 -0.7241
 6997SOL     OW32452   3.276   3.105   4.877 -0.4141 -0.7236  0.0175
 6997SOL    HW132453   3.318   3.191   4.874  0.2022 -1.0156  0.3863
 6997SOL    HW232454   3.216   3.108   4.802 -3.7654 -1.0543  2.6624
 6998SOL     OW32455   2.464   0.956  13.054  0.0223 -0.2962  0.0168
 6998SOL    HW132456   2.551   0.933  13.020  0.0363  1.3960 -1.0902
 6998SOL    HW232457   2.446   1.032  12.998 -2.1023 -0.5073  0.4413
 6999SOL     OW32458   1.404   2.115   7.210  0.1938  0.0167  1.0309
 6999SOL    HW132459   1.339   2.085   7.274  0.2370  0.6075  1.3550
 6999SOL    HW232460   1.464   2.041   7.225  1.3549  0.7708  0.1157
 7000SOL     OW32461   2.808   2.666   2.791  0.3305 -0.4513 -0.1194
 7000SOL    HW132462   2.734   2.713   2.753  0.7216  1.3275  1.3141
 7000SOL    HW232463   2.767   2.628   2.868  1.6301 -1.1233  0.2276
 7001SOL     OW32464   3.884   3.971  11.685 -0.0945 -0.7786  0.0179
 7001SOL    HW132465   3.888   4.066  11.697  1.7599 -0.7300 -1.0334
 7001SOL    HW232466   3.921   3.964  11.597  1.1215  0.6030  0.4224
 7002SOL     OW32467   2.609   0.718   7.932  0.0393 -0.4897  0.3542
 7002SOL    HW132468   2.630   0.717   8.025  4.0750  1.4034 -0.5180
 7002SOL    HW232469   2.554   0.797   7.928  0.8208  0.0287 -0.0748
 7003SOL     OW32470   0.010   0.295  10.136 -0.1314 -0.5029  0.1490
 7003SOL    HW132471   0.057   0.279  10.054  0.1384  0.0270  0.2059
 7003SOL    HW232472   0.080   0.262  10.193  0.5012  0.1073 -0.2811
 7004SOL     OW32473   3.419   3.593   3.609 -0.1064  0.1401 -0.4026
 7004SOL    HW132474   3.386   3.662   3.666 -1.5985 -1.6486  0.9297
 7004SOL    HW232475   3.348   3.582   3.546  0.7170  0.2083 -1.3212
 7005SOL     OW32476   0.888   1.105  16.912 -0.1588  0.4252  0.3049
 7005SOL    HW132477   0.918   1.048  16.983  0.2079  2.4914  1.8066
 7005SOL    HW232478   0.886   1.050  16.834  0.2635 -0.6316  1.0230
 7006SOL     OW32479   2.890   4.665   2.197 -0.1301  0.0700  0.0329
 7006SOL    HW132480   2.931   4.610   2.131 -0.5561 -1.0908  0.7341
 7006SOL    HW232481   2.796   4.661   2.180  0.3055 -2.6608 -1.7725
 7007SOL     OW32482   3.361   2.975   5.441 -0.2160 -0.2662 -0.1174
 7007SOL    HW132483   3.393   2.969   5.531  1.7767  1.2131 -0.7333
 7007SOL    HW232484   3.445   2.967   5.396 -1.2530  0.2545 -2.1234
 7008SOL     OW32485   2.877   0.937   5.638  0.1384  0.0031 -0.0918
 7008SOL    HW132486   2.814   0.947   5.709 -0.3827 -1.4912 -0.3533
 7008SOL    HW232487   2.888   0.842   5.639  0.8808  0.0859  0.0281
 7009SOL     OW32488   2.788   3.567  16.289 -0.0804  0.0836  0.0649
 7009SOL    HW132489   2.727   3.615  16.345  0.4738 -0.0732  0.8037
 7009SOL    HW232490   2.796   3.633  16.220 -2.3396 -0.8078 -1.0320
 7010SOL     OW32491   3.637   1.074   5.278 -0.2161  0.4040  1.1568
 7010SOL    HW132492   3.714   1.039   5.321  1.6765  1.0231 -1.7297
 7010SOL    HW232493   3.562   1.027   5.317  1.0121 -1.5443  1.1670
 7011SOL     OW32494   0.957   0.170   6.810  0.0425 -0.0051 -0.3812
 7011SOL    HW132495   0.904   0.103   6.853 -1.5309  2.1865  1.0421
 7011SOL    HW232496   1.049   0.164   6.838  0.0094  0.7415 -0.1290
 7012SOL     OW32497   1.855   1.695   6.388  0.6234  0.3443 -0.3098
 7012SOL    HW132498   1.912   1.697   6.312  0.4327 -0.8520 -0.4841
 7012SOL    HW232499   1.776   1.741   6.361 -1.8515 -3.6598  0.0963
 7013SOL     OW32500   2.959   2.876   3.072  0.2451 -0.3264 -0.3988
 7013SOL    HW132501   2.967   2.782   3.085 -1.3917 -0.1891  1.5940
 7013SOL    HW232502   3.041   2.906   3.111  1.2440 -2.0263 -1.2075
 7014SOL     OW32503   2.123   0.128   1.425 -0.4262  0.3180 -0.5127
 7014SOL    HW132504   2.198   0.150   1.370 -2.1705 -0.4826 -3.2004
 7014SOL    HW232505   2.142   0.045   1.471  3.0355  0.0995 -2.3437
 7015SOL     OW32506   4.407   2.498   5.853 -1.0743 -0.6398 -0.5829
 7015SOL    HW132507   4.429   2.565   5.918  0.2524 -1.0356 -0.6224
 7015SOL    HW232508   4.388   2.422   5.909 -0.5879 -0.9858 -0.8908
 7016SOL     OW32509   0.112   0.965   8.110 -0.5560  0.4553 -0.3824
 7016SOL    HW132510   0.136   1.057   8.114 -0.3697  0.3315  1.5849
 7016SOL    HW232511   0.059   0.946   8.188  0.1964  2.1242  0.5267
 7017SOL     OW32512   2.313   1.908  10.602 -0.4762 -0.2453 -0.5128
 7017SOL    HW132513   2.340   1.945  10.686 -0.8138 -1.0774 -0.0447
 7017SOL    HW232514   2.387   1.933  10.547 -0.8663 -1.0324 -1.3994
 7018SOL     OW32515   3.030   4.431   3.386  1.2388 -0.3859 -0.5761
 7018SOL    HW132516   3.002   4.504   3.332 -0.9829 -2.6022 -2.4182
 7018SOL    HW232517   3.088   4.384   3.326  1.7072  0.2479 -0.6219
 7019SOL     OW32518   0.640   3.594   7.194  0.9495 -0.0648  0.4286
 7019SOL    HW132519   0.567   3.647   7.162 -1.1078 -1.8574  2.1129
 7019SOL    HW232520   0.596   3.556   7.270 -0.9755  1.0631 -0.1371
 7020SOL     OW32521   3.124   2.624   8.197  0.7780  0.0923  0.0223
 7020SOL    HW132522   3.165   2.556   8.249  0.6663 -0.1457 -0.2013
 7020SOL    HW232523   3.109   2.578   8.115 -1.7021  1.1513 -0.1234
 7021SOL     OW32524   3.443   4.667   9.587 -0.1742  0.4432  0.6707
 7021SOL    HW132525   3.397   0.025   9.575 -1.1277 -0.4656 -1.9568
 7021SOL    HW232526   3.468   4.674   9.679  0.6966  0.1229  0.4612
 7022SOL     OW32527   3.078   3.677  16.700 -0.1638 -0.3352 -0.2548
 7022SOL    HW132528   3.078   3.682  16.605 -4.5411  0.2718 -0.2146
 7022SOL    HW232529   2.993   3.636  16.715 -0.0513 -0.2966  0.5298
 7023SOL     OW32530   0.708   1.219   8.508 -0.1940  0.4696  0.1836
 7023SOL    HW132531   0.663   1.181   8.583  2.2699 -1.1944  0.7951
 7023SOL    HW232532   0.796   1.215   8.544 -0.1056  0.1249 -0.0793
 7024SOL     OW32533   1.416   1.497   3.015  0.5275  0.0863  0.8709
 7024SOL    HW132534   1.434   1.515   3.107 -0.7558  0.6338  1.0257
 7024SOL    HW232535   1.438   1.579   2.971 -0.8193 -0.6971 -1.2273
 7025SOL     OW32536   3.117   4.303   8.648  0.9567  0.1875 -0.6418
 7025SOL    HW132537   3.165   4.221   8.662  0.7696  0.6305  2.7040
 7025SOL    HW232538   3.036   4.273   8.689  1.7485  0.7606  1.3264
 7026SOL     OW32539   3.099   2.913   8.141  0.1783 -0.4431 -0.4746
 7026SOL    HW132540   3.045   2.953   8.210  0.5345 -1.7893  0.5804
 7026SOL    HW232541   3.109   2.826   8.179 -0.7533  0.0290  0.8630
 7027SOL     OW32542   3.704   4.078  12.907  0.0498 -0.5996  0.1315
 7027SOL    HW132543   3.689   4.157  12.959 -2.3138 -0.1842 -1.2014
 7027SOL    HW232544   3.726   4.012  12.973  2.5828 -0.1013 -0.2001
 7028SOL     OW32545   0.941   0.258   6.542 -0.1107  0.3356 -0.4098
 7028SOL    HW132546   0.890   0.339   6.545 -2.1233 -0.8983 -0.6312
 7028SOL    HW232547   0.942   0.251   6.637 -1.6588 -2.6421 -0.5816
 7029SOL     OW32548   0.308   0.053  13.729  0.3310 -0.5885 -0.3402
 7029SOL    HW132549   0.341   0.004  13.654 -0.3386  0.6007 -1.4195
 7029SOL    HW232550   0.214   0.036  13.727  0.5235 -1.9336  2.3034
 7030SOL     OW32551   3.387   0.703  12.903 -0.2719  0.0792 -0.1814
 7030SOL    HW132552   3.383   0.671  12.993  1.9931  0.1335 -0.0633
 7030SOL    HW232553   3.467   0.754  12.909 -0.7053  0.6933  0.3669
 7031SOL     OW32554   1.484   4.674   5.913 -0.2972  0.2533 -0.0792
 7031SOL    HW132555   1.575   4.703   5.918  0.3480 -1.5324 -1.5488
 7031SOL    HW232556   1.447   4.690   6.000  0.4090 -0.3008  0.3174
 7032SOL     OW32557   1.806   1.245   2.428  0.1604 -0.2599  0.2892
 7032SOL    HW132558   1.750   1.206   2.360 -0.5858  0.7419  0.3167
 7032SOL    HW232559   1.853   1.313   2.379 -1.0055 -0.6402 -1.3579
 7033SOL     OW32560   2.114   3.589   6.004  0.0799 -0.2583  0.2420
 7033SOL    HW132561   2.041   3.538   6.039  0.8992 -0.6052  1.4463
 7033SOL    HW232562   2.102   3.558   5.914 -0.5121  2.9089 -0.7418
 7034SOL     OW32563   1.351   0.244   9.430 -0.2980 -0.0999 -0.2166
 7034SOL    HW132564   1.309   0.178   9.484  2.0229 -1.0491  0.4378
 7034SOL    HW232565   1.302   0.232   9.348 -0.3753 -0.0978 -0.1705
 7035SOL     OW32566   3.594   0.067   7.968  0.8587  0.1550 -0.2573
 7035SOL    HW132567   3.554   0.030   7.888  2.8103 -0.9554 -0.7065
 7035SOL    HW232568   3.674   0.108   7.935 -0.6571  2.8083 -0.6508
 7036SOL     OW32569   3.540   1.597   5.002  0.0149 -0.2556 -0.6795
 7036SOL    HW132570   3.494   1.538   5.062  1.0877  1.0561  1.4334
 7036SOL    HW232571   3.596   1.639   5.067 -0.0342 -1.0843 -0.1028
 7037SOL     OW32572   1.404   1.362  14.082 -0.3055  0.1885  0.2819
 7037SOL    HW132573   1.494   1.330  14.087  0.3185  1.7017 -1.0640
 7037SOL    HW232574   1.391   1.402  14.168  2.8433 -0.0483  0.8469
 7038SOL     OW32575   4.342   3.110   6.322 -0.2260  0.7171  0.4245
 7038SOL    HW132576   4.283   3.152   6.385  0.4760  0.6229  1.1503
 7038SOL    HW232577   4.423   3.152   6.347 -1.2121  2.0156  1.4322
 7039SOL     OW32578   0.598   1.413   6.426  0.1922  0.1456  0.1755
 7039SOL    HW132579   0.627   1.450   6.343  2.8969 -2.6311 -0.1454
 7039SOL    HW232580   0.630   1.323   6.416  0.7890  0.3199  0.5349
 7040SOL     OW32581   4.528   0.618   4.525 -0.0201 -0.2434  0.8713
 7040SOL    HW132582   4.501   0.528   4.545  0.2857 -0.6456 -0.5696
 7040SOL    HW232583   4.595   0.633   4.592 -0.9413  1.0707  1.5099
 7041SOL     OW32584   3.107   2.186  16.597  0.1427  0.1951  0.0157
 7041SOL    HW132585   3.102   2.147  16.684 -0.7163  1.4921  0.5466
 7041SOL    HW232586   3.179   2.248  16.605  3.7564 -4.1143  1.0303
 7042SOL     OW32587   0.511   4.545   4.204 -0.0646  0.3284 -0.3465
 7042SOL    HW132588   0.553   4.489   4.270 -1.4070 -0.6903 -0.3556
 7042SOL    HW232589   0.419   4.524   4.219 -0.3138  2.0642  0.5268
 7043SOL     OW32590   1.685   3.846   8.448  0.2443 -0.6877  0.0071
 7043SOL    HW132591   1.652   3.765   8.407 -0.5896 -0.1001 -0.4832
 7043SOL    HW232592   1.651   3.914   8.390 -0.6746  0.4189  1.8263
 7044SOL     OW32593   4.708   2.090   1.415 -0.1353 -0.4686  0.5415
 7044SOL    HW132594   0.065   2.125   1.380  1.5537 -4.0421  0.8661
 7044SOL    HW232595   0.024   2.018   1.462 -0.6030 -0.7754  0.4754
 7045SOL     OW32596   0.704   3.947   9.375  0.1166 -0.2117  0.5610
 7045SOL    HW132597   0.799   3.939   9.370  0.3129  3.1598 -1.3012
 7045SOL    HW232598   0.680   3.914   9.462 -0.2448 -0.5077  0.3540
 7046SOL     OW32599   4.628   4.004   6.638  0.4009  0.3384  0.6116
 7046SOL    HW132600   4.614   3.940   6.568 -0.1322 -0.2803  1.2854
 7046SOL    HW232601   4.544   4.039   6.669 -0.2310 -1.4526  0.8807
 7047SOL     OW32602   0.110   4.583   7.292  0.6247 -0.0313  0.1984
 7047SOL    HW132603   0.037   4.545   7.243 -0.6536 -0.0268  2.0692
 7047SOL    HW232604   0.183   4.583   7.230 -0.5602  2.0356 -1.2077
 7048SOL     OW32605   3.690   0.413   2.148  0.1174  0.4506 -0.3260
 7048SOL    HW132606   3.669   0.404   2.055  0.8455  1.1307 -0.5551
 7048SOL    HW232607   3.603   0.388   2.179  0.6759 -0.6772  0.3434
 7049SOL     OW32608   3.284   0.610  12.641 -0.2978  0.3127  0.2286
 7049SOL    HW132609   3.312   0.626  12.731 -0.2106 -3.4390  0.8709
 7049SOL    HW232610   3.309   0.518  12.637  2.0550  0.8627  2.3088
 7050SOL     OW32611   0.621   1.103   8.743  0.0010 -0.1759  0.5180
 7050SOL    HW132612   0.548   1.044   8.726  0.1472 -0.2773  0.2436
 7050SOL    HW232613   0.676   1.048   8.798  1.6326  1.5174  0.5883
 7051SOL     OW32614   3.275   3.805   3.327  0.8351 -0.1520 -0.4344
 7051SOL    HW132615   3.273   3.782   3.234 -2.8740 -3.0404  0.3185
 7051SOL    HW232616   3.279   3.900   3.332 -2.5798 -0.0039 -0.3713
 7052SOL     OW32617   1.352   4.631   4.624 -0.1012  0.4181  0.6012
 7052SOL    HW132618   1.369   4.688   4.550 -1.3892  0.2535  0.1792
 7052SOL    HW232619   1.259   4.647   4.636  0.0782  1.2256  0.8736
 7053SOL     OW32620   2.559   1.007   7.996 -0.0501 -0.0202 -0.1623
 7053SOL    HW132621   2.472   1.013   8.036 -0.7881  0.3935 -1.8447
 7053SOL    HW232622   2.598   1.064   8.063 -0.8317  0.1180  0.1792
 7054SOL     OW32623   4.502   0.382   0.821 -0.6562 -0.0177  0.3168
 7054SOL    HW132624   4.560   0.311   0.793  0.8710  1.8139 -1.1670
 7054SOL    HW232625   4.512   0.458   0.764  2.7635 -0.9621 -0.3235
 7055SOL     OW32626   1.123   2.062   0.477 -0.3260 -0.1685  0.6450
 7055SOL    HW132627   1.190   2.005   0.514 -1.5635 -0.9399  1.6878
 7055SOL    HW232628   1.169   2.145   0.461 -3.7003  1.4511 -0.8170
 7056SOL     OW32629   4.511   2.426   2.025 -0.0509 -0.1491 -0.3146
 7056SOL    HW132630   4.439   2.450   2.085  0.1974 -0.2116  0.0089
 7056SOL    HW232631   4.482   2.341   1.990  0.9783 -0.5704 -0.1229
 7057SOL     OW32632   0.356   3.337   7.156 -0.4758 -0.1548 -0.3288
 7057SOL    HW132633   0.399   3.251   7.153 -0.7228 -0.1914 -2.9834
 7057SOL    HW232634   0.265   3.318   7.134 -0.9185  0.2995  1.1105
 7058SOL     OW32635   0.609   3.311   4.393  0.1683 -0.3760 -0.5411
 7058SOL    HW132636   0.679   3.263   4.436  1.2118  2.0696  0.4870
 7058SOL    HW232637   0.538   3.273   4.446  0.2320  0.4580  0.1536
 7059SOL     OW32638   1.905   4.397  16.004  0.4724 -0.6734 -0.0754
 7059SOL    HW132639   1.931   4.471  15.949 -2.2686 -0.9410 -1.7257
 7059SOL    HW232640   1.914   4.447  16.085 -0.1581  2.3805 -1.8705
 7060SOL     OW32641   2.603   3.791   5.057 -0.1708 -0.5625 -0.0150
 7060SOL    HW132642   2.558   3.850   5.117  0.9463  1.9510 -1.6276
 7060SOL    HW232643   2.598   3.703   5.094  1.1137 -0.3551  0.6721
 7061SOL     OW32644   0.456   2.117   3.821 -0.2524  0.0477  0.1708
 7061SOL    HW132645   0.442   2.091   3.912 -0.6385 -2.4948 -0.6148
 7061SOL    HW232646   0.551   2.109   3.829 -0.4707 -0.3990  2.1703
 7062SOL     OW32647   1.281   3.035   9.169  0.1474  0.6146 -0.5121
 7062SOL    HW132648   1.263   3.124   9.198 -2.1178 -0.2762  0.8039
 7062SOL    HW232649   1.377   3.038   9.166  0.1366  0.8610 -0.6114
 7063SOL     OW32650   4.570   2.330  10.142  0.0378 -0.4881 -0.7012
 7063SOL    HW132651   4.484   2.356  10.175  2.0968  3.8672  1.2297
 7063SOL    HW232652   4.612   2.412  10.117  1.1678 -0.5866  0.8336
 7064SOL     OW32653   3.539   3.102   1.924 -0.0604  0.0883 -1.1456
 7064SOL    HW132654   3.545   3.008   1.911  1.8099  0.0679 -0.2127
 7064SOL    HW232655   3.569   3.118   2.014 -1.7453 -1.4170 -0.3249
 7065SOL     OW32656   0.403   1.485   4.956 -0.3436 -0.1890  0.5101
 7065SOL    HW132657   0.425   1.472   5.048  0.1515 -4.8076 -0.2431
 7065SOL    HW232658   0.411   1.580   4.946  0.1801 -0.2300  0.5499
 7066SOL     OW32659   2.294   0.309   7.805  0.1647 -0.2197  0.3035
 7066SOL    HW132660   2.213   0.262   7.825 -0.6050  0.5719 -0.9775
 7066SOL    HW232661   2.307   0.296   7.712  0.8285 -0.0428  0.3717
 7067SOL     OW32662   2.368   0.571  14.874 -0.4885 -0.2379  0.9992
 7067SOL    HW132663   2.365   0.605  14.963 -0.6111  0.3378  0.7783
 7067SOL    HW232664   2.462   0.556  14.867 -0.4818  0.5792 -0.8815
 7068SOL     OW32665   2.103   1.344  13.942 -0.0655 -0.0162 -0.0313
 7068SOL    HW132666   2.037   1.275  13.941 -0.1547  0.0593  0.5195
 7068SOL    HW232667   2.058   1.403  13.882 -1.7304 -0.5238  0.7194
 7069SOL     OW32668   1.383   3.225   3.002  1.1141 -0.1635 -0.1234
 7069SOL    HW132669   1.385   3.194   3.093 -1.7712 -1.0381 -0.3506
 7069SOL    HW232670   1.369   3.318   3.015 -0.2702 -0.3729 -0.0710
 7070SOL     OW32671   2.257   0.177   0.523 -0.1679  0.6245  0.1082
 7070SOL    HW132672   2.338   0.192   0.476 -0.5853  0.1062 -0.7737
 7070SOL    HW232673   2.221   0.265   0.533 -1.2230  0.0785  1.2784
 7071SOL     OW32674   1.762   1.440   6.485 -0.1760 -0.0586  0.4678
 7071SOL    HW132675   1.791   1.487   6.407 -2.8429 -0.5265 -0.8281
 7071SOL    HW232676   1.716   1.362   6.452  0.5858  0.2663 -1.3344
 7072SOL     OW32677   4.642   3.901   4.402 -0.4868  0.3121 -0.0750
 7072SOL    HW132678   4.703   3.834   4.432 -1.5721 -0.0325  1.3619
 7072SOL    HW232679   4.576   3.894   4.471  0.8999 -0.9428  1.1060
 7073SOL     OW32680   2.544   2.186   7.841  0.0669  0.0920  0.5245
 7073SOL    HW132681   2.491   2.208   7.918 -0.7851 -3.2946  0.9384
 7073SOL    HW232682   2.549   2.260   7.781 -0.6025 -0.5200 -0.2966
 7074SOL     OW32683   3.397   1.118  10.689  0.1860 -0.1048  0.4240
 7074SOL    HW132684   3.492   1.118  10.701  0.1835 -0.4482  0.4223
 7074SOL    HW232685   3.380   1.172  10.767 -1.7142 -2.3648  1.5544
 7075SOL     OW32686   0.338   0.361   1.275  0.3054 -0.4305 -0.2178
 7075SOL    HW132687   0.410   0.416   1.305 -0.2828 -1.6781  3.4197
 7075SOL    HW232688   0.374   0.313   1.200 -1.5653 -2.8152  0.3991
 7076SOL     OW32689   4.231   0.357   8.076 -0.1333 -0.9547  0.3097
 7076SOL    HW132690   4.166   0.290   8.098 -1.7931  0.1664 -1.1942
 7076SOL    HW232691   4.243   0.403   8.159 -0.3121  0.3681 -0.4019
 7077SOL     OW32692   2.882   4.655   8.101  0.0929  0.1217 -0.0638
 7077SOL    HW132693   2.793   4.620   8.099 -0.5130  1.7397 -1.4121
 7077SOL    HW232694   2.916   4.604   8.027  0.3832  0.7102 -0.3411
 7078SOL     OW32695   3.839   1.475   2.597 -0.1369 -0.6670  0.5354
 7078SOL    HW132696   3.898   1.549   2.584  0.7492 -1.5806 -0.6063
 7078SOL    HW232697   3.770   1.492   2.661 -0.3448  1.1836 -0.1745
 7079SOL     OW32698   3.914   1.003   5.845  0.0322  0.1392 -0.8110
 7079SOL    HW132699   3.994   0.984   5.893 -0.3622  0.4005 -0.0517
 7079SOL    HW232700   3.854   1.022   5.917  0.3068 -1.4341 -0.1590
 7080SOL     OW32701   3.751   1.729  14.938 -0.4958  0.2820 -0.3623
 7080SOL    HW132702   3.672   1.783  14.950 -1.0334 -0.9351  1.5749
 7080SOL    HW232703   3.786   1.732  15.027 -1.0036 -0.7904 -0.1336
 7081SOL     OW32704   1.666   2.444  11.565  0.4420  0.4104  0.1226
 7081SOL    HW132705   1.669   2.380  11.494  4.0086  0.1387  0.5486
 7081SOL    HW232706   1.750   2.489  11.555  1.0246 -0.4169  1.2905
 7082SOL     OW32707   2.625   0.425   0.245  0.6319 -0.4284 -0.5729
 7082SOL    HW132708   2.561   0.477   0.196  1.4299  1.2728  0.2096
 7082SOL    HW232709   2.565   0.362   0.287  2.3401 -2.1060 -0.6562
 7083SOL     OW32710   4.492   0.945   0.358 -0.1611  0.0840 -0.4869
 7083SOL    HW132711   4.451   0.859   0.351 -1.5068  0.7120 -0.3764
 7083SOL    HW232712   4.510   0.972   0.268  2.2397 -0.6457 -0.2302
 7084SOL     OW32713   0.084   0.381   8.856  0.1964  0.0837  0.3049
 7084SOL    HW132714   4.721   0.403   8.886  1.0550  2.8250  0.8455
 7084SOL    HW232715   0.124   0.462   8.890 -0.4951  0.8082 -0.5974
 7085SOL     OW32716   4.533   2.767   8.297  0.4140 -0.1658  0.3194
 7085SOL    HW132717   4.564   2.857   8.290 -0.6704  0.1198 -0.9275
 7085SOL    HW232718   4.440   2.778   8.316  0.8764 -0.3149  2.5885
 7086SOL     OW32719   2.902   2.432   6.832 -0.4837 -0.0163 -0.2819
 7086SOL    HW132720   2.845   2.360   6.807 -2.1068  0.3880  2.2404
 7086SOL    HW232721   2.975   2.421   6.771  0.4118 -1.4432  1.0487
 7087SOL     OW32722   0.213   2.099   0.989  0.2396 -0.4906 -0.1218
 7087SOL    HW132723   0.241   2.008   0.999 -1.0020 -0.8362  0.1976
 7087SOL    HW232724   0.215   2.110   0.894 -2.1180 -1.6182 -0.2900
 7088SOL     OW32725   1.318   0.475  12.837 -0.2721 -0.4868  0.6573
 7088SOL    HW132726   1.271   0.412  12.891 -0.2208 -0.6787  0.4753
 7088SOL    HW232727   1.287   0.557  12.878  0.3916 -0.5775  1.3444
 7089SOL     OW32728   1.415   2.151   8.108 -0.4030  0.1172  0.0811
 7089SOL    HW132729   1.350   2.168   8.040  1.5064  2.4091 -1.2275
 7089SOL    HW232730   1.455   2.238   8.111 -0.6487  0.2100  0.6447
 7090SOL     OW32731   2.509   2.301  14.522 -0.3793 -0.0712  0.2601
 7090SOL    HW132732   2.604   2.302  14.529 -0.4183 -0.1195  0.7708
 7090SOL    HW232733   2.489   2.394  14.532 -0.3733 -0.1139  0.6614
 7091SOL     OW32734   2.400   3.737   9.867 -0.1573  0.4055  0.7574
 7091SOL    HW132735   2.309   3.747   9.892 -0.0636  0.8611  0.9070
 7091SOL    HW232736   2.392   3.673   9.796 -0.3332 -0.5658  1.6515
 7092SOL     OW32737   0.399   1.981  15.910  0.9662 -0.0871  0.1873
 7092SOL    HW132738   0.341   1.967  15.835  0.0559  0.5726  0.7555
 7092SOL    HW232739   0.412   2.075  15.916  0.4800 -0.0590  0.9307
 7093SOL     OW32740   1.457   1.529   8.240 -0.7370 -0.0906  0.1098
 7093SOL    HW132741   1.366   1.540   8.213 -0.6084 -0.0713 -0.3094
 7093SOL    HW232742   1.493   1.616   8.223 -0.3827  0.1865  2.2838
 7094SOL     OW32743   4.459   2.790  16.635 -0.0602  0.4056  0.4304
 7094SOL    HW132744   4.472   2.761  16.545  2.4131  3.4412 -0.1718
 7094SOL    HW232745   4.487   2.702  16.662 -0.6199  0.4352  1.1104
 7095SOL     OW32746   1.066   1.407   2.186  0.3353  0.0217 -0.9418
 7095SOL    HW132747   1.108   1.488   2.158 -1.1024  0.2921 -2.2613
 7095SOL    HW232748   0.976   1.425   2.161  0.5824  0.5635 -1.4352
 7096SOL     OW32749   2.033   2.443   9.488  0.2088 -0.5526  0.0974
 7096SOL    HW132750   2.065   2.369   9.539  0.1251 -0.1431  0.7385
 7096SOL    HW232751   1.945   2.448   9.525  0.6566  0.2456  1.0439
 7097SOL     OW32752   4.364   3.432   1.451 -0.3715  0.0635 -0.0125
 7097SOL    HW132753   4.351   3.507   1.510  0.2972  0.4550 -0.3664
 7097SOL    HW232754   4.344   3.354   1.502  0.0188  1.2024  1.9003
 7098SOL     OW32755   1.733   1.668   7.455  0.2533  0.0803  0.2135
 7098SOL    HW132756   1.763   1.759   7.458 -1.5384  0.5827  2.7707
 7098SOL    HW232757   1.758   1.646   7.365 -0.9977  0.5765 -0.2481
 7099SOL     OW32758   0.563   1.872   9.762 -0.4289 -0.3027 -0.4444
 7099SOL    HW132759   0.621   1.797   9.771 -0.0047  0.0299 -0.3796
 7099SOL    HW232760   0.475   1.836   9.768  0.3947 -2.3935 -0.9503
 7100SOL     OW32761   3.648   3.053   5.037  0.3281  0.2210 -0.2085
 7100SOL    HW132762   3.739   3.079   5.049  0.0190  0.8157  0.8363
 7100SOL    HW232763   3.631   3.030   5.129 -1.1338  1.1356 -0.2552
 7101SOL     OW32764   0.760   4.680   4.428 -0.6333  0.4958 -0.3461
 7101SOL    HW132765   0.719   4.698   4.343 -1.1487 -0.4383 -0.3020
 7101SOL    HW232766   0.758   0.040   4.472 -0.5439  0.7844 -0.8916
 7102SOL     OW32767   0.031   2.155   3.442  0.5527 -0.2235  0.0366
 7102SOL    HW132768   0.059   2.118   3.526  1.8791 -2.3604 -1.3465
 7102SOL    HW232769   0.065   2.086   3.385  0.2815  1.6802 -2.3983
 7103SOL     OW32770   1.140   0.501   1.300 -0.7377 -0.4765  0.3828
 7103SOL    HW132771   1.057   0.487   1.253 -0.1056  1.9670 -1.5281
 7103SOL    HW232772   1.117   0.583   1.344 -4.0042 -0.9247 -0.4676
 7104SOL     OW32773   4.298   0.506   9.242  0.7673  0.4797  0.3450
 7104SOL    HW132774   4.372   0.518   9.183 -0.1032 -0.1742 -0.8587
 7104SOL    HW232775   4.334   0.543   9.323 -1.4026  1.1060  1.0258
 7105SOL     OW32776   4.057   1.386   7.610  0.1772 -0.3616  0.2204
 7105SOL    HW132777   3.982   1.338   7.576  0.8479 -2.0805  1.1713
 7105SOL    HW232778   4.124   1.364   7.546  0.8630  1.3465  0.3560
 7106SOL     OW32779   3.609   1.201   9.533 -0.4946  0.3913  0.0075
 7106SOL    HW132780   3.604   1.270   9.599  0.5467 -2.3979  2.9789
 7106SOL    HW232781   3.528   1.153   9.549 -1.1290  1.6029  0.4369
 7107SOL     OW32782   0.969   2.716   9.440 -0.2858  0.3553 -0.6823
 7107SOL    HW132783   0.902   2.670   9.389 -2.3160  0.3461  1.9974
 7107SOL    HW232784   0.951   2.809   9.424 -0.9655 -0.1241 -2.7120
 7108SOL     OW32785   1.775   3.903   6.588  0.0151  0.8007 -0.2957
 7108SOL    HW132786   1.754   3.812   6.570  0.8209  0.6426 -0.4451
 7108SOL    HW232787   1.711   3.941   6.528  0.2711 -1.9847 -2.3204
 7109SOL     OW32788   3.752   2.279   0.446 -0.1990 -0.7860  0.5516
 7109SOL    HW132789   3.772   2.248   0.358 -1.1601 -1.9988  0.7702
 7109SOL    HW232790   3.673   2.230   0.465 -0.2828 -0.4083  1.2118
 7110SOL     OW32791   1.702   2.001   2.340 -0.5264 -0.0293  0.2969
 7110SOL    HW132792   1.648   2.074   2.370  0.3566  0.9477 -0.4389
 7110SOL    HW232793   1.699   1.947   2.418  0.1268 -0.9342 -0.3029
 7111SOL     OW32794   0.365   0.592   7.016  0.2567  0.2770  0.3011
 7111SOL    HW132795   0.437   0.597   6.953  0.9683 -1.5091  0.9961
 7111SOL    HW232796   0.390   0.645   7.091  0.0831  0.4507  0.2384
 7112SOL     OW32797   3.069   4.533   1.497  0.0726  0.5976 -0.1281
 7112SOL    HW132798   3.125   4.499   1.427  0.7103  1.7152 -0.1523
 7112SOL    HW232799   3.139   4.582   1.539 -0.6438  1.8196 -0.3626
 7113SOL     OW32800   3.712   1.469   4.744  0.1682 -0.1675  0.3074
 7113SOL    HW132801   3.640   1.406   4.745 -0.3598  0.4177 -0.9297
 7113SOL    HW232802   3.686   1.519   4.820  0.0653 -1.0124  0.8278
 7114SOL     OW32803   0.614   2.186   4.356  0.3112  0.5682  0.4687
 7114SOL    HW132804   0.572   2.148   4.279 -0.3032  1.3512  0.4223
 7114SOL    HW232805   0.650   2.268   4.324  1.4489 -0.2371 -0.3208
 7115SOL     OW32806   0.760   3.916   0.571 -0.5960 -0.8922  0.3827
 7115SOL    HW132807   0.825   3.930   0.640 -0.6393  0.4282  0.1600
 7115SOL    HW232808   0.682   3.897   0.623 -0.8865  0.0187  0.2754
 7116SOL     OW32809   3.607   0.614  14.387  0.1573  0.1289 -0.0043
 7116SOL    HW132810   3.617   0.610  14.292  0.5218  1.3229 -0.0136
 7116SOL    HW232811   3.685   0.578  14.428 -1.1281 -2.9485 -0.2284
 7117SOL     OW32812   4.267   2.695  11.462 -0.0316 -0.8576 -0.0657
 7117SOL    HW132813   4.199   2.642  11.504 -0.4047 -0.8215 -0.6276
 7117SOL    HW232814   4.269   2.780  11.506  0.6566 -0.6936 -0.4100
 7118SOL     OW32815   1.846   0.205   6.422  0.0941 -0.3877 -0.1255
 7118SOL    HW132816   1.919   0.165   6.376 -0.6115 -1.7199 -0.0885
 7118SOL    HW232817   1.855   0.165   6.509  1.8886  2.4253  0.9817
 7119SOL     OW32818   1.315   2.939  13.396 -0.1434 -0.8711 -0.1648
 7119SOL    HW132819   1.316   2.959  13.490  0.4258 -2.8623  0.2558
 7119SOL    HW232820   1.399   2.971  13.362 -0.1302 -1.2252 -0.4599
 7120SOL     OW32821   2.424   0.375   5.790 -0.5888  0.3539 -0.0503
 7120SOL    HW132822   2.337   0.341   5.812 -1.0671  0.2961 -1.9908
 7120SOL    HW232823   2.473   0.292   5.794 -1.6989 -0.2936  0.0509
 7121SOL     OW32824   2.479   4.674  13.389 -0.1683 -0.2803  0.2984
 7121SOL    HW132825   2.559   4.721  13.365 -0.9341  0.7993 -0.1762
 7121SOL    HW232826   2.455   4.717  13.471 -0.9246 -1.5236  0.7226
 7122SOL     OW32827   0.371   0.193   5.952 -0.4244 -0.2140 -0.1509
 7122SOL    HW132828   0.403   0.267   5.900 -3.9023  0.3828 -1.5073
 7122SOL    HW232829   0.361   0.227   6.041  0.4618  2.1452 -0.9767
 7123SOL     OW32830   0.361   0.348   8.682 -0.0730  0.2687  0.3185
 7123SOL    HW132831   0.423   0.417   8.703  1.8657 -1.1289 -0.7328
 7123SOL    HW232832   0.276   0.389   8.697 -1.6430 -2.4501 -1.0832
 7124SOL     OW32833   3.362   0.599   2.569  0.1634 -0.0369  0.8248
 7124SOL    HW132834   3.435   0.604   2.508 -0.1504 -0.9259  0.3853
 7124SOL    HW232835   3.323   0.685   2.551  0.4879 -0.2910 -1.0873
 7125SOL     OW32836   1.524   4.096   6.627 -0.3946 -0.9379  0.0725
 7125SOL    HW132837   1.447   4.102   6.570  0.1950  2.1408 -0.4139
 7125SOL    HW232838   1.580   4.170   6.602  0.6800 -1.0705  2.0726
 7126SOL     OW32839   4.539   3.451   6.838  0.2755  0.0692 -0.0815
 7126SOL    HW132840   4.448   3.425   6.851  0.3343  1.0656  2.3966
 7126SOL    HW232841   4.567   3.449   6.930 -0.6270  0.8120  0.2144
 7127SOL     OW32842   0.423   1.663   1.481 -0.0458  0.3375 -0.1810
 7127SOL    HW132843   0.507   1.639   1.441 -0.4759 -1.6223  0.0798
 7127SOL    HW232844   0.436   1.618   1.564 -1.3532  0.1328 -0.0862
 7128SOL     OW32845   2.381   4.414  14.042 -0.3707  0.1337 -0.4484
 7128SOL    HW132846   2.293   4.376  14.051 -0.2352  0.1174  0.8542
 7128SOL    HW232847   2.441   4.341  14.027  0.0625  0.3544  0.2395
 7129SOL     OW32848   3.225   0.577  14.747 -0.0414 -0.1891 -0.4146
 7129SOL    HW132849   3.301   0.606  14.697 -0.6696  0.2038 -1.1542
 7129SOL    HW232850   3.248   0.608  14.834 -0.3098 -0.3893 -0.2712
 7130SOL     OW32851   1.468   4.375   1.062  0.9397  0.2660 -0.5714
 7130SOL    HW132852   1.505   4.336   0.983 -1.4054  2.0779 -2.5609
 7130SOL    HW232853   1.533   4.444   1.080  1.3166 -0.6489  1.5553
 7131SOL     OW32854   0.375   2.915  13.899  0.3243  0.3404  0.1612
 7131SOL    HW132855   0.304   2.895  13.960 -0.7769 -0.7339 -1.4536
 7131SOL    HW232856   0.383   3.007  13.923 -1.2857  0.6518 -0.4781
 7132SOL     OW32857   3.024   2.760   7.560 -0.0570  0.0446  0.7772
 7132SOL    HW132858   3.050   2.852   7.554  0.9589 -0.2885  0.0719
 7132SOL    HW232859   3.083   2.726   7.627 -0.4630  1.4125  1.8378
 7133SOL     OW32860   4.570   0.070   5.265  0.2163  0.4616  0.8422
 7133SOL    HW132861   4.518   0.019   5.327 -1.1012 -0.1707 -0.7636
 7133SOL    HW232862   4.528   0.156   5.263 -2.8693 -1.0619  0.5047
 7134SOL     OW32863   1.056   3.669   7.473  0.6207 -0.2059 -0.0393
 7134SOL    HW132864   1.025   3.705   7.556 -0.7594  1.9002 -1.4507
 7134SOL    HW232865   0.972   3.661   7.428  0.4565  2.9881 -0.3355
 7135SOL     OW32866   1.151   1.448   7.155 -0.0975  0.2804  0.6030
 7135SOL    HW132867   1.074   1.495   7.124 -0.8075 -0.0224  1.9185
 7135SOL    HW232868   1.113   1.400   7.229 -0.6959  0.2929  0.2944
 7136SOL     OW32869   4.455   1.559   5.864  0.0513  0.0608  0.0778
 7136SOL    HW132870   4.481   1.568   5.772  2.7631 -0.7728  0.7557
 7136SOL    HW232871   4.408   1.640   5.885 -0.6678  0.2735 -2.3092
 7137SOL     OW32872   2.044   4.719   9.230 -0.2350  0.0069 -0.4760
 7137SOL    HW132873   2.054   0.037   9.314  0.2003  2.3440 -1.7172
 7137SOL    HW232874   2.073   4.630   9.250 -1.9627 -0.1253  1.4121
 7138SOL     OW32875   3.032   0.156   4.033 -0.4816  0.1833 -0.3798
 7138SOL    HW132876   3.091   0.081   4.044 -1.4553 -0.3182  1.4020
 7138SOL    HW232877   3.085   0.231   4.006 -0.7793  1.1282  1.6751
 7139SOL     OW32878   4.688   1.479  11.072  0.5813 -0.2466  0.3701
 7139SOL    HW132879   4.674   1.497  11.165  0.5279 -1.1860  0.5453
 7139SOL    HW232880   4.633   1.548  11.037  0.5250 -0.1418  0.6645
 7140SOL     OW32881   1.957   4.614  15.889  0.8407  0.3952 -0.5832
 7140SOL    HW132882   2.025   4.663  15.843  1.7316  0.0288  0.3608
 7140SOL    HW232883   1.880   4.667  15.866  0.0650 -0.8312 -0.7907
 7141SOL     OW32884   1.722   2.829   0.137 -0.1397  0.2451 -0.2054
 7141SOL    HW132885   1.653   2.882   0.178 -1.3485 -1.8099  0.4209
 7141SOL    HW232886   1.729   2.752   0.193  1.1293  0.4226 -0.1158
 7142SOL     OW32887   4.300   2.911   7.718 -0.3289 -0.0635  0.1041
 7142SOL    HW132888   4.302   2.949   7.805  1.0866 -0.5151  0.2760
 7142SOL    HW232889   4.348   2.831   7.743 -0.8087 -0.8761 -1.5476
 7143SOL     OW32890   4.589   4.330   2.672  0.7019  0.3486 -0.6532
 7143SOL    HW132891   4.573   4.330   2.578  2.2371 -0.5905 -0.9103
 7143SOL    HW232892   4.680   4.301   2.673  0.5499 -0.1346 -0.3600
 7144SOL     OW32893   2.669   4.299   0.829  0.3839 -0.1568  0.0350
 7144SOL    HW132894   2.646   4.374   0.884 -2.9149  0.8634 -2.7554
 7144SOL    HW232895   2.726   4.266   0.898 -0.1703 -0.6166  0.2784
 7145SOL     OW32896   2.773   3.102  15.263  0.2126 -0.0133  1.2314
 7145SOL    HW132897   2.735   3.186  15.290  0.8442  0.5367  0.4069
 7145SOL    HW232898   2.864   3.132  15.258  0.7093 -1.6020  0.7592
 7146SOL     OW32899   3.680   1.394   3.958  0.2624  0.1030  0.2786
 7146SOL    HW132900   3.759   1.439   3.985  1.2572 -1.9151  0.7610
 7146SOL    HW232901   3.640   1.390   4.045 -0.7676  1.8659 -0.1215
 7147SOL     OW32902   4.147   3.220   1.336 -0.6885 -0.0797 -0.9001
 7147SOL    HW132903   4.051   3.215   1.334 -0.7912  1.1794  0.5955
 7147SOL    HW232904   4.161   3.197   1.428  3.7624 -1.1010 -1.8384
 7148SOL     OW32905   0.571   4.212   9.018  0.5331 -0.0486  0.2165
 7148SOL    HW132906   0.519   4.168   9.086  0.1509  0.1460  0.0477
 7148SOL    HW232907   0.629   4.138   9.003 -0.3929 -0.2631 -2.2663
 7149SOL     OW32908   1.430   3.685   8.792 -0.4706  0.0396  0.2689
 7149SOL    HW132909   1.452   3.773   8.761  3.0992 -0.3785  1.5353
 7149SOL    HW232910   1.431   3.701   8.886 -3.2380  2.3405 -0.0957
 7150SOL     OW32911   2.255   1.694  15.023  0.5819 -0.1550 -0.0258
 7150SOL    HW132912   2.160   1.706  15.029  0.5216 -0.9831  0.7261
 7150SOL    HW232913   2.266   1.728  14.935  0.1436 -0.7355 -0.3081
 7151SOL     OW32914   2.205   1.139   2.515 -0.4091 -0.0690 -0.7137
 7151SOL    HW132915   2.289   1.185   2.523 -0.2139 -0.5531  0.0177
 7151SOL    HW232916   2.141   1.199   2.552 -1.2679  0.1479 -2.5631
 7152SOL     OW32917   3.969   0.169   8.108  0.6306 -0.2234 -0.0939
 7152SOL    HW132918   4.010   0.098   8.059  3.2925  1.0566  0.2679
 7152SOL    HW232919   3.951   0.116   8.186  0.5013  1.1882  0.8378
 7153SOL     OW32920   3.736   3.717   3.415 -0.0539 -0.0570 -0.3309
 7153SOL    HW132921   3.688   3.667   3.350  1.0209  0.3074 -1.4023
 7153SOL    HW232922   3.810   3.736   3.358 -1.2067  0.9844 -1.4815
 7154SOL     OW32923   2.593   3.970   1.993  0.0273  0.2549  0.0445
 7154SOL    HW132924   2.624   3.886   1.960 -2.1663  0.3323 -2.1769
 7154SOL    HW232925   2.500   3.948   1.985  0.6589 -2.4047 -0.0609
 7155SOL     OW32926   2.750   1.602   4.752 -0.5392 -0.0569 -0.5725
 7155SOL    HW132927   2.704   1.569   4.675 -0.3536 -0.4103 -0.5300
 7155SOL    HW232928   2.779   1.683   4.709  0.3360  0.5471  1.1442
 7156SOL     OW32929   3.791   4.723   9.113 -0.3650 -0.1233  0.0668
 7156SOL    HW132930   3.788   4.636   9.153 -1.1626 -0.5305 -0.9039
 7156SOL    HW232931   3.705   0.039   9.119  0.0062  1.2002 -3.6750
 7157SOL     OW32932   4.165   2.931   2.207 -0.3002  0.5556  0.3798
 7157SOL    HW132933   4.260   2.922   2.211 -0.3332 -0.4562 -1.4467
 7157SOL    HW232934   4.136   2.841   2.214 -1.4827  0.6641 -3.1644
 7158SOL     OW32935   1.142   3.949   7.307  0.4374  0.5258 -0.0607
 7158SOL    HW132936   1.096   3.866   7.316 -0.0082  0.9026  1.1820
 7158SOL    HW232937   1.074   4.011   7.284  0.8562  1.2888  0.7445
 7159SOL     OW32938   2.671   2.082  14.427 -0.1929  0.0925  0.1824
 7159SOL    HW132939   2.724   2.003  14.438  0.9048  0.7240 -0.4948
 7159SOL    HW232940   2.647   2.092  14.334  0.8421  2.7729  0.1963
 7160SOL     OW32941   3.713   2.114   5.702 -0.5715 -0.5841  0.0471
 7160SOL    HW132942   3.772   2.109   5.627 -0.9086 -0.8936 -0.1983
 7160SOL    HW232943   3.708   2.209   5.697 -0.7402 -0.4369  3.2629
 7161SOL     OW32944   4.219   2.481  17.404  0.4299  0.0602 -0.0888
 7161SOL    HW132945   4.290   2.420  17.424  0.8147  0.3089 -0.6978
 7161SOL    HW232946   4.256   2.567  17.421 -0.9293  0.6076  0.0500
 7162SOL     OW32947   3.674   0.138  10.622 -0.0821 -0.4708  0.5226
 7162SOL    HW132948   3.719   0.162  10.703 -1.8130  2.1876  0.7064
 7162SOL    HW232949   3.671   0.225  10.584  0.9732 -0.4344  0.5245
 7163SOL     OW32950   2.426   0.485   5.436  0.4970 -0.1760  0.0204
 7163SOL    HW132951   2.498   0.514   5.491  0.7210  0.7927 -0.7952
 7163SOL    HW232952   2.359   0.546   5.467  0.9969  0.2038  0.3463
 7164SOL     OW32953   3.202   2.517  13.291 -0.3780 -0.1504  0.7317
 7164SOL    HW132954   3.281   2.564  13.265  0.6417 -0.8925  2.4875
 7164SOL    HW232955   3.163   2.576  13.356  0.8651 -0.3993  1.7194
 7165SOL     OW32956   3.414   3.255   8.823  0.5239  0.2459 -0.0141
 7165SOL    HW132957   3.431   3.219   8.736 -3.4979 -0.0676 -0.6635
 7165SOL    HW232958   3.505   3.270   8.847  1.3579 -2.0015 -1.7574
 7166SOL     OW32959   0.363   1.009  13.842  0.4163 -0.5462 -0.0094
 7166SOL    HW132960   0.278   1.041  13.872  0.2844 -1.9905  1.1558
 7166SOL    HW232961   0.343   0.968  13.758  1.7858  0.8369 -0.9968
 7167SOL     OW32962   3.616   2.318   4.727 -0.0597  0.3092  0.2430
 7167SOL    HW132963   3.686   2.358   4.676 -1.5460  0.2407 -1.8575
 7167SOL    HW232964   3.573   2.395   4.765  0.2912  0.2336  0.7880
 7168SOL     OW32965   0.779   1.205  14.012 -0.3761  0.7417 -0.6059
 7168SOL    HW132966   0.702   1.205  13.954 -0.9595  1.6625  0.1696
 7168SOL    HW232967   0.798   1.117  14.044  0.9491  2.3198  2.9329
 7169SOL     OW32968   1.889   3.071   7.586  0.8686  0.4291 -0.4639
 7169SOL    HW132969   1.905   3.159   7.551 -0.0721  1.2157  1.0698
 7169SOL    HW232970   1.868   3.097   7.676 -0.3756  0.0396 -0.6412
 7170SOL     OW32971   0.552   3.907   7.411 -0.3129 -0.0327 -0.3929
 7170SOL    HW132972   0.568   3.976   7.475 -2.8235  2.2258 -2.2203
 7170SOL    HW232973   0.460   3.929   7.397 -0.6698 -1.2797  0.0115
 7171SOL     OW32974   4.348   1.021   6.953  0.2285  0.1461 -0.4985
 7171SOL    HW132975   4.434   1.059   6.939  0.0230  1.0060  0.5306
 7171SOL    HW232976   4.288   1.095   6.955 -1.3964 -1.1923  0.5281
 7172SOL     OW32977   1.070   4.015   1.238 -0.1211 -0.0865  0.2066
 7172SOL    HW132978   1.089   4.068   1.161 -0.5120 -2.6443 -1.6313
 7172SOL    HW232979   0.976   4.005   1.228 -0.0835  0.6052 -0.7966
 7173SOL     OW32980   0.336   0.509   4.165 -0.0635  0.3021  0.4680
 7173SOL    HW132981   0.246   0.484   4.186  0.5763 -0.8284  1.8996
 7173SOL    HW232982   0.383   0.440   4.211 -1.5542 -0.5628  0.6916
 7174SOL     OW32983   1.246   4.587  15.003 -0.2573 -0.0856 -0.0227
 7174SOL    HW132984   1.226   4.594  15.097 -2.7124  1.2606 -0.6631
 7174SOL    HW232985   1.157   4.586  14.968 -1.3680  1.7542  2.7410
 7175SOL     OW32986   1.802   4.038   9.200  0.2216 -0.0540  0.0754
 7175SOL    HW132987   1.881   3.999   9.164 -1.5099 -0.6884 -3.0277
 7175SOL    HW232988   1.771   4.086   9.123 -1.6321  0.5652  1.1943
 7176SOL     OW32989   0.512   0.649   0.192  0.3583 -0.0409  0.0908
 7176SOL    HW132990   0.463   0.567   0.194 -0.6509  0.5809  0.3176
 7176SOL    HW232991   0.528   0.664   0.285 -0.5834  1.3376  0.0282
 7177SOL     OW32992   1.830   4.665   7.423 -0.1806  0.0454  0.0551
 7177SOL    HW132993   1.879   4.583   7.424  0.1460  0.2495  0.6362
 7177SOL    HW232994   1.873   4.705   7.347 -1.0693  1.0900  0.0965
 7178SOL     OW32995   2.734   2.064   7.997 -0.9634 -0.2430  0.0147
 7178SOL    HW132996   2.686   2.107   7.926  0.3698  1.9315  0.4433
 7178SOL    HW232997   2.663   2.030   8.052  1.2662 -0.6865  2.5758
 7179SOL     OW32998   3.089   3.499   6.373  0.1680  0.3592 -0.0391
 7179SOL    HW132999   3.073   3.413   6.333 -0.0212  0.4682 -0.2016
 7179SOL    HW233000   3.006   3.544   6.355 -1.0523 -1.5865  0.7340
 7180SOL     OW33001   3.354   0.226   7.888  0.2468  0.3089  0.1660
 7180SOL    HW133002   3.330   0.151   7.942 -2.5959  1.8123  0.9703
 7180SOL    HW233003   3.294   0.293   7.918  0.1287  0.0060  0.6014
 7181SOL     OW33004   4.407   0.859  13.444  1.2015 -0.5552 -0.4212
 7181SOL    HW133005   4.343   0.804  13.488 -0.4687 -0.2084 -2.4123
 7181SOL    HW233006   4.485   0.839  13.496  2.0154 -1.9721 -2.2151
 7182SOL     OW33007   4.253   0.768   6.666  0.7012 -0.6747 -0.1160
 7182SOL    HW133008   4.313   0.693   6.669  0.7477 -0.7234 -2.3222
 7182SOL    HW233009   4.302   0.826   6.607  1.1836  0.1188  1.0716
 7183SOL     OW33010   0.752   3.437   4.720 -0.1203  0.4285  0.3081
 7183SOL    HW133011   0.813   3.369   4.693 -0.8889  0.2131 -0.8797
 7183SOL    HW233012   0.809   3.514   4.728 -0.9304  1.0592  0.0289
 7184SOL     OW33013   0.811   2.936  16.137  0.2546  0.1296  0.4796
 7184SOL    HW133014   0.825   3.022  16.098 -2.7304 -0.7857 -2.5481
 7184SOL    HW233015   0.818   2.959  16.230  1.7394 -2.5030  1.0376
 7185SOL     OW33016   3.070   1.459   6.970 -0.3605  0.4054 -0.4329
 7185SOL    HW133017   3.097   1.502   7.051 -1.9321  0.2659  0.1624
 7185SOL    HW233018   2.996   1.513   6.941 -0.1184  0.4572 -0.9490
 7186SOL     OW33019   3.486   4.374   3.880  0.3655 -0.5741  0.0988
 7186SOL    HW133020   3.528   4.418   3.806  0.2923 -0.9495 -0.1665
 7186SOL    HW233021   3.520   4.285   3.875 -0.7158 -0.9040 -1.4224
 7187SOL     OW33022   2.656   1.941   7.716  0.5867  0.2228 -0.1644
 7187SOL    HW133023   2.589   2.001   7.750 -0.9326 -1.8636  0.5515
 7187SOL    HW233024   2.716   1.998   7.668 -1.7002  0.9429 -2.1354
 7188SOL     OW33025   0.035   2.464   5.285  0.3015 -0.1135 -0.4064
 7188SOL    HW133026   4.670   2.497   5.283  0.6618  0.8708 -0.0355
 7188SOL    HW233027   0.083   2.523   5.227  0.2411  0.7644  0.4395
 7189SOL     OW33028   3.149   3.140  15.870 -0.1406 -0.2611 -0.0557
 7189SOL    HW133029   3.087   3.159  15.800  0.9176 -1.6843 -1.3948
 7189SOL    HW233030   3.086   3.106  15.933 -1.1274 -1.7376 -1.8430
 7190SOL     OW33031   3.868   1.293   7.407  0.4279  0.5365 -0.4236
 7190SOL    HW133032   3.835   1.207   7.433 -2.4871  2.5230  2.3567
 7190SOL    HW233033   3.785   1.316   7.364 -0.8560  1.7496  2.7569
 7191SOL     OW33034   1.069   4.472  14.227  0.7398 -0.1956  0.3037
 7191SOL    HW133035   1.073   4.564  14.251  0.6378  0.1752 -1.1030
 7191SOL    HW233036   0.975   4.461  14.210  0.7086 -0.0289  0.3691
 7192SOL     OW33037   0.612   0.858  12.656  0.5112  1.0313 -0.2506
 7192SOL    HW133038   0.605   0.898  12.743  0.1362 -0.5434  0.4417
 7192SOL    HW233039   0.584   0.927  12.597 -1.0447 -1.9427 -2.9834
 7193SOL     OW33040   2.219   2.039  10.839  0.1150  0.0170 -0.0677
 7193SOL    HW133041   2.143   1.991  10.871  1.0650 -1.5148 -0.1102
 7193SOL    HW233042   2.253   2.074  10.921 -0.1416  1.0273 -0.3944
 7194SOL     OW33043   1.775   2.447  15.198 -0.1497 -0.0416  0.4701
 7194SOL    HW133044   1.713   2.375  15.202  0.1003 -0.3860 -1.9697
 7194SOL    HW233045   1.748   2.496  15.276  0.9901  1.0261  0.2045
 7195SOL     OW33046   2.351   0.264   9.207  0.0723  0.4475  0.0186
 7195SOL    HW133047   2.398   0.336   9.165  0.6079  0.6319  0.9520
 7195SOL    HW233048   2.262   0.286   9.179  0.6472  0.7798 -1.5880
 7196SOL     OW33049   1.783   0.700   9.197  0.6141 -0.1238 -0.3804
 7196SOL    HW133050   1.782   0.730   9.288  2.3202 -2.6855  0.4554
 7196SOL    HW233051   1.788   0.605   9.207 -0.3564  0.1198  2.3041
 7197SOL     OW33052   3.088   1.064  15.127 -0.0031 -0.0080 -0.1168
 7197SOL    HW133053   3.020   1.118  15.087 -0.2845 -0.6087 -0.4518
 7197SOL    HW233054   3.136   1.122  15.186 -1.4500  0.7640  0.3152
 7198SOL     OW33055   2.237   0.253   3.933  0.0926 -0.2751  0.6943
 7198SOL    HW133056   2.235   0.345   3.960 -1.7806 -0.6085  1.6778
 7198SOL    HW233057   2.171   0.215   3.991 -1.4824  2.2567  0.5791
 7199SOL     OW33058   2.410   2.153  16.971  0.0909  0.2403  0.2770
 7199SOL    HW133059   2.458   2.100  16.907  1.7477  2.2468 -0.1387
 7199SOL    HW233060   2.355   2.192  16.904 -0.3900 -0.5369  0.2275
 7200SOL     OW33061   0.995   2.231  10.323 -0.3189 -0.5792  0.6788
 7200SOL    HW133062   1.007   2.163  10.258  1.3751  0.7230 -0.3783
 7200SOL    HW233063   1.003   2.311  10.271 -1.6853  0.0823  1.4894
 7201SOL     OW33064   3.936   1.488   9.573 -0.3002 -0.1134 -0.8033
 7201SOL    HW133065   3.885   1.407   9.571  0.8801 -0.8840  0.5140
 7201SOL    HW233066   3.878   1.530   9.636  0.4435 -1.6016  0.8803
 7202SOL     OW33067   0.872   2.548   8.483  0.3100  0.0680  0.1598
 7202SOL    HW133068   0.807   2.614   8.504 -1.3397 -0.4144 -3.3516
 7202SOL    HW233069   0.940   2.587   8.537  2.9462  1.8932 -4.4638
 7203SOL     OW33070   3.260   1.789   1.958 -0.3696 -0.4102  0.1896
 7203SOL    HW133071   3.252   1.883   1.944  2.7279 -0.1066  0.5233
 7203SOL    HW233072   3.288   1.795   2.050 -1.5595  1.2771  0.4435
 7204SOL     OW33073   0.979   4.050  14.195 -0.4452  0.1551 -0.0769
 7204SOL    HW133074   0.919   3.976  14.189 -1.6488  1.1493 -0.2898
 7204SOL    HW233075   0.945   4.122  14.143 -1.0055 -0.2839 -0.3168
 7205SOL     OW33076   1.909   0.031   1.796 -0.5534  0.4387  0.2591
 7205SOL    HW133077   1.885   4.667   1.823 -1.2979 -0.0338 -1.9338
 7205SOL    HW233078   1.913   0.023   1.701 -1.5979  2.9314 -0.0038
 7206SOL     OW33079   1.703   3.377   9.639  0.2196 -0.0937 -0.4757
 7206SOL    HW133080   1.733   3.447   9.697  0.2548 -0.7018  0.2298
 7206SOL    HW233081   1.608   3.375   9.651 -0.0213  1.1031 -2.1421
 7207SOL     OW33082   2.774   0.242   1.542  0.0259  0.1187 -0.0747
 7207SOL    HW133083   2.772   0.195   1.458  0.7759  2.7799 -1.5926
 7207SOL    HW233084   2.685   0.277   1.538  1.0604  2.6621 -0.6494
 7208SOL     OW33085   0.944   2.356   0.936 -0.7461 -0.0044 -0.0938
 7208SOL    HW133086   0.882   2.298   0.890 -0.7728  1.2481 -1.6377
 7208SOL    HW233087   0.978   2.411   0.865  0.4620 -0.6065  0.0269
 7209SOL     OW33088   3.497   1.644   6.641  0.1503  0.1056  0.1540
 7209SOL    HW133089   3.419   1.659   6.695  0.7347  0.7372  0.8239
 7209SOL    HW233090   3.546   1.722   6.664  0.5115  0.0322 -0.3756
 7210SOL     OW33091   0.950   1.015   4.363  0.3684  0.0638  0.0708
 7210SOL    HW133092   1.046   1.023   4.361  0.5390 -1.6644  0.8643
 7210SOL    HW233093   0.928   1.071   4.288 -0.2508  0.0888  0.2721
 7211SOL     OW33094   2.170   2.794  14.833  0.0860 -0.3170 -0.6880
 7211SOL    HW133095   2.082   2.784  14.868  0.6314  0.2564  0.8667
 7211SOL    HW233096   2.202   2.703  14.832  1.7540  0.2161  3.3513
 7212SOL     OW33097   0.818   0.977   3.497 -0.1740 -0.1177  0.1323
 7212SOL    HW133098   0.803   0.933   3.414 -0.1032  0.5759 -0.2469
 7212SOL    HW233099   0.913   0.974   3.507 -0.0049 -0.7448 -1.5811
 7213SOL     OW33100   4.556   3.587   7.233 -0.2150  0.0637 -0.2995
 7213SOL    HW133101   4.558   3.606   7.327 -1.1206  0.0698 -0.2780
 7213SOL    HW233102   4.561   3.492   7.226  2.0434  0.1539  0.2417
 7214SOL     OW33103   0.673   1.624   7.769  0.0803  0.3662  1.0432
 7214SOL    HW133104   0.740   1.613   7.836  0.2026 -0.4876  0.7811
 7214SOL    HW233105   0.708   1.557   7.710  0.9351 -0.0336  2.0018
 7215SOL     OW33106   3.018   1.346   4.405  0.6189  0.6621 -0.1753
 7215SOL    HW133107   2.950   1.324   4.341 -0.8254  1.6955  0.9926
 7215SOL    HW233108   2.997   1.286   4.477  2.4539 -0.7400 -0.8085
 7216SOL     OW33109   0.420   1.443   3.593 -0.4693  0.6336  0.0714
 7216SOL    HW133110   0.453   1.533   3.594  1.2007  0.0566 -2.0908
 7216SOL    HW233111   0.465   1.405   3.518 -2.3796 -0.8362 -0.3184
 7217SOL     OW33112   0.040   0.786   6.207  0.1212  0.5441 -0.3655
 7217SOL    HW133113   0.042   0.844   6.131 -1.8117  1.4032  0.2416
 7217SOL    HW233114   4.687   0.731   6.196  0.0359  0.7061 -0.5674
 7218SOL     OW33115   1.434   3.920   8.172 -0.2816  0.2777 -0.4314
 7218SOL    HW133116   1.485   3.914   8.091 -1.0642  1.9203 -1.0639
 7218SOL    HW233117   1.494   3.980   8.216  1.2917 -2.3471  0.9991
 7219SOL     OW33118   1.733   0.605   7.147  0.0252 -0.3609  0.3449
 7219SOL    HW133119   1.811   0.589   7.093  1.0285  3.0755  0.8200
 7219SOL    HW233120   1.752   0.536   7.211 -2.4353 -0.1661  1.2919
 7220SOL     OW33121   3.142   3.625   9.383 -0.1302  0.1882  0.5770
 7220SOL    HW133122   3.074   3.575   9.337 -3.2203  0.8910  4.3523
 7220SOL    HW233123   3.122   3.715   9.358  1.5311  0.5878  0.6910
 7221SOL     OW33124   2.232   4.451   6.120 -0.3879  0.2304  0.3419
 7221SOL    HW133125   2.273   4.366   6.134  1.5685  1.3937  1.6137
 7221SOL    HW233126   2.138   4.429   6.115 -0.4950  0.7001  0.2911
 7222SOL     OW33127   2.056   2.468   2.893  0.4693  0.3111  0.1833
 7222SOL    HW133128   2.114   2.514   2.954  0.5375 -1.0193  1.1072
 7222SOL    HW233129   1.969   2.496   2.921  0.3825  1.1969 -0.9394
 7223SOL     OW33130   1.989   1.935   2.717 -0.0193 -0.0498 -0.6645
 7223SOL    HW133131   2.058   1.921   2.651  0.5121  0.2822 -0.1787
 7223SOL    HW233132   2.004   2.027   2.738  1.2393 -0.3589 -0.2261
 7224SOL     OW33133   0.789   1.784   8.145 -0.0036 -0.1493 -0.1647
 7224SOL    HW133134   0.877   1.800   8.111 -0.2542  0.8181 -0.3673
 7224SOL    HW233135   0.778   1.702   8.096 -0.3687 -0.8418  1.0723
 7225SOL     OW33136   3.104   0.382   1.922  0.3967 -0.0874 -0.5495
 7225SOL    HW133137   3.048   0.457   1.898  0.2226  0.2380  0.9084
 7225SOL    HW233138   3.044   0.330   1.974 -0.5638  0.0227 -1.5458
 7226SOL     OW33139   0.039   3.402  12.725  0.3316 -0.1606 -0.0134
 7226SOL    HW133140   0.023   3.364  12.812  1.9527  0.5617  0.5935
 7226SOL    HW233141   4.678   3.395  12.683 -0.2793 -1.0853  1.3622
 7227SOL     OW33142   1.231   2.965   4.082  0.7307  0.1263  0.9388
 7227SOL    HW133143   1.318   3.002   4.069  0.1998  1.2209  0.5708
 7227SOL    HW233144   1.223   2.924   3.995  0.4803  2.2443 -0.0187
 7228SOL     OW33145   1.564   1.708  14.855 -0.7142  0.3993 -0.6297
 7228SOL    HW133146   1.523   1.788  14.822 -0.5786  0.5727 -0.3738
 7228SOL    HW233147   1.494   1.643  14.847  1.1881 -1.8116  0.8573
 7229SOL     OW33148   0.108   4.327   8.342 -0.3888  0.3262 -0.2448
 7229SOL    HW133149   0.024   4.365   8.367 -1.2067 -1.9096  0.4391
 7229SOL    HW233150   0.163   4.363   8.413  0.0990 -1.0745  0.0863
 7230SOL     OW33151   3.551   1.509   4.237  0.0985 -0.2320 -0.1887
 7230SOL    HW133152   3.556   1.604   4.238  0.7442 -0.2736  0.7746
 7230SOL    HW233153   3.493   1.488   4.164  0.3967  0.6297 -0.6607
 7231SOL     OW33154   2.724   1.455  10.252 -0.2155 -0.1626 -0.0624
 7231SOL    HW133155   2.633   1.455  10.221  0.2747  0.6071 -1.4851
 7231SOL    HW233156   2.780   1.496  10.187 -0.2715  0.9668  0.6110
 7232SOL     OW33157   0.663   0.267  12.395  0.4191 -0.0171 -0.8340
 7232SOL    HW133158   0.651   0.286  12.488  1.5288  0.3904 -0.7882
 7232SOL    HW233159   0.582   0.226  12.363  0.4587 -0.3003 -0.5807
 7233SOL     OW33160   2.676   1.214   6.110  0.2470 -0.4791 -0.3337
 7233SOL    HW133161   2.766   1.200   6.138 -0.0935 -0.8780  0.5587
 7233SOL    HW233162   2.642   1.130   6.080  2.4411 -1.1145 -1.0540
 7234SOL     OW33163   4.398   4.320   7.080  0.1807 -0.4703  0.1267
 7234SOL    HW133164   4.476   4.315   7.026  1.0115  0.6666  1.2291
 7234SOL    HW233165   4.429   4.265   7.151  0.5585  1.1453  1.2014
 7235SOL     OW33166   0.230   4.339   5.102 -0.3418 -0.0292  0.3046
 7235SOL    HW133167   0.316   4.310   5.133 -1.5098  0.9785  4.4471
 7235SOL    HW233168   0.208   4.400   5.172 -0.6331  1.7328 -1.3179
 7236SOL     OW33169   1.684   1.079   3.256  0.4130 -0.2187  0.2200
 7236SOL    HW133170   1.635   1.008   3.214  0.9789 -0.8488  0.6236
 7236SOL    HW233171   1.776   1.062   3.235 -0.3964 -2.4291 -1.5230
 7237SOL     OW33172   3.852   1.479   5.267 -0.6314 -0.3031  0.3802
 7237SOL    HW133173   3.872   1.388   5.290 -0.9201 -1.2789 -3.2341
 7237SOL    HW233174   3.886   1.492   5.178 -2.3612  2.3757  0.1224
 7238SOL     OW33175   2.937   3.448   8.464  1.1888 -0.0545  0.2972
 7238SOL    HW133176   2.988   3.374   8.497  1.5886  1.1377  2.3472
 7238SOL    HW233177   3.005   3.512   8.444  0.3958  1.2535  1.8116
 7239SOL     OW33178   1.458   3.737   7.591 -0.0880  0.2894  0.4079
 7239SOL    HW133179   1.419   3.774   7.670 -0.0383 -0.7854  0.9377
 7239SOL    HW233180   1.471   3.810   7.530  0.3955  0.2371  0.4437
 7240SOL     OW33181   4.107   2.883   5.660  0.2946  0.2012 -0.5911
 7240SOL    HW133182   4.165   2.918   5.592  0.1334  2.6785  0.5640
 7240SOL    HW233183   4.154   2.808   5.695 -0.9090  0.6690  2.0097
 7241SOL     OW33184   3.717   1.297  16.454 -0.1558  0.4200  0.1277
 7241SOL    HW133185   3.668   1.233  16.506 -2.2278  1.5680 -0.4143
 7241SOL    HW233186   3.677   1.301  16.368  0.3671 -0.7192 -0.1692
 7242SOL     OW33187   3.951   2.451   0.173 -0.1453 -0.2115  0.5997
 7242SOL    HW133188   3.944   2.477   0.265 -0.5653  1.6083  0.0565
 7242SOL    HW233189   3.926   2.359   0.176 -1.4377  0.1386  0.8683
 7243SOL     OW33190   2.672   0.771   0.609  0.3642  0.0372 -0.1393
 7243SOL    HW133191   2.618   0.823   0.668 -1.3101  1.5624 -3.0612
 7243SOL    HW233192   2.632   0.784   0.524  0.1374 -1.4025 -0.2510
 7244SOL     OW33193   1.781   2.450   3.021 -0.5053 -0.4221  0.1607
 7244SOL    HW133194   1.697   2.461   2.978  0.0491 -2.4073 -1.4399
 7244SOL    HW233195   1.765   2.488   3.107  0.2636  3.7084 -1.5280
 7245SOL     OW33196   0.406   2.268   2.487  0.0750  0.0974 -0.1875
 7245SOL    HW133197   0.320   2.301   2.514  0.4706  1.0805 -0.1170
 7245SOL    HW233198   0.407   2.182   2.528  1.5343  1.1987  2.1370
 7246SOL     OW33199   0.720   3.273   2.772 -0.0515  0.4654  0.0609
 7246SOL    HW133200   0.808   3.285   2.808  1.5169 -0.9932 -3.3048
 7246SOL    HW233201   0.730   3.180   2.755  0.0565  0.6424 -0.8260
 7247SOL     OW33202   0.364   2.243  15.894 -0.0617  0.3275 -0.2335
 7247SOL    HW133203   0.442   2.297  15.907  0.6523 -0.4611 -1.2259
 7247SOL    HW233204   0.306   2.317  15.878 -1.0139  0.1555  2.5841
 7248SOL     OW33205   1.417   2.449  15.639  0.0654 -0.0790 -0.3986
 7248SOL    HW133206   1.348   2.401  15.685  1.2513 -1.7762 -0.3890
 7248SOL    HW233207   1.473   2.378  15.609 -0.1457  0.4301 -1.9985
 7249SOL     OW33208   1.782   1.756   3.007  0.1217  0.2178  0.4266
 7249SOL    HW133209   1.769   1.843   2.970  2.0592  1.0471  1.6943
 7249SOL    HW233210   1.709   1.757   3.069 -0.0870  0.6857  0.1746
 7250SOL     OW33211   2.809   0.197   5.210 -0.4821 -0.0376 -0.2551
 7250SOL    HW133212   2.848   0.135   5.148  3.1730  0.1490  1.8498
 7250SOL    HW233213   2.821   0.282   5.167 -0.5749  0.2879  0.3645
 7251SOL     OW33214   0.612   2.493   7.761 -0.1887  0.1134  0.1590
 7251SOL    HW133215   0.568   2.422   7.809 -0.6380  0.2814 -0.0070
 7251SOL    HW233216   0.543   2.559   7.754 -0.8132 -0.5950 -0.3362
 7252SOL     OW33217   1.048   3.484   3.071 -0.0019 -0.1447  0.2133
 7252SOL    HW133218   1.055   3.572   3.035 -0.0139  0.7342  2.3477
 7252SOL    HW233219   0.955   3.458   3.072 -0.4160  1.2641 -1.2975
 7253SOL     OW33220   0.971   4.375   7.917 -0.7633 -0.0132  0.7141
 7253SOL    HW133221   1.026   4.336   7.849 -0.5616  3.5098 -1.1205
 7253SOL    HW233222   1.029   4.447   7.942 -0.1093 -0.6710  1.0794
 7254SOL     OW33223   4.176   2.314  15.629 -0.1001 -0.3178  0.3752
 7254SOL    HW133224   4.096   2.263  15.636 -0.9958  0.7396 -2.1831
 7254SOL    HW233225   4.171   2.360  15.545  0.0940 -1.0698 -0.0529
 7255SOL     OW33226   0.815   2.003   7.084  0.0424 -0.0352  0.2738
 7255SOL    HW133227   0.838   1.980   7.174  0.8843 -0.0553  0.0564
 7255SOL    HW233228   0.750   2.072   7.096  0.7408  0.2412  2.3617
 7256SOL     OW33229   0.344   3.927   0.915  0.2877 -0.4596 -0.4654
 7256SOL    HW133230   0.334   4.018   0.942  1.6568 -0.2959 -0.5308
 7256SOL    HW233231   0.256   3.891   0.918  0.5662 -1.1039 -0.2014
 7257SOL     OW33232   2.124   3.219  15.771  0.1685 -0.4699 -0.0722
 7257SOL    HW133233   2.213   3.184  15.768 -0.7540 -2.8194  0.0440
 7257SOL    HW233234   2.083   3.153  15.716  1.7895  0.7042 -2.6920
 7258SOL     OW33235   2.473   1.196  12.280 -0.4070 -0.1402  0.3302
 7258SOL    HW133236   2.523   1.159  12.207  2.3872  0.2598  2.0615
 7258SOL    HW233237   2.490   1.126  12.343  1.8177  0.7587  0.7048
 7259SOL     OW33238   2.818   2.782   4.716 -0.6678 -0.2668  0.1040
 7259SOL    HW133239   2.785   2.787   4.626 -0.4881  0.2343  0.0618
 7259SOL    HW233240   2.741   2.745   4.758 -0.7807  0.4726  0.5456
 7260SOL     OW33241   0.139   0.667  14.837 -0.4301 -0.1011 -0.0952
 7260SOL    HW133242   0.064   0.623  14.796  0.3243 -1.4112 -0.0577
 7260SOL    HW233243   0.218   0.616  14.819 -0.0766  0.7622 -0.9532
 7261SOL     OW33244   2.715   0.839   6.294  0.0569  0.6566 -0.7506
 7261SOL    HW133245   2.686   0.751   6.273  0.5261  0.8486 -2.2529
 7261SOL    HW233246   2.697   0.885   6.212 -3.4286 -0.7234 -0.7324
 7262SOL     OW33247   0.546   4.286  14.450  0.4122 -0.6323  0.1636
 7262SOL    HW133248   0.527   4.192  14.446 -0.9437 -0.3787  0.6410
 7262SOL    HW233249   0.465   4.327  14.421  0.9586  0.2012 -0.1751
 7263SOL     OW33250   0.697   3.398  15.569  0.1849  0.1795  0.5497
 7263SOL    HW133251   0.749   3.331  15.614  0.7103  0.3654  0.2270
 7263SOL    HW233252   0.614   3.382  15.613 -0.7840  0.4746 -1.1554
 7264SOL     OW33253   1.062   3.869  16.898 -0.0335  0.1116  0.0475
 7264SOL    HW133254   0.978   3.828  16.918  1.3146 -3.1291 -0.9985
 7264SOL    HW233255   1.109   3.876  16.981 -0.1450  0.9517  0.0443
 7265SOL     OW33256   0.290   4.429   1.503 -0.0221 -0.5069  0.0989
 7265SOL    HW133257   0.346   4.412   1.579  0.4516  0.6682  0.0091
 7265SOL    HW233258   0.211   4.465   1.544  0.5529 -2.0038  2.5692
 7266SOL     OW33259   2.827   0.609   3.337 -0.1979  0.6086 -0.0351
 7266SOL    HW133260   2.898   0.588   3.277 -0.0122  1.0429  0.0305
 7266SOL    HW233261   2.821   0.524   3.379  1.0146  0.4358 -0.2176
 7267SOL     OW33262   3.061   1.469   3.309 -0.8766  0.2128  0.4679
 7267SOL    HW133263   2.989   1.463   3.246 -0.4342  1.8775 -0.2046
 7267SOL    HW233264   3.055   1.560   3.340 -1.4649  0.4318 -0.2973
 7268SOL     OW33265   3.066   3.376  12.557 -0.2786  0.3787  0.0885
 7268SOL    HW133266   3.010   3.371  12.480  0.4051 -1.1234 -0.3163
 7268SOL    HW233267   3.073   3.471  12.562  2.7043  0.0847  1.6176
 7269SOL     OW33268   3.040   2.371  17.467  0.4225  0.0296  0.3105
 7269SOL    HW133269   2.991   2.289  17.468  0.2624  0.1515  1.4307
 7269SOL    HW233270   3.067   2.367  17.375 -0.8006 -1.3470  0.0083
 7270SOL     OW33271   1.401   1.118   6.571  0.3014 -0.2060  0.7164
 7270SOL    HW133272   1.425   1.025   6.575 -2.8594 -1.0181  0.0120
 7270SOL    HW233273   1.370   1.135   6.660 -0.1140  1.9017  0.1605
 7271SOL     OW33274   3.934   2.851   2.982  0.2810  0.3214  0.0414
 7271SOL    HW133275   4.005   2.794   2.952  0.7735  0.1758  1.4695
 7271SOL    HW233276   3.972   2.933   2.949  0.9285 -0.1065 -0.2717
 7272SOL     OW33277   0.616   2.773   5.193  0.1140 -0.1066  0.5665
 7272SOL    HW133278   0.688   2.834   5.208  0.3884 -1.0841  3.1367
 7272SOL    HW233279   0.547   2.839   5.201  0.9362  0.6940  1.0746
 7273SOL     OW33280   2.722   1.583   9.811  0.0122 -0.0548  0.2965
 7273SOL    HW133281   2.723   1.604   9.904  0.4748 -1.0183  0.5082
 7273SOL    HW233282   2.765   1.661   9.775  1.0265 -0.9708 -0.5059
 7274SOL     OW33283   0.391   3.096   2.195  0.5752  0.0149  0.1376
 7274SOL    HW133284   0.429   3.182   2.214  0.4162  0.2844 -0.7380
 7274SOL    HW233285   0.375   3.098   2.100 -0.6634 -0.2797  0.3451
 7275SOL     OW33286   1.159   0.127   8.811 -0.2669 -0.3377 -0.2143
 7275SOL    HW133287   1.115   0.044   8.795 -0.6871 -0.2200  0.3436
 7275SOL    HW233288   1.087   0.187   8.832 -0.7949 -0.6616 -1.1131
 7276SOL     OW33289   1.151   0.217   3.045  0.1832 -0.2754 -0.5238
 7276SOL    HW133290   1.078   0.258   2.998 -1.3688 -0.2294  1.9648
 7276SOL    HW233291   1.228   0.234   2.990  1.4125  0.1122  1.3217
 7277SOL     OW33292   2.111   4.441  10.217 -0.3143  0.2111  0.0138
 7277SOL    HW133293   2.112   4.495  10.296  0.1390  1.5337 -0.9172
 7277SOL    HW233294   2.173   4.373  10.244 -0.8073 -0.1606  0.2146
 7278SOL     OW33295   0.177   2.637   5.127  0.0339 -0.1646  0.0205
 7278SOL    HW133296   0.188   2.545   5.101 -0.8866 -0.0440 -0.8010
 7278SOL    HW233297   0.158   2.672   5.040 -0.3400  1.4765  0.7762
 7279SOL     OW33298   1.336   0.853   3.642 -0.2720  0.3701 -0.3145
 7279SOL    HW133299   1.323   0.871   3.548 -2.2428  2.8456  0.4300
 7279SOL    HW233300   1.260   0.887   3.690 -0.1464 -0.1964  0.2661
 7280SOL     OW33301   3.141   1.852   6.872 -0.3473 -0.0490  0.5624
 7280SOL    HW133302   3.210   1.797   6.909  0.2799  1.0646  1.0480
 7280SOL    HW233303   3.074   1.785   6.865 -0.0085 -0.5104  1.9486
 7281SOL     OW33304   2.424   3.070   2.795  0.0894 -0.0870  0.2999
 7281SOL    HW133305   2.354   3.084   2.731  1.3057  0.9162 -0.8252
 7281SOL    HW233306   2.427   3.148   2.850  2.4249  0.0618 -0.0395
 7282SOL     OW33307   2.254   0.265   8.231  0.1233 -0.0081  0.4677
 7282SOL    HW133308   2.293   0.185   8.195  1.8229  0.5654  1.0314
 7282SOL    HW233309   2.284   0.337   8.176  0.3314 -0.5917 -0.1817
 7283SOL     OW33310   0.053   2.439   8.957 -0.0318 -0.1318  0.5301
 7283SOL    HW133311   0.148   2.448   8.969  0.2121 -1.2924 -0.5506
 7283SOL    HW233312   0.056   2.382   8.880 -2.6948  0.0696  0.2779
 7284SOL     OW33313   0.563   3.314  16.206 -0.0046 -0.3302  0.0872
 7284SOL    HW133314   0.534   3.401  16.230  0.8430  0.5385 -1.9783
 7284SOL    HW233315   0.488   3.260  16.230 -0.0817 -0.6666 -0.8920
 7285SOL     OW33316   1.444   1.787   9.040  0.6739  0.1820 -0.2443
 7285SOL    HW133317   1.469   1.879   9.051 -1.4839  0.5888  1.2284
 7285SOL    HW233318   1.432   1.746   9.125 -0.4507  1.4881  0.2291
 7286SOL     OW33319   2.836   2.859  11.664 -0.2353 -0.0267 -0.2975
 7286SOL    HW133320   2.878   2.844  11.579  1.7449 -2.8348  1.1574
 7286SOL    HW233321   2.915   2.835  11.713 -0.6791  0.5053  0.6860
 7287SOL     OW33322   4.554   1.911   5.508  0.1808 -0.2057 -0.8289
 7287SOL    HW133323   4.466   1.885   5.481  0.4243 -2.3848  0.4962
 7287SOL    HW233324   4.541   1.986   5.565 -0.2310 -0.1981 -0.9374
 7288SOL     OW33325   4.350   3.306   5.413  0.0565  0.1422  0.6958
 7288SOL    HW133326   4.257   3.286   5.424  0.4532 -0.3958  3.0623
 7288SOL    HW233327   4.354   3.375   5.347 -0.8641  0.6332  1.1391
 7289SOL     OW33328   3.214   2.281   3.547  0.2893  0.3084  0.2117
 7289SOL    HW133329   3.244   2.199   3.586  1.4445  0.1384 -1.0339
 7289SOL    HW233330   3.119   2.278   3.561  0.5869 -2.8807  1.4281
 7290SOL     OW33331   0.017   2.838   9.892 -0.0068  0.1941  0.0777
 7290SOL    HW133332   0.078   2.773   9.928  0.8585  1.3056  0.5976
 7290SOL    HW233333   0.026   2.922   9.937 -1.8247 -0.5712  1.8713
 7291SOL     OW33334   0.551   4.574   2.706  0.3937 -0.3815 -0.4065
 7291SOL    HW133335   0.512   4.487   2.718 -1.0348  0.3070 -0.0650
 7291SOL    HW233336   0.483   4.627   2.665 -1.5022 -0.8478  2.1568
 7292SOL     OW33337   3.109   0.346  13.964  0.2915  0.1601  0.3103
 7292SOL    HW133338   3.048   0.332  14.037 -0.5434  0.1347 -0.4067
 7292SOL    HW233339   3.047   0.366  13.894  2.5768 -0.6290 -1.9343
 7293SOL     OW33340   2.427   0.635   4.327  0.7709 -0.0670 -0.1440
 7293SOL    HW133341   2.514   0.611   4.295  0.6471 -0.2191 -0.3669
 7293SOL    HW233342   2.380   0.659   4.246  2.1684 -0.1437 -0.9687
 7294SOL     OW33343   2.694   1.801  12.505 -0.1523 -0.1645 -0.1483
 7294SOL    HW133344   2.781   1.810  12.467  1.2609 -0.1216  3.1077
 7294SOL    HW233345   2.722   1.830  12.593  1.9852 -0.9621 -0.5630
 7295SOL     OW33346   3.198   2.165   6.156  1.1114  0.1155  0.3701
 7295SOL    HW133347   3.257   2.167   6.231 -0.4229 -0.0442  1.5625
 7295SOL    HW233348   3.171   2.074   6.146  0.9452  0.1097  0.8914
 7296SOL     OW33349   2.662   1.465   2.634  0.4088 -0.3743 -0.0531
 7296SOL    HW133350   2.717   1.440   2.560 -0.6885 -0.3442 -0.8653
 7296SOL    HW233351   2.681   1.558   2.642 -0.5468 -0.5268  4.1267
 7297SOL     OW33352   3.668   1.880   1.760  0.1907  0.5619 -0.1533
 7297SOL    HW133353   3.577   1.894   1.786 -0.1525 -0.6819 -0.6615
 7297SOL    HW233354   3.687   1.968   1.730 -0.0663  0.4167 -0.7316
 7298SOL     OW33355   3.949   4.331   2.675 -0.3346 -0.3321  0.3862
 7298SOL    HW133356   4.040   4.326   2.703 -0.0830  0.0240 -0.3595
 7298SOL    HW233357   3.927   4.424   2.682  1.3143  0.1380 -0.8533
 7299SOL     OW33358   0.480   1.579   4.624 -0.1233 -0.2037  0.2686
 7299SOL    HW133359   0.474   1.593   4.719 -1.4404  1.6900 -0.0714
 7299SOL    HW233360   0.574   1.585   4.608  0.1621 -6.2941 -0.1412
 7300SOL     OW33361   1.899   4.017   4.539 -0.1048  0.4535 -0.4883
 7300SOL    HW133362   1.945   3.986   4.461 -1.9999 -2.2305 -0.5152
 7300SOL    HW233363   1.882   4.103   4.501 -1.2205 -0.0616 -1.1192
 7301SOL     OW33364   0.546   2.051   5.946  0.0794 -0.6689 -0.1848
 7301SOL    HW133365   0.478   2.060   6.012 -0.0552 -1.1147 -0.2573
 7301SOL    HW233366   0.510   2.097   5.870  0.0099 -0.0328  0.2350
 7302SOL     OW33367   2.148   2.601   1.999  0.1511  0.2776 -0.2247
 7302SOL    HW133368   2.185   2.689   1.990 -0.7688  0.7327  0.4023
 7302SOL    HW233369   2.068   2.628   2.043  0.5905 -1.6186  1.7283
 7303SOL     OW33370   3.363   3.615   8.328  0.2029  0.1829 -0.0900
 7303SOL    HW133371   3.434   3.644   8.271 -1.2067  1.4907 -1.1661
 7303SOL    HW233372   3.334   3.537   8.282  2.9381 -0.9298  0.0662
 7304SOL     OW33373   3.272   3.394   7.929  0.0411  0.0162 -0.7741
 7304SOL    HW133374   3.285   3.355   7.843  0.3896 -1.1850 -0.1739
 7304SOL    HW233375   3.179   3.407   7.909 -0.3457 -0.5360  0.6203
 7305SOL     OW33376   3.367   0.115   6.272  0.3197 -0.2054  0.0675
 7305SOL    HW133377   3.443   0.139   6.219  1.1824 -1.6826  0.6258
 7305SOL    HW233378   3.404   0.078   6.353 -0.9752  1.5489  1.4655
 7306SOL     OW33379   1.364   1.251  15.602 -0.1583 -0.4939  0.1419
 7306SOL    HW133380   1.341   1.336  15.565 -2.0114 -0.8284  0.5228
 7306SOL    HW233381   1.355   1.195  15.526  0.6848  0.6438 -0.7951
 7307SOL     OW33382   2.856   2.417   5.651  0.2137  0.3420  0.0281
 7307SOL    HW133383   2.807   2.342   5.616  0.1042 -0.2550  1.4542
 7307SOL    HW233384   2.885   2.389   5.738 -2.0264  1.1323  1.0356
 7308SOL     OW33385   0.958   2.505   0.713  0.3954 -0.1312  0.2368
 7308SOL    HW133386   1.014   2.576   0.683  0.6302 -1.9540 -3.6723
 7308SOL    HW233387   0.886   2.553   0.754 -0.5525 -1.8969  0.6928
 7309SOL     OW33388   0.536   0.374   4.353  0.0591  0.5411 -0.3205
 7309SOL    HW133389   0.620   0.377   4.307 -0.4550 -0.1919 -1.3165
 7309SOL    HW233390   0.550   0.320   4.430 -1.7963 -0.0472 -0.3963
 7310SOL     OW33391   3.675   0.811   7.150 -0.5516  0.4585  0.6604
 7310SOL    HW133392   3.759   0.795   7.105 -1.6231 -0.8894 -0.8805
 7310SOL    HW233393   3.648   0.726   7.185  0.6053 -0.3859 -0.4803
 7311SOL     OW33394   2.189   3.698  15.751 -0.3595  0.8380  0.2601
 7311SOL    HW133395   2.252   3.732  15.815  0.7085 -0.0664 -0.3187
 7311SOL    HW233396   2.121   3.679  15.815 -0.7876  0.8147 -0.2069
 7312SOL     OW33397   0.763   2.768   2.900  0.0460 -0.2443  0.5940
 7312SOL    HW133398   0.761   2.788   2.993 -0.3845  1.4496  0.2262
 7312SOL    HW233399   0.845   2.719   2.893  1.5758  2.1603  1.4119
 7313SOL     OW33400   2.097   0.931   6.726 -0.0240 -0.2079 -0.0187
 7313SOL    HW133401   2.173   0.939   6.668 -0.6191  0.4497 -0.7149
 7313SOL    HW233402   2.128   0.858   6.778  0.8790  0.4766  0.4030
 7314SOL     OW33403   4.130   2.990   8.522 -0.0102 -0.3355  0.7345
 7314SOL    HW133404   4.042   3.026   8.534  0.6572  1.4015  0.4490
 7314SOL    HW233405   4.128   2.927   8.593 -0.4978  0.3410  1.3211
 7315SOL     OW33406   1.395   3.086   1.660  0.1580  0.5265  0.0647
 7315SOL    HW133407   1.378   3.007   1.711  0.1350 -1.1473 -2.5620
 7315SOL    HW233408   1.375   3.043   1.577 -1.0132  1.7036 -0.2557
 7316SOL     OW33409   1.402   3.152   3.553  0.2203  0.1122  0.0467
 7316SOL    HW133410   1.479   3.107   3.518 -0.0534 -0.8887  0.7442
 7316SOL    HW233411   1.408   3.125   3.644  0.6040  1.4754  0.4188
 7317SOL     OW33412   3.073   3.490   3.210 -0.1963 -0.5991 -0.2828
 7317SOL    HW133413   2.980   3.475   3.198 -0.3377  1.2685 -1.5478
 7317SOL    HW233414   3.100   3.448   3.128  3.1937 -0.2169  0.6267
 7318SOL     OW33415   2.425   4.119  13.812 -0.0908  0.0301 -0.4371
 7318SOL    HW133416   2.466   4.121  13.899 -0.3637  3.3515 -0.3815
 7318SOL    HW233417   2.433   4.212  13.790  1.2108 -0.2580 -1.1376
 7319SOL     OW33418   1.317   0.340   6.677 -0.1065  0.0558  0.0707
 7319SOL    HW133419   1.344   0.314   6.589  0.6668 -1.1043  0.6523
 7319SOL    HW233420   1.398   0.377   6.712 -0.2709  0.6851 -0.2082
 7320SOL     OW33421   2.216   1.238   8.485 -0.1415  0.2058  0.6137
 7320SOL    HW133422   2.297   1.208   8.528  0.9530  1.9126 -0.2442
 7320SOL    HW233423   2.165   1.258   8.564 -2.2139  1.6033 -1.0934
 7321SOL     OW33424   1.483   2.580  16.713  0.0173  0.1754  0.0358
 7321SOL    HW133425   1.525   2.583  16.627 -1.7833 -0.4644 -0.8574
 7321SOL    HW233426   1.556   2.564  16.773  0.6395 -2.0324 -1.2880
 7322SOL     OW33427   4.540   2.701  12.723 -0.2513 -0.6364 -0.1294
 7322SOL    HW133428   4.635   2.691  12.735 -0.5961 -1.5712  1.8884
 7322SOL    HW233429   4.505   2.657  12.800 -2.7919  0.9528 -0.4025
 7323SOL     OW33430   2.709   3.179   2.326  0.0611  0.8363  0.7524
 7323SOL    HW133431   2.765   3.123   2.379  2.7071  2.2035 -0.6114
 7323SOL    HW233432   2.635   3.180   2.387 -2.2543  0.4255 -2.0414
 7324SOL     OW33433   4.382   3.528  15.106 -0.0549  0.2327  0.2510
 7324SOL    HW133434   4.305   3.527  15.163 -0.9669  1.0118 -0.9515
 7324SOL    HW233435   4.383   3.624  15.101  0.5496  0.3406  2.4774
 7325SOL     OW33436   2.694   1.884   3.818  0.6905  0.5312 -0.4377
 7325SOL    HW133437   2.712   1.978   3.822 -1.7441  0.9391  1.2081
 7325SOL    HW233438   2.759   1.853   3.881 -1.1861  0.6425  1.5545
 7326SOL     OW33439   4.187   0.033  14.749 -0.3122 -0.1381  0.2847
 7326SOL    HW133440   4.179   0.039  14.654  2.8881 -3.3233 -0.1957
 7326SOL    HW233441   4.190   0.127  14.767 -0.8071 -0.3805  1.6437
 7327SOL     OW33442   3.452   4.516   3.226 -0.5669  0.0064 -0.3158
 7327SOL    HW133443   3.543   4.505   3.199 -0.1925  0.8087  0.6393
 7327SOL    HW233444   3.463   4.602   3.265  0.0840  0.3117 -1.1749
 7328SOL     OW33445   3.968   4.723   0.779 -0.3197 -0.7254 -0.5043
 7328SOL    HW133446   3.940   4.705   0.869  0.3279 -1.2074 -0.4000
 7328SOL    HW233447   4.060   4.696   0.776 -0.7936 -2.4841  0.5314
 7329SOL     OW33448   0.920   2.437   3.792 -0.1702  0.7120 -0.0520
 7329SOL    HW133449   0.902   2.480   3.709 -0.0578 -2.5491 -1.7509
 7329SOL    HW233450   0.977   2.365   3.767 -1.1020 -0.3067  0.7485
 7330SOL     OW33451   2.328   3.725   2.189  0.1730 -0.0417  0.0735
 7330SOL    HW133452   2.332   3.751   2.097  1.5508 -0.0370  0.1423
 7330SOL    HW233453   2.386   3.650   2.182 -0.0234 -0.0398 -1.5167
 7331SOL     OW33454   2.524   3.937   1.373 -0.7822  0.4863  0.5558
 7331SOL    HW133455   2.539   3.923   1.467  0.2444  0.6632  0.4107
 7331SOL    HW233456   2.440   3.890   1.372 -1.3962  1.6004 -0.1010
 7332SOL     OW33457   1.619   0.460   9.613  0.1674  1.4110  0.1632
 7332SOL    HW133458   1.707   0.482   9.581  0.6246  0.0438  0.4628
 7332SOL    HW233459   1.583   0.547   9.627  0.8273  1.9243 -1.4052
 7333SOL     OW33460   2.533   3.682   3.309 -0.0359  0.0743  0.0565
 7333SOL    HW133461   2.521   3.590   3.333  1.5559  0.5860  2.8409
 7333SOL    HW233462   2.464   3.717   3.365 -1.7733 -1.8560 -0.9078
 7334SOL     OW33463   1.174   2.100   7.037  0.2197 -0.3636  0.4555
 7334SOL    HW133464   1.096   2.148   7.065 -1.2155 -2.9342  0.8728
 7334SOL    HW233465   1.235   2.125   7.105  0.5399  1.0772 -0.3595
 7335SOL     OW33466   1.578   3.095   9.364 -0.5301  0.3354  0.2985
 7335SOL    HW133467   1.660   3.144   9.374  0.7585 -1.7217 -0.0750
 7335SOL    HW233468   1.540   3.114   9.450  0.7643  2.4578  0.4057
 7336SOL     OW33469   2.379   4.392   2.226 -0.3592  0.1349 -0.0956
 7336SOL    HW133470   2.325   4.467   2.252 -0.8562 -0.4276  0.5064
 7336SOL    HW233471   2.471   4.415   2.243 -1.0970  3.2841 -0.3293
 7337SOL     OW33472   4.021   2.839   7.852  0.5245  0.2887  0.0321
 7337SOL    HW133473   4.103   2.889   7.844 -0.2288  1.5141  0.0234
 7337SOL    HW233474   3.978   2.887   7.781  0.9610 -1.7269 -1.6110
 7338SOL     OW33475   0.547   1.403   0.188 -0.0600  0.2405  0.2410
 7338SOL    HW133476   0.615   1.396   0.121 -0.8975 -2.2816 -0.3642
 7338SOL    HW233477   0.600   1.451   0.252  0.4165 -2.9316  2.2274
 7339SOL     OW33478   0.284   1.801   0.885 -0.0599 -0.8649  1.0787
 7339SOL    HW133479   0.348   1.775   0.951  0.0233 -0.6034  1.0996
 7339SOL    HW233480   0.221   1.729   0.891  0.0761 -0.9981  0.9018
 7340SOL     OW33481   2.404   0.724  15.081  0.1990 -0.0168  0.6765
 7340SOL    HW133482   2.452   0.687  15.154 -1.1554 -1.2647  0.9354
 7340SOL    HW233483   2.445   0.809  15.062  0.3574 -0.0569  0.8463
 7341SOL     OW33484   3.042   0.470   3.225 -0.3518  0.2149 -0.2435
 7341SOL    HW133485   3.093   0.484   3.145 -0.4658 -1.8318 -0.6927
 7341SOL    HW233486   2.995   0.394   3.190  1.3059 -1.6607  1.6053
 7342SOL     OW33487   1.714   2.436   6.039 -0.6669 -0.5056  0.1954
 7342SOL    HW133488   1.629   2.480   6.031 -0.8637 -1.0915 -0.8881
 7342SOL    HW233489   1.729   2.406   5.950  0.5386 -1.2214  0.6373
 7343SOL     OW33490   2.232   2.224   8.882  0.2149 -0.3409  0.2839
 7343SOL    HW133491   2.205   2.241   8.791 -0.1655  0.6814  0.5862
 7343SOL    HW233492   2.326   2.213   8.870 -0.0396 -1.0489 -1.0874
 7344SOL     OW33493   3.369   4.612  14.377 -0.0867  0.5419  0.0034
 7344SOL    HW133494   3.442   4.550  14.377 -0.3484  0.2297 -0.0425
 7344SOL    HW233495   3.293   4.566  14.413  0.2730 -0.8162 -0.9563
 7345SOL     OW33496   0.820   0.320   5.239  0.0819  0.1731  0.1940
 7345SOL    HW133497   0.815   0.241   5.185  1.7402  1.0251 -1.2161
 7345SOL    HW233498   0.913   0.329   5.219 -0.0788 -0.1653 -0.7101
 7346SOL     OW33499   3.722   3.335  10.599  1.1024  0.1414 -0.0107
 7346SOL    HW133500   3.713   3.285  10.518  0.2835  0.5094 -0.1418
 7346SOL    HW233501   3.722   3.425  10.567  1.1138  0.1748  0.0816
 7347SOL     OW33502   3.399   2.489   6.593  0.4288 -0.1349 -0.5518
 7347SOL    HW133503   3.364   2.529   6.513  0.3600  0.1413 -0.3855
 7347SOL    HW233504   3.426   2.566   6.644  1.0201 -0.2816 -0.6375
 7348SOL     OW33505   1.697   2.349  11.815  0.2136  0.0721 -0.7130
 7348SOL    HW133506   1.695   2.342  11.719 -2.2547  0.9874 -0.7377
 7348SOL    HW233507   1.643   2.426  11.834  0.9960  0.0997  1.3860
 7349SOL     OW33508   1.198   0.493  11.345 -0.5696  0.4321 -0.3977
 7349SOL    HW133509   1.117   0.443  11.338 -0.9974  1.3028 -1.6736
 7349SOL    HW233510   1.182   0.586  11.327 -2.4617  0.3112  0.6449
 7350SOL     OW33511   1.294   2.314   7.812 -0.0857 -0.6335  0.1727
 7350SOL    HW133512   1.348   2.277   7.742  0.7562  0.2970  0.3344
 7350SOL    HW233513   1.354   2.387   7.827 -0.8461 -0.2458  1.3449
 7351SOL     OW33514   2.575   2.057  12.033  0.0706  0.6515 -0.5431
 7351SOL    HW133515   2.580   2.011  12.117  1.9567 -0.3133 -1.1964
 7351SOL    HW233516   2.611   2.141  12.065  0.6284  1.0251 -2.1747
 7352SOL     OW33517   4.375   3.817   9.194  0.1371 -0.1753 -0.3208
 7352SOL    HW133518   4.359   3.908   9.220  0.5837  0.2276 -1.4883
 7352SOL    HW233519   4.458   3.828   9.148 -0.0545 -0.6718 -0.7779
 7353SOL     OW33520   1.873   0.389   5.863 -0.8424  0.0372  0.2056
 7353SOL    HW133521   1.875   0.318   5.928  1.0341 -1.6033 -1.6293
 7353SOL    HW233522   1.923   0.348   5.792  0.0059  0.2253  0.6938
 7354SOL     OW33523   1.922   4.583   4.922  0.3468 -0.2055 -0.1305
 7354SOL    HW133524   1.941   4.492   4.946 -2.9059 -1.5699 -2.6833
 7354SOL    HW233525   1.941   4.578   4.828 -1.5004 -1.9511 -0.4237
 7355SOL     OW33526   0.637   2.291  15.061  0.4561  0.4944 -0.5548
 7355SOL    HW133527   0.548   2.311  15.032  1.0030  1.9096 -1.2850
 7355SOL    HW233528   0.691   2.357  15.017  0.3051  0.4119 -0.8631
 7356SOL     OW33529   0.536   3.309   9.771  0.2316  0.3114  0.1814
 7356SOL    HW133530   0.516   3.327   9.863  1.3509  1.8479  0.1191
 7356SOL    HW233531   0.549   3.216   9.789 -3.8367 -0.3271 -0.0319
 7357SOL     OW33532   2.135   0.853   4.737 -0.4315 -0.4860 -0.4227
 7357SOL    HW133533   2.066   0.853   4.803 -0.7034 -0.2277 -0.7026
 7357SOL    HW233534   2.110   0.934   4.691 -0.3448  0.0106  0.3981
 7358SOL     OW33535   2.916   3.774  16.012 -0.3354  0.3223  0.1090
 7358SOL    HW133536   2.854   3.780  15.939  2.8478 -2.8803 -2.8262
 7358SOL    HW233537   2.876   3.837  16.071  2.7004  2.2779  0.0488
 7359SOL     OW33538   0.212   3.896   9.524  0.3518  0.6517 -0.3707
 7359SOL    HW133539   0.222   3.810   9.565  3.0381  1.1761  0.1026
 7359SOL    HW233540   0.263   3.877   9.445 -0.4163  0.0433 -0.7153
 7360SOL     OW33541   0.979   1.888   3.921 -0.3063 -0.3616 -0.4070
 7360SOL    HW133542   0.921   1.919   3.991  0.6573  0.9066 -0.1807
 7360SOL    HW233543   0.980   1.962   3.861  2.6391  0.0372  0.1158
 7361SOL     OW33544   3.201   0.117   8.528 -0.0278  0.6167  0.4734
 7361SOL    HW133545   3.152   0.044   8.491 -2.0739  2.3464 -0.2359
 7361SOL    HW233546   3.227   0.081   8.613 -3.1727 -1.9141  0.3635
 7362SOL     OW33547   3.162   0.434  16.963  0.6776  0.3283 -0.1279
 7362SOL    HW133548   3.228   0.492  16.923 -1.5061  2.9754  0.0941
 7362SOL    HW233549   3.085   0.475  16.925  0.6053  1.1056  0.8642
 7363SOL     OW33550   1.682   2.601  15.371 -0.2178 -0.0229 -0.3629
 7363SOL    HW133551   1.705   2.630  15.459 -2.2949  1.2038 -0.2209
 7363SOL    HW233552   1.607   2.658  15.354 -1.6079 -1.2944  1.3936
 7364SOL     OW33553   4.555   0.688  15.967  0.8760 -0.0513 -0.2257
 7364SOL    HW133554   4.556   0.676  16.062 -0.3319 -0.2735 -0.2471
 7364SOL    HW233555   4.469   0.654  15.942  1.7913 -0.7686 -2.3657
 7365SOL     OW33556   0.765   1.664  15.182  0.2175 -0.5896 -0.4204
 7365SOL    HW133557   0.763   1.619  15.097  0.0074  1.5254 -1.5404
 7365SOL    HW233558   0.706   1.610  15.234 -0.2631  0.1665 -0.1831
 7366SOL     OW33559   1.471   0.966   3.882  0.2145  0.5445  0.2226
 7366SOL    HW133560   1.443   0.968   3.791 -0.2699  0.4102  0.3648
 7366SOL    HW233561   1.471   0.871   3.897  1.0096  0.6384  0.8156
 7367SOL     OW33562   2.516   0.504   5.171 -0.1819 -0.1843 -0.0278
 7367SOL    HW133563   2.583   0.566   5.201 -0.5883 -1.3040  3.2260
 7367SOL    HW233564   2.469   0.482   5.252  1.4953  1.2010  1.3087
 7368SOL     OW33565   1.430   4.655   8.772 -0.2130 -0.0414  0.1615
 7368SOL    HW133566   1.362   4.722   8.780  1.3594  1.4479  0.9896
 7368SOL    HW233567   1.504   4.682   8.825 -1.0119  2.8102 -0.1817
 7369SOL     OW33568   4.479   3.799   6.911 -0.0172 -0.2666 -0.2613
 7369SOL    HW133569   4.537   3.767   6.980  2.0485  4.2542  0.0930
 7369SOL    HW233570   4.395   3.766   6.945  1.3961 -2.4791  1.0875
 7370SOL     OW33571   0.763   2.521  13.732 -0.9043  0.6580 -0.1765
 7370SOL    HW133572   0.833   2.583  13.717 -2.7557  2.5547 -0.8661
 7370SOL    HW233573   0.735   2.548  13.820 -1.6374  0.5613 -0.3750
 7371SOL     OW33574   2.336   3.055   3.602  0.2381  0.0194 -0.1041
 7371SOL    HW133575   2.374   2.970   3.622 -0.5011 -0.5855 -1.3231
 7371SOL    HW233576   2.312   3.050   3.510 -0.4796 -0.9906  0.1430
 7372SOL     OW33577   3.726   2.262   3.811  0.0528  0.1776 -0.1091
 7372SOL    HW133578   3.810   2.234   3.847  0.5757  0.2309 -1.3143
 7372SOL    HW233579   3.755   2.341   3.765  1.0307  0.3892  0.8626
 7373SOL     OW33580   0.058   3.894   4.133  0.2011  0.5831  0.5294
 7373SOL    HW133581   0.027   3.803   4.140 -0.5968  0.7349 -1.1088
 7373SOL    HW233582   0.002   3.931   4.201 -0.3497 -1.9864  1.4730
 7374SOL     OW33583   3.911   1.076   0.858 -0.0349 -0.2758 -0.3425
 7374SOL    HW133584   3.888   1.009   0.922  0.2844  1.2042  1.3404
 7374SOL    HW233585   3.937   1.144   0.921  1.5081 -2.3059  1.2155
 7375SOL     OW33586   2.869   0.936   8.184 -0.1001  0.1845  0.1682
 7375SOL    HW133587   2.835   1.026   8.187 -0.5481 -0.0248  1.3203
 7375SOL    HW233588   2.787   0.893   8.209 -0.0515  0.3293  0.5835
 7376SOL     OW33589   4.293   2.980   1.871  0.1286  0.0466 -0.3949
 7376SOL    HW133590   4.232   2.912   1.899 -0.6280  0.1899 -1.6618
 7376SOL    HW233591   4.369   2.923   1.883 -0.5256 -1.1977 -2.2001
 7377SOL     OW33592   1.791   1.841  11.158 -0.8559  0.2209 -0.2734
 7377SOL    HW133593   1.847   1.917  11.168 -1.5380  0.5444  1.0806
 7377SOL    HW233594   1.776   1.830  11.064  0.7379 -0.0910 -0.4936
 7378SOL     OW33595   3.619   4.024  10.637 -0.1525  0.0177  0.1713
 7378SOL    HW133596   3.539   4.070  10.661 -0.2365 -0.1260  0.1652
 7378SOL    HW233597   3.642   3.965  10.709 -0.5114  0.6377  0.8018
 7379SOL     OW33598   0.205   4.409   3.511  0.2112 -0.2712  0.1526
 7379SOL    HW133599   0.153   4.447   3.582 -0.9192 -1.2387 -0.1535
 7379SOL    HW233600   0.217   4.320   3.544 -1.5317 -0.5631 -0.0116
 7380SOL     OW33601   4.372   1.772   4.101  0.5456 -0.1473  0.3928
 7380SOL    HW133602   4.334   1.855   4.072  1.8645  0.6460  0.9261
 7380SOL    HW233603   4.460   1.804   4.121  0.4825 -0.0759  0.5504
 7381SOL     OW33604   3.000   4.249   7.226  0.0645  0.3942  0.3615
 7381SOL    HW133605   2.910   4.233   7.197 -0.0072 -2.4921  2.1433
 7381SOL    HW233606   3.049   4.232   7.146  0.4112 -1.3460  0.9272
 7382SOL     OW33607   3.756   0.484   9.507 -0.3955 -0.5847  0.1458
 7382SOL    HW133608   3.808   0.527   9.575 -2.6295  0.7555  1.0022
 7382SOL    HW233609   3.710   0.417   9.557  0.1614 -2.5562 -1.9932
 7383SOL     OW33610   0.554   1.605  16.797 -0.2629 -0.2341 -0.4062
 7383SOL    HW133611   0.493   1.577  16.865  0.2658  0.5047  0.3775
 7383SOL    HW233612   0.575   1.692  16.832  0.0236 -1.2003  1.8206
 7384SOL     OW33613   0.727   0.123   8.495 -0.3874  0.0944  0.4402
 7384SOL    HW133614   0.767   0.202   8.458 -1.5585  0.0866 -0.8461
 7384SOL    HW233615   0.732   0.057   8.426  1.6785 -0.0459  0.7297
 7385SOL     OW33616   3.663   1.110  10.751  0.7042 -0.1864 -0.2457
 7385SOL    HW133617   3.691   1.199  10.730  2.0866 -0.6329 -0.2808
 7385SOL    HW233618   3.713   1.085  10.828  0.6606 -0.1325 -0.2002
 7386SOL     OW33619   3.515   3.704   2.959  0.0155  0.1534 -0.4052
 7386SOL    HW133620   3.482   3.636   2.899  0.6868  0.5110 -1.1791
 7386SOL    HW233621   3.555   3.656   3.031 -0.4326 -2.1039 -1.6392
 7387SOL     OW33622   3.888   3.568   5.517 -0.5215 -0.0761  0.2688
 7387SOL    HW133623   3.820   3.607   5.462  1.0823  2.1287 -0.1646
 7387SOL    HW233624   3.839   3.546   5.596 -1.5407 -1.4514 -0.7498
 7388SOL     OW33625   0.890   3.401   0.637 -0.1025  0.2845 -0.2939
 7388SOL    HW133626   0.876   3.362   0.551 -3.0314  1.3916 -0.3211
 7388SOL    HW233627   0.859   3.490   0.621  0.3167  0.3675 -0.6317
 7389SOL     OW33628   3.110   4.520  10.841  0.0700 -0.1164 -0.3484
 7389SOL    HW133629   3.016   4.523  10.856  0.5972  0.7643  2.7003
 7389SOL    HW233630   3.118   4.572  10.761 -0.6394  2.5952  1.3636
 7390SOL     OW33631   1.088   0.032   7.808 -0.0728 -0.4123 -0.3214
 7390SOL    HW133632   1.011   0.052   7.756  0.9156  3.2225 -0.4308
 7390SOL    HW233633   1.142   4.699   7.753  1.2407  0.1899  0.3209
 7391SOL     OW33634   2.846   1.667   1.860  0.4756 -0.3699  0.1302
 7391SOL    HW133635   2.769   1.718   1.837 -0.3298 -0.9408  1.5693
 7391SOL    HW233636   2.850   1.616   1.778 -0.0265 -2.5027  1.4263
 7392SOL     OW33637   4.677   3.093  15.200 -0.3438  0.0056  0.4037
 7392SOL    HW133638   4.664   3.182  15.168 -1.6574 -1.1302 -2.2696
 7392SOL    HW233639   4.670   3.093  15.295  1.2168  0.9724  0.5156
 7393SOL     OW33640   3.320   3.290  11.862  0.1312 -0.2356  0.4206
 7393SOL    HW133641   3.411   3.300  11.891  0.2975 -0.0783 -0.1579
 7393SOL    HW233642   3.292   3.379  11.882 -1.1085 -0.2562 -1.3263
 7394SOL     OW33643   3.368   4.044   6.747 -0.3050  0.1781 -0.0156
 7394SOL    HW133644   3.373   4.007   6.835 -3.3482  0.5574  0.3374
 7394SOL    HW233645   3.459   4.024   6.727 -0.2021  0.1916  0.4275
 7395SOL     OW33646   2.867   1.810   5.703 -0.4270 -0.2896  0.6549
 7395SOL    HW133647   2.775   1.821   5.728 -1.6016 -1.4700 -3.1024
 7395SOL    HW233648   2.875   1.715   5.698 -3.3047 -0.6020  1.9803
 7396SOL     OW33649   3.862   0.529   3.343 -0.0863  0.1639  0.3861
 7396SOL    HW133650   3.933   0.590   3.360  2.1557 -1.7734 -2.0970
 7396SOL    HW233651   3.895   0.452   3.296  0.3327  0.8282 -0.3898
 7397SOL     OW33652   1.917   3.630   9.643  0.4060  0.1433  0.0440
 7397SOL    HW133653   1.915   3.710   9.590 -1.7060 -1.4974 -2.3466
 7397SOL    HW233654   1.872   3.663   9.721 -0.8969 -0.4884 -0.4425
 7398SOL     OW33655   3.912   1.613  10.897  0.0316  0.1108  0.2464
 7398SOL    HW133656   3.926   1.654  10.983  0.1948 -0.2699  0.4032
 7398SOL    HW233657   3.977   1.650  10.838 -0.1760 -1.4154 -0.9247
 7399SOL     OW33658   2.304   2.108   3.781 -0.5224 -0.5833 -0.7330
 7399SOL    HW133659   2.246   2.090   3.854 -2.4823 -0.3162 -2.2207
 7399SOL    HW233660   2.318   2.203   3.785 -0.7751 -0.4990 -1.7381
 7400SOL     OW33661   4.561   0.538   8.405 -0.0843 -0.7168  0.0747
 7400SOL    HW133662   4.560   0.460   8.459  0.0560 -0.2307  0.7804
 7400SOL    HW233663   4.535   0.602   8.471  2.7787 -0.6043  1.0626
 7401SOL     OW33664   1.454   3.171   5.111  0.1864  0.9433  0.2072
 7401SOL    HW133665   1.520   3.199   5.049  0.8852  0.0962  0.5646
 7401SOL    HW233666   1.412   3.255   5.128  0.2160  0.6972  1.5327
 7402SOL     OW33667   2.279   0.502  12.104 -0.5356  0.3333  0.3116
 7402SOL    HW133668   2.365   0.477  12.070 -1.1393  1.3157 -1.9079
 7402SOL    HW233669   2.292   0.475  12.196 -3.1187 -0.4764  0.4361
 7403SOL     OW33670   0.597   2.116   8.382  0.4903  0.1296 -0.6219
 7403SOL    HW133671   0.623   2.086   8.295 -3.5976 -1.4773 -1.3175
 7403SOL    HW233672   0.678   2.140   8.427 -0.9355  0.6208  1.7028
 7404SOL     OW33673   1.686   0.932  10.465  0.3536 -0.1687 -0.4434
 7404SOL    HW133674   1.740   0.854  10.478 -0.4544 -0.7823 -0.7609
 7404SOL    HW233675   1.699   0.947  10.372  1.1415 -1.1363 -0.4868
 7405SOL     OW33676   3.165   3.327   7.461 -0.9439 -0.1913  0.5689
 7405SOL    HW133677   3.144   3.342   7.369  3.9453 -2.1165 -0.8790
 7405SOL    HW233678   3.240   3.269   7.449 -1.5024 -0.2774 -2.5607
 7406SOL     OW33679   4.285   2.809   5.025  0.1907  0.8056 -0.1792
 7406SOL    HW133680   4.202   2.837   4.987 -0.0068  2.5240  1.4949
 7406SOL    HW233681   4.307   2.888   5.075 -0.0407  1.6626 -1.4330
 7407SOL     OW33682   3.511   0.125   5.813  0.5425 -0.3742 -0.4897
 7407SOL    HW133683   3.515   0.042   5.764  1.4018  0.8615 -2.5096
 7407SOL    HW233684   3.525   0.194   5.748 -1.6617 -1.0899 -1.7106
 7408SOL     OW33685   1.844   3.785   7.860  0.4663 -0.7414 -0.1703
 7408SOL    HW133686   1.848   3.776   7.955  1.9959  0.9540 -0.0689
 7408SOL    HW233687   1.753   3.763   7.838  0.0396  1.5823 -0.7133
 7409SOL     OW33688   1.969   4.306   4.950 -0.1837  0.1713 -0.1084
 7409SOL    HW133689   2.063   4.286   4.952 -0.7113 -2.3403 -1.0007
 7409SOL    HW233690   1.938   4.277   5.036  2.0911 -0.0096  0.6632
 7410SOL     OW33691   4.696   3.045   7.716  0.0902 -0.0255  0.0167
 7410SOL    HW133692   0.003   2.988   7.647 -2.8631 -0.5389 -0.8943
 7410SOL    HW233693   0.025   3.124   7.703 -1.0720  0.5688 -1.1607
 7411SOL     OW33694   3.386   2.106   3.048  0.7525 -0.0143  0.6124
 7411SOL    HW133695   3.402   2.123   3.141  1.7390 -1.8946  0.7847
 7411SOL    HW233696   3.415   2.184   3.000 -0.7981 -0.0981 -0.4397
 7412SOL     OW33697   1.930   1.262   6.660 -0.0144  0.2438  0.7691
 7412SOL    HW133698   2.018   1.277   6.627 -0.2134 -0.4148 -0.0471
 7412SOL    HW233699   1.877   1.262   6.580  1.1211  1.2751  0.0027
 7413SOL     OW33700   1.168   2.100   0.806 -0.0042  0.0330 -0.0169
 7413SOL    HW133701   1.202   2.142   0.727 -0.3365 -0.6493 -0.5250
 7413SOL    HW233702   1.197   2.160   0.875 -0.9814 -0.1880  0.5809
 7414SOL     OW33703   2.058   4.055   6.319 -0.1333 -0.1566  0.0243
 7414SOL    HW133704   2.076   3.979   6.375  1.0616  0.4180  0.4411
 7414SOL    HW233705   2.145   4.096   6.320  0.5921 -1.6710 -0.3894
 7415SOL     OW33706   2.034   3.812  14.747 -0.1772 -0.1383 -0.1137
 7415SOL    HW133707   2.058   3.720  14.748  1.2634  0.2384 -0.6908
 7415SOL    HW233708   2.048   3.823  14.841 -0.0449 -1.4304  0.0144
 7416SOL     OW33709   1.173   1.541  15.550  0.4216  0.2243  0.0478
 7416SOL    HW133710   1.172   1.606  15.480 -0.5762 -0.3696 -0.4887
 7416SOL    HW233711   1.214   1.603  15.610 -0.3201  0.2642  0.5162
 7417SOL     OW33712   3.354   0.232   4.558  0.2094  0.4757  0.5130
 7417SOL    HW133713   3.442   0.258   4.532 -0.8937 -0.2844 -3.9944
 7417SOL    HW233714   3.303   0.251   4.480 -0.9457 -0.3761  1.0509
 7418SOL     OW33715   0.179   1.359   7.890 -0.1237 -0.7610 -0.1332
 7418SOL    HW133716   0.131   1.441   7.874  3.3552  1.0441 -1.2818
 7418SOL    HW233717   0.236   1.354   7.814  0.6573 -2.3469  0.5564
 7419SOL     OW33718   0.609   3.457  14.330  0.2546 -0.4262  0.1314
 7419SOL    HW133719   0.640   3.383  14.278 -0.0324 -0.9670  0.7321
 7419SOL    HW233720   0.691   3.495  14.361 -0.0320 -0.4752  0.9564
 7420SOL     OW33721   3.879   1.184   9.549 -0.0986 -0.2282 -0.0787
 7420SOL    HW133722   3.786   1.167   9.560 -0.1742 -0.8868 -1.5967
 7420SOL    HW233723   3.910   1.143   9.629 -0.6300  1.2518  0.8719
 7421SOL     OW33724   4.401   4.207   5.791 -0.2287 -0.3531 -0.1901
 7421SOL    HW133725   4.433   4.213   5.881  1.0930  0.5281 -0.7164
 7421SOL    HW233726   4.331   4.143   5.802 -2.6544  2.4259  0.6654
 7422SOL     OW33727   3.968   0.342  16.730 -0.1094  0.1826 -0.1353
 7422SOL    HW133728   4.024   0.312  16.802  1.6113  0.9592 -1.1423
 7422SOL    HW233729   3.894   0.385  16.773  0.1307 -2.4994  2.9671
 7423SOL     OW33730   2.534   3.063   0.920 -0.0363  0.8057 -0.3305
 7423SOL    HW133731   2.620   3.022   0.910 -1.3533 -1.9500 -0.4207
 7423SOL    HW233732   2.495   3.046   0.834  1.2581 -0.0200 -0.7529
 7424SOL     OW33733   3.309   1.383   2.855  0.6159 -0.7285  0.4278
 7424SOL    HW133734   3.379   1.318   2.852  0.6333 -0.6785 -0.1314
 7424SOL    HW233735   3.268   1.363   2.771 -1.1550  0.9456  0.8990
 7425SOL     OW33736   0.032   0.977   4.510  0.1729  0.2458  0.3102
 7425SOL    HW133737   0.100   1.011   4.451 -0.4054 -1.9520 -1.6531
 7425SOL    HW233738   4.718   1.059   4.540 -1.1931 -0.6004  0.8954
 7426SOL     OW33739   0.132   3.080   2.274 -0.5683 -0.5225 -0.1306
 7426SOL    HW133740   0.222   3.079   2.243  1.2207  0.9568  5.0197
 7426SOL    HW233741   0.115   3.169   2.242 -1.8200 -0.1442  1.5524
 7427SOL     OW33742   2.948   4.387   6.397 -0.2470 -0.0402 -0.4800
 7427SOL    HW133743   2.939   4.309   6.451  1.5512 -0.5794 -0.9640
 7427SOL    HW233744   2.992   4.352   6.319  0.5721 -1.4976  0.6325
 7428SOL     OW33745   2.088   0.720   2.281 -0.0184  0.1699 -0.4305
 7428SOL    HW133746   2.167   0.668   2.268  0.6625  1.2917 -0.6785
 7428SOL    HW233747   2.116   0.797   2.329 -3.5672  2.1220 -1.4420
 7429SOL     OW33748   1.568   0.499  14.538  0.1783  0.3086 -0.1797
 7429SOL    HW133749   1.606   0.567  14.483  1.1398 -0.2489 -0.2235
 7429SOL    HW233750   1.629   0.427  14.519 -0.6400 -0.4428  0.0587
 7430SOL     OW33751   0.622   2.829   2.421  0.6126  0.6047  0.0770
 7430SOL    HW133752   0.565   2.872   2.484 -1.3990 -3.1950  0.8546
 7430SOL    HW233753   0.673   2.776   2.483 -0.8961  2.0650  2.5622
 7431SOL     OW33754   0.954   1.275  12.636 -0.3460  0.6839 -0.4439
 7431SOL    HW133755   0.953   1.349  12.696 -0.3402  0.0151  0.3878
 7431SOL    HW233756   0.979   1.209  12.701  1.3852  2.1121  0.3147
 7432SOL     OW33757   3.447   1.426   7.572  0.0315 -0.0572 -0.0256
 7432SOL    HW133758   3.488   1.511   7.588 -0.4483  0.2559 -0.4647
 7432SOL    HW233759   3.384   1.423   7.644  0.3572 -0.5092  0.2340
 7433SOL     OW33760   4.503   4.568   4.163  0.0716 -1.2701 -0.2864
 7433SOL    HW133761   4.520   4.616   4.244  1.6773 -0.1344 -1.2933
 7433SOL    HW233762   4.593   4.556   4.131  0.5644  0.0619  0.5774
 7434SOL     OW33763   1.947   4.574  16.203 -0.6773 -0.2495 -0.1008
 7434SOL    HW133764   1.877   4.631  16.171 -0.6472 -0.2461 -0.1605
 7434SOL    HW233765   2.022   4.631  16.192  0.5370 -2.4694 -3.3533
 7435SOL     OW33766   2.861   4.381   1.982 -0.0095  0.0739 -0.7385
 7435SOL    HW133767   2.916   4.400   1.906  1.6486 -0.1265  0.4065
 7435SOL    HW233768   2.848   4.291   1.951 -0.6977  0.0771 -0.4616
 7436SOL     OW33769   0.444   1.925   8.829 -0.0565 -0.2199  0.2587
 7436SOL    HW133770   0.533   1.959   8.820  0.7426 -2.2204  0.4592
 7436SOL    HW233771   0.463   1.831   8.833 -0.1671 -0.2348  0.4433
 7437SOL     OW33772   0.675   0.620   7.737 -0.1904 -0.4893  0.0598
 7437SOL    HW133773   0.597   0.626   7.792 -1.5967 -0.8852 -1.9177
 7437SOL    HW233774   0.693   0.713   7.722 -0.8195 -0.0242  2.1916
 7438SOL     OW33775   4.532   4.103  12.129 -0.3326  0.1369 -0.5323
 7438SOL    HW133776   4.471   4.031  12.146 -1.5561  1.4050  0.4877
 7438SOL    HW233777   4.586   4.061  12.063 -1.3602 -0.0775 -1.2449
 7439SOL     OW33778   4.027   3.398  13.553  0.0397  0.4880 -0.5954
 7439SOL    HW133779   4.004   3.348  13.632 -0.1320  1.0799 -0.2710
 7439SOL    HW233780   4.107   3.432  13.593 -1.0477  0.6253  1.5006
 7440SOL     OW33781   1.981   2.035  16.008 -0.2363 -0.2203  0.3498
 7440SOL    HW133782   2.005   1.973  16.078  1.2278 -0.2285 -0.1655
 7440SOL    HW233783   2.000   1.986  15.929 -0.4382 -0.9748  0.7664
 7441SOL     OW33784   4.184   1.239  12.981  0.1405 -0.5911  0.2943
 7441SOL    HW133785   4.268   1.264  13.019 -0.9305  0.7968  1.7569
 7441SOL    HW233786   4.211   1.178  12.913  1.3475 -0.2413  0.4505
 7442SOL     OW33787   2.654   3.331  15.348 -0.1642  0.2933  0.0572
 7442SOL    HW133788   2.586   3.285  15.298 -0.9366  1.3771  0.1245
 7442SOL    HW233789   2.625   3.328  15.439 -0.8560  1.7527 -0.1246
 7443SOL     OW33790   0.400   0.308  15.742  0.6039  0.3444 -0.0162
 7443SOL    HW133791   0.383   0.217  15.716 -0.2417  0.4974  0.0190
 7443SOL    HW233792   0.317   0.327  15.785  1.2727  0.4617  1.2119
 7444SOL     OW33793   3.738   4.010   5.149  0.6584  0.1195  0.0415
 7444SOL    HW133794   3.782   3.926   5.162 -0.1402 -0.2967  0.0538
 7444SOL    HW233795   3.670   3.983   5.088 -1.4900  0.6671  2.2069
 7445SOL     OW33796   2.709   0.356   3.448 -0.3149 -0.2669  0.5498
 7445SOL    HW133797   2.693   0.263   3.465  0.5768 -0.6809 -0.8432
 7445SOL    HW233798   2.678   0.357   3.357 -0.2149 -2.4926  0.4761
 7446SOL     OW33799   4.077   4.071   3.891  0.5478  0.0594 -0.2687
 7446SOL    HW133800   4.163   4.074   3.933  0.2113 -1.8353  0.5364
 7446SOL    HW233801   4.096   4.034   3.805 -0.6152 -1.6410  0.2095
 7447SOL     OW33802   1.401   4.304   4.060  0.5078 -0.7273 -0.1700
 7447SOL    HW133803   1.392   4.350   3.976  2.7396 -0.0946 -0.0824
 7447SOL    HW233804   1.308   4.316   4.078  0.8935  0.0829  1.2621
 7448SOL     OW33805   3.626   2.303   9.748 -0.4902  0.1612 -0.4114
 7448SOL    HW133806   3.628   2.272   9.838 -1.8552  0.7235 -0.1848
 7448SOL    HW233807   3.597   2.393   9.764  0.7163  0.8609 -2.2323
 7449SOL     OW33808   0.131   1.938   3.247 -0.2852 -0.4006  0.6731
 7449SOL    HW133809   0.146   1.844   3.244 -2.3024 -0.6771 -1.1319
 7449SOL    HW233810   0.097   1.954   3.159  1.0990 -0.1147  0.2060
 7450SOL     OW33811   1.451   3.564  15.468  0.8596 -0.0025  0.6584
 7450SOL    HW133812   1.435   3.486  15.522 -3.0086 -0.0010 -0.4492
 7450SOL    HW233813   1.482   3.527  15.386 -0.9328 -1.4048  0.5967
 7451SOL     OW33814   1.582   2.093  11.922 -0.5049  0.1154 -0.3859
 7451SOL    HW133815   1.627   2.169  11.884 -1.8940  0.1268 -2.0456
 7451SOL    HW233816   1.523   2.055  11.857  0.3755  0.9262 -1.6816
 7452SOL     OW33817   1.891   0.983   5.775 -0.1056  0.0905  0.2530
 7452SOL    HW133818   1.932   1.070   5.780 -0.0050 -0.0386  1.7580
 7452SOL    HW233819   1.809   0.995   5.728  1.0909  0.7301 -1.6883
 7453SOL     OW33820   3.681   2.052   5.191  0.0145 -0.0442 -0.5987
 7453SOL    HW133821   3.642   2.077   5.107  2.1054  0.6037 -1.3852
 7453SOL    HW233822   3.615   2.011   5.247  1.9665 -1.0660  0.9577
 7454SOL     OW33823   2.104   2.295  12.229 -0.4748 -0.0808 -0.2880
 7454SOL    HW133824   2.101   2.282  12.324 -0.4425  1.1697 -0.1174
 7454SOL    HW233825   2.011   2.283  12.208 -0.1713 -1.2433 -0.9863
 7455SOL     OW33826   0.555   1.921   2.246 -0.5268 -0.0679  0.5806
 7455SOL    HW133827   0.599   1.894   2.326  2.5629 -0.0197 -1.0982
 7455SOL    HW233828   0.612   1.989   2.209  0.3816 -0.2227  1.7254
 7456SOL     OW33829   3.614   4.559   9.945  0.6320  0.2051  0.3953
 7456SOL    HW133830   3.582   4.571  10.034 -2.3621  0.6227 -0.7332
 7456SOL    HW233831   3.698   4.515   9.958  1.5598  1.5608 -1.0646
 7457SOL     OW33832   3.994   2.215   9.247  0.2846  0.0926  0.0491
 7457SOL    HW133833   3.933   2.246   9.181  2.1432  0.5241 -1.4386
 7457SOL    HW233834   3.941   2.147   9.289  0.6269  0.1335  0.5488
 7458SOL     OW33835   3.967   4.457  12.689  0.2959  0.2359 -0.4339
 7458SOL    HW133836   3.880   4.433  12.659  1.0741 -2.5754 -0.4681
 7458SOL    HW233837   3.982   4.401  12.765  2.0103  1.3917  0.0941
 7459SOL     OW33838   1.456   1.049  11.228  0.2024 -0.3147 -0.3370
 7459SOL    HW133839   1.468   1.007  11.313 -0.7518 -3.5834 -1.8072
 7459SOL    HW233840   1.542   1.042  11.186  0.7378  3.2836  0.1654
 7460SOL     OW33841   0.527   1.285   3.783  0.1543 -0.4902 -0.2465
 7460SOL    HW133842   0.609   1.335   3.787  0.9098 -1.5420 -3.0684
 7460SOL    HW233843   0.479   1.319   3.709  1.0469 -0.2358 -0.7089
 7461SOL     OW33844   4.594   3.973   1.752  0.2840  0.2039 -0.2949
 7461SOL    HW133845   4.671   3.929   1.715 -1.1056 -1.4112 -1.2672
 7461SOL    HW233846   4.614   4.066   1.746 -1.7752  0.5349 -1.7003
 7462SOL     OW33847   4.482   4.521  10.345  0.3961 -0.2479  0.1369
 7462SOL    HW133848   4.561   4.479  10.380  2.0309  1.2658 -1.7251
 7462SOL    HW233849   4.429   4.445  10.322 -1.3048  0.9267  0.1499
 7463SOL     OW33850   1.946   3.077  11.046  0.2859  0.0755  0.0752
 7463SOL    HW133851   2.025   3.100  11.095 -0.8336  0.7912  1.5699
 7463SOL    HW233852   1.884   3.062  11.118 -1.0251  0.5217 -0.9674
 7464SOL     OW33853   1.179   3.253   6.793 -0.0209 -0.1096 -0.1462
 7464SOL    HW133854   1.087   3.237   6.813  0.3933 -0.7852  1.2057
 7464SOL    HW233855   1.194   3.165   6.759 -2.1843 -1.0231  1.2801
 7465SOL     OW33856   1.472   4.587  12.489 -0.3059  0.0987  0.2363
 7465SOL    HW133857   1.441   4.605  12.400 -2.3325  0.9877  1.1223
 7465SOL    HW233858   1.411   4.514  12.499  0.4012 -0.2743  1.7463
 7466SOL     OW33859   1.887   0.283   8.072  0.1828 -0.3202 -0.1826
 7466SOL    HW133860   1.833   0.347   8.119  0.7467 -1.0947  1.5124
 7466SOL    HW233861   1.970   0.316   8.106 -0.5494  1.4107 -0.0516
 7467SOL     OW33862   2.568   1.295   1.775  0.4557 -0.2865  0.1788
 7467SOL    HW133863   2.564   1.383   1.813 -2.1610 -0.5598  0.5417
 7467SOL    HW233864   2.498   1.249   1.820  0.9676 -0.2694  0.9935
 7468SOL     OW33865   1.382   1.479   7.909  0.2739 -0.3951  0.8327
 7468SOL    HW133866   1.410   1.388   7.904  1.1602  0.0517 -2.2507
 7468SOL    HW233867   1.307   1.467   7.968  0.6812 -1.4348  1.1264
 7469SOL     OW33868   1.550   1.804   8.199 -0.0770 -0.3185  0.5910
 7469SOL    HW133869   1.524   1.806   8.292 -0.6943 -1.9668  0.4490
 7469SOL    HW233870   1.596   1.888   8.202 -0.3026 -0.1587 -0.4785
 7470SOL     OW33871   1.012   2.860   7.455 -0.2708 -0.2706 -0.3932
 7470SOL    HW133872   0.992   2.773   7.418  1.5011 -0.4756 -0.8504
 7470SOL    HW233873   0.952   2.910   7.399  0.2219 -1.5282 -2.0470
 7471SOL     OW33874   0.365   2.363  10.534  0.0057  0.1859  0.0995
 7471SOL    HW133875   0.351   2.320  10.618 -0.1684  0.4618  0.2124
 7471SOL    HW233876   0.429   2.298  10.505  0.2754 -0.1263  1.3764
 7472SOL     OW33877   1.803   4.588   7.049  1.3661  0.7287  0.3125
 7472SOL    HW133878   1.815   4.526   7.121  2.8321  3.0023  2.0503
 7472SOL    HW233879   1.830   4.528   6.979 -1.4227 -1.6670  1.3223
 7473SOL     OW33880   4.343   3.707   1.954 -0.2245 -0.4356  0.7925
 7473SOL    HW133881   4.295   3.731   2.034  0.8212 -0.2426  1.3674
 7473SOL    HW233882   4.432   3.738   1.968 -0.5490  0.6016  0.5539
 7474SOL     OW33883   3.815   0.643   6.906  0.4317 -0.3257 -0.2168
 7474SOL    HW133884   3.784   0.561   6.944  0.2172  1.0432  2.5881
 7474SOL    HW233885   3.853   0.681   6.985  1.1135  1.5294 -1.4196
 7475SOL     OW33886   2.789   3.599   0.620 -0.2970  0.7357 -0.0741
 7475SOL    HW133887   2.762   3.691   0.613  1.6667  1.3119 -0.1824
 7475SOL    HW233888   2.847   3.589   0.696  0.8137  2.8067 -0.6417
 7476SOL     OW33889   3.840   0.149  10.875 -0.2415  0.5986 -0.5970
 7476SOL    HW133890   3.823   0.100  10.956 -2.1056  0.8754 -0.8187
 7476SOL    HW233891   3.911   0.092  10.847 -0.1888 -0.2500  1.2275
 7477SOL     OW33892   2.520   2.788   5.612 -0.4742  0.4227  0.1021
 7477SOL    HW133893   2.488   2.712   5.660 -0.5727 -0.8006 -1.9207
 7477SOL    HW233894   2.614   2.772   5.614 -0.2706  1.6992  1.0467
 7478SOL     OW33895   1.913   4.613   7.689  0.0599 -0.0859  0.3119
 7478SOL    HW133896   1.851   4.614   7.616  0.4077 -0.4170  0.0125
 7478SOL    HW233897   1.948   4.700   7.671  0.0868  0.1420  1.4884
 7479SOL     OW33898   2.852   3.781   2.777 -0.2283  0.6852  0.8508
 7479SOL    HW133899   2.886   3.864   2.746  2.0003 -0.4683  0.2270
 7479SOL    HW233900   2.835   3.746   2.689  0.3964 -0.4258  1.1736
 7480SOL     OW33901   3.086   2.798   6.358  0.2500 -0.4598 -0.3098
 7480SOL    HW133902   3.155   2.848   6.400  0.0333 -0.2994 -0.1470
 7480SOL    HW233903   3.029   2.867   6.326  0.9918  0.2590 -0.0603
 7481SOL     OW33904   0.592   2.602   7.228  0.1222  0.0859  0.3071
 7481SOL    HW133905   0.563   2.627   7.140 -0.6615  0.8443  0.7847
 7481SOL    HW233906   0.598   2.688   7.270  1.7636  0.4849 -0.7443
 7482SOL     OW33907   3.332   3.615   9.587 -0.0438  0.1701  0.0058
 7482SOL    HW133908   3.269   3.614   9.515 -0.3705  2.8692  0.2664
 7482SOL    HW233909   3.409   3.586   9.538  1.0242  1.2551  1.0314
 7483SOL     OW33910   0.396   3.017  13.570  0.0996 -0.0895 -0.0433
 7483SOL    HW133911   0.370   3.085  13.632  1.7162  1.2870 -0.8681
 7483SOL    HW233912   0.325   3.011  13.505  0.4086  1.9152 -0.5747
 7484SOL     OW33913   3.672   1.920   9.159  0.8693 -0.0951 -0.0824
 7484SOL    HW133914   3.728   1.850   9.127 -0.1062 -0.4514 -1.0245
 7484SOL    HW233915   3.679   1.983   9.088 -2.2077 -0.1933 -0.4780
 7485SOL     OW33916   2.034   2.722   2.713 -0.5557  0.1056 -0.5588
 7485SOL    HW133917   2.048   2.630   2.734 -1.4110  0.3708  1.1474
 7485SOL    HW233918   2.065   2.752   2.799 -1.1826  1.4571 -0.8111
 7486SOL     OW33919   0.796   4.235   2.548 -0.1481  0.6870 -0.7946
 7486SOL    HW133920   0.807   4.142   2.532  1.5898  1.0781 -1.7834
 7486SOL    HW233921   0.718   4.230   2.603  0.9639  0.6923  0.7790
 7487SOL     OW33922   2.676   1.547   6.886  0.1452  0.3319 -0.3761
 7487SOL    HW133923   2.650   1.547   6.978 -3.3836 -2.9193 -1.3824
 7487SOL    HW233924   2.601   1.505   6.845 -0.1101  0.8264 -0.4116
 7488SOL     OW33925   1.726   0.149   5.580 -0.1899 -0.2490  0.1446
 7488SOL    HW133926   1.800   0.153   5.641  1.6633 -0.8118 -2.0948
 7488SOL    HW233927   1.732   0.234   5.537  0.6160 -0.4510 -0.1321
 7489SOL     OW33928   2.025   2.001   8.645  0.2988 -0.4434 -0.1377
 7489SOL    HW133929   2.115   1.993   8.613  0.3746 -1.6183  0.3682
 7489SOL    HW233930   1.968   1.956   8.583 -1.5211  0.7829  0.6442
 7490SOL     OW33931   1.835   2.881  11.408  0.2699  0.4676  0.0927
 7490SOL    HW133932   1.809   2.808  11.351 -1.2301  0.8221  0.3189
 7490SOL    HW233933   1.768   2.948  11.394 -0.8658 -0.5295  0.7786
 7491SOL     OW33934   2.744   0.996   7.821  0.5252  0.4853 -0.3666
 7491SOL    HW133935   2.827   0.977   7.863 -0.6850 -1.6801  1.0597
 7491SOL    HW233936   2.678   0.991   7.891 -0.5926  0.5413 -1.4314
 7492SOL     OW33937   2.424   4.424   9.287 -1.3071  0.0995 -0.1287
 7492SOL    HW133938   2.391   4.399   9.373 -0.6427  0.8030  0.3274
 7492SOL    HW233939   2.452   4.515   9.294 -0.5161 -0.1744  0.1998
 7493SOL     OW33940   2.820   4.274  10.801  0.1519  0.2523  0.0015
 7493SOL    HW133941   2.899   4.224  10.823  0.2559 -0.3891 -1.8106
 7493SOL    HW233942   2.767   4.243  10.874  1.2784 -1.2163  0.2102
 7494SOL     OW33943   1.022   0.658   3.451 -0.0148  0.6298  0.7314
 7494SOL    HW133944   1.109   0.645   3.415  0.0162 -0.1665  1.1108
 7494SOL    HW233945   1.005   0.570   3.484  0.0254  0.0260 -0.8333
 7495SOL     OW33946   2.317   1.480   8.797 -0.1924  0.1592 -0.7448
 7495SOL    HW133947   2.253   1.530   8.848 -0.4324 -0.1539 -0.7368
 7495SOL    HW233948   2.390   1.541   8.808 -0.1959 -0.0624  0.4528
 7496SOL     OW33949   3.882   0.608   2.211 -0.1787  0.7872  0.4130
 7496SOL    HW133950   3.832   0.527   2.203 -1.3645  1.4633  0.9594
 7496SOL    HW233951   3.849   0.666   2.143 -0.4253  2.4524  1.9416
 7497SOL     OW33952   0.498   1.138   2.732  0.1237 -0.0261 -0.0349
 7497SOL    HW133953   0.444   1.195   2.786  0.7647  0.5792 -0.0468
 7497SOL    HW233954   0.580   1.185   2.726  0.7003 -1.1231 -0.8231
 7498SOL     OW33955   1.617   1.696   3.733  0.2652  0.0256  0.0273
 7498SOL    HW133956   1.574   1.612   3.718 -1.8702  1.2787 -0.7854
 7498SOL    HW233957   1.702   1.663   3.705 -0.0090 -0.0359 -0.7343
 7499SOL     OW33958   0.071   1.168   2.400  0.3070 -0.1543  0.1246
 7499SOL    HW133959   0.157   1.160   2.442  0.5954 -2.1464 -0.8357
 7499SOL    HW233960   0.093   1.110   2.327  1.2041 -0.5954  0.7440
 7500SOL     OW33961   4.645   0.597   9.314  0.0826 -0.0955 -0.0137
 7500SOL    HW133962   4.607   0.573   9.230 -0.9041 -0.5026  0.5521
 7500SOL    HW233963   4.570   0.627   9.365 -0.7291  1.9457 -2.4297
 7501SOL     OW33964   4.074   3.088   6.851 -0.5059 -0.2943 -0.3683
 7501SOL    HW133965   4.052   3.136   6.931  2.0163 -2.5098  1.6639
 7501SOL    HW233966   4.034   3.003   6.869  0.3251 -0.6673 -0.2791
 7502SOL     OW33967   2.879   2.069   4.791  0.4728 -0.3825  0.2034
 7502SOL    HW133968   2.843   2.157   4.777  1.6575 -0.0675 -0.8040
 7502SOL    HW233969   2.941   2.045   4.723 -0.9635  1.2234 -1.6599
 7503SOL     OW33970   0.661   0.760   8.592 -0.0815  0.3837  0.0092
 7503SOL    HW133971   0.657   0.795   8.504  1.9142  0.2664 -0.1270
 7503SOL    HW233972   0.741   0.803   8.622 -0.9263 -0.0733  2.9453
 7504SOL     OW33973   1.410   1.697  11.911  0.3875 -0.3663 -0.4212
 7504SOL    HW133974   1.322   1.720  11.881  0.4905 -0.0102 -0.4558
 7504SOL    HW233975   1.414   1.757  11.986  0.2454 -1.1913  0.2440
 7505SOL     OW33976   1.623   2.386   4.315  0.4055  0.0581 -0.1636
 7505SOL    HW133977   1.545   2.337   4.338 -0.9042  1.5635 -1.4452
 7505SOL    HW233978   1.608   2.384   4.220  0.5354  2.4456 -0.2321
 7506SOL     OW33979   1.236   0.332  17.122  0.2379 -0.6105  0.0959
 7506SOL    HW133980   1.255   0.405  17.063  0.5992 -0.3163  0.5791
 7506SOL    HW233981   1.209   0.262  17.063 -3.0850  1.0598 -0.4154
 7507SOL     OW33982   2.795   1.265   9.537 -0.0976  0.3906  0.6631
 7507SOL    HW133983   2.740   1.288   9.613  0.7176  1.8146  0.8268
 7507SOL    HW233984   2.732   1.229   9.475 -0.1243  0.7230  0.4943
 7508SOL     OW33985   0.459   0.952   4.342 -0.2441 -0.0935  0.0337
 7508SOL    HW133986   0.366   0.940   4.325 -0.6890 -1.0641  2.9654
 7508SOL    HW233987   0.463   0.899   4.422 -1.9845 -0.2735 -0.0119
 7509SOL     OW33988   0.957   1.273  13.809 -0.0436 -0.6056  0.2456
 7509SOL    HW133989   0.886   1.261  13.872 -0.9079  2.7333 -0.0900
 7509SOL    HW233990   1.017   1.323  13.864 -1.8335  3.6561 -1.7353
 7510SOL     OW33991   4.636   2.060   7.742 -0.1097 -0.6552 -0.1291
 7510SOL    HW133992   4.583   2.019   7.811  1.6817 -1.9613  0.4670
 7510SOL    HW233993   4.627   1.986   7.681  0.9305  0.6039 -1.8022
 7511SOL     OW33994   4.209   3.934   0.611 -0.2123 -0.3375  0.5898
 7511SOL    HW133995   4.250   3.894   0.688 -0.1599 -0.6697  0.3900
 7511SOL    HW233996   4.282   3.989   0.582 -1.3358  0.8589  0.0696
 7512SOL     OW33997   2.792   1.835  12.756  0.8949  0.2592 -0.1557
 7512SOL    HW133998   2.756   1.765  12.810  0.0661 -0.1089 -1.1905
 7512SOL    HW233999   2.761   1.915  12.800 -0.1765  0.2693 -0.9395
 7513SOL     OW34000   0.293   2.060   8.495 -0.2904  0.3581 -0.1442
 7513SOL    HW134001   0.378   2.103   8.504 -1.1964  1.9960  0.5624
 7513SOL    HW234002   0.262   2.051   8.585  1.2554 -0.7146  0.2900
 7514SOL     OW34003   3.331   0.184   5.547 -0.2095 -0.4444  0.2995
 7514SOL    HW134004   3.341   0.229   5.463  1.8487 -2.2121 -0.3916
 7514SOL    HW234005   3.381   0.103   5.533 -1.6467 -1.0574 -1.2030
 7515SOL     OW34006   4.288   1.788  14.966 -0.1483 -0.9669 -0.3796
 7515SOL    HW134007   4.244   1.792  15.051 -1.0202 -2.5487 -0.7510
 7515SOL    HW234008   4.224   1.750  14.906 -0.6357 -0.7714  0.0159
 7516SOL     OW34009   2.641   3.163   5.811 -0.5001 -0.4770  0.0344
 7516SOL    HW134010   2.567   3.114   5.775 -1.2451  0.8819 -0.3024
 7516SOL    HW234011   2.702   3.090   5.808 -1.7230 -1.3737 -3.3528
 7517SOL     OW34012   4.521   1.909   9.268  0.2283 -0.0479 -0.8030
 7517SOL    HW134013   4.578   1.941   9.197  1.5864  0.7504  0.6589
 7517SOL    HW234014   4.497   1.825   9.229  0.6035 -0.1762 -0.7614
 7518SOL     OW34015   0.221   0.783   5.188  0.3691 -0.0409  0.2029
 7518SOL    HW134016   0.167   0.802   5.265 -1.6231 -1.0763 -0.9339
 7518SOL    HW234017   0.207   0.690   5.175 -1.7040  0.4731 -1.3054
 7519SOL     OW34018   0.824   0.193   9.231  0.3188  0.1037  0.2427
 7519SOL    HW134019   0.848   0.143   9.153 -1.0998 -0.9138  0.4674
 7519SOL    HW234020   0.886   0.266   9.228  0.6784 -0.2414 -0.7203
 7520SOL     OW34021   2.241   3.991   3.706 -0.0296  0.1424 -0.3066
 7520SOL    HW134022   2.313   3.949   3.659 -0.3556 -0.8490  0.0759
 7520SOL    HW234023   2.271   3.960   3.791 -0.0932  1.0683  0.0616
 7521SOL     OW34024   0.067   2.860  12.521 -0.0256  0.0965  0.0429
 7521SOL    HW134025   0.067   2.797  12.593 -0.6105 -0.2136 -0.2300
 7521SOL    HW234026   0.096   2.811  12.444 -0.3312 -0.2796  0.1652
 7522SOL     OW34027   4.221   3.362   2.236  0.4748  0.1296  0.4382
 7522SOL    HW134028   4.162   3.287   2.249  0.3685 -0.5752 -4.2359
 7522SOL    HW234029   4.277   3.328   2.166 -0.1518 -0.1728  0.0889
 7523SOL     OW34030   0.214   0.934  13.629 -0.0523 -0.3880 -0.3500
 7523SOL    HW134031   0.196   1.001  13.563 -2.1525  0.4942  1.0907
 7523SOL    HW234032   0.156   0.860  13.606 -1.6326  0.5983  0.4823
 7524SOL     OW34033   0.844   0.548  11.408  0.4180 -0.4649  0.2036
 7524SOL    HW134034   0.898   0.573  11.483  1.8967 -0.3941 -0.8879
 7524SOL    HW234035   0.883   0.468  11.373 -0.0367 -0.4292 -0.3750
 7525SOL     OW34036   1.972   0.168   6.080 -0.1025  0.0028 -0.2223
 7525SOL    HW134037   2.038   0.140   6.017  0.2602  0.5904 -0.1002
 7525SOL    HW234038   2.005   0.128   6.160 -0.3151 -0.5044 -0.3891
 7526SOL     OW34039   3.222   0.769   8.786  0.7860 -0.3744  0.1229
 7526SOL    HW134040   3.177   0.832   8.730 -0.6160  0.0887  1.7571
 7526SOL    HW234041   3.273   0.822   8.847  2.1379 -1.7656  0.2005
 7527SOL     OW34042   1.636   3.042   5.884 -0.0680 -0.2715 -0.3233
 7527SOL    HW134043   1.641   2.963   5.939 -2.0641  0.4035  0.8538
 7527SOL    HW234044   1.646   3.108   5.952 -2.1128  1.0876 -1.3653
 7528SOL     OW34045   2.929   1.318   3.932 -0.0575  0.0340  0.1375
 7528SOL    HW134046   2.840   1.348   3.917  0.4358  0.5233 -1.7916
 7528SOL    HW234047   2.936   1.326   4.027  0.1631 -0.0848  0.1319
 7529SOL     OW34048   0.979   3.905   9.332 -0.2173 -1.0442  0.1643
 7529SOL    HW134049   0.982   3.850   9.410 -2.6755 -2.2461 -0.5870
 7529SOL    HW234050   1.042   3.972   9.357 -0.3185 -1.0667  0.4747
 7530SOL     OW34051   3.223   4.522   2.431  0.0585 -0.4694 -0.0248
 7530SOL    HW134052   3.314   4.539   2.406 -0.2466  2.1061  0.6570
 7530SOL    HW234053   3.191   4.606   2.465 -0.2346 -0.2276 -0.8983
 7531SOL     OW34054   0.811   0.732   5.336  0.8008 -0.2684 -0.3834
 7531SOL    HW134055   0.834   0.784   5.413  3.1390 -0.9764 -0.6070
 7531SOL    HW234056   0.721   0.760   5.325  1.1514  1.1415  0.4185
 7532SOL     OW34057   4.499   4.121  16.485  0.6684  0.4924  0.0978
 7532SOL    HW134058   4.420   4.102  16.435  1.1297 -0.4376 -0.2802
 7532SOL    HW234059   4.567   4.134  16.419 -1.0285 -1.3288 -2.0060
 7533SOL     OW34060   4.385   0.494   2.568  0.6518  0.6347  0.4168
 7533SOL    HW134061   4.401   0.515   2.476  0.4548  0.9946  0.4665
 7533SOL    HW234062   4.291   0.477   2.567  1.1650 -2.3350  0.1250
 7534SOL     OW34063   3.959   3.176   5.359  0.7601 -0.5227  0.2957
 7534SOL    HW134064   3.901   3.103   5.379  0.7956 -1.0866 -1.6630
 7534SOL    HW234065   3.938   3.206   5.271  0.0074 -1.1803  0.2494
 7535SOL     OW34066   2.154   0.317   9.041 -0.4635 -0.5546 -0.1786
 7535SOL    HW134067   2.183   0.340   8.953  0.7503  0.4836  0.4835
 7535SOL    HW234068   2.120   0.401   9.071  0.9567  0.0562 -0.2692
 7536SOL     OW34069   1.525   3.946   7.412  0.0986  0.1708  0.3079
 7536SOL    HW134070   1.521   4.039   7.436 -1.1499 -0.1444  1.2779
 7536SOL    HW234071   1.458   3.933   7.345  0.2743  0.6157  0.0466
 7537SOL     OW34072   1.550   4.139   9.685 -0.0838  0.3610 -0.0901
 7537SOL    HW134073   1.540   4.232   9.668  0.8631  0.1652 -1.6619
 7537SOL    HW234074   1.585   4.154   9.773  1.3029  0.5558 -0.6866
 7538SOL     OW34075   4.282   3.447   3.619 -0.1834  0.0143 -0.6675
 7538SOL    HW134076   4.367   3.438   3.575  2.3066  1.1228  3.9671
 7538SOL    HW234077   4.240   3.519   3.571 -1.1236  0.1666  0.4135
 7539SOL     OW34078   4.209   2.498   7.924  0.1190 -0.1403  0.0521
 7539SOL    HW134079   4.118   2.495   7.954  0.7436  2.1922  2.1482
 7539SOL    HW234080   4.261   2.507   8.004  2.4839 -1.6357 -1.3208
 7540SOL     OW34081   0.595   1.987  11.821  0.4256 -0.4696  0.1487
 7540SOL    HW134082   0.540   2.065  11.814 -0.0780 -0.7250  1.2909
 7540SOL    HW234083   0.585   1.948  11.734 -1.5319  2.2359 -0.8200
 7541SOL     OW34084   0.763   4.122  15.982 -0.3577 -0.1594 -0.5621
 7541SOL    HW134085   0.852   4.153  16.000 -1.2087  1.4379  0.9137
 7541SOL    HW234086   0.732   4.118  16.073 -0.8556 -1.0377 -0.7771
 7542SOL     OW34087   0.727   4.587   5.698  0.4647  0.5071  0.4724
 7542SOL    HW134088   0.785   4.632   5.759 -0.0235  0.2490  1.1239
 7542SOL    HW234089   0.656   4.650   5.706 -1.5962 -1.6001 -1.1841
 7543SOL     OW34090   3.534   0.355  14.826  0.0850  0.0264  0.8459
 7543SOL    HW134091   3.583   0.306  14.760 -0.1999 -0.6722  1.1542
 7543SOL    HW234092   3.445   0.334  14.797  0.6277 -2.8948  1.2825
 7544SOL     OW34093   4.252   2.739  13.399 -0.4664  0.3362 -0.0042
 7544SOL    HW134094   4.331   2.724  13.451 -1.4663 -0.5310  1.2757
 7544SOL    HW234095   4.289   2.732  13.311 -0.4760 -0.5853  0.0599
 7545SOL     OW34096   3.521   3.471   6.345 -0.7981  0.2272 -0.2456
 7545SOL    HW134097   3.522   3.399   6.282  0.2273 -0.7954  0.9551
 7545SOL    HW234098   3.561   3.422   6.416 -0.2930  1.0639  0.0539
 7546SOL     OW34099   0.967   2.589   7.415 -0.4898 -0.1824 -0.1545
 7546SOL    HW134100   0.915   2.543   7.480  1.3073  0.6212  1.8317
 7546SOL    HW234101   1.052   2.569   7.452  0.6501  2.8496 -1.1435
 7547SOL     OW34102   1.186   3.575   6.753 -0.1986 -0.0919  0.0836
 7547SOL    HW134103   1.166   3.582   6.659 -2.9784  0.7644  0.7414
 7547SOL    HW234104   1.239   3.496   6.760 -2.3095 -1.3385  2.1131
 7548SOL     OW34105   2.071   1.621   7.052 -0.1276 -0.7183  0.3578
 7548SOL    HW134106   2.154   1.573   7.060  0.2374  0.1075  1.5182
 7548SOL    HW234107   2.020   1.572   7.116  0.8563 -0.5888  1.2484
 7549SOL     OW34108   3.012   0.016  14.635 -0.6728  0.6788  0.3339
 7549SOL    HW134109   2.920   0.023  14.610 -1.1134 -0.5492  1.6114
 7549SOL    HW234110   3.010   0.079  14.707  2.0863  1.9069 -0.6690
 7550SOL     OW34111   2.982   2.148  14.946  0.2067 -0.0509 -0.2814
 7550SOL    HW134112   2.889   2.136  14.928  0.2537  0.2038 -0.6973
 7550SOL    HW234113   3.012   2.059  14.966 -1.0041  0.0116  1.7335
 7551SOL     OW34114   3.837   2.542   4.937  0.2386  0.4346  0.4246
 7551SOL    HW134115   3.885   2.518   4.858 -1.5723 -0.7225 -0.3423
 7551SOL    HW234116   3.809   2.631   4.917  2.2674  0.8509 -0.5167
 7552SOL     OW34117   0.537   1.262   5.169 -0.0545  0.0525  0.2099
 7552SOL    HW134118   0.515   1.193   5.106  3.2773 -0.3981 -0.4686
 7552SOL    HW234119   0.586   1.316   5.107  1.1814 -2.1260 -0.7408
 7553SOL     OW34120   1.330   0.499   1.714 -0.6673  0.5278  0.1121
 7553SOL    HW134121   1.299   0.471   1.627  1.4921 -0.2182 -0.4136
 7553SOL    HW234122   1.396   0.566   1.696  0.4668 -0.3168  1.1042
 7554SOL     OW34123   0.328   3.798  13.556  0.8637 -0.0208 -0.1791
 7554SOL    HW134124   0.361   3.822  13.469  2.4753  0.5948  0.6049
 7554SOL    HW234125   0.329   3.883  13.599 -3.6647 -0.5357  0.9892
 7555SOL     OW34126   3.129   0.189   2.299  0.2430 -0.8086 -0.3797
 7555SOL    HW134127   3.083   0.207   2.218  1.6938 -0.3369 -1.1021
 7555SOL    HW234128   3.076   0.116   2.331  1.3085 -1.3189  0.2264
 7556SOL     OW34129   1.195   1.405   8.098  0.5745 -0.9322  0.1249
 7556SOL    HW134130   1.204   1.310   8.101  2.6478 -0.7042  1.4767
 7556SOL    HW234131   1.123   1.420   8.159  0.7585 -0.8598  0.3286
 7557SOL     OW34132   1.686   0.696  12.744 -0.1999 -0.4747 -0.0579
 7557SOL    HW134133   1.667   0.604  12.726 -0.3560 -0.6778  1.1616
 7557SOL    HW234134   1.601   0.729  12.715  0.6838  3.1040  1.3950
 7558SOL     OW34135   1.261   1.073   6.791  0.3998 -0.0822 -0.1902
 7558SOL    HW134136   1.222   1.126   6.861  0.0781 -0.0684 -0.3791
 7558SOL    HW234137   1.242   0.985   6.823  0.7418 -0.3665 -0.7636
 7559SOL     OW34138   4.360   2.733  13.157 -0.0833  0.1903 -0.2199
 7559SOL    HW134139   4.438   2.714  13.105  0.2968  1.1684 -0.0043
 7559SOL    HW234140   4.313   2.649  13.162  0.0731  0.2033  1.3478
 7560SOL     OW34141   2.223   1.688   4.714 -0.6557 -0.5096  0.2814
 7560SOL    HW134142   2.147   1.706   4.770 -0.5185  1.4419 -0.1618
 7560SOL    HW234143   2.251   1.605   4.752 -0.7081 -1.2014 -1.1703
 7561SOL     OW34144   3.718   2.293   8.577  0.1174 -0.3496  0.0334
 7561SOL    HW134145   3.626   2.282   8.552 -0.1254 -1.9913  1.6443
 7561SOL    HW234146   3.777   2.295   8.502  0.4626  1.0377  0.3405
 7562SOL     OW34147   3.412   1.132  15.931 -0.4111 -0.8254  0.0830
 7562SOL    HW134148   3.347   1.155  15.998  0.9625  1.4408  0.6212
 7562SOL    HW234149   3.402   1.205  15.870 -0.6636 -0.9897 -0.0707
 7563SOL     OW34150   2.470   0.975   3.101  0.0577  0.1352 -0.3412
 7563SOL    HW134151   2.482   0.912   3.173 -1.3293 -1.4406 -1.4899
 7563SOL    HW234152   2.376   0.965   3.088 -0.1852  0.5821  1.0079
 7564SOL     OW34153   0.101   0.064   3.963  0.3142  0.1206 -0.1674
 7564SOL    HW134154   0.190   0.040   3.941  0.1767 -0.2005 -0.3733
 7564SOL    HW234155   0.101   0.157   3.939 -1.2140  0.2932  0.4824
 7565SOL     OW34156   3.646   2.253   9.461  0.0530  0.6265  0.3134
 7565SOL    HW134157   3.619   2.241   9.552  1.2926  1.2110  0.7639
 7565SOL    HW234158   3.652   2.349   9.460 -1.1834  0.6860 -2.0236
 7566SOL     OW34159   3.424   1.404   4.454  0.5561 -0.0246 -0.8058
 7566SOL    HW134160   3.379   1.331   4.411  0.2396  0.4760 -1.3166
 7566SOL    HW234161   3.460   1.460   4.385 -0.5350  1.0145 -0.5310
 7567SOL     OW34162   3.108   2.867   5.447 -0.1178 -0.0808  0.1968
 7567SOL    HW134163   3.122   2.783   5.403 -0.9504 -0.7983  1.2916
 7567SOL    HW234164   3.190   2.915   5.432  0.8120 -1.1754  1.7714
 7568SOL     OW34165   3.976   3.320  13.824 -0.3361 -0.1638 -0.1266
 7568SOL    HW134166   4.069   3.341  13.829 -0.3124 -0.4534  0.6109
 7568SOL    HW234167   3.988   3.225  13.828  2.5676  0.2026  0.2076
 7569SOL     OW34168   4.707   3.182   3.134 -0.2740 -0.1849  0.2032
 7569SOL    HW134169   4.722   3.244   3.063  0.9809 -2.2315 -1.2963
 7569SOL    HW234170   0.044   3.219   3.197  0.8585 -1.7645  0.0098
 7570SOL     OW34171   0.643   2.433  11.422  0.2451 -0.4308 -0.2287
 7570SOL    HW134172   0.720   2.379  11.407 -0.5904 -2.0927  1.5738
 7570SOL    HW234173   0.650   2.454  11.515  2.1533 -0.7892 -0.3033
 7571SOL     OW34174   3.124   3.031   7.262 -0.3518 -0.0621 -0.4885
 7571SOL    HW134175   3.116   3.044   7.168 -0.2901  2.8395 -0.0941
 7571SOL    HW234176   3.151   3.120   7.281 -3.2065  0.4781  1.1096
 7572SOL     OW34177   3.606   2.381  13.795  0.0274  0.1342  0.3679
 7572SOL    HW134178   3.546   2.307  13.803 -1.4849  1.2892 -0.3345
 7572SOL    HW234179   3.650   2.370  13.879  0.2058 -1.3896  0.0781
 7573SOL     OW34180   2.275   0.859   3.751 -0.1939 -0.2438 -0.1509
 7573SOL    HW134181   2.274   0.922   3.679  0.3146 -0.2429 -0.1616
 7573SOL    HW234182   2.192   0.869   3.797 -0.6451  3.2194 -1.6748
 7574SOL     OW34183   3.190   2.970  12.618 -0.1434 -0.0329 -0.4343
 7574SOL    HW134184   3.244   3.029  12.565 -0.6567 -0.5690 -1.5586
 7574SOL    HW234185   3.261   2.932  12.669 -0.6575 -0.7510 -0.2625
 7575SOL     OW34186   0.504   4.512   8.287 -0.2678 -0.3593 -0.6292
 7575SOL    HW134187   0.509   4.439   8.348  1.5662  1.6039  1.5466
 7575SOL    HW234188   0.444   4.567   8.339 -0.1515  0.4919 -1.3980
 7576SOL     OW34189   4.584   2.456   9.140 -0.1214 -0.2777  0.6446
 7576SOL    HW134190   4.527   2.384   9.115 -0.0410 -0.6271  1.4938
 7576SOL    HW234191   4.657   2.449   9.078  1.3027  0.6443  2.2114
 7577SOL     OW34192   0.112   2.204   1.731 -0.3523 -0.0133  0.2975
 7577SOL    HW134193   0.200   2.224   1.699 -0.3139  0.3867  0.6442
 7577SOL    HW234194   0.114   2.256   1.812 -2.0338  0.7531 -0.1499
 7578SOL     OW34195   4.378   2.401  16.405  0.0231 -0.2385  0.2265
 7578SOL    HW134196   4.294   2.437  16.434 -0.5430 -1.0251 -0.4505
 7578SOL    HW234197   4.372   2.315  16.446  0.5357 -0.9131 -1.1271
 7579SOL     OW34198   0.092   1.109  13.884 -0.5830 -0.3649  0.3274
 7579SOL    HW134199   0.019   1.103  13.947  0.6905  1.9146  2.0287
 7579SOL    HW234200   0.044   1.107  13.802 -1.9441 -1.7742  1.1377
 7580SOL     OW34201   3.914   4.436   5.046  0.1960  0.1147  0.5319
 7580SOL    HW134202   3.820   4.419   5.046  0.4759 -1.5286 -0.5871
 7580SOL    HW234203   3.939   4.384   4.969 -1.9797 -0.1552 -0.0028
 7581SOL     OW34204   0.234   2.802   1.407 -0.3827 -0.0055 -0.5165
 7581SOL    HW134205   0.197   2.731   1.356 -0.0870  0.1394 -0.9336
 7581SOL    HW234206   0.229   2.876   1.345 -1.6106  0.8901  0.6504
 7582SOL     OW34207   0.190   0.816   1.465 -0.2995 -0.2201 -0.1185
 7582SOL    HW134208   0.104   0.812   1.422 -0.6413 -0.9198  0.6255
 7582SOL    HW234209   0.241   0.828   1.385  0.4775 -1.9669  0.1156
 7583SOL     OW34210   2.922   4.071   3.273 -0.4163  0.0068 -0.8003
 7583SOL    HW134211   2.989   4.049   3.338 -0.5425 -1.6213 -1.2120
 7583SOL    HW234212   2.921   3.996   3.213 -3.0284 -1.5179  1.1336
 7584SOL     OW34213   2.457   3.990   4.142 -0.3620  0.1274  0.1417
 7584SOL    HW134214   2.513   3.913   4.150  0.1948  0.3181 -2.0591
 7584SOL    HW234215   2.522   4.058   4.160  0.4083 -0.6878  0.4012
 7585SOL     OW34216   3.532   1.193   1.751  0.5130  0.0814  0.3050
 7585SOL    HW134217   3.606   1.132   1.754 -0.4770 -1.2196 -1.8568
 7585SOL    HW234218   3.522   1.206   1.657 -1.6484 -0.4370  0.4654
 7586SOL     OW34219   1.107   0.005  17.139  0.3129  0.5743 -0.5466
 7586SOL    HW134220   1.200   4.723  17.161  0.6195 -1.8357 -2.6703
 7586SOL    HW234221   1.069   4.673  17.207  0.3875  1.0147 -0.1394
 7587SOL     OW34222   2.410   4.612   8.320 -0.1578  0.0503  0.5161
 7587SOL    HW134223   2.484   4.657   8.278 -1.4291  1.5207 -0.1546
 7587SOL    HW234224   2.338   4.650   8.270  0.1909  0.0972  0.0547
 7588SOL     OW34225   3.305   2.836   9.726 -0.3062 -0.3840 -0.7794
 7588SOL    HW134226   3.249   2.868   9.655  1.0211  0.4522 -1.4451
 7588SOL    HW234227   3.272   2.748   9.742  0.1554 -0.0593  1.9439
 7589SOL     OW34228   2.841   3.766  15.765 -0.6383 -0.1444 -0.0812
 7589SOL    HW134229   2.905   3.702  15.732 -2.8987 -1.5312 -1.7785
 7589SOL    HW234230   2.761   3.714  15.766  0.7472 -2.2993 -0.4080
 7590SOL     OW34231   2.866   3.904   4.258  0.7240 -0.8067  0.2286
 7590SOL    HW134232   2.778   3.868   4.254 -0.0491  1.1082  0.5568
 7590SOL    HW234233   2.910   3.859   4.186  2.0324  0.5657  0.1637
 7591SOL     OW34234   3.222   4.723   4.644 -0.8632  0.0980  0.0281
 7591SOL    HW134235   3.147   0.017   4.588 -1.2722 -1.9537 -0.1088
 7591SOL    HW234236   3.264   0.084   4.646 -0.6037  0.0405 -3.0637
 7592SOL     OW34237   0.702   1.934  12.764 -0.4530 -0.1793  0.0095
 7592SOL    HW134238   0.658   1.867  12.712  0.2441  0.1633 -1.0263
 7592SOL    HW234239   0.785   1.891  12.783 -0.4376 -0.5603 -0.9086
 7593SOL     OW34240   0.730   3.170   1.365  0.2446 -0.5342  0.3961
 7593SOL    HW134241   0.790   3.180   1.291  1.0394  1.8835  1.3509
 7593SOL    HW234242   0.801   3.166   1.429 -0.4882 -1.0652  1.1752
 7594SOL     OW34243   2.278   0.745  12.461 -0.4701 -0.3166 -1.0086
 7594SOL    HW134244   2.285   0.792  12.377 -4.7138  0.3127 -1.0482
 7594SOL    HW234245   2.258   0.659  12.423 -0.6099 -0.7344  0.0194
 7595SOL     OW34246   2.105   2.104   9.603  0.6772  0.2877 -0.2068
 7595SOL    HW134247   2.106   2.105   9.507  2.2941 -1.4225 -0.2205
 7595SOL    HW234248   2.175   2.162   9.631  0.4137  0.0613  0.9017
 7596SOL     OW34249   2.283   0.240   7.489 -0.0730 -0.2138  0.3384
 7596SOL    HW134250   2.305   0.323   7.448 -1.4533  0.0842  0.2129
 7596SOL    HW234251   2.275   0.185   7.410  1.5613 -0.1261  0.1152
 7597SOL     OW34252   1.539   0.490  16.821 -0.2037  0.2234  0.7014
 7597SOL    HW134253   1.590   0.452  16.749 -2.7146 -0.8936 -0.4803
 7597SOL    HW234254   1.599   0.469  16.893  0.3130 -2.8435 -0.6490
 7598SOL     OW34255   4.695   4.030   8.471  0.0752  0.5465 -0.3760
 7598SOL    HW134256   4.601   4.040   8.459  0.0070 -0.7296 -0.9178
 7598SOL    HW234257   4.701   4.009   8.564 -0.3135 -1.4852 -0.8060
 7599SOL     OW34258   1.888   0.103  11.122  0.0825  0.2129 -0.5132
 7599SOL    HW134259   1.954   0.034  11.131  0.0958  0.3357  0.3714
 7599SOL    HW234260   1.814   0.048  11.097 -0.7955  0.4503  1.5586
 7600SOL     OW34261   0.718   3.630   5.392 -0.1934 -0.2646 -0.7310
 7600SOL    HW134262   0.698   3.538   5.408 -0.0100  0.1852  2.0402
 7600SOL    HW234263   0.814   3.625   5.383 -0.2253 -1.7560 -0.3062
 7601SOL     OW34264   1.884   1.098  15.812 -0.5571 -0.1999  0.4096
 7601SOL    HW134265   1.962   1.043  15.807 -0.3135  0.2222 -0.5843
 7601SOL    HW234266   1.923   1.181  15.783 -1.0280 -0.0992  0.0622
 7602SOL     OW34267   3.525   4.101  16.955  0.0970  0.6111 -0.0765
 7602SOL    HW134268   3.492   4.054  17.031  2.1763 -3.4930 -1.7029
 7602SOL    HW234269   3.536   4.184  17.000  0.4504 -0.7461  2.3206
 7603SOL     OW34270   3.889   3.748   7.429  0.2826 -0.2907  0.1557
 7603SOL    HW134271   3.955   3.741   7.497  0.7841  0.7438 -0.2310
 7603SOL    HW234272   3.869   3.842   7.431  3.6211  0.4440 -0.8974
 7604SOL     OW34273   3.165   3.223   8.909 -0.2505  0.4053  0.4362
 7604SOL    HW134274   3.241   3.245   8.855 -1.7546 -0.0397 -1.8505
 7604SOL    HW234275   3.171   3.308   8.953 -0.0536  0.7817 -0.3023
 7605SOL     OW34276   3.174   0.987   1.389 -0.1075  0.4292 -0.0808
 7605SOL    HW134277   3.194   0.923   1.321  1.0504  0.1901  0.4883
 7605SOL    HW234278   3.109   1.044   1.346 -1.7432 -0.4995  1.1898
 7606SOL     OW34279   4.587   3.585   5.574  0.9533  0.2113 -0.4367
 7606SOL    HW134280   4.648   3.595   5.647 -0.3622 -1.7426  0.9593
 7606SOL    HW234281   4.514   3.635   5.611 -0.2386 -1.1570 -0.9513
 7607SOL     OW34282   1.456   1.110  10.907 -0.4178 -0.0408 -0.2353
 7607SOL    HW134283   1.520   1.167  10.865  0.0419  1.5886  2.7161
 7607SOL    HW234284   1.433   1.061  10.827 -0.1626 -0.9095  0.2187
 7608SOL     OW34285   0.660   1.592   1.304 -0.4158 -0.2046  0.7789
 7608SOL    HW134286   0.694   1.503   1.310 -1.0211 -0.3976  1.3232
 7608SOL    HW234287   0.734   1.637   1.264  0.1195 -1.2398  0.5904
 7609SOL     OW34288   4.362   3.564   2.721 -0.3556 -1.0636 -0.0676
 7609SOL    HW134289   4.409   3.504   2.779  1.1118  0.4060  0.2774
 7609SOL    HW234290   4.286   3.508   2.705 -0.9689 -0.4619  0.7336
 7610SOL     OW34291   3.904   4.382   9.037 -0.0900 -0.2420  0.0150
 7610SOL    HW134292   3.836   4.427   9.086 -2.3339 -0.4445 -2.9014
 7610SOL    HW234293   3.890   4.424   8.952 -1.5470 -1.0676 -0.1550
 7611SOL     OW34294   1.137   0.549   3.048  0.1189 -0.0847  0.3882
 7611SOL    HW134295   1.113   0.641   3.038  1.7020  0.1929 -0.7568
 7611SOL    HW234296   1.105   0.531   3.136  2.1481  1.5131  1.4774
 7612SOL     OW34297   1.785   3.052   0.348 -0.1711 -0.4199 -0.3913
 7612SOL    HW134298   1.689   3.056   0.344 -0.2229 -2.0016 -0.7233
 7612SOL    HW234299   1.804   3.007   0.265 -1.5645 -0.6826 -0.5665
 7613SOL     OW34300   3.833   4.433   5.652  0.1929 -0.0863 -0.3607
 7613SOL    HW134301   3.883   4.372   5.705 -0.1981  2.8206  3.3957
 7613SOL    HW234302   3.829   4.404   5.561  2.5784 -1.4148 -0.0313
 7614SOL     OW34303   0.776   3.729  16.948  0.1756  0.0909 -0.1261
 7614SOL    HW134304   0.688   3.760  16.971  0.1539  2.0782 -3.0050
 7614SOL    HW234305   0.791   3.665  17.018 -0.2263 -0.0786 -0.1903
 7615SOL     OW34306   0.088   3.940   9.267  0.5842  0.1693  0.1134
 7615SOL    HW134307   0.149   4.002   9.228  0.4035  1.0336  1.1900
 7615SOL    HW234308   0.090   3.951   9.362 -1.3626  1.1252  0.0602
 7616SOL     OW34309   4.063   0.342   3.574  0.2293  0.6808  0.3963
 7616SOL    HW134310   3.968   0.329   3.563  0.3520  1.2436 -1.3424
 7616SOL    HW234311   4.082   0.275   3.640  0.7745 -0.8256 -1.2704
 7617SOL     OW34312   1.340   0.703  11.136  0.1783 -0.1935 -0.1652
 7617SOL    HW134313   1.349   0.696  11.231  0.5193  0.3384 -0.1611
 7617SOL    HW234314   1.425   0.694  11.094  1.0576  0.5480  1.4136
 7618SOL     OW34315   0.385   0.411   0.200  0.4474 -0.3505 -0.1590
 7618SOL    HW134316   0.398   0.387   0.108  1.4757 -1.0781  0.1752
 7618SOL    HW234317   0.354   0.328   0.237 -1.4879  2.0351  3.6292
 7619SOL     OW34318   0.596   3.777  12.575 -0.3302  0.2193 -0.0377
 7619SOL    HW134319   0.552   3.758  12.493  3.4833 -1.4590 -1.6698
 7619SOL    HW234320   0.597   3.691  12.617  2.6523  0.0394 -0.4567
 7620SOL     OW34321   1.942   3.154   5.105 -0.1567 -0.1510 -0.0890
 7620SOL    HW134322   1.958   3.102   5.184 -1.2921  1.5901  1.3255
 7620SOL    HW234323   2.034   3.157   5.080  0.0146  0.1010  0.5519
 7621SOL     OW34324   4.647   3.233   5.863  0.5173  0.4091  0.2033
 7621SOL    HW134325   4.712   3.207   5.798 -1.0605  0.1649 -1.2761
 7621SOL    HW234326   4.580   3.265   5.802  1.3418 -2.3651 -2.1526
 7622SOL     OW34327   4.006   1.685   6.867  0.2024  0.0604  0.1625
 7622SOL    HW134328   3.944   1.612   6.866 -2.1039  2.0160  0.9929
 7622SOL    HW234329   4.033   1.692   6.959 -0.3562 -1.2747  0.4217
 7623SOL     OW34330   4.354   3.059  13.054 -0.1521 -0.0700  0.4090
 7623SOL    HW134331   4.407   3.030  12.979 -1.7297 -0.0330 -0.7251
 7623SOL    HW234332   4.260   3.055  13.036  0.2436 -1.2732 -1.4633
 7624SOL     OW34333   3.340   0.690   4.156  0.4070  0.3377 -0.5957
 7624SOL    HW134334   3.264   0.724   4.204  1.5926  1.2733  0.6219
 7624SOL    HW234335   3.387   0.648   4.228  0.0271 -0.0337 -0.5662
 7625SOL     OW34336   2.372   1.700  11.997 -0.0910 -0.1552 -0.1036
 7625SOL    HW134337   2.324   1.775  12.031  0.3022 -0.0713  0.2676
 7625SOL    HW234338   2.389   1.730  11.907 -1.9978  1.9052  0.2301
 7626SOL     OW34339   1.844   1.501  11.561  0.1536 -0.0293  0.0838
 7626SOL    HW134340   1.826   1.569  11.496  1.1798 -0.4694 -0.6581
 7626SOL    HW234341   1.876   1.435  11.500  1.1951  1.2312 -0.7237
 7627SOL     OW34342   1.278   3.557  10.186 -0.4144 -0.6449 -0.0347
 7627SOL    HW134343   1.363   3.575  10.226 -0.6383 -1.4552  0.8028
 7627SOL    HW234344   1.299   3.505  10.108  1.0621  0.0786 -0.1080
 7628SOL     OW34345   0.295   1.496   6.388 -0.0419 -0.7097 -0.1020
 7628SOL    HW134346   0.274   1.494   6.295  0.4942  0.4748 -0.2369
 7628SOL    HW234347   0.382   1.457   6.394 -1.5825 -3.6629  3.5689
 7629SOL     OW34348   4.242   0.408   4.416 -0.3536 -0.4336  0.6670
 7629SOL    HW134349   4.255   0.345   4.487 -1.7823 -2.0152 -0.4802
 7629SOL    HW234350   4.157   0.380   4.382 -0.5323  0.6469  0.2305
 7630SOL     OW34351   0.226   3.982  17.018 -0.0130 -0.3647 -0.1538
 7630SOL    HW134352   0.195   3.913  16.959 -5.0298  2.7598 -1.2361
 7630SOL    HW234353   0.228   4.054  16.955 -1.2046 -0.0419  0.1630
 7631SOL     OW34354   2.840   1.076   1.267 -0.4601 -0.1205 -0.2153
 7631SOL    HW134355   2.863   1.079   1.174  0.7522 -2.1193  0.0343
 7631SOL    HW234356   2.759   1.026   1.273 -0.7001 -0.0807 -3.4932
 7632SOL     OW34357   3.109   3.488  14.200  0.2778  0.5135  0.3188
 7632SOL    HW134358   3.032   3.517  14.152  0.2246 -1.4104 -0.7699
 7632SOL    HW234359   3.152   3.570  14.223 -1.9660  2.0439 -0.9261
 7633SOL     OW34360   1.501   0.494   4.443  0.3702 -0.1386 -0.1249
 7633SOL    HW134361   1.528   0.516   4.354  4.0742 -2.6938  0.3559
 7633SOL    HW234362   1.588   0.487   4.482  0.0166  3.2461  1.3033
 7634SOL     OW34363   4.386   2.078  10.213 -0.0279  0.2514 -0.3423
 7634SOL    HW134364   4.359   2.033  10.133 -1.9288 -1.8244  1.4670
 7634SOL    HW234365   4.303   2.124  10.226  0.1953 -0.0434  2.2240
 7635SOL     OW34366   0.694   1.772   7.367 -0.0218 -0.0778 -0.5545
 7635SOL    HW134367   0.695   1.791   7.461 -0.2502 -1.8454 -0.1956
 7635SOL    HW234368   0.612   1.724   7.366 -0.4859  0.6880  1.7414
 7636SOL     OW34369   3.649   2.116   7.928 -0.5900  0.2909 -0.9489
 7636SOL    HW134370   3.639   2.190   7.867 -0.9362  0.3334 -0.8401
 7636SOL    HW234371   3.599   2.054   7.875 -2.0657 -0.7464  1.6492
 7637SOL     OW34372   3.400   1.824   5.636  0.0258 -0.1792  0.9645
 7637SOL    HW134373   3.391   1.772   5.556  0.3622 -1.1105  1.5303
 7637SOL    HW234374   3.321   1.799   5.683  0.8083  0.8013  2.7755
 7638SOL     OW34375   0.503   3.159   8.153 -0.1316  0.0722 -0.2245
 7638SOL    HW134376   0.514   3.064   8.153 -0.7330  0.0049 -0.8414
 7638SOL    HW234377   0.523   3.188   8.064 -3.0388 -0.7171 -1.1336
 7639SOL     OW34378   1.422   2.692   2.649  0.7977  0.2987  0.4605
 7639SOL    HW134379   1.348   2.750   2.667  1.2173  0.1921  2.5393
 7639SOL    HW234380   1.382   2.605   2.657  3.1935 -0.8298  0.2420
 7640SOL     OW34381   1.994   1.742  15.061 -0.0856 -0.1010 -0.2255
 7640SOL    HW134382   1.959   1.752  14.973  1.4494  0.5752 -0.7575
 7640SOL    HW234383   1.914   1.725  15.111 -0.7438 -1.7664 -1.8687
 7641SOL     OW34384   3.484   0.475   9.728 -0.3342 -0.6105 -0.1369
 7641SOL    HW134385   3.560   0.451   9.782 -1.0025 -0.7481  0.7417
 7641SOL    HW234386   3.409   0.455   9.784 -0.2184  1.9767  0.9428
 7642SOL     OW34387   0.318   2.307   4.257 -0.7149 -0.0004 -0.0095
 7642SOL    HW134388   0.330   2.373   4.326  0.3948 -0.6002  0.3708
 7642SOL    HW234389   0.343   2.231   4.309 -2.3471 -1.2593 -1.0732
 7643SOL     OW34390   0.235   0.287   7.424  0.4742  0.3358 -0.1713
 7643SOL    HW134391   0.196   0.240   7.351 -1.1734  0.9993  0.2955
 7643SOL    HW234392   0.188   0.259   7.503  0.2003  2.2073  0.3076
 7644SOL     OW34393   2.051   0.453   6.154 -0.1470 -0.3165 -0.1667
 7644SOL    HW134394   2.066   0.362   6.128 -2.2637 -0.8139  0.3451
 7644SOL    HW234395   1.961   0.465   6.123 -0.1349  0.0609 -0.0536
 7645SOL     OW34396   4.455   2.925   3.578  0.5194 -0.1082  0.3811
 7645SOL    HW134397   4.381   2.892   3.526  1.0932  1.4467 -1.4277
 7645SOL    HW234398   4.498   2.983   3.515 -2.5290  1.4787 -0.2440
 7646SOL     OW34399   2.314   0.740   7.665  0.9303 -0.2355 -0.7254
 7646SOL    HW134400   2.337   0.761   7.574  0.3855  1.3361 -0.4999
 7646SOL    HW234401   2.332   0.825   7.704 -1.1797  0.3675 -1.1101
 7647SOL     OW34402   0.213   3.102   0.822 -0.3344  0.1905 -0.1003
 7647SOL    HW134403   0.247   3.032   0.767 -2.0908 -0.2963 -0.5663
 7647SOL    HW234404   0.121   3.085   0.803 -0.4772 -0.1347  0.8746
 7648SOL     OW34405   1.806   0.813   6.344  0.0802  0.0998 -0.4865
 7648SOL    HW134406   1.806   0.868   6.265  1.4751  0.4085 -0.2710
 7648SOL    HW234407   1.806   0.875   6.417  1.6920 -1.5009  0.8785
 7649SOL     OW34408   1.321   3.437   8.756 -0.1859 -0.3111 -0.3140
 7649SOL    HW134409   1.384   3.373   8.722  1.9072  2.7214 -2.1352
 7649SOL    HW234410   1.368   3.519   8.741 -1.0154  0.1195 -0.5572
 7650SOL     OW34411   2.060   1.876  15.820  0.1402 -0.0009 -0.6022
 7650SOL    HW134412   1.992   1.834  15.769  0.0271 -0.2176 -0.2746
 7650SOL    HW234413   2.139   1.836  15.786  0.5226  1.1597 -1.0913
 7651SOL     OW34414   1.434   2.517   2.188  0.0233  0.1211 -0.2734
 7651SOL    HW134415   1.408   2.460   2.115  0.9882 -0.1947 -0.3721
 7651SOL    HW234416   1.524   2.487   2.200  0.2449  0.7195 -0.4284
 7652SOL     OW34417   4.224   2.260  16.158  0.1311 -0.0524 -0.1143
 7652SOL    HW134418   4.203   2.324  16.090  1.3102 -0.3729 -0.7876
 7652SOL    HW234419   4.159   2.291  16.221 -0.5032 -2.5414  0.4298
 7653SOL     OW34420   2.527   2.236   4.044  0.1493 -0.0625  0.0445
 7653SOL    HW134421   2.477   2.155   4.042 -1.3092  0.8851 -2.2182
 7653SOL    HW234422   2.607   2.191   4.071  0.1631  0.1702  0.3936
 7654SOL     OW34423   2.934   3.986   5.798  0.1382  0.0279  0.1317
 7654SOL    HW134424   2.961   4.074   5.775  1.1828 -0.0330  1.1082
 7654SOL    HW234425   3.016   3.943   5.774  0.5772  0.5182  0.7566
 7655SOL     OW34426   1.020   4.576   5.892  0.1986  0.3643 -0.1402
 7655SOL    HW134427   1.038   4.653   5.945 -2.8895  0.6770  0.4458
 7655SOL    HW234428   1.052   4.614   5.810  0.5553  1.4901  0.5251
 7656SOL     OW34429   4.388   2.914  12.431  0.2945 -0.1740 -0.6798
 7656SOL    HW134430   4.390   2.926  12.526 -1.0453  2.1329 -0.9376
 7656SOL    HW234431   4.463   2.967  12.404  0.8868  0.6830  2.7218
 7657SOL     OW34432   1.164   2.495   6.061 -0.8570 -0.5967  0.0967
 7657SOL    HW134433   1.183   2.581   6.024  0.3231 -0.5765  0.7414
 7657SOL    HW234434   1.210   2.439   5.999  0.2828 -0.6774  1.0217
 7658SOL     OW34435   1.840   2.942   8.221  0.4612 -0.4301 -0.1791
 7658SOL    HW134436   1.781   2.986   8.283 -0.7572  0.0890 -1.7093
 7658SOL    HW234437   1.821   3.007   8.154  0.3880 -1.3403 -1.0427
 7659SOL     OW34438   0.637   3.536   8.041 -0.3848 -0.2089 -0.1015
 7659SOL    HW134439   0.607   3.599   8.106 -3.4827 -1.9705  0.1948
 7659SOL    HW234440   0.715   3.496   8.079 -0.5687 -0.0563  0.4375
 7660SOL     OW34441   4.276   4.466   3.086 -0.2953  0.2220  0.1565
 7660SOL    HW134442   4.233   4.386   3.055 -0.3294 -0.4256  1.8772
 7660SOL    HW234443   4.368   4.437   3.089 -0.7145 -1.1327  0.0663
 7661SOL     OW34444   4.629   0.827   7.942 -0.2934  0.4795 -0.3539
 7661SOL    HW134445   4.560   0.887   7.913 -0.7104 -0.6962 -1.7899
 7661SOL    HW234446   4.698   0.886   7.972 -0.6961  0.1640  1.2433
 7662SOL     OW34447   3.693   3.211   4.789  0.3625 -0.1825 -0.6726
 7662SOL    HW134448   3.709   3.170   4.874 -2.1503  0.9362  0.3589
 7662SOL    HW234449   3.646   3.136   4.751  0.9632 -0.0662 -1.6425
 7663SOL     OW34450   4.670   4.517  16.282 -0.7132  0.2253  0.0526
 7663SOL    HW134451   4.678   4.531  16.188 -1.9210  0.5136 -0.0093
 7663SOL    HW234452   4.610   4.584  16.316  1.0399  0.6278  2.3169
 7664SOL     OW34453   3.136   1.996   7.164  0.1455 -0.0785 -0.1962
 7664SOL    HW134454   3.227   1.965   7.172 -0.0297  0.0271  2.2635
 7664SOL    HW234455   3.145   2.052   7.087  1.1300  0.2760  0.1728
 7665SOL     OW34456   0.914   1.513   7.030 -0.5366 -0.3312 -0.1119
 7665SOL    HW134457   0.876   1.601   7.034 -0.5364 -0.4539  2.4991
 7665SOL    HW234458   0.956   1.521   6.945 -2.8702  1.0979 -1.1324
 7666SOL     OW34459   1.995   4.163   1.365 -0.2671  0.3697 -0.2843
 7666SOL    HW134460   1.950   4.170   1.449  2.5903  3.2618  1.0087
 7666SOL    HW234461   2.090   4.165   1.375 -0.4093 -1.6694  1.6428
 7667SOL     OW34462   2.569   3.191   3.096 -0.4534  0.4633 -0.0545
 7667SOL    HW134463   2.649   3.236   3.123 -2.2873  2.8661  1.4379
 7667SOL    HW234464   2.599   3.111   3.054 -1.2663 -0.4215  1.0678
 7668SOL     OW34465   0.598   1.295  16.506 -0.4122 -0.5527 -0.4732
 7668SOL    HW134466   0.527   1.263  16.562  1.0921 -1.0590  1.1260
 7668SOL    HW234467   0.537   1.316  16.436 -1.0576  0.8664  0.5186
 7669SOL     OW34468   4.375   2.759   5.478 -0.2925 -0.3292  0.5742
 7669SOL    HW134469   4.290   2.736   5.441 -0.2427 -2.1291  1.5543
 7669SOL    HW234470   4.353   2.743   5.570 -0.5430  2.6458  1.0229
 7670SOL     OW34471   0.786   0.956  14.109 -0.4206 -0.3979  0.5504
 7670SOL    HW134472   0.807   0.895  14.179  0.9687 -0.4901  0.0512
 7670SOL    HW234473   0.694   0.937  14.092  0.0392 -1.2378 -0.9765
 7671SOL     OW34474   3.754   0.204   7.770 -0.2620 -0.3858  0.0570
 7671SOL    HW134475   3.811   0.261   7.718 -0.3691 -1.3029 -1.0714
 7671SOL    HW234476   3.669   0.224   7.732  0.2588 -2.1445 -2.0311
 7672SOL     OW34477   0.994   2.859   4.626  0.2418 -0.1420  0.1831
 7672SOL    HW134478   1.078   2.820   4.602 -0.2135 -1.6106  0.9751
 7672SOL    HW234479   0.978   2.902   4.543 -0.9497 -1.4339 -0.2568
 7673SOL     OW34480   2.812   1.510   7.903 -0.1911  0.0006  0.1085
 7673SOL    HW134481   2.745   1.441   7.901  1.5169 -1.6887  0.6753
 7673SOL    HW234482   2.776   1.588   7.943  1.1538  1.6436 -1.8908
 7674SOL     OW34483   2.772   1.887   7.021  0.0168 -0.0441  0.3957
 7674SOL    HW134484   2.721   1.840   7.087  0.5670  0.1166  0.9365
 7674SOL    HW234485   2.698   1.936   6.984  0.2461  0.6182  0.8035
 7675SOL     OW34486   0.006   0.051   1.531  0.2086 -0.2297 -0.4096
 7675SOL    HW134487   0.078   0.092   1.484  0.0082  0.2167 -0.3265
 7675SOL    HW234488   4.696   0.135   1.560 -1.3939 -0.6671 -1.0536
 7676SOL     OW34489   1.111   0.727   7.674  0.0696 -0.8906  0.6104
 7676SOL    HW134490   1.122   0.656   7.737  2.4572 -1.3320 -0.3013
 7676SOL    HW234491   1.162   0.703   7.596 -2.7712 -1.4501 -1.0785
 7677SOL     OW34492   1.412   2.315   7.513 -0.1674 -0.2538  0.1978
 7677SOL    HW134493   1.500   2.281   7.531 -0.9664 -1.4355  1.8848
 7677SOL    HW234494   1.426   2.389   7.453  0.0384 -0.1250  0.4001
 7678SOL     OW34495   3.259   1.119  17.367  0.0305  0.1962 -0.0551
 7678SOL    HW134496   3.190   1.139  17.430  0.5902 -0.6636  0.8165
 7678SOL    HW234497   3.279   1.027  17.382 -0.4914  0.1644  0.4814
 7679SOL     OW34498   0.144   0.572   4.934  0.2880  0.2386 -0.1070
 7679SOL    HW134499   0.196   0.495   4.913  0.6649 -0.0159  1.7592
 7679SOL    HW234500   0.116   0.551   5.023  1.1375  0.5396  0.2299
 7680SOL     OW34501   3.275   1.584   1.128  0.1930 -0.4855 -0.2103
 7680SOL    HW134502   3.249   1.499   1.165 -0.1378  0.2021  1.1535
 7680SOL    HW234503   3.262   1.561   1.036  0.6030 -0.3666 -0.3007
 7681SOL     OW34504   1.474   4.347   8.430 -0.3642 -0.5751 -0.1740
 7681SOL    HW134505   1.429   4.391   8.357  1.0989  0.9072 -0.1647
 7681SOL    HW234506   1.407   4.284   8.456  0.2274 -0.0614  2.5516
 7682SOL     OW34507   4.660   2.443   8.282 -0.0393 -0.1947  0.0419
 7682SOL    HW134508   0.003   2.384   8.316 -1.5717 -0.7158  2.1549
 7682SOL    HW234509   4.697   2.469   8.197 -3.4322  1.1699 -0.9945
 7683SOL     OW34510   2.951   1.710   3.386  0.2827  0.1970 -0.3061
 7683SOL    HW134511   2.926   1.783   3.442 -0.4131  0.5671 -1.0923
 7683SOL    HW234512   2.888   1.734   3.318 -1.9909  0.9383  2.0581
 7684SOL     OW34513   1.545   0.398   6.788 -0.2752 -0.8096  0.1159
 7684SOL    HW134514   1.584   0.326   6.838  0.6321 -0.3876  0.0120
 7684SOL    HW234515   1.603   0.404   6.712 -0.7511 -0.6772 -0.2375
 7685SOL     OW34516   4.484   3.386  12.833 -0.3011 -0.2287  0.2076
 7685SOL    HW134517   4.444   3.386  12.920  1.1513  1.5661  0.8714
 7685SOL    HW234518   4.539   3.310  12.852 -0.1785  0.0720  1.0580
 7686SOL     OW34519   4.713   1.720  11.572  0.6369 -0.1167 -0.2269
 7686SOL    HW134520   0.028   1.805  11.554  0.8452 -0.2523 -0.4219
 7686SOL    HW234521   4.669   1.699  11.489 -0.6846  1.8576 -0.0317
 7687SOL     OW34522   1.827   3.565  15.787  0.0381  0.5370  0.2437
 7687SOL    HW134523   1.882   3.583  15.863 -0.9644 -0.9135  1.3244
 7687SOL    HW234524   1.856   3.643  15.740  1.9903  0.6594  1.6541
 7688SOL     OW34525   1.417   1.859   2.309  0.0747  0.6739  0.8242
 7688SOL    HW134526   1.474   1.800   2.261 -2.0445 -0.3005 -0.4710
 7688SOL    HW234527   1.381   1.917   2.242 -0.8676 -1.1052 -0.2105
 7689SOL     OW34528   1.958   0.660  10.797 -0.6530  0.1155 -0.4911
 7689SOL    HW134529   2.009   0.658  10.716 -0.9221 -0.8706 -0.6284
 7689SOL    HW234530   1.884   0.607  10.769 -1.6322  0.3127  1.7167
 7690SOL     OW34531   3.641   0.818   5.902  0.1338 -0.8691 -0.1964
 7690SOL    HW134532   3.660   0.789   5.813 -1.4750  0.0263 -0.8363
 7690SOL    HW234533   3.727   0.799   5.939 -0.0910 -0.5487  0.4933
 7691SOL     OW34534   1.626   1.780   2.146  0.3999  0.0768 -0.5250
 7691SOL    HW134535   1.681   1.846   2.188 -1.4558 -1.0880  3.8182
 7691SOL    HW234536   1.619   1.802   2.053 -1.3630  0.3322 -0.3490
 7692SOL     OW34537   4.722   4.050  17.182 -0.0221  0.4030 -0.4731
 7692SOL    HW134538   0.090   4.029  17.167 -0.1062  0.3230 -0.8714
 7692SOL    HW234539   0.000   4.081  17.272  1.4043  0.2247 -0.4561
 7693SOL     OW34540   1.157   2.350   8.472 -0.4772  0.0105  0.8088
 7693SOL    HW134541   1.150   2.406   8.395  1.1933 -0.1180  0.5822
 7693SOL    HW234542   1.219   2.284   8.443  0.0671  1.1596 -0.6144
 7694SOL     OW34543   0.385   4.569   6.592  0.6116  0.3500 -0.1326
 7694SOL    HW134544   0.396   4.478   6.564  0.7299 -0.0937  1.3418
 7694SOL    HW234545   0.477   4.598   6.588  0.6800  0.3348  1.4945
 7695SOL     OW34546   1.832   1.066  17.651 -0.1398 -1.1975  0.0354
 7695SOL    HW134547   1.804   1.156  17.671  1.7243 -0.3815 -1.0133
 7695SOL    HW234548   1.749   1.029  17.619 -1.3231  0.9019  0.6206
 7696SOL     OW34549   1.298   0.408   2.888 -0.1634  0.6258  0.0266
 7696SOL    HW134550   1.264   0.450   2.967 -0.7776 -0.3206  0.2751
 7696SOL    HW234551   1.355   0.478   2.857  0.0383  0.0449 -0.9015
 7697SOL     OW34552   0.967   4.341  16.680  0.0723 -0.1949  0.0048
 7697SOL    HW134553   1.043   4.334  16.621  1.0275  2.0137  0.9749
 7697SOL    HW234554   1.004   4.311  16.763 -1.0719 -1.0040  0.2162
 7698SOL     OW34555   3.846   3.476   7.412 -0.3646  0.0940 -0.1608
 7698SOL    HW134556   3.908   3.457   7.482  0.0909  2.3932  0.0588
 7698SOL    HW234557   3.867   3.569   7.417  0.2487 -0.0995  0.8902
 7699SOL     OW34558   2.932   3.621   1.129  0.4269 -0.4086  0.2436
 7699SOL    HW134559   2.865   3.666   1.180 -1.4327 -1.7164 -1.0359
 7699SOL    HW234560   3.002   3.618   1.194  2.2713  1.2360 -1.6669
 7700SOL     OW34561   1.258   0.864   7.075  0.3858 -0.4347 -0.0599
 7700SOL    HW134562   1.335   0.817   7.105  0.4501 -1.3125 -1.6151
 7700SOL    HW234563   1.259   0.944   7.127 -1.3699 -1.3964  1.4518
 7701SOL     OW34564   3.468   1.842   6.281 -0.4775  0.2352  0.1697
 7701SOL    HW134565   3.447   1.754   6.314 -1.3949 -0.1254 -1.3700
 7701SOL    HW234566   3.450   1.827   6.189  3.9684 -3.0821 -0.1167
 7702SOL     OW34567   3.444   0.090   4.226  0.4815  0.2480  0.3370
 7702SOL    HW134568   3.385   0.151   4.272  0.6865  1.0940 -0.5156
 7702SOL    HW234569   3.473   0.032   4.295 -0.0854 -0.9897 -0.4700
 7703SOL     OW34570   2.351   0.832   3.353  0.0196 -0.3124  0.2112
 7703SOL    HW134571   2.430   0.801   3.399  0.9157 -1.2446 -1.9643
 7703SOL    HW234572   2.330   0.912   3.402 -0.3567 -0.4412  0.2614
 7704SOL     OW34573   0.263   3.347   5.773 -0.0943 -0.2467  0.3392
 7704SOL    HW134574   0.265   3.271   5.714 -0.6012  0.0237 -0.0288
 7704SOL    HW234575   0.353   3.329   5.798 -0.4207 -0.1014  1.6228
 7705SOL     OW34576   1.200   4.420   9.557 -0.4165 -0.2796  0.0389
 7705SOL    HW134577   1.291   4.390   9.549 -0.3402 -0.2553  0.7655
 7705SOL    HW234578   1.172   4.355   9.621 -2.9015  2.4626  1.7029
 7706SOL     OW34579   4.320   3.394  11.123 -0.0792 -0.3890  0.4131
 7706SOL    HW134580   4.254   3.462  11.132  0.2454 -0.2389  1.6954
 7706SOL    HW234581   4.315   3.351  11.208  4.1324  0.9767  1.3613
 7707SOL     OW34582   0.346   1.446  16.890 -0.4672  0.1777  0.2910
 7707SOL    HW134583   0.280   1.515  16.886 -1.1060 -0.4367  0.1136
 7707SOL    HW234584   0.302   1.371  16.930 -0.8302 -0.2676 -0.9405
 7708SOL     OW34585   0.558   3.579   4.360 -0.2264  0.0044  0.1042
 7708SOL    HW134586   0.616   3.506   4.382 -2.3195 -1.7860 -0.3618
 7708SOL    HW234587   0.527   3.547   4.276 -1.3367 -0.9362  0.8636
 7709SOL     OW34588   1.530   1.082   2.414  0.3182  0.0361  0.2823
 7709SOL    HW134589   1.561   1.026   2.485 -1.5349 -1.0850  0.2011
 7709SOL    HW234590   1.565   1.034   2.340  1.0378  1.4411 -0.2866
 7710SOL     OW34591   1.441   1.355  11.086  0.1452 -0.6821 -0.1470
 7710SOL    HW134592   1.507   1.389  11.146 -0.7126 -1.3964  1.2134
 7710SOL    HW234593   1.481   1.375  11.001 -1.4964  0.4923 -0.6340
 7711SOL     OW34594   3.924   0.771  15.237  0.0209  0.2829  0.1000
 7711SOL    HW134595   3.848   0.739  15.189  0.3451 -1.4003  0.7466
 7711SOL    HW234596   3.998   0.759  15.177  0.1253  0.8618  0.1082
 7712SOL     OW34597   2.285   1.466  14.191 -0.4974  0.2202 -0.6288
 7712SOL    HW134598   2.213   1.528  14.181 -1.7128 -1.1926 -0.7437
 7712SOL    HW234599   2.305   1.447  14.100 -3.1532 -0.7403 -1.0002
 7713SOL     OW34600   2.910   1.699   2.919 -0.4084 -0.1950 -0.2187
 7713SOL    HW134601   3.005   1.712   2.919 -0.2946 -1.0157  1.4135
 7713SOL    HW234602   2.904   1.657   2.834 -2.5525  2.2807 -1.3111
 7714SOL     OW34603   2.513   0.775   0.369 -0.2142 -0.0906  0.4545
 7714SOL    HW134604   2.498   0.765   0.275  2.5643 -1.2171  0.1478
 7714SOL    HW234605   2.534   0.868   0.368 -2.0824  0.3513  1.3426
 7715SOL     OW34606   3.079   1.432   7.924  0.4458  0.2776 -0.2714
 7715SOL    HW134607   3.045   1.352   7.964  2.1950 -1.5142 -2.3761
 7715SOL    HW234608   2.997   1.472   7.893  0.9283  1.4671 -0.0265
 7716SOL     OW34609   3.947   4.200   9.818  0.1663 -0.2990  0.0671
 7716SOL    HW134610   3.865   4.165   9.851 -0.0398  0.6021  0.5346
 7716SOL    HW234611   4.007   4.126   9.813  0.9471  0.3845 -0.6171
 7717SOL     OW34612   3.327   1.460   5.222  0.6643 -0.1390 -0.1214
 7717SOL    HW134613   3.255   1.398   5.216  2.4954 -2.2946  0.4989
 7717SOL    HW234614   3.385   1.408   5.277  0.9062 -0.3077 -0.5369
 7718SOL     OW34615   4.345   3.605   3.374  0.4548 -0.4886  0.2422
 7718SOL    HW134616   4.339   3.660   3.296  0.6341 -0.4523  0.2535
 7718SOL    HW234617   4.342   3.517   3.338 -2.7051 -0.2088 -0.1784
 7719SOL     OW34618   0.992   4.681   6.298  0.0352 -0.1771  0.4654
 7719SOL    HW134619   1.075   0.003   6.294 -0.9377  1.5230 -0.0937
 7719SOL    HW234620   1.016   4.591   6.278  0.4903  0.1282 -0.3455
 7720SOL     OW34621   1.253   3.246   7.065  0.4210 -0.3892  0.4493
 7720SOL    HW134622   1.215   3.242   6.977  0.9323  0.4415  0.1880
 7720SOL    HW234623   1.225   3.335   7.087  0.7482  0.0212 -0.7893
 7721SOL     OW34624   1.082   3.729   9.038  0.2131  0.2350  0.7095
 7721SOL    HW134625   1.001   3.708   8.993  1.4423  1.4187 -2.0305
 7721SOL    HW234626   1.088   3.824   9.031  0.0337  0.0114 -2.2571
 7722SOL     OW34627   4.165   1.797   4.631  0.2830 -0.0941  0.3305
 7722SOL    HW134628   4.156   1.793   4.536 -0.6247  1.8295  0.3202
 7722SOL    HW234629   4.250   1.836   4.648  1.0367 -1.4327 -0.3897
 7723SOL     OW34630   0.589   4.571   3.634  0.3931  0.5096 -0.5191
 7723SOL    HW134631   0.613   4.640   3.695  0.2774 -0.7675  0.9679
 7723SOL    HW234632   0.519   4.607   3.580  2.1927 -0.6140 -3.6220
 7724SOL     OW34633   2.634   1.970   2.278  0.2262 -0.1672 -0.4230
 7724SOL    HW134634   2.645   2.062   2.303  1.7837 -1.2652  2.9340
 7724SOL    HW234635   2.711   1.937   2.324  0.3978  1.8363  0.7226
 7725SOL     OW34636   1.309   2.057   6.021 -0.1161 -0.6715  0.5456
 7725SOL    HW134637   1.379   2.109   6.059 -2.0349  0.2039  2.9266
 7725SOL    HW234638   1.281   2.021   6.105 -1.1428  0.0186  0.4999
 7726SOL     OW34639   4.382   0.762   2.405 -0.2582 -0.1530  0.4020
 7726SOL    HW134640   4.320   0.831   2.383  0.8351  0.1709 -1.6398
 7726SOL    HW234641   4.400   0.727   2.318 -0.8133 -1.8948  0.9725
 7727SOL     OW34642   2.915   4.348   5.413  0.3681  0.2474 -0.4638
 7727SOL    HW134643   2.924   4.313   5.324  0.9212 -1.7314  0.3496
 7727SOL    HW234644   2.863   4.422   5.385 -0.0714  0.4546  0.8928
 7728SOL     OW34645   0.153   1.017   5.648 -0.0303  0.2789  0.0780
 7728SOL    HW134646   0.155   1.090   5.587 -0.0447  0.1301 -0.1016
 7728SOL    HW234647   0.077   0.964   5.625  0.3740 -0.8554  1.3573
 7729SOL     OW34648   1.358   3.952   0.075 -0.5799  0.2409 -0.2346
 7729SOL    HW134649   1.417   3.896   0.126 -0.5701 -0.1828 -0.7072
 7729SOL    HW234650   1.282   3.894   0.076 -0.7219  0.4171 -1.7120
 7730SOL     OW34651   0.548   1.780   3.255  0.0967 -0.2606  0.5121
 7730SOL    HW134652   0.618   1.750   3.197  1.0533 -0.4490  1.7467
 7730SOL    HW234653   0.465   1.743   3.225  0.5712 -0.8931 -0.0493
 7731SOL     OW34654   3.317   4.554   3.485 -0.8204  0.0203 -0.5481
 7731SOL    HW134655   3.367   4.634   3.495 -1.1928  0.2655 -0.6499
 7731SOL    HW234656   3.299   4.546   3.391  1.0542 -1.1938 -0.8048
 7732SOL     OW34657   2.635   4.093   4.681  0.2235  0.1910  0.0894
 7732SOL    HW134658   2.729   4.077   4.675  0.4752  1.6837  0.0696
 7732SOL    HW234659   2.617   4.049   4.764 -2.0947 -1.4550 -1.3066
 7733SOL     OW34660   0.883   3.349   2.377 -0.1540  0.1678 -0.0147
 7733SOL    HW134661   0.948   3.310   2.318  0.3120 -2.5528  2.3070
 7733SOL    HW234662   0.860   3.428   2.328  0.6242  0.1368 -0.4248
 7734SOL     OW34663   0.793   1.418   7.658  0.0986 -0.5331  0.5535
 7734SOL    HW134664   0.824   1.383   7.741  1.2122 -0.8206  0.0143
 7734SOL    HW234665   0.834   1.357   7.596 -1.8336 -1.1923 -0.0751
 7735SOL     OW34666   0.186   1.145   3.713 -0.1574 -0.4067  0.0261
 7735SOL    HW134667   0.166   1.095   3.792 -1.5481 -2.2839 -1.5028
 7735SOL    HW234668   0.278   1.120   3.709 -0.5118 -1.5725 -0.7669
 7736SOL     OW34669   3.802   0.270   3.580  0.2242 -0.3677 -0.1895
 7736SOL    HW134670   3.748   0.195   3.606 -2.3891  1.5472 -0.1562
 7736SOL    HW234671   3.740   0.339   3.601 -1.8704 -2.4124  0.3792
 7737SOL     OW34672   3.164   4.477  10.492 -0.0840 -0.0793 -0.3617
 7737SOL    HW134673   3.218   4.495  10.415  2.5040 -0.6190  1.3325
 7737SOL    HW234674   3.238   4.493  10.551 -0.6718  1.3781 -0.0171
 7738SOL     OW34675   1.937   3.345  15.291  0.6010  0.4186 -0.3301
 7738SOL    HW134676   1.933   3.433  15.327 -0.7526  0.9480 -1.7753
 7738SOL    HW234677   1.867   3.300  15.337  0.1322 -0.1013 -1.5511
 7739SOL     OW34678   4.499   4.323   2.402 -0.3754 -0.2224  0.2644
 7739SOL    HW134679   4.533   4.322   2.313  0.2999 -1.3141  0.5386
 7739SOL    HW234680   4.422   4.267   2.398  0.1395 -0.7246 -2.2457
 7740SOL     OW34681   1.489   1.710  16.170  0.0336 -0.5369 -0.1934
 7740SOL    HW134682   1.457   1.796  16.195  0.3987 -0.2784 -0.6213
 7740SOL    HW234683   1.581   1.711  16.197  0.3131  0.9614 -1.2491
 7741SOL     OW34684   2.670   3.671  17.195 -0.7368  0.0059 -0.0601
 7741SOL    HW134685   2.738   3.603  17.201  0.4572  1.1964 -0.1887
 7741SOL    HW234686   2.711   3.752  17.225 -0.5673 -0.3456  0.6558
 7742SOL     OW34687   4.232   2.354   4.533 -0.5258  0.4704  0.3008
 7742SOL    HW134688   4.139   2.372   4.547 -0.7075  0.1067 -0.4442
 7742SOL    HW234689   4.234   2.355   4.437  0.0693 -1.6916  0.2868
 7743SOL     OW34690   0.325   2.528  16.236 -0.1377 -0.4056 -0.2421
 7743SOL    HW134691   0.331   2.524  16.140  2.0532 -0.4995 -0.0921
 7743SOL    HW234692   0.374   2.447  16.251 -2.2908 -1.5296  0.7568
 7744SOL     OW34693   1.020   2.073   7.668  0.2607 -0.4968  0.0542
 7744SOL    HW134694   1.003   2.160   7.630 -0.4782 -0.9268 -0.5893
 7744SOL    HW234695   0.929   2.065   7.696 -0.2801 -1.6017 -2.0026
 7745SOL     OW34696   2.030   0.550   7.287 -0.2493  0.2666  0.7858
 7745SOL    HW134697   2.013   0.513   7.200 -0.8397 -1.6661  1.7163
 7745SOL    HW234698   2.045   0.643   7.272 -0.8699  0.2277 -0.1181
 7746SOL     OW34699   2.301   4.116   2.194  0.1937 -0.6465 -0.2760
 7746SOL    HW134700   2.299   4.196   2.247 -1.1659  0.0942 -1.4306
 7746SOL    HW234701   2.393   4.099   2.176  1.0693  1.9273  1.9418
 7747SOL     OW34702   1.783   3.377   3.612 -0.7638 -0.2992 -0.6162
 7747SOL    HW134703   1.782   3.408   3.702 -1.1400  0.2000 -0.7930
 7747SOL    HW234704   1.715   3.310   3.615 -1.3254  0.4279  2.4951
 7748SOL     OW34705   1.703   1.146  10.679  0.3714  0.1175 -0.2961
 7748SOL    HW134706   1.671   1.112  10.595  0.7841  1.1252 -0.8508
 7748SOL    HW234707   1.739   1.071  10.727  1.4995  0.7555 -0.1580
 7749SOL     OW34708   1.141   2.324   9.003  0.4857 -0.0873 -0.1829
 7749SOL    HW134709   1.093   2.268   8.942 -1.3772  0.8873  0.3858
 7749SOL    HW234710   1.232   2.321   8.976  0.6074 -0.7697  0.2889
 7750SOL     OW34711   3.379   3.168   6.620 -0.3256 -0.1439  0.1500
 7750SOL    HW134712   3.385   3.162   6.715 -0.0277  1.8513  0.2613
 7750SOL    HW234713   3.326   3.248   6.617  1.9126  1.4526  3.2973
 7751SOL     OW34714   1.853   2.574  10.756 -0.5240 -0.5360 -0.0378
 7751SOL    HW134715   1.863   2.482  10.780 -1.0878 -0.3146  1.0803
 7751SOL    HW234716   1.768   2.566  10.712 -0.9641  1.4250  0.4760
 7752SOL     OW34717   0.472   2.475  10.951 -0.5168 -0.0015  0.1846
 7752SOL    HW134718   0.392   2.428  10.928 -1.7620  1.5727  1.3429
 7752SOL    HW234719   0.485   2.456  11.044  0.6620 -0.7605 -0.1315
 7753SOL     OW34720   4.224   0.181  14.516 -0.6690 -0.1901 -0.0019
 7753SOL    HW134721   4.319   0.192  14.509 -0.7856  0.5074 -0.5068
 7753SOL    HW234722   4.194   0.249  14.455 -0.9386 -0.6622 -0.3946
 7754SOL     OW34723   4.462   2.705   1.760 -0.0852  0.3254 -0.0225
 7754SOL    HW134724   4.521   2.780   1.773 -0.8034  0.1042  4.5916
 7754SOL    HW234725   4.391   2.747   1.713  0.6013  1.7893  0.2444
 7755SOL     OW34726   0.637   1.061   3.884 -0.0222 -0.2442 -0.0916
 7755SOL    HW134727   0.593   1.138   3.848  0.6104 -1.1442 -2.7667
 7755SOL    HW234728   0.585   0.992   3.845 -0.5684  1.3668 -2.2076
 7756SOL     OW34729   4.127   3.433   0.639 -0.0867  0.3572 -0.4314
 7756SOL    HW134730   4.177   3.401   0.563 -1.5309  0.4200 -1.4125
 7756SOL    HW234731   4.046   3.454   0.593 -0.1925  1.3140  0.2088
 7757SOL     OW34732   3.707   0.112  15.395  0.2583  0.0158 -0.1854
 7757SOL    HW134733   3.703   0.123  15.300  1.3325  0.4000 -0.1846
 7757SOL    HW234734   3.771   0.042  15.403  1.0537  0.9456  1.5555
 7758SOL     OW34735   1.483   0.808  10.104 -0.2173 -0.0864  0.4586
 7758SOL    HW134736   1.437   0.874  10.155 -0.7973 -0.1468  0.0208
 7758SOL    HW234737   1.448   0.730  10.146 -2.4560  0.3905 -0.5224
 7759SOL     OW34738   2.774   2.420   3.607 -0.1119  0.3257  0.6751
 7759SOL    HW134739   2.709   2.436   3.675 -2.6456  1.1743 -1.9528
 7759SOL    HW234740   2.827   2.353   3.650  2.6000  1.9247 -0.1155
 7760SOL     OW34741   2.138   2.746   3.906 -0.0869 -0.6614  0.3687
 7760SOL    HW134742   2.199   2.706   3.967 -1.5524  1.1768  3.0072
 7760SOL    HW234743   2.060   2.735   3.960  1.6489  1.4357  3.2488
 7761SOL     OW34744   3.493   2.634   8.148 -0.3248  0.0147 -0.5226
 7761SOL    HW134745   3.449   2.652   8.065  1.0051  0.9602 -1.0350
 7761SOL    HW234746   3.477   2.541   8.165 -1.9235  0.5311  0.7431
 7762SOL     OW34747   4.061   3.062  13.849  0.2553 -0.4289 -0.0707
 7762SOL    HW134748   4.004   3.023  13.915 -0.5523  1.7298  0.5234
 7762SOL    HW234749   4.151   3.032  13.856  1.3707  2.8102 -0.3814
 7763SOL     OW34750   0.860   2.057   9.018  0.5298 -0.1938 -0.5742
 7763SOL    HW134751   0.928   1.990   9.027  0.1912 -0.2748  1.3754
 7763SOL    HW234752   0.819   2.030   8.937  2.0656 -0.7157 -1.1771
 7764SOL     OW34753   4.193   2.017  13.272 -0.0876 -0.7902  0.4218
 7764SOL    HW134754   4.243   1.980  13.344  1.3528 -0.1512 -0.2411
 7764SOL    HW234755   4.159   1.943  13.223  2.0859  0.6595 -3.2551
 7765SOL     OW34756   3.152   2.683  11.992  0.1421 -0.2966  0.3870
 7765SOL    HW134757   3.178   2.758  11.940 -0.0688 -0.0404  0.6539
 7765SOL    HW234758   3.243   2.656  12.008  2.0747  3.0338 -4.9759
 7766SOL     OW34759   0.088   2.582  13.790 -0.1465 -0.1065  0.3781
 7766SOL    HW134760   0.111   2.622  13.874  0.4745 -0.8220  0.5450
 7766SOL    HW234761   4.719   2.601  13.797 -0.0131  0.6790  0.0275
 7767SOL     OW34762   3.457   0.046   2.427  0.2356  0.3565  0.2866
 7767SOL    HW134763   3.520   0.112   2.453  0.2376  0.9803 -1.3391
 7767SOL    HW234764   3.393   0.040   2.498  0.4004 -3.6914  0.0930
 7768SOL     OW34765   3.947   4.268   3.804  0.1763 -0.5794 -0.5295
 7768SOL    HW134766   3.914   4.309   3.883  0.0905 -0.8255 -0.4386
 7768SOL    HW234767   3.971   4.181   3.836 -1.6028 -2.3743 -4.1002
 7769SOL     OW34768   2.667   3.633   6.541 -0.0804 -0.7698 -0.0769
 7769SOL    HW134769   2.685   3.539   6.549  0.6132 -0.7098 -0.9038
 7769SOL    HW234770   2.571   3.628   6.537 -0.1566  0.6411  0.1961
 7770SOL     OW34771   0.192   0.211   2.907  0.2600 -0.2343 -0.2101
 7770SOL    HW134772   0.128   0.269   2.866  0.3205 -0.6777 -0.9525
 7770SOL    HW234773   0.136   0.133   2.901  0.1252 -0.1445 -0.1166
 7771SOL     OW34774   3.487   4.656   4.423  0.4769 -0.6288 -0.0035
 7771SOL    HW134775   3.529   4.610   4.496  1.3876 -1.7822 -1.2358
 7771SOL    HW234776   3.403   4.611   4.425 -0.1422  0.6335  2.1081
 7772SOL     OW34777   2.243   4.170   7.792 -0.1367  0.2394 -0.1038
 7772SOL    HW134778   2.189   4.247   7.774  1.6574  1.2539 -1.1371
 7772SOL    HW234779   2.177   4.102   7.776  0.3510  0.1219 -1.6382
 7773SOL     OW34780   2.882   0.183   8.193  0.2523 -0.2673  0.4979
 7773SOL    HW134781   2.882   0.197   8.098  0.6224 -1.6205  0.2897
 7773SOL    HW234782   2.896   0.089   8.177 -1.8715 -0.3009 -1.1042
 7774SOL     OW34783   4.350   3.985   2.240  0.0513 -0.5803 -0.4288
 7774SOL    HW134784   4.410   3.998   2.313 -0.5627  1.2812 -0.2766
 7774SOL    HW234785   4.413   3.991   2.168  0.8563  0.7572  0.4053
 7775SOL     OW34786   2.351   2.181   5.345  0.7296 -0.1732 -0.4105
 7775SOL    HW134787   2.361   2.276   5.335 -0.0939 -0.0930 -0.4665
 7775SOL    HW234788   2.346   2.139   5.259 -0.6072 -0.7189 -0.0590
 7776SOL     OW34789   4.555   0.653   5.272  0.0738  0.1366  0.0639
 7776SOL    HW134790   4.471   0.608   5.267  0.0635  0.1816 -0.1662
 7776SOL    HW234791   4.610   0.595   5.220 -0.6336  0.6134 -1.2181
 7777SOL     OW34792   4.285   0.423   0.538 -1.1516 -0.7714 -0.1294
 7777SOL    HW134793   4.375   0.395   0.551 -0.8315  0.7638  0.9708
 7777SOL    HW234794   4.290   0.512   0.573  1.8667 -0.9576 -0.1196
 7778SOL     OW34795   3.692   2.988  10.676 -0.3298  0.1620  0.1480
 7778SOL    HW134796   3.655   3.076  10.668  0.2027  0.3196 -0.6724
 7778SOL    HW234797   3.786   3.006  10.673  0.0804 -2.1694 -1.4408
 7779SOL     OW34798   3.910   4.151  13.116  0.1707 -0.5344  0.2080
 7779SOL    HW134799   3.820   4.122  13.133 -0.8860  1.3870 -2.0902
 7779SOL    HW234800   3.959   4.129  13.195 -0.2184  0.9202  0.8660
 7780SOL     OW34801   2.903   4.600   5.799  0.3264  0.4225  0.2164
 7780SOL    HW134802   2.920   4.520   5.748  0.5644  0.0873  0.8207
 7780SOL    HW234803   2.899   4.553   5.882  0.9570  0.5047  0.2964
 7781SOL     OW34804   4.178   2.161   7.029  0.0508  0.0740 -0.0731
 7781SOL    HW134805   4.157   2.152   7.121  1.5439  0.4806  0.3071
 7781SOL    HW234806   4.248   2.226   7.021  0.9375 -0.8201  0.4087
 7782SOL     OW34807   4.261   1.780   5.112  0.1693 -0.5998  0.0202
 7782SOL    HW134808   4.201   1.783   5.038  1.7635  1.9619 -1.1515
 7782SOL    HW234809   4.306   1.696   5.102 -0.1075 -0.6325 -0.8919
 7783SOL     OW34810   2.453   4.294   9.054  0.0554  0.3013 -0.2736
 7783SOL    HW134811   2.460   4.382   9.015 -0.5986  0.1338 -0.7832
 7783SOL    HW234812   2.424   4.328   9.138  0.7072  0.0426  0.0530
 7784SOL     OW34813   2.046   2.642   9.307  0.3467  0.0549 -0.0656
 7784SOL    HW134814   2.052   2.711   9.373  0.3604 -0.3160  0.3219
 7784SOL    HW234815   2.044   2.560   9.356  1.0371 -0.6098 -1.1566
 7785SOL     OW34816   3.772   1.323   7.716  0.1813  0.8205  0.5257
 7785SOL    HW134817   3.685   1.351   7.743  0.0564  0.2101  0.7600
 7785SOL    HW234818   3.774   1.238   7.760 -0.3104  1.6704  2.1849
 7786SOL     OW34819   4.712   2.091  17.232  0.1095  0.1576 -0.8619
 7786SOL    HW134820   0.067   2.055  17.272 -0.8751  0.1569  1.0733
 7786SOL    HW234821   4.646   2.063  17.295 -0.2487  3.6506  0.3407
 7787SOL     OW34822   2.169   0.753   3.123  0.1456  0.1835 -0.0947
 7787SOL    HW134823   2.235   0.766   3.191  0.3816 -0.2826 -0.2374
 7787SOL    HW234824   2.213   0.681   3.078 -1.3772 -0.5991 -0.3214
 7788SOL     OW34825   1.590   1.294   8.763  0.7679  0.2027 -0.2557
 7788SOL    HW134826   1.504   1.335   8.769 -0.1974 -1.9636  0.3813
 7788SOL    HW234827   1.641   1.375   8.751 -0.3003  0.8587 -0.3261
 7789SOL     OW34828   2.576   4.031   5.593  0.2137 -0.1577 -0.6187
 7789SOL    HW134829   2.625   3.956   5.625 -0.6107  0.2662  1.6289
 7789SOL    HW234830   2.535   4.059   5.675  0.1855  4.4615 -2.1755
 7790SOL     OW34831   3.766   2.174   2.678  0.3671 -0.1780  0.1228
 7790SOL    HW134832   3.710   2.207   2.607  1.2769 -1.4821 -1.2048
 7790SOL    HW234833   3.710   2.108   2.718 -0.6218  0.3315 -0.4152
 7791SOL     OW34834   3.299   1.254  11.201  0.6330  0.1929 -0.0198
 7791SOL    HW134835   3.378   1.307  11.192 -0.6403  2.1472  0.2788
 7791SOL    HW234836   3.319   1.202  11.278  0.0912  1.6320  1.0912
 7792SOL     OW34837   1.395   2.104   1.677  0.0062  0.6194  0.0228
 7792SOL    HW134838   1.454   2.164   1.723 -0.8106  2.0101 -0.7233
 7792SOL    HW234839   1.317   2.161   1.680  0.2212  0.8814  0.6014
 7793SOL     OW34840   0.637   4.448   8.937 -0.1961 -0.0361 -0.1585
 7793SOL    HW134841   0.583   4.459   8.858 -1.2264  1.5929  0.7735
 7793SOL    HW234842   0.606   4.359   8.955 -1.5573  0.6870  1.0889
 7794SOL     OW34843   1.244   4.224   8.805 -0.5677  0.5636  0.5488
 7794SOL    HW134844   1.188   4.238   8.882  0.6540 -1.4381  1.7903
 7794SOL    HW234845   1.309   4.289   8.832 -0.0123 -0.0876  0.7751
 7795SOL     OW34846   4.390   1.558   6.669  0.3054 -0.2925  0.6225
 7795SOL    HW134847   4.338   1.509   6.733 -0.1495 -0.5973  0.0138
 7795SOL    HW234848   4.316   1.582   6.614  1.3538  1.3786 -0.0573
 7796SOL     OW34849   3.663   0.706  16.823  0.1725  0.3995  0.1920
 7796SOL    HW134850   3.654   0.754  16.740  1.1830 -0.6114 -0.5039
 7796SOL    HW234851   3.575   0.682  16.851 -0.5669  0.3884 -2.1589
 7797SOL     OW34852   4.583   1.591   1.133  0.2596  0.6126 -0.3022
 7797SOL    HW134853   4.538   1.562   1.054  1.4933  0.7726 -1.0771
 7797SOL    HW234854   4.659   1.533   1.129  0.7393  1.1925  0.1655
 7798SOL     OW34855   3.232   2.266   9.479 -0.1329  0.1795 -0.1123
 7798SOL    HW134856   3.150   2.312   9.498  0.4702  1.5151 -0.7574
 7798SOL    HW234857   3.256   2.245   9.569 -0.6931  1.2245  0.2919
 7799SOL     OW34858   1.914   2.147  10.063  0.2933  0.1899 -0.1687
 7799SOL    HW134859   1.889   2.105   9.981  2.2893 -2.5659  0.5875
 7799SOL    HW234860   1.908   2.070  10.120 -0.1296  1.1082  1.0334
 7800SOL     OW34861   3.307   2.291   2.620 -0.1381 -0.6075 -0.2290
 7800SOL    HW134862   3.220   2.275   2.585 -0.8441  3.1472 -0.1434
 7800SOL    HW234863   3.370   2.253   2.558 -0.1351  0.1328 -0.6764
 7801SOL     OW34864   1.956   2.287   1.614 -0.3159  0.5193  0.3049
 7801SOL    HW134865   1.882   2.236   1.582  0.4553  0.4108 -1.2879
 7801SOL    HW234866   2.029   2.267   1.555  1.0174  2.9966  1.1271
 7802SOL     OW34867   0.620   3.937   6.996 -0.5120  0.3106 -0.1283
 7802SOL    HW134868   0.577   3.851   6.995 -0.9359  0.4744  3.0195
 7802SOL    HW234869   0.714   3.920   6.991 -0.0898  2.4869  0.5551
 7803SOL     OW34870   2.200   2.831   2.512 -0.1319 -0.2468 -0.3016
 7803SOL    HW134871   2.139   2.799   2.578  1.2801  0.1665  1.1986
 7803SOL    HW234872   2.198   2.758   2.450 -3.1814 -1.1028  0.8025
 7804SOL     OW34873   1.031   3.663   7.006  0.0508 -0.7457 -0.1522
 7804SOL    HW134874   1.116   3.658   7.051  0.5635  1.6262 -0.8808
 7804SOL    HW234875   1.059   3.639   6.918  0.0045 -1.3574 -0.0002
 7805SOL     OW34876   3.416   3.663   4.829 -0.0024 -0.0796  0.0451
 7805SOL    HW134877   3.480   3.718   4.874  1.0642 -0.9648 -0.3818
 7805SOL    HW234878   3.347   3.724   4.803  1.4727  0.9628 -1.4540
 7806SOL     OW34879   1.136   2.050   8.852  0.0571 -0.4455 -0.1407
 7806SOL    HW134880   1.190   1.996   8.794  0.4165 -1.8839  1.5448
 7806SOL    HW234881   1.131   1.994   8.929  1.2489 -0.5623 -0.1365
 7807SOL     OW34882   0.524   1.844  11.574 -0.0603  0.2233 -0.0974
 7807SOL    HW134883   0.597   1.782  11.582 -0.2696 -0.1832 -1.3933
 7807SOL    HW234884   0.450   1.791  11.605 -0.2958 -0.4463 -1.8593
 7808SOL     OW34885   1.087   0.337   5.196 -0.3705  0.4423 -0.5079
 7808SOL    HW134886   1.138   0.408   5.235 -0.3945  0.4183 -0.4317
 7808SOL    HW234887   1.143   0.270   5.236 -1.1733  0.8619  1.3563
 7809SOL     OW34888   3.744   2.721  15.908 -0.2767 -0.5125 -0.2834
 7809SOL    HW134889   3.827   2.732  15.956 -0.4747 -0.3774  0.0241
 7809SOL    HW234890   3.769   2.640  15.863 -0.3251 -1.3629  1.2152
 7810SOL     OW34891   1.516   2.640   7.242  0.9064  0.4751 -0.7932
 7810SOL    HW134892   1.584   2.595   7.292  0.0950 -1.3381 -1.3301
 7810SOL    HW234893   1.567   2.641   7.161  0.4736  0.0279 -1.0696
 7811SOL     OW34894   3.185   3.548   9.806  0.0788 -0.2069  0.0618
 7811SOL    HW134895   3.115   3.512   9.751 -0.5327  1.4278 -0.2230
 7811SOL    HW234896   3.242   3.566   9.732 -2.0597  0.8361 -1.3323
 7812SOL     OW34897   3.121   2.034   7.673  0.2356  0.5730 -0.6067
 7812SOL    HW134898   3.062   2.093   7.626  0.1252  0.3714 -0.7235
 7812SOL    HW234899   3.067   2.017   7.750  0.5208  1.9595 -0.1053
 7813SOL     OW34900   4.485   0.153  11.082  0.0984  0.0517  0.4810
 7813SOL    HW134901   4.437   0.078  11.118 -2.3130  0.7365 -1.3367
 7813SOL    HW234902   4.416   0.209  11.047  1.1922  0.3845 -1.1394
 7814SOL     OW34903   0.778   1.191   5.553  0.0370 -0.2242 -0.1705
 7814SOL    HW134904   0.832   1.141   5.492 -0.3801 -1.1792  0.2340
 7814SOL    HW234905   0.811   1.281   5.547 -1.4547  0.2311 -1.6624
 7815SOL     OW34906   1.101   0.625   6.445 -0.3112 -0.1520 -0.1506
 7815SOL    HW134907   1.116   0.534   6.422 -0.7511 -0.2564 -0.0164
 7815SOL    HW234908   1.117   0.664   6.359 -0.0747 -3.5461 -1.6203
 7816SOL     OW34909   3.779   0.201   8.920 -0.2791 -0.3680  0.1329
 7816SOL    HW134910   3.788   0.156   9.004 -1.7353 -0.2719  0.3516
 7816SOL    HW234911   3.814   0.287   8.941 -2.2157  0.2967  0.6287
 7817SOL     OW34912   2.232   3.832   9.565 -0.0234  0.0611 -0.0126
 7817SOL    HW134913   2.191   3.871   9.488  0.3512  0.6154  0.0667
 7817SOL    HW234914   2.314   3.881   9.568  0.4093 -0.6749  0.1775
 7818SOL     OW34915   2.631   4.590   5.099  0.0574 -0.2347 -0.5297
 7818SOL    HW134916   2.727   4.592   5.108 -0.0098 -0.8570  0.3658
 7818SOL    HW234917   2.605   4.499   5.113  1.0492 -0.8631 -2.8547
 7819SOL     OW34918   3.079   4.585   8.564 -0.1304  0.0416 -0.1310
 7819SOL    HW134919   3.102   4.503   8.609 -0.8676 -0.2536 -0.2980
 7819SOL    HW234920   3.059   4.550   8.477  0.2265 -0.1954 -0.1196
 7820SOL     OW34921   2.987   1.646   2.650  0.0603 -0.1204 -0.2482
 7820SOL    HW134922   2.906   1.656   2.599 -1.1031 -3.9729  0.8615
 7820SOL    HW234923   3.020   1.565   2.612  2.0525  0.6499 -0.1152
 7821SOL     OW34924   3.269   4.528   3.861 -0.4855 -0.6807  0.2352
 7821SOL    HW134925   3.355   4.487   3.869  0.2682  0.7021 -0.7143
 7821SOL    HW234926   3.238   4.469   3.792 -3.6523 -0.5792  1.5771
 7822SOL     OW34927   3.606   2.662  13.733 -0.2183  0.0071 -0.4041
 7822SOL    HW134928   3.637   2.597  13.796 -0.9314 -0.9478 -1.0379
 7822SOL    HW234929   3.656   2.639  13.655  0.7417  2.2548 -0.4480
 7823SOL     OW34930   1.919   1.594   5.864 -0.3062  0.3158 -0.1565
 7823SOL    HW134931   1.832   1.580   5.900 -0.4704 -0.9902 -1.0565
 7823SOL    HW234932   1.979   1.563   5.931 -0.5311  0.0539 -0.0766
 7824SOL     OW34933   3.749   0.587  16.379  0.3069 -0.0204 -0.1027
 7824SOL    HW134934   3.672   0.538  16.409  0.3557  0.5241  0.9007
 7824SOL    HW234935   3.758   0.528  16.304 -1.0956 -2.5223  1.7029
 7825SOL     OW34936   0.556   0.823   5.324  0.0529  0.2550 -0.4857
 7825SOL    HW134937   0.582   0.915   5.329  1.0449  0.0716 -2.0259
 7825SOL    HW234938   0.470   0.823   5.365  0.2399 -1.4006 -0.1159
 7826SOL     OW34939   1.405   0.253   7.456 -0.8084 -0.2040  0.2463
 7826SOL    HW134940   1.350   0.263   7.534 -0.2437  0.0614  0.6108
 7826SOL    HW234941   1.478   0.198   7.482 -0.0735  1.0113  0.7728
 7827SOL     OW34942   2.158   4.614   2.333 -0.0053  0.4142 -0.2944
 7827SOL    HW134943   2.107   4.551   2.383  1.8868 -1.5972 -0.8848
 7827SOL    HW234944   2.121   4.613   2.245 -0.0530  1.3631 -0.2849
 7828SOL     OW34945   0.746   3.056  11.440  0.0207 -0.2643  0.3142
 7828SOL    HW134946   0.690   3.122  11.480 -2.1401 -0.4799 -2.2721
 7828SOL    HW234947   0.813   3.110  11.400 -1.0959  0.1182 -1.0588
 7829SOL     OW34948   4.711   3.073   6.859  0.0423  0.1969 -0.6055
 7829SOL    HW134949   0.036   3.029   6.790  0.9844  0.2352  0.0525
 7829SOL    HW234950   4.676   2.992   6.897  3.2355 -0.4828  0.9455
 7830SOL     OW34951   3.658   2.459   7.893  0.0635 -0.0002  0.2704
 7830SOL    HW134952   3.674   2.518   7.967 -0.7793  1.1602 -0.4649
 7830SOL    HW234953   3.742   2.457   7.846  0.7638  0.6280  1.4867
 7831SOL     OW34954   3.085   2.055  12.346 -0.1168  0.1630  0.5721
 7831SOL    HW134955   3.005   2.106  12.336  1.9640  3.1269 -1.0596
 7831SOL    HW234956   3.135   2.111  12.405 -0.3146 -0.4855  1.3476
 7832SOL     OW34957   2.144   3.317   3.321 -0.2964 -0.0484  0.0872
 7832SOL    HW134958   2.169   3.330   3.412 -3.7919 -0.2872  1.0740
 7832SOL    HW234959   2.223   3.279   3.282 -0.3586  0.1845 -0.2640
 7833SOL     OW34960   1.053   2.661  17.661  0.0806 -0.2801  0.7139
 7833SOL    HW134961   1.085   2.658   0.051  2.4128  1.1410 -0.0731
 7833SOL    HW234962   1.115   2.719  17.617  0.0257 -0.7184  0.0589
 7834SOL     OW34963   4.699   2.528   9.912  0.1254  0.1911  0.1058
 7834SOL    HW134964   4.714   2.438   9.883 -0.6499  0.8793 -2.4349
 7834SOL    HW234965   0.063   2.558   9.932 -0.0238  1.3404 -1.0358
 7835SOL     OW34966   4.561   2.191   2.798  0.0962  0.0403 -0.9222
 7835SOL    HW134967   4.552   2.285   2.782  0.2475  0.4993  1.7469
 7835SOL    HW234968   4.473   2.159   2.818  0.1678  0.2986 -0.1821
 7836SOL     OW34969   3.038   2.831   4.550  0.4483  0.4738  0.0254
 7836SOL    HW134970   2.971   2.828   4.619  1.0428 -2.5017  0.4957
 7836SOL    HW234971   2.999   2.884   4.481 -1.8787 -0.8365  0.3524
 7837SOL     OW34972   0.627   2.145   6.774 -0.2422 -0.2306 -0.3194
 7837SOL    HW134973   0.584   2.135   6.689  0.3834  0.8994 -0.7607
 7837SOL    HW234974   0.620   2.057   6.811 -0.4312 -0.0542  0.0592
 7838SOL     OW34975   0.296   2.004   9.859 -0.4229  0.0428 -0.1697
 7838SOL    HW134976   0.375   2.003   9.914 -0.6525  0.4744  0.1654
 7838SOL    HW234977   0.338   2.022   9.775  1.4210 -0.0221  0.7435
 7839SOL     OW34978   0.081   0.168   8.671  0.4436 -0.0977  0.6533
 7839SOL    HW134979   0.033   0.215   8.602  0.0300 -2.6975 -0.8251
 7839SOL    HW234980   0.075   0.230   8.744  1.2009 -0.3090  0.8948
 7840SOL     OW34981   4.510   1.442   6.143 -1.0257 -0.1146  0.6085
 7840SOL    HW134982   4.502   1.535   6.163 -0.8589  0.4852 -2.0754
 7840SOL    HW234983   4.489   1.454   6.050  2.1024 -0.1862 -0.1090
 7841SOL     OW34984   2.026   1.803   1.680  0.0732  0.3693 -0.3446
 7841SOL    HW134985   2.071   1.813   1.596  0.4248  0.5359 -0.1343
 7841SOL    HW234986   2.104   1.788   1.734 -1.3503 -3.4628  0.6337
 7842SOL     OW34987   2.640   0.976   1.806 -0.0922  0.3775  0.4408
 7842SOL    HW134988   2.691   1.002   1.883  2.3978  0.4887 -1.2238
 7842SOL    HW234989   2.623   1.066   1.780  0.5305  0.0911 -0.9753
 7843SOL     OW34990   1.532   2.337  12.155  0.1686 -0.2461 -0.4137
 7843SOL    HW134991   1.559   2.378  12.237  1.4196 -0.2510 -0.8204
 7843SOL    HW234992   1.507   2.248  12.182 -0.3112  0.3161  1.0162
 7844SOL     OW34993   4.011   3.056   6.497 -0.5210 -0.2910  0.2070
 7844SOL    HW134994   4.014   3.142   6.456  1.2804  0.1355  1.2259
 7844SOL    HW234995   4.047   2.990   6.437  0.2360  1.0833 -0.8367
 7845SOL     OW34996   0.971   4.205   8.672  0.0822 -0.0366  0.5018
 7845SOL    HW134997   0.947   4.288   8.714  2.1108  1.1940 -0.7464
 7845SOL    HW234998   1.064   4.192   8.687  0.2654  0.6276 -0.0067
 7846SOL     OW34999   2.919   3.869   3.077 -0.1350  0.6962  0.2587
 7846SOL    HW135000   2.875   3.878   2.992  0.1888  0.8044  0.1017
 7846SOL    HW235001   3.001   3.835   3.040  0.5291  2.3439  0.2219
 7847SOL     OW35002   4.698   4.396  15.100 -0.2440 -0.0694  0.6178
 7847SOL    HW135003   4.647   4.477  15.092  2.1337  1.4147  0.4733
 7847SOL    HW235004   0.041   4.445  15.146  0.0909 -2.2229  2.3970
 7848SOL     OW35005   4.329   4.354   4.244 -0.3316  0.2195  0.2676
 7848SOL    HW135006   4.295   4.418   4.308  0.2714  1.2056 -0.4051
 7848SOL    HW235007   4.401   4.405   4.208 -2.3944  2.1462 -1.1308
 7849SOL     OW35008   0.542   1.783  10.136  0.1772  0.4130 -0.3664
 7849SOL    HW135009   0.465   1.730  10.154  2.3378 -1.7949  2.3298
 7849SOL    HW235010   0.600   1.722  10.091 -2.9114 -1.5780 -1.6489
 7850SOL     OW35011   2.468   1.935   0.573 -0.2055 -0.3640 -0.5104
 7850SOL    HW135012   2.455   1.946   0.479 -1.4323  2.7361  0.0106
 7850SOL    HW235013   2.392   1.880   0.590 -0.4295 -0.4574 -1.8229
 7851SOL     OW35014   2.724   0.686   2.488  0.3905  0.4979  0.3405
 7851SOL    HW135015   2.732   0.593   2.468 -0.3562  0.5002  0.0056
 7851SOL    HW235016   2.630   0.697   2.472  0.2851 -1.1651 -0.1907
 7852SOL     OW35017   1.451   4.082   5.296  0.1938  0.3871 -0.4536
 7852SOL    HW135018   1.492   4.096   5.210 -0.8631 -0.1036 -1.0374
 7852SOL    HW235019   1.372   4.045   5.256 -0.0218  1.4668 -1.0157
 7853SOL     OW35020   0.924   1.953   2.487 -0.1371  0.2044 -0.0743
 7853SOL    HW135021   1.017   1.972   2.481 -0.3273  1.2522  0.1592
 7853SOL    HW235022   0.883   1.995   2.411 -0.3572 -1.4560 -0.8709
 7854SOL     OW35023   2.680   1.579   9.304  0.4181 -0.4920  0.1846
 7854SOL    HW135024   2.615   1.525   9.350 -1.2809  1.1705 -0.2641
 7854SOL    HW235025   2.746   1.511   9.293  0.9307 -0.2012  1.5044
 7855SOL     OW35026   1.162   4.157   2.316 -0.2516 -0.9284 -0.0025
 7855SOL    HW135027   1.209   4.238   2.294 -0.2840 -0.2144  2.5178
 7855SOL    HW235028   1.072   4.162   2.284 -0.4616 -0.2977  0.6681
 7856SOL     OW35029   1.965   1.944  12.404 -0.3345  0.0947 -0.1813
 7856SOL    HW135030   2.057   1.929  12.383 -0.4090 -1.9166  0.9294
 7856SOL    HW235031   1.931   1.965  12.318  0.3668  1.1785 -0.1797
 7857SOL     OW35032   3.409   3.648  15.019  0.0872 -0.0970 -0.1434
 7857SOL    HW135033   3.451   3.642  15.104 -2.8343 -0.1905  1.3132
 7857SOL    HW235034   3.427   3.558  14.993  3.3429  0.6538 -0.4902
 7858SOL     OW35035   2.522   2.933   5.052 -0.1476  0.3148 -0.2622
 7858SOL    HW135036   2.429   2.910   5.043 -0.5051  0.8128  2.1599
 7858SOL    HW235037   2.541   2.959   4.962 -1.1881  0.8167 -0.3405
 7859SOL     OW35038   0.008   0.577   6.498 -0.1598  0.3292  0.2819
 7859SOL    HW135039   0.082   0.591   6.439  0.4045 -1.9703  0.4467
 7859SOL    HW235040   4.716   0.483   6.485  5.3251 -0.5139 -0.4372
 7860SOL     OW35041   1.878   0.761   0.922 -0.5748 -0.4436 -0.9034
 7860SOL    HW135042   1.942   0.802   0.863  0.5161  0.9370  1.2739
 7860SOL    HW235043   1.903   0.798   1.006  0.2022 -0.0521 -1.3033
 7861SOL     OW35044   1.599   3.384   0.008 -0.6070 -0.3941 -0.6617
 7861SOL    HW135045   1.611   3.362  17.616  0.8987  1.7106 -0.9728
 7861SOL    HW235046   1.607   3.480   0.012  0.9298 -0.4732 -1.7040
 7862SOL     OW35047   4.326   4.378   5.379  0.0615  0.0298  0.4734
 7862SOL    HW135048   4.367   4.464   5.390 -0.6321  0.2861  1.0748
 7862SOL    HW235049   4.234   4.403   5.385 -0.0273 -0.4105  0.9416
 7863SOL     OW35050   1.187   1.743   3.767 -0.2074  0.0460 -0.4254
 7863SOL    HW135051   1.106   1.786   3.792 -1.3417 -0.7111 -2.7549
 7863SOL    HW235052   1.208   1.801   3.693  1.9617  0.4182  0.4739
 7864SOL     OW35053   4.253   4.157  17.687  0.0615  0.4566  0.4492
 7864SOL    HW135054   4.244   4.104  17.607 -2.2674  3.1067 -1.0432
 7864SOL    HW235055   4.161   4.163   0.014  0.0683  1.7729  0.1905
 7865SOL     OW35056   2.792   2.108   7.550 -0.4001  0.2643 -0.3483
 7865SOL    HW135057   2.837   2.193   7.559 -1.3185  0.5640  1.5331
 7865SOL    HW235058   2.798   2.099   7.455 -2.0661 -1.2933 -0.3053
 7866SOL     OW35059   2.087   0.371  16.821  0.3412  0.2298  0.0037
 7866SOL    HW135060   2.125   0.455  16.846  3.0783 -1.0550  0.1501
 7866SOL    HW235061   1.997   0.395  16.799 -0.0768 -0.4245  0.9806
 7867SOL     OW35062   0.739   0.867   8.339  0.4073 -0.0694  0.5233
 7867SOL    HW135063   0.755   0.960   8.322 -2.3147  0.0631 -1.3295
 7867SOL    HW235064   0.824   0.824   8.328  0.0641 -0.2069 -1.6365
 7868SOL     OW35065   4.554   3.012   3.309 -0.1519  0.0820  0.2934
 7868SOL    HW135066   4.482   3.000   3.248 -0.3083  3.7979 -0.2758
 7868SOL    HW235067   4.605   3.079   3.263  0.5527 -1.4872 -1.2427
 7869SOL     OW35068   3.596   2.387  17.411 -0.5270 -0.0146 -0.6068
 7869SOL    HW135069   3.524   2.374  17.473  0.2996 -0.7847  0.1952
 7869SOL    HW235070   3.560   2.461  17.362 -1.0186 -0.9039 -1.5892
 7870SOL     OW35071   2.215   1.275  14.706 -0.0416  0.5586  0.5687
 7870SOL    HW135072   2.228   1.311  14.618  0.4526  0.0449  0.4353
 7870SOL    HW235073   2.171   1.193  14.683 -0.4018  1.4208 -1.8151
 7871SOL     OW35074   1.399   3.116   3.269 -0.3154  0.0659  0.2270
 7871SOL    HW135075   1.394   3.203   3.308 -1.2237 -0.2643  0.8449
 7871SOL    HW235076   1.472   3.080   3.320 -0.6687 -0.9674  0.0197
 7872SOL     OW35077   1.929   3.060  16.022 -0.2250  0.3099 -0.0559
 7872SOL    HW135078   1.926   3.101  16.108  3.4956 -0.2544  0.3360
 7872SOL    HW235079   1.884   3.120  15.963  2.7700  3.0699  0.4661
 7873SOL     OW35080   3.966   2.183   1.945 -0.2669  0.1574 -0.0110
 7873SOL    HW135081   3.884   2.215   1.982  0.2890 -1.9441  3.0078
 7873SOL    HW235082   3.948   2.201   1.852  1.3253 -1.2934 -0.5972
 7874SOL     OW35083   1.344   4.459  17.348 -0.1158 -0.2411 -0.3736
 7874SOL    HW135084   1.344   4.364  17.359  0.2717 -0.0856  0.9058
 7874SOL    HW235085   1.416   4.473  17.287  1.0571  0.7256  1.2330
 7875SOL     OW35086   2.800   0.589   4.642  0.8443 -0.1859  0.3407
 7875SOL    HW135087   2.794   0.495   4.625  0.1465 -0.4276  1.9665
 7875SOL    HW235088   2.713   0.621   4.665  1.4334  0.1943  2.0490
 7876SOL     OW35089   1.009   2.457   5.819 -0.8543 -0.5597  0.0072
 7876SOL    HW135090   0.934   2.509   5.848  0.2609  2.1637 -2.0434
 7876SOL    HW235091   1.057   2.518   5.764 -1.5169  0.7878  0.9375
 7877SOL     OW35092   3.920   2.022   5.918 -0.3755 -0.2576 -0.1813
 7877SOL    HW135093   3.877   1.957   5.975  0.5059  0.2316  1.0522
 7877SOL    HW235094   3.864   2.031   5.841 -0.3528  1.3283 -0.0036
 7878SOL     OW35095   2.162   1.978   1.256  0.3994 -0.5775 -0.3773
 7878SOL    HW135096   2.153   2.074   1.260  0.9604 -0.5173 -0.5297
 7878SOL    HW235097   2.091   1.945   1.311  0.6580 -0.0756  0.2671
 7879SOL     OW35098   3.705   0.952   6.483 -0.1735  0.5337  0.4376
 7879SOL    HW135099   3.628   0.989   6.527  0.6549  1.3133  1.2295
 7879SOL    HW235100   3.718   0.998   6.400  0.6706  0.1856  0.3783
 7880SOL     OW35101   4.720   4.513   0.031 -0.1643 -0.2146  0.9385
 7880SOL    HW135102   4.630   4.481   0.042 -0.7053  1.1246  0.4425
 7880SOL    HW235103   0.028   4.456  17.661 -2.7506 -0.0506 -0.3997
 7881SOL     OW35104   3.477   0.459  13.951  0.0300  0.1059  0.2396
 7881SOL    HW135105   3.546   0.406  13.910 -0.8465 -1.7841  1.2622
 7881SOL    HW235106   3.420   0.483  13.878 -0.0206  0.1948  0.3092
 7882SOL     OW35107   0.533   4.349   2.455  0.0280 -0.3158 -0.6193
 7882SOL    HW135108   0.472   4.287   2.494  1.5037 -1.1578  0.3329
 7882SOL    HW235109   0.614   4.304   2.433 -0.6208 -0.3427 -3.0134
 7883SOL     OW35110   3.125   2.940  13.967  0.0476  0.2550 -0.2372
 7883SOL    HW135111   3.129   3.019  13.913 -0.9972 -0.3580 -1.2061
 7883SOL    HW235112   3.054   2.962  14.027 -0.3759 -2.9404  0.4254
 7884SOL     OW35113   1.856   1.672   4.607 -0.3439  0.2753 -0.0876
 7884SOL    HW135114   1.782   1.656   4.549 -0.5247 -0.4163  0.3358
 7884SOL    HW235115   1.906   1.747   4.573 -2.5525  1.3759 -0.8984
 7885SOL     OW35116   2.083   0.610  10.523 -0.0327  0.1032  0.1666
 7885SOL    HW135117   2.099   0.596  10.430 -1.2325  0.2959 -0.0689
 7885SOL    HW235118   2.135   0.544  10.570  0.8399 -0.8304 -2.1255
 7886SOL     OW35119   0.938   2.191   7.389  0.2678 -0.1554 -0.0457
 7886SOL    HW135120   0.956   2.202   7.296 -3.3082 -0.5619 -0.7852
 7886SOL    HW235121   1.015   2.225   7.434  1.7656 -2.5357 -0.8567
 7887SOL     OW35122   2.900   4.091   4.492 -0.1530  0.0334 -0.4820
 7887SOL    HW135123   2.861   4.076   4.406  1.3388  0.5183 -1.2539
 7887SOL    HW235124   2.986   4.052   4.475 -0.9597 -2.1776  0.4822
 7888SOL     OW35125   2.166   1.521  12.048  0.1090  0.1249  0.0850
 7888SOL    HW135126   2.224   1.587  12.012  0.8875  0.8634  2.6852
 7888SOL    HW235127   2.191   1.445  11.996 -1.9342 -0.4982 -0.0027
 7889SOL     OW35128   2.305   0.204   1.248  0.2784 -0.1298 -0.3738
 7889SOL    HW135129   2.396   0.215   1.221 -0.1677 -0.6668 -2.0788
 7889SOL    HW235130   2.254   0.208   1.167  0.3622 -0.6072 -0.4538
 7890SOL     OW35131   0.231   2.524   5.503 -0.5016  0.0259 -0.9183
 7890SOL    HW135132   0.158   2.470   5.473 -0.6458  1.0297 -2.3255
 7890SOL    HW235133   0.302   2.501   5.443  0.8315 -2.6721  1.6804
 7891SOL     OW35134   0.553   0.706   3.158 -0.4520  0.1299  0.3690
 7891SOL    HW135135   0.601   0.665   3.086 -0.6548  2.7336 -1.2475
 7891SOL    HW235136   0.618   0.699   3.228 -2.6407 -0.5744  2.3580
 7892SOL     OW35137   4.515   4.264   5.561 -0.4436 -0.6443  0.2673
 7892SOL    HW135138   4.475   4.259   5.648  1.4262  0.7372  1.1958
 7892SOL    HW235139   4.441   4.298   5.511 -0.5041 -1.2142 -0.0266
 7893SOL     OW35140   4.617   4.380   8.012  0.1011 -0.1906  0.1924
 7893SOL    HW135141   4.679   4.350   8.079  0.0598  0.5028  0.5346
 7893SOL    HW235142   4.650   4.469   8.001 -2.6430  0.5821 -1.8614
 7894SOL     OW35143   1.277   0.189   1.167  0.7842 -0.8692 -0.1538
 7894SOL    HW135144   1.347   0.129   1.192  1.4358  0.1211  0.3989
 7894SOL    HW235145   1.195   0.154   1.202 -0.9224  0.8482 -2.3808
 7895SOL     OW35146   1.638   1.456  11.235  0.2169  0.3962 -0.0002
 7895SOL    HW135147   1.671   1.535  11.277 -0.4361 -0.9611  3.0989
 7895SOL    HW235148   1.705   1.393  11.263  1.7211  2.6635  1.5867
 7896SOL     OW35149   3.402   1.339  15.742 -0.1862  0.2096  0.1772
 7896SOL    HW135150   3.434   1.404  15.679 -1.4890  0.9053  0.2233
 7896SOL    HW235151   3.316   1.313  15.708  0.3424 -3.0123  1.3222
 7897SOL     OW35152   4.542   0.122   8.496  0.0881  0.5776 -0.1947
 7897SOL    HW135153   4.548   0.042   8.548  1.9854  1.5032  1.0054
 7897SOL    HW235154   4.496   0.190   8.546 -1.1745 -1.4319  1.3582
 7898SOL     OW35155   0.069   2.073   3.702 -0.1120  0.2914 -0.2770
 7898SOL    HW135156   4.723   2.010   3.717  0.0238 -0.4303 -2.7914
 7898SOL    HW235157   0.074   2.116   3.787 -3.0710 -0.2897  0.1997
 7899SOL     OW35158   4.681   0.389   1.774 -0.6349 -0.3818 -0.2222
 7899SOL    HW135159   4.676   0.479   1.807 -0.7758 -0.1552 -0.8724
 7899SOL    HW235160   4.599   0.349   1.802  0.0860 -1.5879  0.2054
 7900SOL     OW35161   2.193   3.806   5.010 -0.0037 -0.1996 -0.3501
 7900SOL    HW135162   2.119   3.849   4.967 -0.2009  2.2036  2.3929
 7900SOL    HW235163   2.212   3.734   4.949 -2.8442 -0.2576 -1.1705
 7901SOL     OW35164   1.786   4.192  12.237  0.6714  0.2407  0.4272
 7901SOL    HW135165   1.789   4.152  12.150  0.7739  0.9221  0.1172
 7901SOL    HW235166   1.858   4.148  12.282  0.0910  0.9759  2.0629
 7902SOL     OW35167   3.553   1.145   5.902  0.4069 -0.3005 -0.5522
 7902SOL    HW135168   3.543   1.050   5.898  0.0211 -0.2831  0.0838
 7902SOL    HW235169   3.471   1.172   5.943 -1.2972 -2.4188 -2.5793
 7903SOL     OW35170   1.273   1.345   3.582 -0.4350  0.4837  0.0916
 7903SOL    HW135171   1.200   1.379   3.634 -0.7580  0.5294 -0.3907
 7903SOL    HW235172   1.350   1.378   3.628  0.8380 -1.8501 -0.3548
 7904SOL     OW35173   3.583   1.043   8.821 -0.3467  0.3327  0.3578
 7904SOL    HW135174   3.518   1.094   8.869  0.0464 -1.5907  2.9067
 7904SOL    HW235175   3.663   1.078   8.858 -0.9378  1.4328  0.6133
 7905SOL     OW35176   3.154   1.183  10.993  0.0212 -0.1782 -0.1346
 7905SOL    HW135177   3.165   1.089  10.984  0.7999 -0.0157 -0.8978
 7905SOL    HW235178   3.211   1.190  11.070 -0.1001 -0.4331 -0.0237
 7906SOL     OW35179   3.727   3.205   8.456 -0.6125 -0.1556  0.4319
 7906SOL    HW135180   3.798   3.244   8.508  0.8135  0.3844 -1.9078
 7906SOL    HW235181   3.769   3.120   8.442 -0.9366 -0.2940  0.3197
 7907SOL     OW35182   1.005   2.139   1.252  0.3154  0.1064 -0.4312
 7907SOL    HW135183   0.955   2.069   1.210 -0.8778 -0.7321  2.4033
 7907SOL    HW235184   0.958   2.217   1.223 -1.3300 -1.6846 -2.5916
 7908SOL     OW35185   1.228   4.046  14.345 -0.6689 -0.0139 -0.3753
 7908SOL    HW135186   1.251   4.134  14.317  1.8267 -0.7196 -0.5511
 7908SOL    HW235187   1.146   4.035  14.297  1.6983 -3.5379 -3.6470
 7909SOL     OW35188   4.480   4.322   1.808 -0.7065 -0.4650 -0.0174
 7909SOL    HW135189   4.466   4.405   1.761 -0.1299 -0.5371 -0.3150
 7909SOL    HW235190   4.537   4.281   1.743  0.4565  2.5748 -0.9120
 7910SOL     OW35191   3.838   1.299   6.026  0.7030  0.0370  0.6362
 7910SOL    HW135192   3.763   1.357   6.038  1.0466  0.6777 -0.3057
 7910SOL    HW235193   3.813   1.216   6.066  0.8830 -0.0408  0.5880
 7911SOL     OW35194   0.357   1.655   3.062 -0.4676 -0.2420  0.4502
 7911SOL    HW135195   0.382   1.563   3.074  0.5732 -0.3192 -2.3196
 7911SOL    HW235196   0.430   1.677   3.004 -1.1153 -0.0973 -0.3082
 7912SOL     OW35197   0.501   4.028  14.456  0.0947  0.1941 -0.5837
 7912SOL    HW135198   0.576   3.976  14.428 -2.1714 -3.2103 -0.2830
 7912SOL    HW235199   0.427   3.971  14.432 -0.9276 -0.2446  3.6096
 7913SOL     OW35200   4.568   2.821   6.806 -0.2643 -0.4857 -0.3515
 7913SOL    HW135201   4.624   2.745   6.826 -0.2496 -0.1289  0.9852
 7913SOL    HW235202   4.507   2.821   6.880  0.8161  1.9266  0.5153
 7914SOL     OW35203   2.144   0.232  14.266 -0.2180 -0.1477  0.2901
 7914SOL    HW135204   2.237   0.218  14.250 -0.4320 -1.4281  0.2264
 7914SOL    HW235205   2.148   0.291  14.342  0.6353 -1.0029  0.8972
 7915SOL     OW35206   2.690   4.137   7.992  0.5955  0.6370 -0.0018
 7915SOL    HW135207   2.781   4.108   7.985  0.4941 -0.2127  2.0834
 7915SOL    HW235208   2.683   4.200   7.920  0.9299  3.2896  2.2866
 7916SOL     OW35209   1.741   0.061  12.113  0.2651 -0.0188 -0.0140
 7916SOL    HW135210   1.743   4.702  12.158 -1.6195  0.1471  0.3508
 7916SOL    HW235211   1.716   0.128  12.177 -0.2129  1.6855 -1.9949
 7917SOL     OW35212   0.650   2.617   2.049  0.6275  0.4011 -0.5033
 7917SOL    HW135213   0.596   2.640   1.974 -0.3858  0.5989  0.2912
 7917SOL    HW235214   0.631   2.689   2.109  1.1939 -2.1787  2.8058
 7918SOL     OW35215   1.460   0.151   6.989 -0.0724 -0.2760 -0.1740
 7918SOL    HW135216   1.506   0.085   7.041  0.0286  0.1770  0.3052
 7918SOL    HW235217   1.444   0.219   7.054  0.4584 -2.6331  2.4379
 7919SOL     OW35218   2.645   4.560   3.778 -0.0705  0.4871  0.0829
 7919SOL    HW135219   2.586   4.495   3.815  1.7038 -0.4869  1.1898
 7919SOL    HW235220   2.616   4.642   3.819  1.3758  0.2626  1.5598
 7920SOL     OW35221   2.672   1.428   4.543  0.2595  0.0611 -0.3940
 7920SOL    HW135222   2.688   1.438   4.449  0.4125 -1.5177 -0.5377
 7920SOL    HW235223   2.716   1.348   4.572  1.9290  0.8842 -0.6077
 7921SOL     OW35224   2.389   2.714   2.150  0.1533  0.0732 -0.1461
 7921SOL    HW135225   2.430   2.776   2.210 -0.9813 -1.8704  2.6161
 7921SOL    HW235226   2.390   2.765   2.069 -2.1792 -2.3476 -1.6755
 7922SOL     OW35227   0.021   2.180  15.286  0.1660 -0.3342 -0.5008
 7922SOL    HW135228   4.653   2.200  15.299 -0.1767 -1.2836 -1.4504
 7922SOL    HW235229   0.050   2.184  15.376 -0.3966 -2.0404 -0.2338
 7923SOL     OW35230   2.653   2.260   2.338 -0.4414 -0.2594 -0.7999
 7923SOL    HW135231   2.712   2.327   2.372  0.4633 -1.8940  0.8742
 7923SOL    HW235232   2.569   2.292   2.368 -0.4940 -1.2032  0.0712
 7924SOL     OW35233   4.686   3.293   4.363  0.2405 -0.1346 -0.4282
 7924SOL    HW135234   0.041   3.342   4.382 -0.1825  0.0185  0.9704
 7924SOL    HW235235   4.654   3.320   4.277 -2.2126 -0.5325  0.3680
 7925SOL     OW35236   1.921   3.633   7.643  0.2915 -0.2146 -0.2095
 7925SOL    HW135237   1.829   3.616   7.622  0.3841  0.3180 -1.1038
 7925SOL    HW235238   1.918   3.714   7.693 -1.3848 -0.1425 -0.4105
 7926SOL     OW35239   3.112   2.123   3.948  0.1492  0.4936 -0.7074
 7926SOL    HW135240   3.081   2.126   4.038 -3.8499 -0.9258 -2.0061
 7926SOL    HW235241   3.142   2.032   3.947 -1.4249 -0.0109 -2.2790
 7927SOL     OW35242   1.911   3.647   2.287  0.1607  0.2400 -0.2709
 7927SOL    HW135243   1.991   3.611   2.324  0.1114 -0.0494 -0.4469
 7927SOL    HW235244   1.900   3.577   2.222 -0.1110  0.8416 -0.8795
 7928SOL     OW35245   3.225   1.303   6.815  0.4140  0.0071 -0.0627
 7928SOL    HW135246   3.165   1.366   6.855  0.4372  0.3982 -0.6401
 7928SOL    HW235247   3.289   1.300   6.885  0.9438  0.2478 -0.5355
 7929SOL     OW35248   3.950   2.080   6.764  0.1197  0.0676 -0.2050
 7929SOL    HW135249   3.923   2.020   6.833 -0.4027 -0.0216 -0.4838
 7929SOL    HW235250   3.952   2.025   6.686  0.8967  0.4003 -0.4243
 7930SOL     OW35251   4.276   2.068  14.821 -0.2120  0.4150 -0.5703
 7930SOL    HW135252   4.270   1.973  14.812 -1.0379  0.5854 -1.8044
 7930SOL    HW235253   4.298   2.064  14.914  1.1639  0.5513 -0.8931
 7931SOL     OW35254   2.535   4.569   3.388  0.4472  0.4961  0.3929
 7931SOL    HW135255   2.548   4.653   3.432  1.0884 -0.3891  1.8846
 7931SOL    HW235256   2.614   4.571   3.334  0.6968 -0.5153  0.7260
 7932SOL     OW35257   4.011   2.267   8.886 -0.0104  0.8413  0.3649
 7932SOL    HW135258   4.012   2.297   8.795  0.6533 -1.0905 -0.2479
 7932SOL    HW235259   4.102   2.240   8.901 -0.3922  0.2281  1.5487
 7933SOL     OW35260   1.931   0.762   5.612  0.0402 -0.0612  0.1834
 7933SOL    HW135261   1.961   0.678   5.645 -1.3440 -0.5538  0.1874
 7933SOL    HW235262   1.923   0.826   5.683  0.9889  0.9952 -0.6565
 7934SOL     OW35263   1.974   3.572  15.453 -0.9417  0.4319  0.4801
 7934SOL    HW135264   1.934   3.649  15.494  0.0785  2.2075 -1.8327
 7934SOL    HW235265   2.023   3.521  15.517  2.2670  2.4053 -0.3737
 7935SOL     OW35266   1.245   4.349   2.619  0.4259  0.0171  0.1298
 7935SOL    HW135267   1.336   4.338   2.645  1.2038  0.5910 -2.3170
 7935SOL    HW235268   1.253   4.369   2.525  0.3541  0.1217  0.1462
 7936SOL     OW35269   4.090   1.891   8.809  0.1035  0.1958  0.5475
 7936SOL    HW135270   4.154   1.854   8.870 -0.7564 -1.8231  0.2361
 7936SOL    HW235271   4.132   1.973   8.784  0.1743 -0.4076 -1.2683
 7937SOL     OW35272   0.512   3.311   7.640 -0.0374  0.2093 -0.1748
 7937SOL    HW135273   0.557   3.303   7.556 -1.5305 -5.2001 -0.4007
 7937SOL    HW235274   0.427   3.270   7.627 -0.0470 -0.2908  1.3838
 7938SOL     OW35275   1.442   0.290   7.859 -1.1450  0.5006 -0.0241
 7938SOL    HW135276   1.376   0.316   7.795 -2.4944  0.1522  1.2299
 7938SOL    HW235277   1.408   0.336   7.936  1.7617  0.1503  1.4633
 7939SOL     OW35278   2.419   3.104   1.898 -1.0380 -0.2115 -0.2195
 7939SOL    HW135279   2.508   3.069   1.907 -1.1868 -0.1913  1.4955
 7939SOL    HW235280   2.419   3.129   1.806 -1.3693 -0.6884 -0.3481
 7940SOL     OW35281   0.412   0.243   6.225  0.7494  0.8207 -0.3511
 7940SOL    HW135282   0.342   0.180   6.242  0.1906  1.3913 -0.5251
 7940SOL    HW235283   0.446   0.237   6.314  1.6310  2.2915 -0.5948
 7941SOL     OW35284   0.545   0.339   8.280  0.4135 -0.1760  0.1252
 7941SOL    HW135285   0.469   0.313   8.332  0.7081 -1.5677 -0.1457
 7941SOL    HW235286   0.618   0.359   8.339 -1.0502 -1.1945  2.2978
 7942SOL     OW35287   1.396   1.676   9.301  0.1365  0.1255  0.4691
 7942SOL    HW135288   1.348   1.625   9.367 -1.6482  1.6279  0.3511
 7942SOL    HW235289   1.485   1.680   9.336  0.2518  2.1568 -0.0925
 7943SOL     OW35290   1.498   4.186  17.183 -0.3301 -0.0365 -0.7778
 7943SOL    HW135291   1.466   4.243  17.113 -0.6212 -0.1486 -0.7372
 7943SOL    HW235292   1.422   4.201  17.239  0.4231 -2.5326  0.8945
 7944SOL     OW35293   3.498   2.633   6.954 -0.0572  0.1955  0.0452
 7944SOL    HW135294   3.478   2.724   6.978  2.7034  1.5429 -2.6536
 7944SOL    HW235295   3.576   2.617   7.006 -0.1150 -0.3370 -0.0382
 7945SOL     OW35296   0.747   2.337   1.461  0.4415 -0.5850 -0.3535
 7945SOL    HW135297   0.728   2.247   1.487  1.1431 -0.3127  1.1088
 7945SOL    HW235298   0.771   2.314   1.371  2.0597 -2.4950  0.5623
 7946SOL     OW35299   4.077   1.364   6.107  0.4853  0.9441 -1.2670
 7946SOL    HW135300   4.001   1.331   6.060  1.4663 -1.4283 -1.1772
 7946SOL    HW235301   4.130   1.285   6.104 -1.6021 -0.4406 -1.6539
 7947SOL     OW35302   1.418   4.004  12.568 -0.1420  0.0688 -0.7952
 7947SOL    HW135303   1.457   3.974  12.651 -0.7320  2.2371  0.2734
 7947SOL    HW235304   1.497   4.039  12.526  0.6027 -0.0095  0.5403
 7948SOL     OW35305   0.671   2.167  15.301  0.0484 -0.1252 -0.4924
 7948SOL    HW135306   0.663   2.217  15.220  0.4206  1.2713  0.3295
 7948SOL    HW235307   0.668   2.079  15.265 -1.1155  0.3229 -1.5097
 7949SOL     OW35308   2.498   0.666   8.689  0.6076 -0.3267  0.6296
 7949SOL    HW135309   2.535   0.584   8.721 -0.1549 -0.9901 -0.1794
 7949SOL    HW235310   2.426   0.687   8.748  0.2123  0.9601 -0.2947
 7950SOL     OW35311   3.296   0.406   6.179 -0.6239  0.0508 -0.4534
 7950SOL    HW135312   3.359   0.479   6.178  0.6962 -1.0828  0.6325
 7950SOL    HW235313   3.353   0.329   6.180 -2.3924 -1.2288  0.6570
 7951SOL     OW35314   1.081   3.164   5.744 -0.0653 -0.2107 -0.3468
 7951SOL    HW135315   1.037   3.234   5.792  1.3741  0.7973 -0.5137
 7951SOL    HW235316   1.054   3.083   5.788  0.4296 -0.1598  0.0491
 7952SOL     OW35317   1.226   4.510  13.341 -0.2578 -0.0308 -0.0417
 7952SOL    HW135318   1.295   4.449  13.366 -2.4014 -2.1757  0.6961
 7952SOL    HW235319   1.245   4.574  13.409 -0.3869  0.3350 -0.3472
 7953SOL     OW35320   2.343   0.022   8.068  0.3279  0.0767  0.1324
 7953SOL    HW135321   2.422   0.047   8.021  0.5163  0.8274  0.8568
 7953SOL    HW235322   2.292   4.686   8.013  1.3754 -0.6215 -0.0745
 7954SOL     OW35323   2.788   0.047   8.505 -0.2292  0.0635  0.3348
 7954SOL    HW135324   2.763   4.684   8.476 -1.8758  0.1854  1.3673
 7954SOL    HW235325   2.843   0.079   8.434  1.5577  1.0473  2.1740
 7955SOL     OW35326   0.905   3.440   7.104  0.2226 -1.0165  0.2951
 7955SOL    HW135327   0.974   3.496   7.068 -1.0976  1.3945  1.5005
 7955SOL    HW235328   0.915   3.468   7.195  0.8145 -3.1695  0.8936
 7956SOL     OW35329   0.258   3.350  13.328  0.0722 -0.2452  0.0822
 7956SOL    HW135330   0.262   3.403  13.407 -1.7251  1.0704 -0.7231
 7956SOL    HW235331   0.176   3.305  13.347 -0.3475  0.1825 -0.7310
 7957SOL     OW35332   0.154   1.903   6.230  0.4498 -0.1452 -0.4876
 7957SOL    HW135333   0.101   1.826   6.248  0.1574 -0.3268 -2.1316
 7957SOL    HW235334   0.131   1.921   6.139  0.2124 -1.3150 -0.6470
 7958SOL     OW35335   2.907   4.182   6.566 -0.4956 -0.2616  0.3214
 7958SOL    HW135336   2.995   4.190   6.601  0.4328 -0.0415 -2.0881
 7958SOL    HW235337   2.912   4.099   6.520 -0.2803  0.3190 -0.7214
 7959SOL     OW35338   3.173   4.464   6.874  0.1125  0.0851 -0.0372
 7959SOL    HW135339   3.207   4.442   6.960 -0.2651 -2.2851 -0.4982
 7959SOL    HW235340   3.078   4.458   6.885  0.2675  0.0255  1.1826
 7960SOL     OW35341   4.603   1.455   8.916  0.0899 -0.1622 -0.0859
 7960SOL    HW135342   4.645   1.410   8.989  2.2481  1.1380 -0.5245
 7960SOL    HW235343   4.676   1.489   8.864 -1.2192  1.3178 -0.9531
 7961SOL     OW35344   4.524   0.141   8.226 -0.1518  0.1134 -0.3297
 7961SOL    HW135345   4.524   0.130   8.321 -0.7261  1.0422 -0.2201
 7961SOL    HW235346   4.615   0.165   8.209  0.0947  0.7188  1.8594
 7962SOL     OW35347   1.246   2.997   0.041  0.1397  0.5193 -0.0845
 7962SOL    HW135348   1.316   3.060   0.026  0.1107  0.1061 -1.9846
 7962SOL    HW235349   1.293   2.914   0.039 -0.4918  0.1650 -0.2951
 7963SOL     OW35350   4.174   4.002   5.251  0.7772 -0.2477  0.1300
 7963SOL    HW135351   4.255   4.040   5.218  1.3103  0.3912  2.2144
 7963SOL    HW235352   4.112   4.060   5.207 -0.6859 -1.5536  0.4839
 7964SOL     OW35353   2.411   4.099   7.129 -0.1211 -0.2017 -0.0269
 7964SOL    HW135354   2.465   4.086   7.051 -1.4132 -0.1193 -0.9419
 7964SOL    HW235355   2.426   4.021   7.182  2.2956  0.8182  0.7741
 7965SOL     OW35356   2.010   1.453  11.177  0.3358 -0.9234  0.2472
 7965SOL    HW135357   2.028   1.443  11.083 -1.9152  0.5273 -0.3302
 7965SOL    HW235358   2.032   1.543  11.197 -1.7524 -0.6098  1.1097
 7966SOL     OW35359   1.121   3.932   3.548 -0.3308 -0.0167  0.5297
 7966SOL    HW135360   1.181   4.006   3.535 -0.5588  0.2309  0.8879
 7966SOL    HW235361   1.136   3.880   3.469  1.6348  0.1212  0.7957
 7967SOL     OW35362   1.170   1.299  16.648  0.2343 -0.0958 -0.1459
 7967SOL    HW135363   1.182   1.217  16.695 -1.1936 -0.0599  0.2644
 7967SOL    HW235364   1.193   1.285  16.556  0.8200 -2.0608  0.2976
 7968SOL     OW35365   2.827   0.701  13.746 -0.4655 -0.4882 -0.3783
 7968SOL    HW135366   2.865   0.716  13.660 -0.0433 -0.4123 -0.1781
 7968SOL    HW235367   2.841   0.790  13.779  1.1489 -0.1596 -1.9573
 7969SOL     OW35368   0.497   3.542   7.446  0.3322 -0.0818 -0.6944
 7969SOL    HW135369   0.511   3.448   7.434  2.5735  0.0297  1.2606
 7969SOL    HW235370   0.567   3.582   7.496  0.9525 -1.9402 -0.0905
 7970SOL     OW35371   1.290   1.861  16.816  0.2283  0.3142  0.0046
 7970SOL    HW135372   1.315   1.789  16.875 -0.8867  1.2888  1.6633
 7970SOL    HW235373   1.327   1.931  16.869 -0.6541  0.5327  0.3274
 7971SOL     OW35374   3.970   1.608   9.295  0.2839 -0.0501 -0.2250
 7971SOL    HW135375   3.886   1.637   9.329 -1.0702 -0.7796 -2.9357
 7971SOL    HW235376   3.980   1.521   9.335 -1.9401  1.2234  3.0730
 7972SOL     OW35377   0.290   2.858   6.853 -0.0390  0.0490 -0.1547
 7972SOL    HW135378   0.231   2.890   6.785  0.5996  1.0171 -0.2574
 7972SOL    HW235379   0.330   2.784   6.808  0.4118 -0.5985  1.3039
 7973SOL     OW35380   4.152   2.534  12.872 -1.2039  0.3525 -0.0509
 7973SOL    HW135381   4.203   2.521  12.952 -1.6904 -1.2760 -0.0166
 7973SOL    HW235382   4.118   2.624  12.880 -2.7558 -0.2227 -0.1523
 7974SOL     OW35383   3.891   1.542   4.974  0.6690  0.6550 -0.5234
 7974SOL    HW135384   3.967   1.592   4.945  1.6095 -0.9505 -0.8485
 7974SOL    HW235385   3.884   1.495   4.891  0.6385 -4.5395  2.4005
 7975SOL     OW35386   2.309   3.656   7.259 -0.2204  0.1717  0.3522
 7975SOL    HW135387   2.279   3.626   7.344 -2.1785  0.2485 -0.3261
 7975SOL    HW235388   2.233   3.711   7.243  0.4972  0.9329 -0.4810
 7976SOL     OW35389   0.461   1.937   0.715  0.2581  0.2104  0.4991
 7976SOL    HW135390   0.414   1.885   0.781  0.4410 -0.6185 -0.0179
 7976SOL    HW235391   0.389   1.944   0.652 -0.1240 -0.1248  0.8918
 7977SOL     OW35392   1.946   1.179   4.093  0.2523 -0.3518 -0.1173
 7977SOL    HW135393   1.855   1.203   4.078  0.8233  0.5368 -2.1306
 7977SOL    HW235394   1.970   1.226   4.173  4.2928 -0.4921 -1.2239
 7978SOL     OW35395   0.592   3.502   0.495 -0.6630 -0.0011  0.5531
 7978SOL    HW135396   0.599   3.437   0.425  0.6889 -0.0227  0.7006
 7978SOL    HW235397   0.567   3.584   0.451 -1.1845 -0.1984  0.4774
 7979SOL     OW35398   0.394   2.726  10.956 -0.1692  0.0243 -0.1082
 7979SOL    HW135399   0.447   2.650  10.931 -1.0638 -0.4729 -0.5223
 7979SOL    HW235400   0.424   2.746  11.045 -3.0695 -0.4516  1.0068
 7980SOL     OW35401   1.229   3.477   9.027 -0.3163  0.7138  0.4003
 7980SOL    HW135402   1.178   3.556   9.014 -1.2970  0.0595  0.2338
 7980SOL    HW235403   1.268   3.472   8.939  1.6978  0.8837  1.2956
 7981SOL     OW35404   0.410   1.588   8.585  0.3275 -0.3441 -0.0688
 7981SOL    HW135405   0.440   1.662   8.532  0.9904  0.4507  1.4225
 7981SOL    HW235406   0.461   1.599   8.665  1.3782  1.1486 -0.9423
 7982SOL     OW35407   2.609   2.406   4.581  0.3705  0.4142 -0.1994
 7982SOL    HW135408   2.627   2.349   4.507 -0.0549 -1.6733  1.3219
 7982SOL    HW235409   2.523   2.373   4.607  0.3874 -0.8258 -1.7560
 7983SOL     OW35410   3.882   1.609   5.501 -0.1800  0.0366  0.4080
 7983SOL    HW135411   3.869   1.572   5.414 -1.6534  0.7178  0.3432
 7983SOL    HW235412   3.793   1.642   5.508  0.0274  0.9803 -1.2853
 7984SOL     OW35413   0.844   2.259   2.651 -0.6722 -0.8301  0.2655
 7984SOL    HW135414   0.805   2.344   2.674  1.9185 -0.0309  1.6587
 7984SOL    HW235415   0.792   2.240   2.573 -0.4828 -2.8585  0.6160
 7985SOL     OW35416   2.056   3.090   1.841 -0.3011  0.2955  0.5198
 7985SOL    HW135417   2.126   3.155   1.835  1.2753 -1.4707 -0.4809
 7985SOL    HW235418   1.992   3.125   1.779  2.5584  1.5231 -1.7097
 7986SOL     OW35419   4.386   0.889   6.179  0.3529  0.2924  0.2850
 7986SOL    HW135420   4.428   0.974   6.181  1.3490 -0.1836 -0.6552
 7986SOL    HW235421   4.345   0.895   6.265  0.8930  0.0400  0.5567
 7987SOL     OW35422   1.376   2.391   1.154  0.0204 -0.4688 -0.2641
 7987SOL    HW135423   1.306   2.448   1.185 -1.1277 -1.5743 -0.8359
 7987SOL    HW235424   1.441   2.379   1.224  2.4831  0.5920 -2.3674
 7988SOL     OW35425   2.275   3.281   5.352 -0.3313 -0.4432 -0.0488
 7988SOL    HW135426   2.350   3.254   5.297 -1.4669 -0.9307 -1.3603
 7988SOL    HW235427   2.283   3.374   5.333 -1.9754 -0.1870  0.5572
 7989SOL     OW35428   3.343   1.735   5.353 -0.4471 -0.2900  0.2489
 7989SOL    HW135429   3.411   1.668   5.352 -0.1850 -0.0035 -0.8662
 7989SOL    HW235430   3.289   1.707   5.279 -0.6384 -0.8691  0.6084
 7990SOL     OW35431   1.294   2.768  12.386 -0.2586  0.2297 -0.1893
 7990SOL    HW135432   1.283   2.673  12.382  0.7921  0.0670  0.9091
 7990SOL    HW235433   1.380   2.772  12.428 -0.1709  0.0923 -0.3546
 7991SOL     OW35434   2.554   3.927   8.465  0.4667 -0.2513  0.0321
 7991SOL    HW135435   2.511   3.905   8.382  0.8133 -0.1499 -0.1769
 7991SOL    HW235436   2.648   3.930   8.446  0.3340  1.0152 -0.4231
 7992SOL     OW35437   3.785   4.012   0.861 -0.7915  0.3282 -0.2052
 7992SOL    HW135438   3.770   4.026   0.954 -0.8681  0.1489 -0.1897
 7992SOL    HW235439   3.875   3.980   0.860 -0.1056  2.3129 -1.9055
 7993SOL     OW35440   2.231   2.687  15.815  0.4140  0.0630 -0.1751
 7993SOL    HW135441   2.204   2.747  15.885  2.9306 -0.2356  1.0526
 7993SOL    HW235442   2.248   2.603  15.858  2.2705  1.0507  1.0217
 7994SOL     OW35443   4.364   2.518   9.885 -0.1648  0.4283 -0.2803
 7994SOL    HW135444   4.310   2.475   9.952  2.0475 -0.5845  0.8240
 7994SOL    HW235445   4.392   2.442   9.835 -0.2395  0.5251 -0.4692
 7995SOL     OW35446   1.885   3.661   9.307 -0.2844  0.3902  0.0510
 7995SOL    HW135447   1.811   3.605   9.282  0.1099  0.0038 -0.2486
 7995SOL    HW235448   1.846   3.734   9.354  3.4558  1.0671  2.1252
 7996SOL     OW35449   2.886   2.737  11.968  0.1131 -0.4182  0.2915
 7996SOL    HW135450   2.966   2.704  11.926  0.5993  1.7734 -0.5039
 7996SOL    HW235451   2.916   2.826  11.986 -1.5790  0.1419  0.2604
 7997SOL     OW35452   2.414   2.928   9.061 -0.1568 -0.0660  0.0575
 7997SOL    HW135453   2.355   2.955   8.991  2.1718  3.0919 -0.7467
 7997SOL    HW235454   2.372   2.950   9.144 -1.3486 -0.6286 -0.3990
 7998SOL     OW35455   2.794   2.328   7.282 -0.2917 -0.1852 -0.2148
 7998SOL    HW135456   2.866   2.335   7.344  0.2702 -0.4792 -0.8365
 7998SOL    HW235457   2.849   2.275   7.224 -0.6939 -0.4446 -0.3646
 7999SOL     OW35458   2.795   1.312  16.696  0.0243 -0.3248  0.0441
 7999SOL    HW135459   2.743   1.313  16.776  1.4175 -0.1571  0.9405
 7999SOL    HW235460   2.756   1.240  16.647 -1.0987  1.0400 -1.0768
 8000SOL     OW35461   1.988   3.774   3.837 -0.6180 -0.6422 -0.5179
 8000SOL    HW135462   1.922   3.812   3.779 -0.1987 -0.1885 -0.6996
 8000SOL    HW235463   2.054   3.841   3.855  0.1135 -0.7798 -2.7366
 8001SOL     OW35464   3.440   2.269   5.445  0.0887 -0.4145  0.3693
 8001SOL    HW135465   3.400   2.192   5.486 -1.3195  0.0599 -0.1083
 8001SOL    HW235466   3.407   2.266   5.355  3.6763 -2.5777 -0.8899
 8002SOL     OW35467   3.227   1.410  13.995 -0.9557  0.3133  0.2346
 8002SOL    HW135468   3.273   1.477  14.046 -0.3479  0.1986 -0.1635
 8002SOL    HW235469   3.141   1.451  13.980 -0.4501  1.7804  1.3459
 8003SOL     OW35470   4.139   4.005  17.220 -1.0948  0.3482 -0.4806
 8003SOL    HW135471   4.172   4.079  17.169  1.2581 -0.6125 -0.3729
 8003SOL    HW235472   4.184   3.935  17.173 -3.3427 -0.1057 -1.9202
 8004SOL     OW35473   0.776   2.085  14.909  0.5944 -0.4132 -0.5771
 8004SOL    HW135474   0.752   2.019  14.973 -0.5432  0.2903 -0.2692
 8004SOL    HW235475   0.746   2.163  14.956 -0.8649 -3.8455  4.0813
 8005SOL     OW35476   0.822   0.141   5.475  0.0497  0.4827  0.2737
 8005SOL    HW135477   0.867   0.189   5.545  0.5607  0.6414 -0.1607
 8005SOL    HW235478   0.806   0.209   5.410 -0.2072 -1.1145 -1.3458
 8006SOL     OW35479   3.257   0.474   5.813 -0.3658  0.4100  0.4414
 8006SOL    HW135480   3.237   0.541   5.747  0.8844 -0.0987 -0.4605
 8006SOL    HW235481   3.220   0.520   5.888  1.9212 -0.4415  2.0582
 8007SOL     OW35482   1.544   1.266  17.159 -0.6410  0.6937 -0.1549
 8007SOL    HW135483   1.593   1.185  17.175 -0.1528  1.4112  1.9563
 8007SOL    HW235484   1.475   1.237  17.100  0.5166 -0.6063 -0.8805
 8008SOL     OW35485   0.934   3.652   4.689 -0.2122 -0.0548  0.7491
 8008SOL    HW135486   0.955   3.718   4.755  2.3801  0.3660 -0.4986
 8008SOL    HW235487   1.020   3.636   4.651 -0.9031 -2.7266  0.3145
 8009SOL     OW35488   3.534   1.086  14.230  0.0507 -0.5874 -0.0284
 8009SOL    HW135489   3.447   1.126  14.225 -0.2271 -0.9404  1.8599
 8009SOL    HW235490   3.566   1.134  14.307  0.3980 -2.2131  0.8469
 8010SOL     OW35491   0.655   0.120   2.314 -0.0873 -0.6687  0.0868
 8010SOL    HW135492   0.629   0.029   2.330 -0.8667 -0.6118 -0.9381
 8010SOL    HW235493   0.584   0.141   2.254  0.7695  2.2315  0.1104
 8011SOL     OW35494   3.637   1.338   5.072 -0.6579 -0.4355  0.1123
 8011SOL    HW135495   3.675   1.412   5.026 -1.2036 -0.7137 -0.7794
 8011SOL    HW235496   3.698   1.269   5.045 -0.3422 -0.3127  0.5008
 8012SOL     OW35497   3.769   1.621  16.335  0.0167 -0.3679 -0.3985
 8012SOL    HW135498   3.820   1.610  16.415  2.0429 -0.4644 -1.6929
 8012SOL    HW235499   3.708   1.688  16.368 -1.6167 -0.7290 -2.6695
 8013SOL     OW35500   1.813   3.071  12.221 -0.0621  0.2853 -0.2785
 8013SOL    HW135501   1.767   2.987  12.224 -3.0808  1.9369  0.1997
 8013SOL    HW235502   1.826   3.071  12.127  0.6721 -2.7842 -0.2041
 8014SOL     OW35503   2.122   2.110  14.490 -0.2269  0.2888 -0.1521
 8014SOL    HW135504   2.209   2.094  14.455 -0.8038 -1.8207 -0.6093
 8014SOL    HW235505   2.143   2.079  14.578  1.7869 -1.8510 -1.3846
 8015SOL     OW35506   0.747   2.264  14.656  0.4286  0.1178 -0.5167
 8015SOL    HW135507   0.832   2.294  14.688 -0.0879  1.0577 -0.0236
 8015SOL    HW235508   0.728   2.204  14.728  0.8320 -0.6580 -1.0580
 8016SOL     OW35509   4.354   1.605   3.572  0.2005  0.1023  0.2859
 8016SOL    HW135510   4.272   1.588   3.526  0.8187 -1.9614 -0.0652
 8016SOL    HW235511   4.413   1.585   3.498 -2.2185 -2.2689 -1.0120
 8017SOL     OW35512   0.257   1.508  14.762  0.3960  0.5176  0.4475
 8017SOL    HW135513   0.204   1.474  14.690  0.9194 -3.1566  1.7769
 8017SOL    HW235514   0.221   1.446  14.826  1.8339 -0.6468  0.1507
 8018SOL     OW35515   2.983   2.681   5.928 -0.3005 -0.0840 -0.4993
 8018SOL    HW135516   3.015   2.714   5.844  0.1878 -2.0872 -1.0927
 8018SOL    HW235517   2.902   2.640   5.898 -1.1344  3.3759 -3.0365
 8019SOL     OW35518   2.875   0.430   5.057  0.2433  0.2631 -0.0679
 8019SOL    HW135519   2.826   0.512   5.047  1.2378  0.7375 -1.0451
 8019SOL    HW235520   2.952   0.453   5.108 -0.2114  1.4602  0.0722
 8020SOL     OW35521   0.736   2.264  13.664 -0.0725  0.1114  0.4306
 8020SOL    HW135522   0.829   2.241  13.658  0.2080  1.4006 -0.4182
 8020SOL    HW235523   0.747   2.349  13.707  1.5786  0.0808  0.0920
 8021SOL     OW35524   1.109   3.590  17.042 -0.0157 -0.4522 -0.0538
 8021SOL    HW135525   1.170   3.516  17.045 -0.0807 -0.5322 -0.5789
 8021SOL    HW235526   1.059   3.565  16.964  2.1850  0.4402 -1.7395
 8022SOL     OW35527   1.773   2.507   8.150 -0.2165 -0.0116  0.7802
 8022SOL    HW135528   1.798   2.592   8.113 -0.2519 -0.6328 -0.6737
 8022SOL    HW235529   1.849   2.472   8.196 -0.4084  0.5434  1.5300
 8023SOL     OW35530   2.763   2.573   7.192  0.1277  0.0922 -0.4458
 8023SOL    HW135531   2.788   2.488   7.227 -0.5482 -0.7400 -1.9578
 8023SOL    HW235532   2.849   2.603   7.160  0.0600 -0.6588 -1.3457
 8024SOL     OW35533   2.746   1.644   7.666 -0.3400  0.3635  0.1813
 8024SOL    HW135534   2.753   1.733   7.703 -0.1128  0.2952  0.3046
 8024SOL    HW235535   2.778   1.592   7.740 -0.0345  0.5530  0.1814
 8025SOL     OW35536   3.447   4.207   5.785 -0.0210 -0.4167 -0.1805
 8025SOL    HW135537   3.397   4.280   5.747  1.9081 -0.0454 -1.9796
 8025SOL    HW235538   3.505   4.257   5.842 -2.9050  3.6362 -0.7354
 8026SOL     OW35539   1.861   1.510  14.014 -0.6625 -0.1252 -0.0450
 8026SOL    HW135540   1.809   1.587  14.036 -0.2379  0.6157 -1.6495
 8026SOL    HW235541   1.799   1.438  14.021 -1.3492  0.2995 -2.0358
 8027SOL     OW35542   0.761   2.435  11.701 -0.2804  0.7399 -0.1182
 8027SOL    HW135543   0.749   2.517  11.747  2.2876  1.4673 -0.7647
 8027SOL    HW235544   0.757   2.373  11.774 -1.6764  0.3805 -0.4856
 8028SOL     OW35545   3.848   2.529   0.480 -0.2611 -0.6717  0.0059
 8028SOL    HW135546   3.804   2.580   0.412  1.2288  0.7732  0.1373
 8028SOL    HW235547   3.784   2.458   0.487 -1.6741  0.5116 -0.8205
 8029SOL     OW35548   2.344   3.374   8.761 -0.1247  0.4453  0.7683
 8029SOL    HW135549   2.387   3.339   8.684  0.5156 -1.7254  2.1220
 8029SOL    HW235550   2.416   3.424   8.798  0.2071  1.2703 -1.0131
 8030SOL     OW35551   4.536   0.650   6.099 -0.0475  0.4691 -0.4493
 8030SOL    HW135552   4.472   0.583   6.121  0.3266  0.0454 -0.6473
 8030SOL    HW235553   4.502   0.735   6.127 -2.6118 -0.2883 -1.2323
 8031SOL     OW35554   0.496   0.487   2.530  0.1791  0.6816  0.1607
 8031SOL    HW135555   0.528   0.530   2.609  1.0911  1.0409 -0.4108
 8031SOL    HW235556   0.576   0.476   2.479 -0.3583 -0.8924 -0.3327
 8032SOL     OW35557   3.222   2.308   9.756 -0.1243  0.1393  0.1566
 8032SOL    HW135558   3.233   2.213   9.758 -0.5642  0.1152  1.0977
 8032SOL    HW235559   3.197   2.328   9.846 -0.6669  0.1190  0.0078
 8033SOL     OW35560   0.861   4.717  14.135 -0.7712 -0.3230  0.1445
 8033SOL    HW135561   0.883   0.017  14.224 -0.0541 -0.6610  0.0628
 8033SOL    HW235562   0.789   0.055  14.127 -0.8374 -0.5127 -0.8412
 8034SOL     OW35563   0.863   1.925   5.413  0.1479  0.8957 -0.2531
 8034SOL    HW135564   0.785   1.902   5.363 -0.5118  2.7692 -0.1109
 8034SOL    HW235565   0.822   1.924   5.499 -1.3649 -0.6577 -1.0007
 8035SOL     OW35566   1.400   1.601   5.572 -0.4116 -0.0476 -0.6927
 8035SOL    HW135567   1.347   1.681   5.574 -2.6452 -1.5426 -0.2231
 8035SOL    HW235568   1.440   1.604   5.485  0.9348 -3.0736 -0.1814
 8036SOL     OW35569   2.586   3.629   3.609 -0.3255  0.9967  0.6542
 8036SOL    HW135570   2.501   3.658   3.641 -0.8385 -1.3833  1.3982
 8036SOL    HW235571   2.631   3.711   3.588 -1.7508  1.8166  0.8293
 8037SOL     OW35572   4.029   3.747  11.741 -0.4936 -0.1113  0.5807
 8037SOL    HW135573   4.105   3.755  11.683 -0.2929 -1.9577  0.6001
 8037SOL    HW235574   3.965   3.809  11.707 -0.2180 -0.9730 -1.5132
 8038SOL     OW35575   4.399   3.148   2.709  0.0899  0.5610  0.6673
 8038SOL    HW135576   4.442   3.071   2.748 -0.0376  1.0969  1.8811
 8038SOL    HW235577   4.456   3.214   2.748 -2.0828  1.7597  1.8307
 8039SOL     OW35578   1.662   1.247   5.978 -0.1248 -0.2712 -0.1572
 8039SOL    HW135579   1.731   1.217   5.919  0.0611 -0.5402  0.1975
 8039SOL    HW235580   1.670   1.342   5.977 -1.2523 -0.1597  0.7078
 8040SOL     OW35581   0.091   0.508   8.195 -0.0305 -0.7626  0.2539
 8040SOL    HW135582   0.139   0.569   8.251  0.1153 -0.5444 -0.1089
 8040SOL    HW235583   0.002   0.520   8.229  0.1807  0.6964  0.3052
 8041SOL     OW35584   2.507   4.160  10.401 -0.5749  0.5077 -0.0191
 8041SOL    HW135585   2.557   4.226  10.449 -1.2327  1.7259 -1.0362
 8041SOL    HW235586   2.477   4.212  10.327 -0.6223  2.0790  1.1202
 8042SOL     OW35587   1.627   3.980   4.643  0.1803 -0.1734  0.0454
 8042SOL    HW135588   1.710   3.992   4.597  1.0004  0.0281  1.5874
 8042SOL    HW235589   1.662   3.949   4.726 -0.6885 -0.8025  0.1796
 8043SOL     OW35590   1.054   0.147   3.863 -0.4281 -0.5364 -0.1565
 8043SOL    HW135591   1.054   0.242   3.877 -2.9103 -0.3536 -1.2744
 8043SOL    HW235592   1.133   0.126   3.813 -0.5314 -1.2159 -0.0393
 8044SOL     OW35593   3.761   2.120   8.981  0.5345 -0.0889 -0.6937
 8044SOL    HW135594   3.712   2.193   9.019  0.6156 -0.2024 -0.3707
 8044SOL    HW235595   3.846   2.154   8.951  0.2483 -0.2571 -1.6976
 8045SOL     OW35596   0.512   2.010   7.615 -0.1535 -0.6652 -0.2683
 8045SOL    HW135597   0.432   2.047   7.578 -0.8616 -0.5333  1.3764
 8045SOL    HW235598   0.576   2.035   7.549  0.2234 -0.9231 -0.0029
 8046SOL     OW35599   0.486   4.205   8.720 -0.2450 -0.5171  0.4402
 8046SOL    HW135600   0.484   4.185   8.813  1.5958 -0.7871  0.4327
 8046SOL    HW235601   0.488   4.118   8.681  0.7637  0.3260 -1.3960
 8047SOL     OW35602   0.880   4.677   6.927  0.4384 -0.7353 -0.3915
 8047SOL    HW135603   0.840   4.698   7.011  2.3991  2.2422 -0.2018
 8047SOL    HW235604   0.846   4.588   6.930 -0.9422 -0.0810  3.0285
 8048SOL     OW35605   4.509   2.592   2.322 -0.5543 -0.6120 -0.2332
 8048SOL    HW135606   4.534   2.625   2.235 -0.1082 -0.3944 -0.0216
 8048SOL    HW235607   4.419   2.563   2.306 -0.0635 -2.1469 -0.2403
 8049SOL     OW35608   0.918   3.693   3.768  0.8200 -0.1116  0.4021
 8049SOL    HW135609   0.950   3.674   3.680  1.0024  3.0536 -0.2088
 8049SOL    HW235610   0.998   3.705   3.819 -0.1011  1.5764  1.4505
 8050SOL     OW35611   3.803   3.710   7.889 -0.1542 -0.2056 -0.0090
 8050SOL    HW135612   3.821   3.655   7.812 -1.8949 -0.9716  0.1460
 8050SOL    HW235613   3.887   3.692   7.932 -0.1351  0.2177  0.1352
 8051SOL     OW35614   0.804   3.460   7.601  0.5230  0.7154 -0.2582
 8051SOL    HW135615   0.769   3.549   7.591  0.1799  0.5430 -0.6291
 8051SOL    HW235616   0.831   3.459   7.692  0.2039  0.9902 -0.1586
 8052SOL     OW35617   0.844   0.437   3.685 -0.1805  0.2152  0.0416
 8052SOL    HW135618   0.913   0.393   3.635 -0.2461 -4.0909  3.6915
 8052SOL    HW235619   0.774   0.371   3.688 -0.1017  0.0586 -1.8333
 8053SOL     OW35620   2.330   1.791   9.064 -0.0775 -0.7649  0.2154
 8053SOL    HW135621   2.310   1.873   9.107  0.3745 -0.1938 -0.6580
 8053SOL    HW235622   2.250   1.763   9.019 -0.1280  0.1530 -0.2681
 8054SOL     OW35623   1.414   1.949  16.258  0.1118  0.3291  0.1068
 8054SOL    HW135624   1.342   1.924  16.316  0.7830  1.6496  1.5102
 8054SOL    HW235625   1.479   1.947  16.328  0.9571  1.1407 -0.6608
 8055SOL     OW35626   1.252   4.423   8.594 -0.2336 -0.0262  0.2525
 8055SOL    HW135627   1.287   4.366   8.662 -0.2345 -1.1860 -0.7247
 8055SOL    HW235628   1.240   4.356   8.526  0.3187  0.0610  0.0735
 8056SOL     OW35629   2.413   0.400   4.712 -0.0263  0.0734  0.5810
 8056SOL    HW135630   2.384   0.489   4.731  1.9775  0.8638 -0.0107
 8056SOL    HW235631   2.498   0.410   4.756  0.1154  0.8332  0.1333
 8057SOL     OW35632   4.245   1.637   2.016 -0.1218 -0.4789 -0.1245
 8057SOL    HW135633   4.225   1.685   1.936  1.1657 -1.3319 -0.9524
 8057SOL    HW235634   4.305   1.576   1.974  0.4968  0.6854 -0.9445
 8058SOL     OW35635   4.277   4.555   6.993  0.5938 -0.0646  0.1204
 8058SOL    HW135636   4.234   4.593   7.069 -1.5743  1.9039 -2.0734
 8058SOL    HW235637   4.306   4.473   7.032  1.6975 -0.6529 -1.8873
 8059SOL     OW35638   2.467   1.696   8.852 -0.8144 -0.2358 -0.4575
 8059SOL    HW135639   2.560   1.710   8.835 -0.9721  0.6377 -0.5736
 8059SOL    HW235640   2.457   1.728   8.942  1.1003  0.1283 -0.3821
 8060SOL     OW35641   1.391   3.788   6.529 -0.2159  0.0863  0.4494
 8060SOL    HW135642   1.381   3.814   6.620 -0.0937 -0.4499  0.6164
 8060SOL    HW235643   1.300   3.799   6.501  0.2537 -0.3937 -1.2969
 8061SOL     OW35644   3.934   0.832   6.553  0.3829 -0.4350  0.3626
 8061SOL    HW135645   3.914   0.753   6.502 -2.9244  1.4313 -1.2089
 8061SOL    HW235646   3.850   0.876   6.561  0.6792  0.3789 -1.0703
 8062SOL     OW35647   0.892   4.288  13.337 -0.7419  0.4482 -0.5522
 8062SOL    HW135648   0.967   4.228  13.339 -2.2038 -1.3266  1.2190
 8062SOL    HW235649   0.823   4.222  13.340 -1.0539  0.9037  2.6540
 8063SOL     OW35650   0.681   0.600   5.777 -0.4247  0.3896 -0.3983
 8063SOL    HW135651   0.693   0.635   5.688  2.1560  0.5936  0.0403
 8063SOL    HW235652   0.760   0.638   5.815 -1.3711 -0.5720  2.5296
 8064SOL     OW35653   1.024   2.277   4.769  0.5437  0.2303  0.0796
 8064SOL    HW135654   1.021   2.366   4.804  1.0693  0.5347 -0.6470
 8064SOL    HW235655   1.019   2.219   4.845  2.3513 -2.4474 -1.7911
 8065SOL     OW35656   1.857   3.422   2.077 -0.1269  0.2350 -0.4735
 8065SOL    HW135657   1.949   3.395   2.082 -0.3318 -0.1105  1.1742
 8065SOL    HW235658   1.854   3.474   1.996  0.9517  0.0809 -0.6206
 8066SOL     OW35659   4.136   2.723  14.254 -0.0506  0.6006  0.1657
 8066SOL    HW135660   4.047   2.739  14.284  0.3505 -0.4744  1.8660
 8066SOL    HW235661   4.166   2.806  14.217  1.2194  0.2442  0.3863
 8067SOL     OW35662   3.917   1.656  16.095  0.2350 -0.0126  0.0435
 8067SOL    HW135663   4.000   1.622  16.128 -0.5119 -1.3730  0.5163
 8067SOL    HW235664   3.863   1.628  16.169  0.0864 -0.2239 -0.1458
 8068SOL     OW35665   3.453   2.912  16.001 -0.4633 -0.6579  0.6815
 8068SOL    HW135666   3.528   2.911  16.060  0.1046  1.5271 -0.0125
 8068SOL    HW235667   3.386   2.863  16.049 -0.9209  0.1952  0.9032
 8069SOL     OW35668   0.218   3.523  12.589  0.0142  0.3036  0.0946
 8069SOL    HW135669   0.149   3.489  12.647  1.0149  1.3853  1.9326
 8069SOL    HW235670   0.174   3.511  12.505 -0.8064  0.5629  0.4859
 8070SOL     OW35671   3.241   4.070   6.169 -0.6019 -0.8025 -0.2279
 8070SOL    HW135672   3.170   4.011   6.195 -1.1868 -0.2056 -0.4741
 8070SOL    HW235673   3.288   4.092   6.250  0.0766  0.9684 -1.1118
 8071SOL     OW35674   4.454   3.869   2.887  0.1889  0.1614 -0.2750
 8071SOL    HW135675   4.522   3.934   2.907  2.1916 -1.3190 -2.2476
 8071SOL    HW235676   4.503   3.816   2.824  0.6361  0.8073 -0.4679
 8072SOL     OW35677   3.648   0.046  17.587 -0.0797  0.1623 -0.2357
 8072SOL    HW135678   3.652   4.712  17.662  2.9434 -0.1758 -0.6760
 8072SOL    HW235679   3.648   0.133  17.627  1.8956 -0.3246  0.7839
 8073SOL     OW35680   2.885   1.833   6.166 -0.0743  0.6278 -0.1418
 8073SOL    HW135681   2.858   1.804   6.253 -0.8234  2.7272  0.3265
 8073SOL    HW235682   2.964   1.886   6.181 -0.8254  1.6652  0.1943
 8074SOL     OW35683   3.688   3.573   3.639  0.1803 -0.1667 -0.5173
 8074SOL    HW135684   3.700   3.627   3.561 -1.9772  0.0046 -0.7295
 8074SOL    HW235685   3.597   3.555   3.616  0.3360  0.1245 -1.3398
 8075SOL     OW35686   0.331   1.600   5.273  0.2545 -0.5982 -0.4937
 8075SOL    HW135687   0.264   1.646   5.221 -0.4919 -1.0130  0.0958
 8075SOL    HW235688   0.276   1.535   5.316  0.3264 -0.1809  0.2314
 8076SOL     OW35689   3.178   1.678   0.322 -0.1154 -0.3289  0.3052
 8076SOL    HW135690   3.239   1.717   0.384 -0.3460 -0.1250  0.4077
 8076SOL    HW235691   3.091   1.692   0.360  0.3585  2.4240  0.4093
 8077SOL     OW35692   1.032   2.327   2.249  0.2092  0.1513  0.4865
 8077SOL    HW135693   1.082   2.409   2.250 -0.5254  0.5987  0.3819
 8077SOL    HW235694   0.973   2.349   2.177  1.0903 -0.9303 -0.5619
 8078SOL     OW35695   3.967   2.303   4.186 -0.6656  0.5791  0.0648
 8078SOL    HW135696   3.903   2.246   4.228  0.5228 -0.6811  0.1405
 8078SOL    HW235697   3.980   2.266   4.098 -0.3127  0.6343  0.0927
 8079SOL     OW35698   2.988   2.328   7.061  0.2232 -0.1332 -0.5407
 8079SOL    HW135699   3.027   2.254   7.016 -1.8882 -1.4401 -0.2243
 8079SOL    HW235700   2.946   2.364   6.983  0.4803 -0.9922 -1.0708
 8080SOL     OW35701   2.807   3.736   3.303 -0.1758 -0.1012 -0.2161
 8080SOL    HW135702   2.723   3.713   3.264 -1.1425 -1.1186  2.4794
 8080SOL    HW235703   2.847   3.775   3.225  0.3813  1.7277  1.0016
 8081SOL     OW35704   0.842   0.745  11.967 -0.4870 -0.1656 -0.2605
 8081SOL    HW135705   0.873   0.659  11.938  1.5557  0.2014  0.8004
 8081SOL    HW235706   0.846   0.805  11.893 -0.0436 -0.2935 -0.3385
 8082SOL     OW35707   2.810   4.107   1.945 -0.5331 -0.4508 -0.0942
 8082SOL    HW135708   2.821   4.055   1.865 -0.9505 -1.4133  0.4656
 8082SOL    HW235709   2.723   4.078   1.974 -0.2411 -0.3011  0.9288
 8083SOL     OW35710   0.388   2.589   1.550  0.4283  0.4594  0.8211
 8083SOL    HW135711   0.412   2.638   1.471  1.6779 -1.9712 -0.3154
 8083SOL    HW235712   0.340   2.657   1.597 -0.1202  0.2673  0.5275
 8084SOL     OW35713   1.882   2.512  12.327  0.2169 -0.1840 -0.3701
 8084SOL    HW135714   1.941   2.568  12.378  0.6718  0.4975 -1.6444
 8084SOL    HW235715   1.907   2.429  12.367  0.7166  0.1945  0.1017
 8085SOL     OW35716   3.389   2.044  12.894 -0.3762  0.1172  0.1970
 8085SOL    HW135717   3.389   2.069  12.801 -0.9809 -1.5980 -0.2585
 8085SOL    HW235718   3.333   1.967  12.890  0.2760 -0.4647  2.4542
 8086SOL     OW35719   3.891   0.913   5.433 -0.2885  0.4498  0.5181
 8086SOL    HW135720   3.901   0.868   5.349  0.4611  1.9858 -0.2002
 8086SOL    HW235721   3.950   0.988   5.440  0.9244 -0.6782  2.3094
 8087SOL     OW35722   1.509   3.904   8.675  0.3669 -0.2300  0.0665
 8087SOL    HW135723   1.526   3.998   8.666  0.9721 -0.5178 -1.8416
 8087SOL    HW235724   1.572   3.871   8.611 -0.3845  1.5039 -1.5854
 8088SOL     OW35725   3.410   2.546   1.194  0.0987 -0.3584 -0.2643
 8088SOL    HW135726   3.320   2.578   1.199  0.3704  0.4398 -0.4288
 8088SOL    HW235727   3.429   2.512   1.281  1.6827 -0.2735 -0.5829
 8089SOL     OW35728   0.627   1.258   8.092 -0.1199 -0.1297  0.2316
 8089SOL    HW135729   0.568   1.328   8.064 -0.4687 -0.7365 -0.5381
 8089SOL    HW235730   0.599   1.197   8.024  1.1252 -1.5064  0.9510
 8090SOL     OW35731   1.952   3.271   3.139  0.0976  0.5928  0.3110
 8090SOL    HW135732   1.896   3.202   3.174  2.4893 -0.9111  1.1816
 8090SOL    HW235733   2.014   3.295   3.208 -1.3441  0.9466  1.4733
 8091SOL     OW35734   1.910   3.729   5.337 -0.0297  0.2462  0.1200
 8091SOL    HW135735   1.940   3.645   5.300  1.7941  1.7070 -1.7015
 8091SOL    HW235736   1.817   3.707   5.333 -0.2490  1.2124 -0.0522
 8092SOL     OW35737   0.145   3.616   0.703  0.0563  0.1160  0.2843
 8092SOL    HW135738   0.186   3.639   0.619  0.9158  0.5634  0.8311
 8092SOL    HW235739   0.190   3.534   0.721  0.0814 -0.2035 -1.1909
 8093SOL     OW35740   3.051   1.370   5.296 -0.0120 -0.1578 -0.0189
 8093SOL    HW135741   3.113   1.364   5.369 -1.0349  1.6398  0.9735
 8093SOL    HW235742   2.996   1.294   5.315  0.6768 -0.3007  1.3758
 8094SOL     OW35743   0.743   0.128   7.119  0.3183 -0.9394 -0.0914
 8094SOL    HW135744   0.830   0.162   7.137 -1.0208  0.6916  3.4538
 8094SOL    HW235745   0.694   0.201   7.079 -1.9516 -1.7811  1.1169
 8095SOL     OW35746   1.432   2.288   3.594  0.2803  0.6569  0.1040
 8095SOL    HW135747   1.358   2.263   3.539 -0.6123  2.1851  0.6167
 8095SOL    HW235748   1.511   2.256   3.550  0.5701  1.5597 -0.0370
 8096SOL     OW35749   4.642   1.891   4.798  0.1878 -0.6750  0.2806
 8096SOL    HW135750   4.697   1.905   4.721  0.3294 -4.0986 -0.2395
 8096SOL    HW235751   4.697   1.823   4.837 -2.0246 -2.9233 -0.5723
 8097SOL     OW35752   1.721   1.060   2.955 -0.0749 -0.2482  0.1526
 8097SOL    HW135753   1.648   1.117   2.932  0.2737 -0.1182 -0.6195
 8097SOL    HW235754   1.790   1.107   2.908 -1.0947  0.0311 -1.0587
 8098SOL     OW35755   3.735   0.580   7.635  0.4515 -0.4761  0.1981
 8098SOL    HW135756   3.793   0.507   7.616  0.6927  0.2278 -1.7854
 8098SOL    HW235757   3.649   0.538   7.642  1.3896 -2.5490 -0.8449
 8099SOL     OW35758   0.275   2.941   8.942  0.1340  0.0284 -0.0563
 8099SOL    HW135759   0.349   2.993   8.910 -1.1014  1.8533  0.0190
 8099SOL    HW235760   0.313   2.854   8.932 -0.8613 -0.4355  0.1524
 8100SOL     OW35761   3.742   2.294   2.947 -0.4073  0.2765 -0.2655
 8100SOL    HW135762   3.746   2.200   2.963  2.2532  0.2830 -0.8968
 8100SOL    HW235763   3.742   2.291   2.852 -2.8392 -0.0958 -0.2568
 8101SOL     OW35764   3.128   0.111   3.346 -0.0502 -0.1167 -0.2765
 8101SOL    HW135765   3.101   0.070   3.428  1.5648  0.1525  0.3736
 8101SOL    HW235766   3.049   0.151   3.309 -0.2535 -1.1887 -1.0036
 8102SOL     OW35767   0.230   3.071   8.317  0.0604  0.1763  0.4235
 8102SOL    HW135768   0.225   3.116   8.232 -2.0341  0.9905  0.9927
 8102SOL    HW235769   0.245   2.980   8.291  2.7333  0.5776  0.4936
 8103SOL     OW35770   3.360   4.362   4.134 -0.2349  0.1356 -0.3809
 8103SOL    HW135771   3.371   4.348   4.040 -2.4045  0.5811 -0.6936
 8103SOL    HW235772   3.440   4.413   4.144  0.1983 -0.3741 -1.1991
 8104SOL     OW35773   4.608   1.565   3.029 -0.6196 -0.2572  0.0797
 8104SOL    HW135774   4.540   1.632   3.036  0.3613  0.9217 -1.6622
 8104SOL    HW235775   4.587   1.513   2.951 -1.1736  0.3383 -0.1736
 8105SOL     OW35776   0.255   3.798   7.616  0.6625  0.1258  0.1285
 8105SOL    HW135777   0.269   3.714   7.658  1.1985 -0.3473 -1.0090
 8105SOL    HW235778   0.269   3.860   7.688 -1.9350  2.8898 -1.6944
 8106SOL     OW35779   4.237   2.347   1.037  0.0560  0.6237  0.0426
 8106SOL    HW135780   4.300   2.276   1.024  0.2793  0.9648 -0.7310
 8106SOL    HW235781   4.168   2.322   0.976 -0.0064  0.2233  0.2775
 8107SOL     OW35782   1.178   2.417   4.256  0.1373  0.1179  0.2566
 8107SOL    HW135783   1.170   2.497   4.205  1.4142  0.8476  1.2030
 8107SOL    HW235784   1.222   2.450   4.335 -2.0069 -3.5335  3.0226
 8108SOL     OW35785   4.656   4.214   7.068  0.6017 -0.6029 -0.2430
 8108SOL    HW135786   4.714   4.158   7.119  0.0606 -0.4046  0.5934
 8108SOL    HW235787   4.720   4.242   7.003  0.7220  0.5130  0.3570
 8109SOL     OW35788   1.588   0.933   7.181 -0.0238  0.3403  0.6350
 8109SOL    HW135789   1.563   1.013   7.226 -1.1221 -0.6017  1.6944
 8109SOL    HW235790   1.579   0.961   7.090  0.3277 -0.9512  0.2067
 8110SOL     OW35791   1.076   1.941  13.727 -0.4466  0.1770 -0.1208
 8110SOL    HW135792   1.151   1.998  13.746 -0.9234  0.5280  0.7161
 8110SOL    HW235793   1.120   1.856  13.731 -0.0322  0.3777 -0.3889
 8111SOL     OW35794   1.981   4.198  17.549 -0.6086  0.2389 -1.3505
 8111SOL    HW135795   2.056   4.193  17.609 -2.3090 -2.3437  0.5301
 8111SOL    HW235796   1.993   4.290  17.523 -0.6486  1.0953  1.7267
 8112SOL     OW35797   1.340   3.435   2.491  0.0975  0.2343  0.0236
 8112SOL    HW135798   1.330   3.453   2.398 -1.2112  0.0959  0.1386
 8112SOL    HW235799   1.353   3.341   2.479 -1.4275 -0.0451  0.5494
 8113SOL     OW35800   0.412   0.774   4.091 -0.5989 -0.1999  0.1165
 8113SOL    HW135801   0.404   0.680   4.110 -0.6762 -0.4994 -1.3303
 8113SOL    HW235802   0.486   0.786   4.150 -1.0336 -1.1484  0.8666
 8114SOL     OW35803   0.554   4.168   3.184 -0.2482 -0.2820 -0.0608
 8114SOL    HW135804   0.560   4.214   3.268  0.0063 -0.0883 -0.1858
 8114SOL    HW235805   0.622   4.209   3.130  1.2017 -0.4502  1.6415
 8115SOL     OW35806   0.735   2.473   8.052  0.3439 -0.0948  0.2636
 8115SOL    HW135807   0.660   2.492   7.995  2.2251  1.9735 -1.5768
 8115SOL    HW235808   0.789   2.418   7.996  1.6825  0.3617  1.1127
 8116SOL     OW35809   2.725   0.328   9.273 -0.4959  0.4998 -0.1046
 8116SOL    HW135810   2.670   0.284   9.337  0.4095 -2.4464 -1.3575
 8116SOL    HW235811   2.773   0.388   9.330 -0.0172  0.5307 -0.5335
 8117SOL     OW35812   2.237   2.866   6.226  0.8353 -0.5416 -0.5406
 8117SOL    HW135813   2.167   2.888   6.165  1.6943  2.5285 -0.3832
 8117SOL    HW235814   2.287   2.947   6.224 -1.1174  0.6342 -1.5402
 8118SOL     OW35815   3.246   4.291   5.149  0.1394 -0.1806  0.3354
 8118SOL    HW135816   3.244   4.367   5.090 -1.5218  0.0137  0.6423
 8118SOL    HW235817   3.158   4.256   5.144  0.6723 -1.0372 -2.8566
 8119SOL     OW35818   0.555   2.225   4.644  0.1993  0.0530  0.0146
 8119SOL    HW135819   0.637   2.244   4.598  0.6894  0.1661  0.9331
 8119SOL    HW235820   0.556   2.282   4.721  1.7806 -1.6036  1.2355
 8120SOL     OW35821   3.695   0.441   7.076  0.3692  0.4354 -0.2830
 8120SOL    HW135822   3.641   0.366   7.100  0.0880  1.3790  2.0237
 8120SOL    HW235823   3.648   0.501   7.134 -2.4780  0.7219 -2.9002
 8121SOL     OW35824   3.280   3.617   6.750  0.2910 -0.0788 -0.2378
 8121SOL    HW135825   3.298   3.561   6.674  0.5788  0.6202 -0.6875
 8121SOL    HW235826   3.186   3.636   6.747  1.1551  3.7998 -2.5642
 8122SOL     OW35827   2.038   1.095   4.592  0.8180  0.4981 -0.9354
 8122SOL    HW135828   2.039   1.128   4.682 -0.3206 -1.1219 -0.3194
 8122SOL    HW235829   1.997   1.171   4.553  0.3109  1.0589  0.6757
 8123SOL     OW35830   3.661   3.201   3.043  0.4831 -0.1622  0.2608
 8123SOL    HW135831   3.627   3.245   2.966  2.6825 -0.1605 -0.7046
 8123SOL    HW235832   3.596   3.131   3.048  1.1076 -0.9127 -2.3134
 8124SOL     OW35833   0.876   2.877   7.982  0.9803 -0.2548  0.7839
 8124SOL    HW135834   0.869   2.970   7.960  0.2054 -0.3371  0.6804
 8124SOL    HW235835   0.897   2.839   7.896  2.2131  0.2051  0.8906
 8125SOL     OW35836   4.629   2.175   6.294 -0.3165  0.2172  0.6744
 8125SOL    HW135837   4.655   2.150   6.383 -1.0425  2.1212  1.4237
 8125SOL    HW235838   4.544   2.214   6.312 -0.3017  0.6622 -0.2198
 8126SOL     OW35839   0.851   4.418   2.771  0.1418  0.0228  0.3983
 8126SOL    HW135840   0.835   4.325   2.788  1.1283 -0.3157 -0.4674
 8126SOL    HW235841   0.887   4.414   2.683  0.6156  0.8687  0.5477
 8127SOL     OW35842   2.293   4.276   3.887  0.0625 -0.6911 -0.3494
 8127SOL    HW135843   2.271   4.183   3.891 -0.8459 -0.3911  1.8397
 8127SOL    HW235844   2.209   4.316   3.909  1.0529  0.2499  1.8225
 8128SOL     OW35845   0.968   3.127  11.294 -0.1437  0.2679 -0.2227
 8128SOL    HW135846   1.045   3.091  11.337 -1.5133  0.4439  2.4188
 8128SOL    HW235847   1.005   3.137  11.207 -1.0512  0.2369 -0.6134
 8129SOL     OW35848   2.560   3.723   0.202  0.3819  0.7729  0.2351
 8129SOL    HW135849   2.601   3.667   0.268  0.6982 -0.1311 -0.7213
 8129SOL    HW235850   2.613   3.802   0.215  1.2473  0.2202  0.1108
 8130SOL     OW35851   4.673   0.718   3.769  0.4736 -0.1783  0.7661
 8130SOL    HW135852   4.721   0.733   3.687 -0.4027 -1.8821 -0.0649
 8130SOL    HW235853   0.007   0.727   3.843  0.5204  0.3596  0.6695
 8131SOL     OW35854   2.712   1.696   9.044 -0.2373  0.6172 -0.0334
 8131SOL    HW135855   2.762   1.616   9.031  1.3267  1.3897  1.1727
 8131SOL    HW235856   2.667   1.668   9.124  0.7054  0.2639  0.3827
 8132SOL     OW35857   1.414   1.656  12.219 -0.4726 -0.3504 -0.5336
 8132SOL    HW135858   1.452   1.743  12.227  0.0667 -0.5706 -0.6840
 8132SOL    HW235859   1.430   1.614  12.303 -0.8612  2.5028  0.9672
 8133SOL     OW35860   2.459   0.821   5.386  0.2329  0.1058  0.2870
 8133SOL    HW135861   2.533   0.820   5.326 -0.3210 -1.3410 -0.3718
 8133SOL    HW235862   2.438   0.914   5.390 -1.1840 -0.2423  1.1882
 8134SOL     OW35863   0.198   1.886  10.234  0.0168 -0.5973 -0.6385
 8134SOL    HW135864   0.231   1.956  10.178  0.2986 -0.3657 -0.1805
 8134SOL    HW235865   0.201   1.817  10.167 -0.8373  1.6827 -3.0579
 8135SOL     OW35866   2.279   4.019   4.691 -0.3887 -0.4549 -0.1057
 8135SOL    HW135867   2.348   4.047   4.751 -1.9348  0.7771  1.0920
 8135SOL    HW235868   2.325   3.997   4.610 -0.6653 -2.2373  0.2347
 8136SOL     OW35869   3.507   0.579  11.486  0.5787 -0.2780 -0.0525
 8136SOL    HW135870   3.486   0.547  11.574 -1.5858 -1.6814 -1.0916
 8136SOL    HW235871   3.543   0.507  11.434  0.4934 -0.8852  0.7299
 8137SOL     OW35872   0.225   1.143   6.405 -0.4666  0.3623 -0.3705
 8137SOL    HW135873   0.228   1.185   6.491 -2.7835 -2.1874  0.9591
 8137SOL    HW235874   0.257   1.203   6.338  1.5710 -1.5660 -1.1284
 8138SOL     OW35875   3.688   2.794   2.848  0.0096 -0.5461 -0.0249
 8138SOL    HW135876   3.633   2.757   2.916 -0.2162  0.7079  0.4734
 8138SOL    HW235877   3.770   2.792   2.897 -0.4700  0.2675  0.8080
 8139SOL     OW35878   0.207   4.156  16.535  0.2533  0.2445  0.0024
 8139SOL    HW135879   0.160   4.237  16.516  1.3276  0.6077 -1.0798
 8139SOL    HW235880   0.298   4.180  16.546 -0.0240  0.5270  1.6320
 8140SOL     OW35881   4.056   4.424   5.332  0.0917  0.2133  0.0251
 8140SOL    HW135882   3.996   4.357   5.299 -2.2501  2.8817 -1.1197
 8140SOL    HW235883   4.003   4.457   5.405  0.6481 -1.0918  1.0113
 8141SOL     OW35884   4.343   4.028   4.959 -0.5690  0.4651 -0.0115
 8141SOL    HW135885   4.274   4.022   5.026 -0.5387 -0.2727 -0.0561
 8141SOL    HW235886   4.303   3.964   4.901 -1.3721  1.1219 -0.1878
 8142SOL     OW35887   1.059   4.287   7.660  0.5934  1.1466  0.1601
 8142SOL    HW135888   0.994   4.355   7.641  1.7516  2.0598 -0.5829
 8142SOL    HW235889   1.101   4.284   7.574  1.1288 -0.8725  0.4873
 8143SOL     OW35890   3.852   2.515   3.020  0.1111  0.5237 -0.3566
 8143SOL    HW135891   3.843   2.520   3.115  1.1139 -0.7418 -0.2017
 8143SOL    HW235892   3.818   2.429   2.997  1.0467 -0.0142  0.3001
 8144SOL     OW35893   1.780   1.056   9.543  0.1521  0.4576 -0.3280
 8144SOL    HW135894   1.848   1.083   9.482 -2.3676  0.7474 -2.9827
 8144SOL    HW235895   1.747   1.139   9.576 -2.9864 -0.9793  0.1944
 8145SOL     OW35896   4.553   2.869   7.086 -0.1880  0.0227  0.3227
 8145SOL    HW135897   4.645   2.857   7.110  0.0641  0.8971 -0.2270
 8145SOL    HW235898   4.536   2.942   7.145 -0.5474 -0.8234  1.2638
 8146SOL     OW35899   4.348   3.321  10.320  0.0998  0.2430  0.2989
 8146SOL    HW135900   4.374   3.320  10.228 -2.1742  2.0690 -0.3613
 8146SOL    HW235901   4.272   3.264  10.307  1.2890 -0.8094 -1.9446
 8147SOL     OW35902   1.271   3.740  14.344  0.5798 -0.2236 -0.2100
 8147SOL    HW135903   1.292   3.833  14.347  1.4760 -0.4751  1.3886
 8147SOL    HW235904   1.183   3.739  14.381  0.6645 -1.4221 -0.0216
 8148SOL     OW35905   0.700   1.393  17.689  0.6193 -0.0338  0.6739
 8148SOL    HW135906   0.762   1.410  17.618  0.2981  1.8800  0.8513
 8148SOL    HW235907   0.617   1.371  17.647  1.5764  1.8320 -2.2321
 8149SOL     OW35908   1.848   3.773  15.593  0.0994 -0.2435  0.1912
 8149SOL    HW135909   1.763   3.782  15.551 -0.6047 -2.5576  1.1366
 8149SOL    HW235910   1.860   3.865  15.615 -1.5705 -0.5040  2.2223
 8150SOL     OW35911   2.497   3.401  14.848 -0.1001 -0.8563  0.0717
 8150SOL    HW135912   2.458   3.439  14.927  1.6113 -0.6778  0.8321
 8150SOL    HW235913   2.518   3.478  14.795  0.9705  0.2489  2.1357
 8151SOL     OW35914   1.080   2.761  17.227  0.0593 -0.2600 -0.1458
 8151SOL    HW135915   1.120   2.815  17.159  1.2929 -0.9483  0.0299
 8151SOL    HW235916   1.003   2.723  17.186 -0.5490 -0.5396  1.2872
 8152SOL     OW35917   2.345   2.193   8.622  0.2883 -0.4915  0.2714
 8152SOL    HW135918   2.437   2.194   8.649  0.4210  0.6464 -0.1993
 8152SOL    HW235919   2.306   2.111   8.652  0.2200 -0.7277 -0.4668
 8153SOL     OW35920   0.057   2.304   3.886 -0.1210 -0.6066  0.2652
 8153SOL    HW135921   0.138   2.344   3.855 -0.0781 -1.0838 -0.2300
 8153SOL    HW235922   4.717   2.351   3.833  1.4020  0.2786 -0.7821
 8154SOL     OW35923   0.933   4.356  15.809  0.2098  0.2154  0.5137
 8154SOL    HW135924   1.013   4.305  15.821  1.0042  1.2865 -0.1803
 8154SOL    HW235925   0.867   4.287  15.814  0.9943 -0.7230 -1.8946
 8155SOL     OW35926   1.886   1.487   7.209  0.2161  0.1766 -0.3936
 8155SOL    HW135927   1.874   1.408   7.262 -1.6158  0.3203 -0.5956
 8155SOL    HW235928   1.828   1.463   7.136  0.3413  0.5162 -0.6045
 8156SOL     OW35929   3.693   1.823  10.943 -0.2378  0.5334 -0.2805
 8156SOL    HW135930   3.775   1.802  10.988  0.1317  2.9682  0.1862
 8156SOL    HW235931   3.723   1.899  10.892  0.5927 -0.5032 -1.3344
 8157SOL     OW35932   1.088   0.819   6.859 -0.2463 -0.0661  0.5592
 8157SOL    HW135933   1.106   0.734   6.819  2.5423  0.7809  0.0088
 8157SOL    HW235934   1.147   0.822   6.934 -0.7764  0.5146  0.9461
 8158SOL     OW35935   3.153   1.774   7.538 -0.1141 -0.5476 -0.1087
 8158SOL    HW135936   3.119   1.855   7.575 -0.4031 -0.6765 -0.0966
 8158SOL    HW235937   3.224   1.755   7.600  0.2915  0.8008 -0.1514
 8159SOL     OW35938   4.445   0.311   1.890 -0.6666  0.5094  0.2216
 8159SOL    HW135939   4.438   0.362   1.970 -1.4304  2.2949 -0.9973
 8159SOL    HW235940   4.493   0.235   1.924  1.0141  1.5447  0.1024
 8160SOL     OW35941   0.871   1.734   4.877 -0.3863 -0.1546 -0.1906
 8160SOL    HW135942   0.795   1.776   4.919  1.2866  2.1960  0.4782
 8160SOL    HW235943   0.848   1.644   4.901 -1.0569 -0.1003 -0.6465
 8161SOL     OW35944   0.160   4.520   5.292 -0.3303  0.1817 -0.0196
 8161SOL    HW135945   0.092   4.568   5.245  0.9707  1.2541 -0.8125
 8161SOL    HW235946   0.108   4.482   5.362  1.7821 -2.0346  0.3744
 8162SOL     OW35947   3.589   4.580   8.170 -0.3084  0.0054  0.9236
 8162SOL    HW135948   3.519   4.638   8.198  0.2989  1.2205 -0.0836
 8162SOL    HW235949   3.620   4.619   8.089 -0.5151  0.2371  0.9564
 8163SOL     OW35950   1.476   0.850   6.611 -0.3304 -0.0273  0.1147
 8163SOL    HW135951   1.571   0.845   6.618 -0.0218  1.2087 -3.0178
 8163SOL    HW235952   1.459   0.809   6.696  2.9896  1.6614  1.5600
 8164SOL     OW35953   3.858   2.981   6.046  0.4147  0.2153 -0.0925
 8164SOL    HW135954   3.929   2.975   6.110 -0.6982  1.1877  1.2445
 8164SOL    HW235955   3.835   2.888   6.049 -1.4337  0.6542 -0.2548
 8165SOL     OW35956   3.699   3.365   8.219  0.2841 -0.0084 -0.2343
 8165SOL    HW135957   3.771   3.316   8.179  0.6991 -0.2119  0.7556
 8165SOL    HW235958   3.711   3.325   8.305  0.5103 -1.5627 -0.9935
 8166SOL     OW35959   2.775   2.728   3.760  0.4026 -0.3120  0.4298
 8166SOL    HW135960   2.851   2.774   3.723  1.6046 -1.8165  1.0511
 8166SOL    HW235961   2.715   2.733   3.685 -0.4401 -0.0135  1.1324
 8167SOL     OW35962   2.860   1.724  10.809 -0.2212  0.3031  0.2203
 8167SOL    HW135963   2.910   1.775  10.746  0.2330 -0.6334 -0.1828
 8167SOL    HW235964   2.890   1.761  10.891  2.4550  0.4433 -0.8266
 8168SOL     OW35965   1.956   0.513  11.248 -0.8671 -0.6426  0.3603
 8168SOL    HW135966   2.025   0.524  11.314  1.3778 -3.2581 -1.5274
 8168SOL    HW235967   1.989   0.563  11.173 -1.8157 -2.0987 -1.0136
 8169SOL     OW35968   3.697   3.356  14.404  0.8952 -0.2234 -0.2951
 8169SOL    HW135969   3.713   3.304  14.326 -0.6361  0.3410 -0.9864
 8169SOL    HW235970   3.772   3.327  14.456  1.9994  0.0968 -1.7101
 8170SOL     OW35971   4.290   0.121   7.332  0.3316  0.7334 -0.2771
 8170SOL    HW135972   4.335   0.167   7.402 -0.6473 -0.0294  0.8642
 8170SOL    HW235973   4.215   0.177   7.312  0.6023  0.4885 -1.9296
 8171SOL     OW35974   3.506   3.921   0.844 -0.6816 -0.1410  0.1967
 8171SOL    HW135975   3.597   3.947   0.832 -0.8897 -0.0165 -1.1179
 8171SOL    HW235976   3.485   3.897   0.754 -0.5811  0.1793  0.0892
 8172SOL     OW35977   2.157   1.730  14.761  0.9004  0.4749  0.3448
 8172SOL    HW135978   2.068   1.698  14.742  0.8637  1.0414 -0.4410
 8172SOL    HW235979   2.154   1.823  14.737  0.0981  0.5517  0.7431
 8173SOL     OW35980   3.476   0.347   6.418 -0.0909  0.8699  0.0766
 8173SOL    HW135981   3.398   0.402   6.414  0.3966  1.6329  1.2266
 8173SOL    HW235982   3.452   0.257   6.396  1.7667  0.2963  0.3805
 8174SOL     OW35983   1.816   2.200   8.495  0.0344 -0.0155  0.0906
 8174SOL    HW135984   1.818   2.107   8.473  3.8151 -0.0781  0.7391
 8174SOL    HW235985   1.825   2.208   8.590  0.7231 -0.4263  0.0622
 8175SOL     OW35986   1.334   1.514  15.252  0.3805 -0.3232  0.2309
 8175SOL    HW135987   1.422   1.553  15.251 -0.2656  1.1366  1.4335
 8175SOL    HW235988   1.280   1.588  15.278  1.0048 -0.6141  2.3084
 8176SOL     OW35989   0.070   2.804   9.356  0.1839  0.6388 -0.1335
 8176SOL    HW135990   4.710   2.847   9.367 -0.0399  0.3119 -0.5419
 8176SOL    HW235991   0.110   2.834   9.438 -1.0099 -3.0394  1.7976
 8177SOL     OW35992   2.652   1.926   4.786  0.0962  0.5815  0.1323
 8177SOL    HW135993   2.743   1.949   4.804  0.7220 -3.1977  1.7501
 8177SOL    HW235994   2.647   1.864   4.858  1.7497 -0.6010 -0.7697
 8178SOL     OW35995   1.493   4.024   3.302  0.0833  0.3714 -0.3499
 8178SOL    HW135996   1.479   4.031   3.207  2.2734 -0.3123 -0.7261
 8178SOL    HW235997   1.578   4.068   3.310 -0.2071  0.6835  0.9161
 8179SOL     OW35998   3.249   3.958   5.053 -0.2054 -0.3638  0.4879
 8179SOL    HW135999   3.254   3.971   4.959  0.4867  0.0484  0.5814
 8179SOL    HW236000   3.155   3.966   5.073 -0.1027 -0.2010  0.9089
 8180SOL     OW36001   0.363   3.303  14.740 -0.6642 -0.4936  0.2569
 8180SOL    HW136002   0.380   3.351  14.659  0.3065 -0.2353  0.6085
 8180SOL    HW236003   0.402   3.218  14.719  1.4662  0.6793 -0.5112
 8181SOL     OW36004   0.177   1.462   5.445 -0.5065 -0.3057  0.0817
 8181SOL    HW136005   0.202   1.376   5.410 -0.0017 -0.1919  0.1548
 8181SOL    HW236006   0.083   1.456   5.433 -0.4377  0.0944 -0.6398
 8182SOL     OW36007   2.026   2.756   7.411  0.0421 -0.4225 -0.2757
 8182SOL    HW136008   2.024   2.851   7.400  2.0844 -0.3060  0.3791
 8182SOL    HW236009   1.985   2.761   7.497  0.1506  0.9747 -0.2971
 8183SOL     OW36010   4.684   1.830   7.581 -0.5435  0.6803 -0.0763
 8183SOL    HW136011   4.634   1.761   7.537 -1.4342  0.3674  1.4529
 8183SOL    HW236012   0.020   1.863   7.514  0.8528 -0.2731  0.7354
 8184SOL     OW36013   2.222   3.138   8.975 -0.0201  0.4069 -0.3674
 8184SOL    HW136014   2.308   3.177   8.964  0.8100 -1.3433 -0.1167
 8184SOL    HW236015   2.159   3.210   8.977 -1.7525 -1.1609  2.0513
 8185SOL     OW36016   2.274   2.627   5.543 -0.5022 -0.3347 -0.1551
 8185SOL    HW136017   2.212   2.662   5.607 -1.0994  0.4772 -1.1938
 8185SOL    HW236018   2.345   2.603   5.603 -1.8092 -1.6099  0.8791
 8186SOL     OW36019   4.406   1.209   4.441 -0.2141  0.6669 -0.2423
 8186SOL    HW136020   4.338   1.145   4.464 -0.2780  1.3699  1.5176
 8186SOL    HW236021   4.357   1.282   4.405 -2.3326 -0.0770  1.1455
 8187SOL     OW36022   1.519   3.491  16.050 -0.4270 -0.0460  0.2602
 8187SOL    HW136023   1.540   3.458  15.962 -0.1025 -1.4897  0.8706
 8187SOL    HW236024   1.460   3.564  16.032 -1.1668 -0.6211  0.3370
 8188SOL     OW36025   1.837   2.302  12.096 -0.3920 -0.8223 -0.2298
 8188SOL    HW136026   1.743   2.316  12.086 -0.0858  0.7723 -0.8301
 8188SOL    HW236027   1.875   2.385  12.066  0.2949 -1.2665 -0.5767
 8189SOL     OW36028   1.472   0.559  13.719  0.1910  0.1791 -0.0951
 8189SOL    HW136029   1.398   0.547  13.660  0.3446 -0.2684 -0.1984
 8189SOL    HW236030   1.544   0.575  13.659 -0.0329  0.7372 -0.2098
 8190SOL     OW36031   1.688   1.258  14.038 -0.2341  0.1217 -0.1352
 8190SOL    HW136032   1.665   1.167  14.017 -0.3906  0.3438 -0.9265
 8190SOL    HW236033   1.736   1.251  14.121  1.6370  0.7181 -1.1819
 8191SOL     OW36034   3.853   0.286   4.909  0.4162  0.1505 -0.2836
 8191SOL    HW136035   3.918   0.315   4.845 -0.0566 -0.6555 -1.1390
 8191SOL    HW236036   3.900   0.262   4.989 -1.6205  0.7305  1.0764
 8192SOL     OW36037   0.477   0.774   5.060  0.4105 -0.0046  0.1450
 8192SOL    HW136038   0.388   0.806   5.073  0.1479 -0.5188 -0.4014
 8192SOL    HW236039   0.516   0.796   5.144 -1.6923 -1.0610  1.3828
 8193SOL     OW36040   0.499   4.185   4.743 -0.0859  0.1903  0.0660
 8193SOL    HW136041   0.467   4.099   4.769  0.9488 -0.4216 -0.6467
 8193SOL    HW236042   0.414   4.229   4.736  1.1820  2.5136 -0.9952
 8194SOL     OW36043   0.250   1.475  17.249  0.2000 -0.3165 -0.3608
 8194SOL    HW136044   0.314   1.406  17.268  0.4363 -0.0350 -0.1323
 8194SOL    HW236045   0.276   1.534  17.320  1.7454 -0.2539 -0.9770
 8195SOL     OW36046   1.590   4.345   2.794 -0.1485  0.1075 -0.1788
 8195SOL    HW136047   1.593   4.435   2.762  0.1200 -0.5098 -1.9048
 8195SOL    HW236048   1.580   4.296   2.713 -1.1086 -0.2374  0.1466
 8196SOL     OW36049   1.323   2.204  13.042  0.3863 -0.3784  0.4213
 8196SOL    HW136050   1.299   2.204  13.135 -2.2461  4.6940 -0.2364
 8196SOL    HW236051   1.417   2.187  13.036  0.7524  1.2864  1.5235
 8197SOL     OW36052   3.711   2.779   4.905  0.2435  0.1072  0.4663
 8197SOL    HW136053   3.756   2.832   4.839  1.0898 -0.7542  0.3531
 8197SOL    HW236054   3.622   2.816   4.908  0.2426  0.1108  0.3978
 8198SOL     OW36055   0.156   2.391   4.640 -0.5368 -0.2350  0.4310
 8198SOL    HW136056   0.112   2.451   4.581  1.8982  1.4108  0.3234
 8198SOL    HW236057   0.235   2.370   4.590 -1.2018  0.6232 -0.9488
 8199SOL     OW36058   4.463   1.043   7.419 -0.3647  0.6387  0.0479
 8199SOL    HW136059   4.448   0.955   7.453 -0.8047  1.1514  1.1911
 8199SOL    HW236060   4.412   1.098   7.479 -1.9210 -2.0009  1.1036
 8200SOL     OW36061   2.687   3.464   0.991  0.2987 -1.0911 -0.3630
 8200SOL    HW136062   2.755   3.513   1.038 -0.1109  0.4352 -1.3616
 8200SOL    HW236063   2.622   3.529   0.966  1.8232  0.3281 -0.6633
 8201SOL     OW36064   3.475   0.032   6.499 -0.4224 -0.3339 -0.0037
 8201SOL    HW136065   3.449   0.058   6.588  1.5952 -1.7915  1.0111
 8201SOL    HW236066   3.568   0.056   6.506 -0.3458 -0.5560 -0.2979
 8202SOL     OW36067   1.999   3.203   0.171 -0.2393 -0.6507  0.1415
 8202SOL    HW136068   2.043   3.274   0.125 -0.5348 -1.4832 -1.4667
 8202SOL    HW236069   1.977   3.140   0.102 -0.6240 -0.4118  0.0456
 8203SOL     OW36070   3.904   1.359   6.657 -0.0857  0.1568 -0.1054
 8203SOL    HW136071   3.829   1.419   6.660 -0.5900 -0.4546 -0.5884
 8203SOL    HW236072   3.864   1.283   6.700  1.1990 -0.1146  0.6198
 8204SOL     OW36073   1.668   3.341   0.514 -0.2568  0.1433  0.2765
 8204SOL    HW136074   1.674   3.322   0.420 -2.2428 -2.1999  0.6155
 8204SOL    HW236075   1.686   3.259   0.560 -4.0314 -0.4731  0.6327
 8205SOL     OW36076   2.078   0.248   8.448 -0.3455 -0.0500  0.1745
 8205SOL    HW136077   2.084   0.235   8.353  0.0019 -1.0070  0.3284
 8205SOL    HW236078   2.079   0.343   8.460  2.4795 -0.4109  2.7784
 8206SOL     OW36079   1.841   1.497   2.779 -0.0598 -0.1617 -0.3511
 8206SOL    HW136080   1.847   1.546   2.697  0.4106  0.7897  0.2575
 8206SOL    HW236081   1.817   1.572   2.834  2.1449  1.1672 -1.1917
 8207SOL     OW36082   0.920   1.226  13.545  0.3091 -0.5233  0.3090
 8207SOL    HW136083   0.866   1.297  13.512  0.6071 -0.1159  0.7050
 8207SOL    HW236084   0.950   1.260  13.629 -1.3137  1.2770  0.1520
 8208SOL     OW36085   0.498   2.370   3.733  0.1398  0.1524  1.1760
 8208SOL    HW136086   0.420   2.416   3.704  1.0827  0.2402 -1.1651
 8208SOL    HW236087   0.459   2.299   3.785 -1.4902 -1.2812 -2.0263
 8209SOL     OW36088   0.406   2.318   2.216 -0.0462 -0.1152  0.3206
 8209SOL    HW136089   0.384   2.289   2.305  0.4788 -1.3513  0.0431
 8209SOL    HW236090   0.400   2.413   2.227  0.8100 -0.1345  0.9627
 8210SOL     OW36091   1.688   3.233   0.816  0.0474 -0.2722  0.5230
 8210SOL    HW136092   1.734   3.315   0.833  1.8104 -1.0495 -0.4335
 8210SOL    HW236093   1.762   3.181   0.784 -0.7844  1.3872 -3.9790
 8211SOL     OW36094   0.815   0.450   4.506 -0.0194  0.2202 -0.0253
 8211SOL    HW136095   0.770   0.374   4.544  1.4380 -0.7501 -0.2358
 8211SOL    HW236096   0.786   0.521   4.563  0.5155 -0.7506  1.4649
 8212SOL     OW36097   0.799   4.385  14.152 -0.2455 -0.5372  0.7754
 8212SOL    HW136098   0.766   4.295  14.158  0.2985 -0.8453 -0.8616
 8212SOL    HW236099   0.752   4.415  14.074  1.0771 -1.2674 -0.2902
 8213SOL     OW36100   2.911   0.897   4.483 -0.0325  0.4370 -0.0057
 8213SOL    HW136101   2.927   0.859   4.569  1.9866  0.5068 -0.3357
 8213SOL    HW236102   2.822   0.869   4.464 -0.7539  2.4502  0.3967
 8214SOL     OW36103   1.065   0.450   6.120 -0.0967  0.1457 -0.1190
 8214SOL    HW136104   1.074   0.424   6.212 -0.4872  1.7068  0.3635
 8214SOL    HW236105   1.009   0.526   6.132  1.2278  1.4270 -2.0468
 8215SOL     OW36106   0.420   1.092   5.787 -0.6290  0.7790  0.0317
 8215SOL    HW136107   0.359   1.071   5.716 -0.8194 -1.8208  0.9706
 8215SOL    HW236108   0.492   1.146   5.755  0.9774 -0.0615  2.2496
 8216SOL     OW36109   0.425   2.816   6.244 -0.2826 -0.3624  0.3319
 8216SOL    HW136110   0.334   2.790   6.233  0.0479 -0.7065 -1.5717
 8216SOL    HW236111   0.461   2.730   6.221 -0.3232 -0.0607 -0.8365
 8217SOL     OW36112   1.942   1.759   7.990 -0.2152 -0.1869  0.5597
 8217SOL    HW136113   1.874   1.702   7.955 -1.1800  1.8102 -0.8467
 8217SOL    HW236114   1.894   1.840   7.973  1.0147  0.6768  1.2098
 8218SOL     OW36115   3.323   0.677   5.313  0.2775 -0.6217  0.1774
 8218SOL    HW136116   3.283   0.627   5.241 -0.3335  1.0220 -0.6151
 8218SOL    HW236117   3.316   0.605   5.376 -1.4578  0.3980  1.1598
 8219SOL     OW36118   0.048   4.147  15.112  0.0442  0.1516  0.1235
 8219SOL    HW136119   0.012   4.235  15.104  0.7166  0.3011 -1.2530
 8219SOL    HW236120   0.037   4.128  15.205  1.2073 -1.7888 -0.1360
 8220SOL     OW36121   1.955   3.607   8.323 -0.1969  0.2390  0.0755
 8220SOL    HW136122   1.990   3.593   8.411  0.0767 -0.6069 -0.1678
 8220SOL    HW236123   1.902   3.529   8.305 -1.0896  0.9137 -0.2252
 8221SOL     OW36124   2.249   1.942   6.357  0.5131  0.1110  0.4147
 8221SOL    HW136125   2.219   1.962   6.446 -0.8976 -0.7846  0.1374
 8221SOL    HW236126   2.201   1.999   6.298  0.3683 -2.0511 -1.5405
 8222SOL     OW36127   4.257   3.687   8.800 -0.2183  0.5462  0.3596
 8222SOL    HW136128   4.232   3.649   8.884 -2.8164  0.6649 -0.3336
 8222SOL    HW236129   4.306   3.763   8.829 -2.9588  2.4835 -0.0802
 8223SOL     OW36130   1.691   1.986  15.980 -0.3796 -0.3235  0.2520
 8223SOL    HW136131   1.770   1.998  16.033 -0.1463  0.6114 -0.2928
 8223SOL    HW236132   1.703   2.052  15.912 -0.3050 -2.2749 -1.6351
 8224SOL     OW36133   1.513   0.543   8.076 -0.0431 -0.0686  0.1662
 8224SOL    HW136134   1.576   0.530   8.005 -0.4263  1.3287 -0.4279
 8224SOL    HW236135   1.572   0.588   8.136  0.2726  0.1486 -0.3016
 8225SOL     OW36136   0.796   1.828   1.938  0.3240 -0.0606  0.1248
 8225SOL    HW136137   0.719   1.792   1.981 -0.5023  0.4375 -0.9385
 8225SOL    HW236138   0.782   1.781   1.855 -0.4707  2.6149 -1.2408
 8226SOL     OW36139   1.695   3.810   3.054  0.0845 -0.5197 -0.3436
 8226SOL    HW136140   1.759   3.850   2.995  0.3778 -1.5680 -0.7340
 8226SOL    HW236141   1.626   3.875   3.040  1.4429  1.4467  2.0648
 8227SOL     OW36142   0.011   2.572   6.868  0.0852  0.5159 -0.5230
 8227SOL    HW136143   4.712   2.479   6.878  2.1514 -0.1574 -1.8902
 8227SOL    HW236144   0.107   2.568   6.866  0.1725  2.7349 -0.0161
 8228SOL     OW36145   0.978   2.500   1.500  0.0195 -0.2460  0.3008
 8228SOL    HW136146   0.900   2.444   1.498  0.2127 -0.5669  1.6633
 8228SOL    HW236147   1.044   2.436   1.526  0.3677  0.1861  0.4872
 8229SOL     OW36148   2.323   3.533   5.197 -0.3053  0.0626 -0.0549
 8229SOL    HW136149   2.263   3.533   5.122  0.1129  0.6101 -0.3858
 8229SOL    HW236150   2.312   3.618   5.238 -1.3323 -0.6688  1.2086
 8230SOL     OW36151   1.193   2.066  12.591  0.1868 -0.2484 -0.2378
 8230SOL    HW136152   1.185   1.977  12.557  1.3378 -0.4248 -0.0752
 8230SOL    HW236153   1.180   2.064  12.686  2.1537 -0.5148  0.0382
 8231SOL     OW36154   2.870   1.193   5.878  0.4052  0.2439 -0.5685
 8231SOL    HW136155   2.780   1.217   5.897  0.1240 -0.0429 -1.5339
 8231SOL    HW236156   2.911   1.192   5.965 -0.2733 -1.3412 -0.2635
 8232SOL     OW36157   1.932   2.635   6.559 -0.3940  0.1087 -0.3974
 8232SOL    HW136158   1.989   2.713   6.556 -1.2834  0.7099 -1.5727
 8232SOL    HW236159   1.993   2.571   6.523 -0.0838  2.1021 -3.4674
 8233SOL     OW36160   1.263   2.152  15.164 -0.5081  0.7593  0.4719
 8233SOL    HW136161   1.235   2.203  15.087 -0.1390  0.7229  0.3121
 8233SOL    HW236162   1.338   2.204  15.193 -1.1245  1.4727  0.8165
 8234SOL     OW36163   0.974   2.680  13.630  0.5005  0.2800  0.1573
 8234SOL    HW136164   1.049   2.659  13.685 -0.7332 -1.9597  1.0035
 8234SOL    HW236165   1.019   2.676  13.546 -1.1112 -1.3258 -0.6412
 8235SOL     OW36166   1.517   2.763   6.605 -0.7403  0.0396 -0.4458
 8235SOL    HW136167   1.539   2.855   6.587 -0.0604  0.3170  1.8548
 8235SOL    HW236168   1.505   2.777   6.699  2.6693  0.0740 -0.0274
 8236SOL     OW36169   1.984   2.024   6.176  0.1981 -0.0451 -0.0994
 8236SOL    HW136170   1.911   2.050   6.232 -0.1504 -0.1595 -0.4969
 8236SOL    HW236171   2.042   2.097   6.197 -0.1308 -0.3144  1.7792
 8237SOL     OW36172   0.167   1.884   2.416  0.0779 -0.2734 -0.2460
 8237SOL    HW136173   0.111   1.909   2.342  2.7895  1.6676 -1.6689
 8237SOL    HW236174   0.144   1.957   2.474  2.1597 -0.2255  0.5069
 8238SOL     OW36175   4.697   2.399  10.673 -0.4639 -0.0913 -0.5343
 8238SOL    HW136176   4.708   2.457  10.598  2.1582  0.7943  0.5615
 8238SOL    HW236177   4.710   2.457  10.748  1.4235  0.5335 -1.3728
 8239SOL     OW36178   0.565   0.487   6.359  0.1294 -0.3515 -0.7315
 8239SOL    HW136179   0.471   0.507   6.359  0.0308 -0.8320  0.5068
 8239SOL    HW236180   0.583   0.479   6.265  2.4512 -0.4099 -0.2678
 8240SOL     OW36181   3.784   2.685   9.654  0.3266  0.5601  0.2757
 8240SOL    HW136182   3.853   2.717   9.712  0.6439  2.0183 -0.8720
 8240SOL    HW236183   3.703   2.723   9.687  0.4047  1.9910 -1.1349
 8241SOL     OW36184   1.724   4.071   7.165 -0.6386  0.7864 -0.2236
 8241SOL    HW136185   1.638   4.053   7.202  0.2291 -1.4384  0.7508
 8241SOL    HW236186   1.761   4.109   7.244  0.0886  1.2180 -0.7766
 8242SOL     OW36187   2.111   3.765  13.695 -0.3546 -0.6171  0.0874
 8242SOL    HW136188   2.071   3.781  13.780 -0.6604 -1.7731  0.1583
 8242SOL    HW236189   2.067   3.821  13.630  0.6217  1.0601  0.8623
 8243SOL     OW36190   2.699   0.005   1.726  0.4535  0.5862  0.3442
 8243SOL    HW136191   2.685   4.644   1.685  1.1853  0.8856 -0.5282
 8243SOL    HW236192   2.691   0.068   1.654 -0.9295  1.9325  1.6886
 8244SOL     OW36193   4.701   1.155   7.937  0.2186 -0.1978 -0.1765
 8244SOL    HW136194   4.636   1.158   8.007 -1.7565 -3.2297 -1.8745
 8244SOL    HW236195   0.034   1.229   7.958 -0.5189  0.1177  0.7307
 8245SOL     OW36196   2.347   4.611   5.366 -0.2319  1.3550  0.7662
 8245SOL    HW136197   2.383   4.563   5.440 -0.5542 -0.4951 -0.2999
 8245SOL    HW236198   2.419   4.673   5.359  2.5063 -2.0109 -0.5811
 8246SOL     OW36199   0.713   3.727   2.544  0.0811  0.3644 -0.7140
 8246SOL    HW136200   0.687   3.761   2.459 -0.1006  0.4413 -0.6267
 8246SOL    HW236201   0.699   3.633   2.536 -1.5915  0.3769  2.0667
 8247SOL     OW36202   1.521   3.536  16.331 -0.2675 -0.1531 -0.0302
 8247SOL    HW136203   1.526   3.471  16.261  0.1512 -0.7086  0.5153
 8247SOL    HW236204   1.519   3.621  16.287  0.7009 -0.7737 -1.2374
 8248SOL     OW36205   4.567   3.959   2.050 -0.6084  0.4366 -0.1707
 8248SOL    HW136206   4.600   3.899   1.983 -0.6123 -0.8995  1.0418
 8248SOL    HW236207   4.624   4.035   2.040  2.0876 -1.0006  4.5983
 8249SOL     OW36208   3.398   1.447   4.025  0.4037  0.1258  0.5658
 8249SOL    HW136209   3.404   1.534   3.987 -0.0464 -1.0487 -2.1664
 8249SOL    HW236210   3.304   1.433   4.041  0.4430 -1.1015 -0.2328
 8250SOL     OW36211   1.458   3.359   7.799 -0.3314 -0.0417 -0.3895
 8250SOL    HW136212   1.486   3.311   7.721 -1.6553  0.1980 -1.0171
 8250SOL    HW236213   1.369   3.386   7.775 -0.7596  0.5021  1.8218
 8251SOL     OW36214   0.592   3.003   4.514  0.1334  0.3702  0.1094
 8251SOL    HW136215   0.629   2.920   4.545 -1.6196  0.1843  1.6752
 8251SOL    HW236216   0.668   3.061   4.505  0.5831 -0.1714  0.4185
 8252SOL     OW36217   2.373   0.723  11.809 -0.4291 -0.3849  0.0160
 8252SOL    HW136218   2.379   0.715  11.714  1.0950 -1.7909  0.2430
 8252SOL    HW236219   2.396   0.636  11.841  0.0463 -0.4092 -0.4016
 8253SOL     OW36220   3.550   2.552   9.820  0.0043 -0.4339 -0.7861
 8253SOL    HW136221   3.479   2.553   9.884  1.6855 -2.4491  1.0813
 8253SOL    HW236222   3.579   2.643   9.822 -0.5685 -0.2824  0.4702
 8254SOL     OW36223   4.101   0.793   0.828 -0.0391 -0.5492 -0.2122
 8254SOL    HW136224   4.089   0.739   0.905 -2.0175 -1.8351 -1.4394
 8254SOL    HW236225   4.027   0.853   0.836  0.1821 -0.4871  1.2174
 8255SOL     OW36226   0.778   3.148   7.606  0.0272  0.0060 -0.1494
 8255SOL    HW136227   0.851   3.133   7.546 -0.4322 -1.5984 -0.3191
 8255SOL    HW236228   0.767   3.242   7.595  1.3573  0.3665  1.6155
 8256SOL     OW36229   0.973   4.227  16.415  0.5080 -0.3606 -0.4035
 8256SOL    HW136230   0.985   4.171  16.339  0.6017 -1.7053  0.6129
 8256SOL    HW236231   1.044   4.198  16.473  0.7881  0.9744 -0.0787
 8257SOL     OW36232   3.414   4.720   7.321  0.6458 -0.5034 -0.3579
 8257SOL    HW136233   3.497   4.711   7.274 -0.1740  1.1717 -2.1332
 8257SOL    HW236234   3.402   4.631   7.354  1.0659 -0.4671 -0.0993
 8258SOL     OW36235   3.945   1.075   2.142 -0.3732  0.1655 -0.1370
 8258SOL    HW136236   3.874   1.011   2.148 -1.4823  1.5781  1.7546
 8258SOL    HW236237   3.997   1.025   2.079 -0.2775 -1.3170  1.1231
 8259SOL     OW36238   4.408   0.655   8.694 -0.0167 -0.0053  0.2552
 8259SOL    HW136239   4.393   0.738   8.740  1.0382  1.2341 -1.6527
 8259SOL    HW236240   4.476   0.609   8.744 -1.5744 -0.3080  2.0942
 8260SOL     OW36241   2.571   2.614   9.017  0.2210 -0.0073 -0.0234
 8260SOL    HW136242   2.544   2.706   9.025  1.4090  0.4008 -0.7634
 8260SOL    HW236243   2.640   2.624   8.952  0.2983  0.9225  0.2029
 8261SOL     OW36244   0.130   0.639   6.733  0.0305 -0.4402 -0.0925
 8261SOL    HW136245   0.087   0.610   6.653  3.4422 -3.0133 -0.9809
 8261SOL    HW236246   0.113   0.733   6.726 -1.7838 -0.7768 -0.1506
 8262SOL     OW36247   2.553   4.351   3.909 -0.3507  0.1086 -0.4256
 8262SOL    HW136248   2.592   4.267   3.883 -1.2243 -1.1622  2.4290
 8262SOL    HW236249   2.462   4.330   3.889 -0.7221  1.5923 -0.2689
 8263SOL     OW36250   2.125   2.568   6.993  0.3038 -0.2439  0.3375
 8263SOL    HW136251   2.034   2.588   6.971  0.9541  0.7773 -1.3948
 8263SOL    HW236252   2.122   2.565   7.089 -0.1942 -1.5769  0.2825
 8264SOL     OW36253   3.574   4.078  11.378 -0.1012 -0.3716 -0.2504
 8264SOL    HW136254   3.521   4.122  11.445  2.7683  1.2192  0.9913
 8264SOL    HW236255   3.523   4.103  11.300  0.9290  2.0962 -0.1269
 8265SOL     OW36256   2.896   2.218  11.131  0.1785  0.3108  0.4214
 8265SOL    HW136257   2.915   2.184  11.219  0.1926 -1.2156 -0.1896
 8265SOL    HW236258   2.845   2.295  11.156  1.4801  1.6587 -1.0050
 8266SOL     OW36259   0.267   0.760   7.978 -0.4937  0.1566 -0.3579
 8266SOL    HW136260   0.247   0.826   7.912  0.3372 -0.6201 -1.3659
 8266SOL    HW236261   0.223   0.808   8.049 -3.3896  0.4689 -2.3813
 8267SOL     OW36262   1.189   4.253   7.410  0.0409 -0.2210  0.2982
 8267SOL    HW136263   1.151   4.337   7.383 -0.8131 -1.1096 -1.3286
 8267SOL    HW236264   1.129   4.187   7.374 -1.2675  2.3388 -2.2035
 8268SOL     OW36265   1.666   3.465   9.188  0.0406  0.2105 -0.2378
 8268SOL    HW136266   1.619   3.418   9.119 -0.2257 -0.2994  0.2955
 8268SOL    HW236267   1.658   3.388   9.245 -1.9163  1.3142  0.9893
 8269SOL     OW36268   2.030   1.202   8.890 -0.0682 -0.0294 -0.3938
 8269SOL    HW136269   2.005   1.234   8.977 -1.5407  0.0636 -0.8604
 8269SOL    HW236270   2.101   1.140   8.908  0.3228  0.1900 -1.1566
 8270SOL     OW36271   3.284   3.532  10.054  0.2345 -0.8315  0.4622
 8270SOL    HW136272   3.208   3.498  10.102  0.2491  0.1091  1.1479
 8270SOL    HW236273   3.238   3.545   9.971 -0.8359 -2.9717  0.7061
 8271SOL     OW36274   0.811   3.213  16.958  0.5380  0.0875  0.6246
 8271SOL    HW136275   0.733   3.269  16.967  0.9995  1.1971 -2.2471
 8271SOL    HW236276   0.817   3.206  16.862  0.8827 -1.4504  0.7688
 8272SOL     OW36277   0.600   2.296  16.184  0.3216  0.1811 -0.7642
 8272SOL    HW136278   0.664   2.267  16.249 -0.5119 -3.3553 -1.5345
 8272SOL    HW236279   0.519   2.250  16.203  0.1573  0.1151 -1.6250
 8273SOL     OW36280   1.199   3.472  13.830 -0.5574 -0.2353  0.0105
 8273SOL    HW136281   1.158   3.464  13.917 -0.4690 -0.1116  0.0629
 8273SOL    HW236282   1.163   3.559  13.814 -1.5623 -0.9567 -1.6279
 8274SOL     OW36283   4.246   3.638   4.795 -0.6389 -0.2570  0.3778
 8274SOL    HW136284   4.232   3.731   4.816  1.7350  0.2326 -0.2263
 8274SOL    HW236285   4.185   3.625   4.722  3.0756 -0.6663 -2.6763
 8275SOL     OW36286   4.445   4.306   0.886 -0.6352  0.6376  0.3795
 8275SOL    HW136287   4.462   4.248   0.812 -0.2062 -3.0371  3.3295
 8275SOL    HW236288   4.440   4.389   0.838  0.1862  1.2383  1.3252
 8276SOL     OW36289   0.017   4.704   2.917 -0.6419  0.3747  0.2698
 8276SOL    HW136290   0.007   4.616   2.955  1.0797  0.2526  0.4638
 8276SOL    HW236291   0.007   4.676   2.826 -0.1088  1.0311  0.0152
 8277SOL     OW36292   1.530   3.232   8.659  0.1722 -0.2263  0.0147
 8277SOL    HW136293   1.467   3.160   8.662 -0.8796  0.6566 -0.5853
 8277SOL    HW236294   1.611   3.191   8.687  0.7484  0.2874 -0.9103
 8278SOL     OW36295   2.641   3.089  14.494 -0.1215  0.6927  0.5369
 8278SOL    HW136296   2.605   3.113  14.579  1.4076 -1.1554  1.6796
 8278SOL    HW236297   2.667   2.999  14.513 -2.1231 -0.1339 -0.6889
 8279SOL     OW36298   3.460   0.565   7.704 -0.6537 -0.0038 -0.2219
 8279SOL    HW136299   3.438   0.641   7.651  2.3606  1.9710  1.3671
 8279SOL    HW236300   3.469   0.606   7.790  1.0235  2.0575 -1.4012
 8280SOL     OW36301   3.611   4.557   2.612  0.4659  0.1802  0.3609
 8280SOL    HW136302   3.607   4.597   2.525  0.3939 -0.7670 -0.0652
 8280SOL    HW236303   3.686   4.610   2.638  1.5159 -0.7726 -0.7387
 8281SOL     OW36304   2.436   1.813   2.040 -0.0798  0.3444  0.2183
 8281SOL    HW136305   2.451   1.902   2.010 -0.3151 -0.1504 -1.3763
 8281SOL    HW236306   2.516   1.798   2.091 -0.6905 -1.2133  0.7158
 8282SOL     OW36307   4.007   4.085  12.789  0.2838  0.1141  0.2314
 8282SOL    HW136308   3.974   4.158  12.842 -0.5211 -1.8643  2.4922
 8282SOL    HW236309   4.096   4.108  12.762  0.9149 -1.1170  1.2591
 8283SOL     OW36310   1.965   1.646  16.074  0.1599 -0.4462 -0.5820
 8283SOL    HW136311   2.012   1.720  16.113  1.0494 -0.4687 -1.6361
 8283SOL    HW236312   2.031   1.615  16.013  0.9199  0.0944 -0.0261
 8284SOL     OW36313   4.097   1.852   5.337 -0.0720 -0.2015  0.0850
 8284SOL    HW136314   4.055   1.870   5.254 -2.1559 -1.0693  0.9544
 8284SOL    HW236315   4.147   1.775   5.311  1.7549  0.6246  1.1349
 8285SOL     OW36316   1.503   1.748   2.894 -0.1135  0.1596  0.4450
 8285SOL    HW136317   1.435   1.807   2.861  0.6581  0.4806 -0.5965
 8285SOL    HW236318   1.519   1.713   2.806  1.4158  1.4658  0.2021
 8286SOL     OW36319   3.084   3.519   5.821  0.0424 -0.3605  0.3754
 8286SOL    HW136320   3.006   3.517   5.876  1.0410  1.0081  1.8952
 8286SOL    HW236321   3.044   3.483   5.743  1.1077  3.1613 -1.8091
 8287SOL     OW36322   0.948   0.875  15.408 -0.0905 -0.1458 -0.4281
 8287SOL    HW136323   1.036   0.898  15.437 -0.9867  1.1550  1.2331
 8287SOL    HW236324   0.913   0.960  15.382  0.8104  0.6278  0.8999
 8288SOL     OW36325   0.391   4.213   0.394  0.2063  0.0258 -0.1702
 8288SOL    HW136326   0.323   4.277   0.369  0.7735  1.6254  2.3547
 8288SOL    HW236327   0.473   4.261   0.385  0.1589  0.4854  1.7632
 8289SOL     OW36328   4.049   2.206   6.068  0.1459  0.5677  0.0551
 8289SOL    HW136329   4.001   2.272   6.018  1.5105  0.8875 -0.8510
 8289SOL    HW236330   4.000   2.127   6.046  0.6532  0.2726 -0.0263
 8290SOL     OW36331   4.208   0.804   2.740  0.0117  0.1232 -0.2522
 8290SOL    HW136332   4.289   0.775   2.698  0.9098  1.2313  0.7456
 8290SOL    HW236333   4.229   0.798   2.833 -2.8083 -2.8754  0.2085
 8291SOL     OW36334   3.863   2.726   7.250 -0.0855 -0.9447  0.4394
 8291SOL    HW136335   3.949   2.684   7.248  1.9486  3.1350  2.3962
 8291SOL    HW236336   3.887   2.817   7.266 -0.8749 -0.6121 -0.2958
 8292SOL     OW36337   0.980   4.605  17.356  0.0902 -0.2107  0.0955
 8292SOL    HW136338   1.053   4.578  17.412  0.0137 -0.2349  0.1823
 8292SOL    HW236339   0.909   4.560  17.402  0.9732 -1.5313  0.1767
 8293SOL     OW36340   2.966   0.213   2.068 -0.1158  0.6436  0.5572
 8293SOL    HW136341   2.872   0.227   2.059 -0.3770 -0.6130  1.3565
 8293SOL    HW236342   2.989   0.154   1.996 -2.1338 -0.1738  0.5943
 8294SOL     OW36343   1.100   1.893  14.507  0.2288 -0.4325  0.3843
 8294SOL    HW136344   1.049   1.912  14.428 -1.3336 -0.9644  1.2718
 8294SOL    HW236345   1.042   1.929  14.574  0.2658 -0.9546  0.6974
 8295SOL     OW36346   1.041   0.732  15.170 -0.1125 -0.1330  0.1231
 8295SOL    HW136347   1.082   0.806  15.126 -1.2859  0.7556  0.5137
 8295SOL    HW236348   1.003   0.766  15.251  1.5157  2.6986 -0.3257
 8296SOL     OW36349   4.194   4.433   2.216 -0.8398  0.0408 -0.4257
 8296SOL    HW136350   4.157   4.472   2.136 -1.5919 -1.0376 -0.6089
 8296SOL    HW236351   4.150   4.486   2.282 -0.2572 -1.5984  1.2695
 8297SOL     OW36352   1.682   2.247   7.559 -0.0386 -0.3691 -0.4623
 8297SOL    HW136353   1.710   2.160   7.586  1.7416  0.7956  1.5043
 8297SOL    HW236354   1.725   2.296   7.630  2.0677 -1.6073 -0.8687
 8298SOL     OW36355   2.881   1.867   2.401 -0.1644 -0.0354 -0.2978
 8298SOL    HW136356   2.952   1.809   2.374  0.0420  0.0144  0.1338
 8298SOL    HW236357   2.916   1.927   2.467 -1.2276 -0.0245  0.2690
 8299SOL     OW36358   3.704   2.621   8.910  0.4782  0.0464 -0.3802
 8299SOL    HW136359   3.623   2.628   8.860  0.7457  0.7253 -0.7140
 8299SOL    HW236360   3.676   2.588   8.996 -2.1850  2.3593 -0.3258
 8300SOL     OW36361   0.813   1.355   5.993  0.3872  0.0729  0.4771
 8300SOL    HW136362   0.906   1.350   6.015  0.4407  0.2454  0.2967
 8300SOL    HW236363   0.770   1.409   6.059  0.3665 -2.0053  2.1367
 8301SOL     OW36364   0.098   3.659   4.414 -0.0259 -0.3256 -0.2432
 8301SOL    HW136365   0.163   3.588   4.415 -0.0604 -0.3647 -1.5295
 8301SOL    HW236366   0.077   3.667   4.321 -0.2600  1.3789 -0.0489
 8302SOL     OW36367   3.340   3.729  14.244 -0.0081 -0.1358  0.1500
 8302SOL    HW136368   3.333   3.815  14.286  0.5630  0.3852 -0.8012
 8302SOL    HW236369   3.379   3.677  14.314  0.5299 -0.6957 -0.5703
 8303SOL     OW36370   4.407   0.133  14.216 -0.1527 -0.6227 -0.3821
 8303SOL    HW136371   4.499   0.122  14.192  0.2421 -0.0681  0.8118
 8303SOL    HW236372   4.414   0.159  14.308  2.6351  1.3305 -1.1305
 8304SOL     OW36373   4.535   3.381   3.612  0.6449 -0.0954 -0.4757
 8304SOL    HW136374   4.592   3.450   3.646  1.7932 -0.9520 -0.6380
 8304SOL    HW236375   4.513   3.341   3.696  0.6081  2.7701  0.8632
 8305SOL     OW36376   2.391   2.106  12.449 -0.0225 -0.2287  0.7507
 8305SOL    HW136377   2.342   2.024  12.454  0.5705 -0.6301 -0.0292
 8305SOL    HW236378   2.397   2.110  12.354  0.4898  3.0886  0.8945
 8306SOL     OW36379   3.600   2.391   4.154 -0.2840  0.3799  0.1473
 8306SOL    HW136380   3.572   2.473   4.113 -0.2373  0.2352 -0.1769
 8306SOL    HW236381   3.554   2.337   4.089  0.6154  1.3143 -1.2644
 8307SOL     OW36382   0.224   2.853   0.636  0.0261  0.0169 -0.3289
 8307SOL    HW136383   0.174   2.787   0.683 -0.9779  0.1239 -1.2351
 8307SOL    HW236384   0.292   2.803   0.591  0.9571 -0.5764  1.7440
 8308SOL     OW36385   1.134   1.608  10.455  0.5703 -0.0897  0.0367
 8308SOL    HW136386   1.071   1.676  10.429  0.0843 -0.8708 -0.8451
 8308SOL    HW236387   1.095   1.535  10.406 -0.9960  0.7388  0.0346
 8309SOL     OW36388   4.166   1.837   8.002  0.3009 -0.5429  0.0838
 8309SOL    HW136389   4.086   1.848   8.054 -0.0677 -2.0911 -0.1628
 8309SOL    HW236390   4.182   1.747   8.031 -1.4915 -1.0686 -0.5477
 8310SOL     OW36391   0.686   3.610  11.813  0.3027 -0.7048  0.1405
 8310SOL    HW136392   0.666   3.633  11.722  1.1967  0.9868  0.3719
 8310SOL    HW236393   0.752   3.541  11.800  0.6430 -0.1262 -1.1847
 8311SOL     OW36394   4.126   2.777  12.946  0.3526 -0.0921  0.1758
 8311SOL    HW136395   4.078   2.857  12.968 -0.4368 -0.7630  0.9042
 8311SOL    HW236396   4.166   2.756  13.030 -1.2450  0.5200  1.0895
 8312SOL     OW36397   1.021   4.711  14.396 -0.0901  0.1333  0.2238
 8312SOL    HW136398   1.025   4.623  14.434  0.9853  0.8209  1.7135
 8312SOL    HW236399   1.085   0.022  14.456  0.5131  1.8041 -1.4196
 8313SOL     OW36400   4.056   4.096  11.924  0.0516  0.6952 -0.2655
 8313SOL    HW136401   4.011   4.135  11.849  0.6687  1.2374 -0.3601
 8313SOL    HW236402   4.068   4.175  11.977  0.1906 -0.8570  1.9962
 8314SOL     OW36403   2.021   1.607   4.097 -0.4248 -0.2782 -0.2714
 8314SOL    HW136404   2.065   1.601   4.012  0.6378  4.3709 -0.0296
 8314SOL    HW236405   2.052   1.693   4.125 -3.0030  0.5241  0.1431
 8315SOL     OW36406   1.627   3.274   5.762  0.2651 -0.5866  0.1295
 8315SOL    HW136407   1.628   3.182   5.788 -0.7052 -0.1524  1.6573
 8315SOL    HW236408   1.542   3.276   5.718  0.3848 -0.7330 -0.1103
 8316SOL     OW36409   0.505   1.696   1.069 -0.5800  0.1724 -0.0790
 8316SOL    HW136410   0.542   1.638   1.135 -1.7978 -0.1732  0.2823
 8316SOL    HW236411   0.580   1.696   1.009 -0.3989 -0.9299  0.1489
 8317SOL     OW36412   0.047   3.132   1.925  0.3525  0.2807 -0.2759
 8317SOL    HW136413   0.087   3.193   1.987 -2.3279 -0.7254  2.3941
 8317SOL    HW236414   0.089   3.148   1.840  0.8561  1.1846  0.1440
 8318SOL     OW36415   1.743   4.280  12.710 -0.4864 -0.4252  0.2349
 8318SOL    HW136416   1.716   4.372  12.703  1.0145  0.1203  1.4734
 8318SOL    HW236417   1.755   4.274  12.805  0.5511 -1.9259  0.0073
 8319SOL     OW36418   3.617   2.436  10.115 -0.3690  0.3679  0.0777
 8319SOL    HW136419   3.522   2.442  10.128 -0.2218  0.7613  0.9732
 8319SOL    HW236420   3.620   2.347  10.080  0.8049  0.5804 -0.3773
 8320SOL     OW36421   0.444   1.553   4.256  0.3731 -0.3602  0.1843
 8320SOL    HW136422   0.351   1.558   4.236  0.0998 -0.1988  1.4776
 8320SOL    HW236423   0.453   1.470   4.304 -0.4361 -0.1652  0.6611
 8321SOL     OW36424   0.489   2.017   4.123 -0.2984  0.2093 -0.4896
 8321SOL    HW136425   0.531   1.931   4.126 -0.1810  0.3039  0.7254
 8321SOL    HW236426   0.437   2.011   4.203 -0.3423  2.1958 -0.3801
 8322SOL     OW36427   1.911   0.437   4.264  0.1668  0.3999  0.5232
 8322SOL    HW136428   1.868   0.515   4.298 -0.8015 -0.7859  2.0023
 8322SOL    HW236429   1.955   0.403   4.342 -1.9036 -1.8948  0.7085
 8323SOL     OW36430   3.148   2.710   8.887  0.2089 -0.8106 -0.1685
 8323SOL    HW136431   3.183   2.718   8.975  0.3367 -1.3592 -0.1694
 8323SOL    HW236432   3.081   2.646   8.912 -1.9451  2.4369  2.3742
 8324SOL     OW36433   2.744   2.172  10.013  0.1767 -0.6060 -0.1342
 8324SOL    HW136434   2.813   2.235  10.032  1.1815 -2.3624  2.0094
 8324SOL    HW236435   2.670   2.229   9.993 -1.4494 -2.0668  1.6897
 8325SOL     OW36436   1.860   0.831   7.675 -0.3830 -0.1527  0.4327
 8325SOL    HW136437   1.822   0.818   7.762  0.3391 -0.2532  0.7300
 8325SOL    HW236438   1.879   0.746   7.636 -2.1032  0.4779 -1.8378
 8326SOL     OW36439   4.637   0.969   8.849  0.4697  0.4285 -0.0198
 8326SOL    HW136440   4.639   0.880   8.884 -0.2817  0.3187 -0.2534
 8326SOL    HW236441   4.638   1.016   8.932 -2.4316 -0.3075  0.4283
 8327SOL     OW36442   0.452   2.100  11.529 -0.5606  0.0201 -0.1367
 8327SOL    HW136443   0.460   2.138  11.617 -0.3055  0.5274 -0.3813
 8327SOL    HW236444   0.485   2.013  11.550 -0.5280  0.1041  0.1654
 8328SOL     OW36445   2.157   3.284   9.266 -0.6507  0.0567 -0.2141
 8328SOL    HW136446   2.160   3.374   9.234  0.8548 -0.0829 -0.4783
 8328SOL    HW236447   2.136   3.301   9.358 -1.2056 -0.5908 -0.2223
 8329SOL     OW36448   4.437   2.164   4.586  0.2733  0.1267 -0.1030
 8329SOL    HW136449   4.485   2.190   4.507  2.4699 -1.2642  0.7591
 8329SOL    HW236450   4.357   2.217   4.581 -0.0917 -0.4500 -0.4152
 8330SOL     OW36451   2.319   1.207   2.812  0.3880 -0.5071  0.2568
 8330SOL    HW136452   2.334   1.302   2.812 -2.7519 -0.0237 -1.9415
 8330SOL    HW236453   2.269   1.199   2.893 -1.4397  2.3233 -0.5608
 8331SOL     OW36454   3.895   2.433  13.729 -0.0302 -0.2362 -0.2596
 8331SOL    HW136455   3.910   2.365  13.663  0.5172 -0.0090 -0.3651
 8331SOL    HW236456   3.835   2.387  13.788 -2.4030  0.6971 -1.9888
 8332SOL     OW36457   4.275   2.538   4.055 -0.1740  0.3751  0.1134
 8332SOL    HW136458   4.266   2.482   3.978  1.0675  1.1876 -0.6284
 8332SOL    HW236459   4.369   2.536   4.074  0.3643  0.0016 -2.6632
 8333SOL     OW36460   1.376   0.316   5.641  0.1453  0.0871  0.3211
 8333SOL    HW136461   1.317   0.326   5.567 -1.3662 -1.0355  1.3632
 8333SOL    HW236462   1.397   0.222   5.638  0.2047  0.1121 -0.0249
 8334SOL     OW36463   2.629   1.329   8.963  0.2696  0.2620 -0.1296
 8334SOL    HW136464   2.619   1.236   8.985  1.2042 -0.0946 -1.2634
 8334SOL    HW236465   2.565   1.356   9.029 -0.8832 -1.0457 -0.7099
 8335SOL     OW36466   0.668   2.424   5.947 -0.2806  0.1407 -0.1623
 8335SOL    HW136467   0.736   2.362   5.974 -0.7099 -0.3804 -0.2741
 8335SOL    HW236468   0.660   2.390   5.858 -2.1342  0.8818 -0.2860
 8336SOL     OW36469   4.686   0.869   3.352 -0.4740 -0.2590  0.7212
 8336SOL    HW136470   4.592   0.884   3.359 -0.1998  1.5290  0.6736
 8336SOL    HW236471   0.001   0.956   3.343 -0.1908 -0.5600 -1.0080
 8337SOL     OW36472   3.399   2.693   9.438  0.2354 -0.5674 -0.1784
 8337SOL    HW136473   3.341   2.769   9.430  0.2354 -0.5716 -0.2153
 8337SOL    HW236474   3.340   2.629   9.477  0.1834 -0.5991 -0.3117
 8338SOL     OW36475   4.295   1.429   4.817 -0.0827 -0.0178  0.1648
 8338SOL    HW136476   4.358   1.471   4.759 -0.3259  0.3997  0.2047
 8338SOL    HW236477   4.333   1.451   4.903  2.0106 -1.7745 -0.2895
 8339SOL     OW36478   4.030   0.007  11.747 -0.1110 -0.4731 -0.0348
 8339SOL    HW136479   3.973   4.704  11.819  0.2465 -0.7854  0.1215
 8339SOL    HW236480   3.987   4.680  11.678  0.5199  2.9085 -2.9407
 8340SOL     OW36481   3.361   4.213   8.274 -0.2805 -0.2030  0.2424
 8340SOL    HW136482   3.368   4.255   8.189 -0.2524 -2.7250 -1.0051
 8340SOL    HW236483   3.273   4.177   8.272  0.4331 -1.8415 -1.2609
 8341SOL     OW36484   1.441   1.734   7.806 -0.1841  0.0625  0.0155
 8341SOL    HW136485   1.456   1.677   7.731 -1.2805  0.4308 -0.4770
 8341SOL    HW236486   1.406   1.662   7.857  1.6167 -0.4471  0.5519
 8342SOL     OW36487   4.005   1.179   3.930  0.3707  0.0256  0.5586
 8342SOL    HW136488   4.082   1.222   3.893  0.6622 -0.5826  0.4666
 8342SOL    HW236489   4.028   1.173   4.023 -1.0266 -0.8031  0.8476
 8343SOL     OW36490   1.547   2.143   5.304  0.4206 -0.3964 -0.1863
 8343SOL    HW136491   1.613   2.205   5.271  0.7390 -2.0666 -2.6762
 8343SOL    HW236492   1.535   2.084   5.229  2.3102 -1.1139  0.0643
 8344SOL     OW36493   1.758   0.062  16.107  0.1473 -0.1040  0.0656
 8344SOL    HW136494   1.675   0.032  16.145  0.6228 -1.3177  0.1529
 8344SOL    HW236495   1.745   0.042  16.014  4.3102 -2.2178 -0.0835
 8345SOL     OW36496   1.240   0.116   9.666 -0.0514 -0.3413 -0.3028
 8345SOL    HW136497   1.216   0.206   9.688  1.8398 -0.2101  1.2388
 8345SOL    HW236498   1.290   0.089   9.743 -0.2249  0.4909  0.0991
 8346SOL     OW36499   4.238   1.712   3.850  1.1079  0.2458  0.0488
 8346SOL    HW136500   4.309   1.688   3.909  2.3766 -1.3634 -2.1462
 8346SOL    HW236501   4.291   1.717   3.771 -0.6245 -0.0469 -1.1335
 8347SOL     OW36502   2.067   3.837  15.006  0.4689  0.6379  0.0393
 8347SOL    HW136503   2.138   3.773  14.999 -0.9165 -0.7307 -1.6244
 8347SOL    HW236504   2.022   3.802  15.083 -0.6410  1.0168 -0.4317
 8348SOL     OW36505   3.740   4.011   7.718 -0.0624  0.1602 -0.6205
 8348SOL    HW136506   3.759   3.953   7.791 -1.4167 -0.3420 -0.6667
 8348SOL    HW236507   3.712   4.087   7.770 -0.6687  1.5453 -2.9833
 8349SOL     OW36508   4.235   0.936   1.034 -0.4655 -0.0238 -0.4729
 8349SOL    HW136509   4.303   0.876   1.066  1.9255  2.3478 -1.0447
 8349SOL    HW236510   4.222   0.896   0.948  0.3691 -4.0710  1.2904
 8350SOL     OW36511   3.946   1.973   5.138  0.3916  0.6476  0.3838
 8350SOL    HW136512   3.952   1.981   5.042  1.0818  0.0724  0.3838
 8350SOL    HW236513   3.855   1.992   5.161  1.0418  0.2555  3.2048
 8351SOL     OW36514   4.486   3.500   6.348 -0.2677 -0.2882 -0.6148
 8351SOL    HW136515   4.501   3.415   6.388 -0.0140  0.2869  0.5396
 8351SOL    HW236516   4.481   3.481   6.255  2.6410  1.0547 -1.0442
 8352SOL     OW36517   4.086   1.695   7.115  0.2687 -0.3889 -0.3593
 8352SOL    HW136518   4.148   1.740   7.173 -0.7723 -1.0449  1.2642
 8352SOL    HW236519   4.058   1.625   7.174 -1.1513  0.5033  0.0300
 8353SOL     OW36520   1.940   1.773   9.985  0.6919  0.8731 -0.1102
 8353SOL    HW136521   1.916   1.824  10.063  0.2980  2.3627 -1.2083
 8353SOL    HW236522   2.026   1.740  10.012  0.0210 -0.7451  0.0316
 8354SOL     OW36523   4.529   4.509   2.855  0.7250  0.1522  0.3822
 8354SOL    HW136524   4.532   4.443   2.785 -2.3087 -0.8270  1.1510
 8354SOL    HW236525   4.578   4.477   2.931 -1.3305  1.2750  2.1684
 8355SOL     OW36526   1.279   2.722   5.855  0.4427 -0.0391  0.8198
 8355SOL    HW136527   1.295   2.751   5.765 -1.3338  0.5457  0.6881
 8355SOL    HW236528   1.195   2.763   5.875  1.2971  1.5071  1.2056
 8356SOL     OW36529   2.698   1.832   7.436 -0.1058  0.3436  0.2515
 8356SOL    HW136530   2.673   1.924   7.445  0.9769  0.7080 -0.4521
 8356SOL    HW236531   2.654   1.788   7.509 -0.9753 -0.6754 -0.8977
 8357SOL     OW36532   1.126   0.792   6.227 -0.5525  0.1148  0.2045
 8357SOL    HW136533   1.108   0.877   6.268 -1.4332 -0.2332  0.5394
 8357SOL    HW236534   1.174   0.812   6.147 -2.0697  1.6641 -0.3140
 8358SOL     OW36535   0.955   4.543  13.360  0.0993  0.4205  0.2169
 8358SOL    HW136536   0.930   4.451  13.351  0.7882  0.2802 -0.2150
 8358SOL    HW236537   1.029   4.531  13.419 -0.7469  2.1257  1.6234
 8359SOL     OW36538   1.911   2.009   9.799  0.0693 -0.1981  0.4797
 8359SOL    HW136539   1.942   1.924   9.831 -1.9034 -1.6705 -1.4399
 8359SOL    HW236540   1.989   2.031   9.748  0.3168  0.3001  1.0787
 8360SOL     OW36541   3.820   4.365   3.572  0.5726 -0.0926 -0.8017
 8360SOL    HW136542   3.726   4.349   3.574  0.4894  0.2445 -2.4311
 8360SOL    HW236543   3.847   4.323   3.654 -0.9267 -1.7282 -1.1373
 8361SOL     OW36544   2.062   0.118   2.592 -0.0243  0.4320  0.5129
 8361SOL    HW136545   2.036   0.200   2.633  0.7386  0.3718  1.1162
 8361SOL    HW236546   2.034   0.058   2.662  1.3991 -0.2078  0.5320
 8362SOL     OW36547   4.483   1.783   2.687 -0.5524  0.0042  0.4749
 8362SOL    HW136548   4.533   1.702   2.683 -0.1787  0.3938 -3.2081
 8362SOL    HW236549   4.449   1.783   2.597 -0.4211  2.6415  0.4182
 8363SOL     OW36550   4.034   2.603   2.826  0.2890 -0.2117  0.3743
 8363SOL    HW136551   3.964   2.583   2.888  0.4734  2.3489  1.4161
 8363SOL    HW236552   4.018   2.532   2.765  1.5445 -1.7250  1.7946
 8364SOL     OW36553   4.604   3.241   6.662  0.3317 -0.1316 -0.1262
 8364SOL    HW136554   4.563   3.317   6.703  1.1295 -0.0640  0.5552
 8364SOL    HW236555   4.597   3.177   6.733 -2.7893  0.7939  0.3969
 8365SOL     OW36556   3.365   3.970  17.130 -0.6181  0.2205  0.4758
 8365SOL    HW136557   3.326   3.885  17.151 -0.7845 -0.4874 -2.6380
 8365SOL    HW236558   3.315   4.033  17.181  1.3203 -0.0563  2.6910
 8366SOL     OW36559   2.898   4.381   3.880 -0.0196  0.4032 -0.1111
 8366SOL    HW136560   2.915   4.419   3.794 -0.5673  0.6367 -0.1147
 8366SOL    HW236561   2.865   4.456   3.931 -0.8631 -1.0904  1.5399
 8367SOL     OW36562   1.823   1.889  16.593  0.2016  0.4953 -0.2931
 8367SOL    HW136563   1.756   1.916  16.656  0.8372 -0.0420  0.6186
 8367SOL    HW236564   1.898   1.943  16.615  0.2089  0.6317 -0.6551
 8368SOL     OW36565   0.636   3.141   1.716  0.3908 -0.4021 -0.5586
 8368SOL    HW136566   0.618   3.053   1.684 -3.0220  0.3958 -0.7974
 8368SOL    HW236567   0.721   3.161   1.675  0.4667 -1.4911 -0.9443
 8369SOL     OW36568   0.421   3.584  17.016  0.8741  0.0482 -0.3127
 8369SOL    HW136569   0.452   3.646  17.082 -0.2923  0.1076  0.1648
 8369SOL    HW236570   0.328   3.599  17.030  0.8474  0.1332 -0.5893
 8370SOL     OW36571   4.209   2.586   4.306  0.1376  0.6844 -0.1371
 8370SOL    HW136572   4.264   2.660   4.332  2.0441 -1.1352  1.0589
 8370SOL    HW236573   4.234   2.591   4.214  0.3405  0.5487 -0.0895
 8371SOL     OW36574   1.357   3.492   2.212 -0.1531  0.2046  0.1547
 8371SOL    HW136575   1.294   3.561   2.190  2.1185  2.1380 -0.2599
 8371SOL    HW236576   1.436   3.529   2.172 -1.1906  0.4774 -1.6552
 8372SOL     OW36577   3.233   3.176   3.794 -0.5265  0.1501 -0.4394
 8372SOL    HW136578   3.253   3.083   3.796  1.2191  0.5498  0.3919
 8372SOL    HW236579   3.264   3.190   3.883 -0.4815  1.0771 -0.5996
 8373SOL     OW36580   0.284   4.564   7.030 -0.2207  0.3543 -0.9906
 8373SOL    HW136581   0.231   4.487   7.007 -0.5076  0.3923 -0.4543
 8373SOL    HW236582   0.364   4.542   6.982 -0.1181  0.2431 -0.7700
 8374SOL     OW36583   2.576   3.530   5.627 -0.4988 -0.1274  0.4524
 8374SOL    HW136584   2.543   3.609   5.583 -0.6013  1.0900  2.6972
 8374SOL    HW236585   2.492   3.484   5.633  0.2146 -1.8397 -2.3155
 8375SOL     OW36586   2.057   3.933   3.491  0.2926  0.2495  0.3080
 8375SOL    HW136587   2.106   3.977   3.560  1.5068 -3.5783  1.9306
 8375SOL    HW236588   2.078   3.841   3.507 -0.6564 -0.0228 -0.0064
 8376SOL     OW36589   0.130   1.755   5.199 -0.0339  0.4157 -0.0033
 8376SOL    HW136590   0.039   1.731   5.218 -0.2478 -0.0031 -1.5465
 8376SOL    HW236591   0.123   1.796   5.113  2.0632 -0.1041 -0.4060
 8377SOL     OW36592   0.392   1.922  15.373 -0.2539  0.2447 -0.1448
 8377SOL    HW136593   0.406   1.894  15.282  2.1948  1.1573 -0.0505
 8377SOL    HW236594   0.312   1.874  15.395 -0.4087 -0.0240 -1.2620
 8378SOL     OW36595   0.410   3.417   7.945  0.0674 -0.4970 -0.0608
 8378SOL    HW136596   0.413   3.328   7.981 -2.3464 -0.8534 -0.7394
 8378SOL    HW236597   0.495   3.454   7.972 -1.0840 -0.0347  2.9009
 8379SOL     OW36598   2.152   2.763   8.587  0.1230  0.0890  0.0624
 8379SOL    HW136599   2.083   2.700   8.607  0.0352  0.8036  2.0009
 8379SOL    HW236600   2.143   2.761   8.492 -1.8146 -0.9248  0.2761
 8380SOL     OW36601   0.403   0.227   8.063 -0.0312 -0.6308 -0.0976
 8380SOL    HW136602   0.439   0.246   8.149  0.7136  1.1886 -0.8088
 8380SOL    HW236603   0.490   0.223   8.023  1.6833 -1.7649  3.7555
 8381SOL     OW36604   2.251   0.932   1.605 -0.0936  0.1666  0.1311
 8381SOL    HW136605   2.340   0.899   1.618  0.7951  2.2622 -0.6645
 8381SOL    HW236606   2.213   0.861   1.553  0.5996 -1.1424  1.3880
 8382SOL     OW36607   1.330   3.783   8.375  0.0701  0.0765 -0.0139
 8382SOL    HW136608   1.342   3.837   8.297  1.7714 -3.3814 -2.1835
 8382SOL    HW236609   1.394   3.714   8.355  0.0710  0.1749 -0.3598
 8383SOL     OW36610   1.675   0.418   6.532 -0.0774  0.2630 -0.2054
 8383SOL    HW136611   1.645   0.477   6.462 -1.1003 -0.9809 -0.8138
 8383SOL    HW236612   1.720   0.353   6.478 -0.2413  0.2209 -0.2915
 8384SOL     OW36613   2.941   2.020   9.028  0.0577  0.3538  0.3832
 8384SOL    HW136614   2.931   2.110   8.998  2.1418  1.3031  2.6269
 8384SOL    HW236615   2.889   1.975   8.961 -1.3269 -0.8285  2.2435
 8385SOL     OW36616   3.273   4.574   6.505  0.5155 -0.9248 -0.4105
 8385SOL    HW136617   3.348   4.629   6.527 -1.0668  2.0973 -2.5698
 8385SOL    HW236618   3.313   4.487   6.503  0.6752 -0.8741  0.5144
 8386SOL     OW36619   3.041   1.083   8.942  0.0138  0.1853  0.3094
 8386SOL    HW136620   3.080   1.020   9.002  0.8099  2.0612  1.7852
 8386SOL    HW236621   3.089   1.164   8.958 -0.1550  0.5946 -1.1868
 8387SOL     OW36622   2.552   2.548  16.005  0.5562  0.1237 -0.2180
 8387SOL    HW136623   2.516   2.634  16.028  0.5495  0.6884 -2.3243
 8387SOL    HW236624   2.500   2.544  15.925 -0.2357 -1.5873  0.3849
 8388SOL     OW36625   2.900   1.397   9.202 -0.1819  0.2376  0.4741
 8388SOL    HW136626   2.926   1.317   9.247 -1.0648 -0.7709 -0.8048
 8388SOL    HW236627   2.986   1.438   9.196 -0.4505  0.7582  0.2007
 8389SOL     OW36628   3.627   3.927   6.785 -0.7056 -0.0261 -0.0946
 8389SOL    HW136629   3.706   3.906   6.835 -1.7234 -0.4231  1.3438
 8389SOL    HW236630   3.667   3.995   6.731 -1.4959 -1.3550 -2.3541
 8390SOL     OW36631   3.346   0.276  13.744  0.5556 -0.0690  0.3772
 8390SOL    HW136632   3.392   0.225  13.810  0.6062 -0.5579 -0.0374
 8390SOL    HW236633   3.266   0.304  13.789 -0.6613 -1.5584 -0.8662
 8391SOL     OW36634   1.582   3.949   6.358 -0.8128  0.2277  0.3032
 8391SOL    HW136635   1.577   3.908   6.272  0.2090  0.2325  0.2398
 8391SOL    HW236636   1.519   3.898   6.409 -0.4293  0.9440  1.4964
 8392SOL     OW36637   1.924   2.747   4.880  0.2203 -0.1183 -0.9970
 8392SOL    HW136638   1.965   2.805   4.816 -1.8308 -0.3505 -2.5227
 8392SOL    HW236639   1.985   2.733   4.952  1.2009 -2.6450 -2.3231
 8393SOL     OW36640   0.658   2.123   7.410  0.1909  0.3501 -0.3745
 8393SOL    HW136641   0.753   2.138   7.408  0.3272 -0.3626  1.1811
 8393SOL    HW236642   0.632   2.164   7.327 -2.4328  0.1554  0.3741
 8394SOL     OW36643   4.072   2.673   6.534  1.2665  0.2478  0.4859
 8394SOL    HW136644   4.039   2.635   6.616 -2.3662  3.4372  0.4946
 8394SOL    HW236645   4.141   2.734   6.559  1.7915 -1.0773  2.2956
 8395SOL     OW36646   1.457   1.188   4.769 -0.4364 -0.6893 -1.1878
 8395SOL    HW136647   1.389   1.247   4.737  0.6851  0.9258 -0.6288
 8395SOL    HW236648   1.500   1.241   4.837  1.0281 -1.4790 -1.4899
 8396SOL     OW36649   2.040   2.769   4.410 -0.0492  0.1395 -0.1416
 8396SOL    HW136650   2.096   2.720   4.350  1.6793 -0.4746  1.9493
 8396SOL    HW236651   1.962   2.765   4.354 -0.5188 -0.1240  0.5136
 8397SOL     OW36652   1.906   3.993  12.735 -0.1509  0.7199  0.0258
 8397SOL    HW136653   1.820   4.010  12.698 -0.2898  0.9569  0.4637
 8397SOL    HW236654   1.886   3.943  12.814  0.7282 -0.4479 -0.4869
 8398SOL     OW36655   1.241   4.122   3.391 -0.2526 -0.1674  0.4219
 8398SOL    HW136656   1.229   4.162   3.305  0.1770  0.5317  0.6867
 8398SOL    HW236657   1.330   4.090   3.379 -0.5722 -0.7802 -0.3220
 8399SOL     OW36658   1.416   2.812   8.456  0.6915 -0.7433 -0.0046
 8399SOL    HW136659   1.472   2.786   8.382 -0.4234  0.4670 -1.2747
 8399SOL    HW236660   1.449   2.743   8.513  0.2048  0.5867  1.8682
 8400SOL     OW36661   3.997   1.856  13.125  0.9374 -0.1290  0.1641
 8400SOL    HW136662   3.935   1.929  13.117  1.9558  0.9775  2.3129
 8400SOL    HW236663   3.954   1.785  13.172 -0.8128  0.6341 -0.2701
 8401SOL     OW36664   2.675   3.353   2.103  0.0086  0.0346 -0.6077
 8401SOL    HW136665   2.687   3.301   2.182 -2.0130  1.0377  0.3387
 8401SOL    HW236666   2.755   3.406   2.111 -0.1025 -0.1893  1.7280
 8402SOL     OW36667   4.152   4.124   4.646 -0.2242 -0.1186 -0.2593
 8402SOL    HW136668   4.120   4.181   4.716  1.6794  0.5513  0.0753
 8402SOL    HW236669   4.091   4.135   4.573 -0.7759 -1.2925  0.0200
 8403SOL     OW36670   2.490   3.108  10.439 -0.3903 -0.0938  0.4750
 8403SOL    HW136671   2.441   3.186  10.411 -0.3308 -0.9508 -2.0233
 8403SOL    HW236672   2.560   3.117  10.375  2.4078 -1.4984  3.3595
 8404SOL     OW36673   2.112   3.189   6.084  0.4347 -0.5376 -0.3415
 8404SOL    HW136674   2.082   3.231   6.003  1.6202 -0.8794 -0.9491
 8404SOL    HW236675   2.030   3.161   6.124  0.7924 -0.2586  0.5846
 8405SOL     OW36676   4.544   0.810   8.261  0.0172 -0.0252  0.0936
 8405SOL    HW136677   4.557   0.728   8.309 -1.6344 -2.6808 -3.9598
 8405SOL    HW236678   4.590   0.789   8.180 -0.8772  1.6563 -0.8501
 8406SOL     OW36679   2.386   2.456   6.564  0.1216  0.3497  0.1607
 8406SOL    HW136680   2.430   2.492   6.488  0.2355 -0.4399 -0.1534
 8406SOL    HW236681   2.398   2.362   6.546 -0.5810  0.1413  0.7921
 8407SOL     OW36682   0.737   3.895   5.835 -0.3258  0.2751  0.0424
 8407SOL    HW136683   0.673   3.886   5.764 -1.2790  1.1744  0.7990
 8407SOL    HW236684   0.790   3.966   5.801  0.5479  0.4273  1.7769
 8408SOL     OW36685   3.862   2.415   7.687 -0.3198 -0.9845 -0.4273
 8408SOL    HW136686   3.935   2.471   7.663 -0.2978 -0.5479  0.6324
 8408SOL    HW236687   3.810   2.423   7.607 -0.1616  0.3066 -0.3951
 8409SOL     OW36688   3.252   2.169   4.764  0.3120 -0.1413 -0.9879
 8409SOL    HW136689   3.224   2.256   4.737 -0.3386 -0.3048 -0.8365
 8409SOL    HW236690   3.301   2.141   4.686  0.6181 -1.4084 -0.3442
 8410SOL     OW36691   0.856   3.165   6.097  0.7090 -0.6785 -0.2272
 8410SOL    HW136692   0.884   3.096   6.158  1.1384 -0.1284  0.1963
 8410SOL    HW236693   0.871   3.245   6.147  0.0906  0.1095 -1.3078
 8411SOL     OW36694   2.131   2.222  10.662  0.1170 -0.1399  0.0706
 8411SOL    HW136695   2.082   2.263  10.733 -0.3482 -0.4608 -0.0690
 8411SOL    HW236696   2.159   2.149  10.717 -0.0242  0.7215  1.2936
 8412SOL     OW36697   3.676   0.858   9.056 -0.0683  0.2822  0.4344
 8412SOL    HW136698   3.763   0.879   9.090  0.4545 -0.8110 -0.2433
 8412SOL    HW236699   3.631   0.942   9.049  0.1423  0.6131  2.9186
 8413SOL     OW36700   0.021   2.934   8.881  0.1737 -0.4179  0.3114
 8413SOL    HW136701   0.002   2.866   8.946 -1.9056 -0.7128 -0.5958
 8413SOL    HW236702   0.112   2.946   8.907  0.1931  2.4441 -1.0391
 8414SOL     OW36703   0.741   4.500  16.898 -0.1838  0.0124  0.3126
 8414SOL    HW136704   0.666   4.560  16.907  0.4565  1.2408 -2.3521
 8414SOL    HW236705   0.755   4.469  16.987  0.1881 -0.4279  0.0951
 8415SOL     OW36706   0.178   0.370   2.192 -0.5431  0.1623  0.9653
 8415SOL    HW136707   0.211   0.425   2.263 -1.7770 -2.2166  3.3895
 8415SOL    HW236708   0.263   0.334   2.165 -1.7282 -1.3279 -0.7305
 8416SOL     OW36709   2.049   0.353  10.316 -0.2136  0.6138  0.5275
 8416SOL    HW136710   2.058   0.427  10.255 -0.0350  0.5529  0.4786
 8416SOL    HW236711   1.958   0.326  10.305 -0.6278  2.0433  0.4012
 8417SOL     OW36712   0.783   4.403   8.361 -0.6828  0.2310 -0.6315
 8417SOL    HW136713   0.804   4.495   8.345  2.4893 -0.5574 -0.9161
 8417SOL    HW236714   0.721   4.398   8.435 -1.2976  0.1281 -1.1539
 8418SOL     OW36715   0.355   3.957   0.362  0.3120 -0.1375 -0.2284
 8418SOL    HW136716   0.334   3.973   0.270  0.1222 -0.7736 -0.2937
 8418SOL    HW236717   0.361   4.051   0.382  3.4532 -0.6049  1.0492
 8419SOL     OW36718   1.326   4.127   6.437  0.0025 -0.8761  0.0979
 8419SOL    HW136719   1.295   4.052   6.385  2.1557 -1.3362 -0.5479
 8419SOL    HW236720   1.308   4.202   6.380 -1.8707  1.3272  3.6435
 8420SOL     OW36721   2.367   4.043  14.712  0.2817  0.0583  0.0787
 8420SOL    HW136722   2.319   4.023  14.631 -1.6637 -0.0433  1.2713
 8420SOL    HW236723   2.370   3.960  14.759 -1.1088  0.6445  1.1887
 8421SOL     OW36724   4.001   3.424  15.797 -0.3286 -0.2749  0.2440
 8421SOL    HW136725   3.970   3.451  15.883 -3.1226 -1.0295 -0.5313
 8421SOL    HW236726   3.923   3.429  15.741 -0.2045  1.2494  0.1954
 8422SOL     OW36727   1.372   1.474   8.508 -0.2370  0.1921 -0.2918
 8422SOL    HW136728   1.362   1.567   8.486 -1.5144 -0.6507 -3.3582
 8422SOL    HW236729   1.429   1.444   8.437  1.0255  0.0391  0.7883
 8423SOL     OW36730   0.120   3.049   1.298 -0.0444 -0.3772  0.2964
 8423SOL    HW136731   0.114   2.996   1.218 -0.6396 -0.1165  0.1723
 8423SOL    HW236732   0.038   3.096   1.286  0.5531  0.7858  0.7462
 8424SOL     OW36733   3.443   2.474  10.402  0.6459 -0.3857  0.6117
 8424SOL    HW136734   3.359   2.458  10.446 -0.2744 -1.5636 -1.5282
 8424SOL    HW236735   3.432   2.425  10.321  0.6512  2.3707 -1.0548
 8425SOL     OW36736   3.331   0.778   4.631  0.2129  0.6731 -0.2739
 8425SOL    HW136737   3.409   0.768   4.577  0.8577  2.3503  0.3558
 8425SOL    HW236738   3.347   0.842   4.700  0.6160 -2.2537  2.3362
 8426SOL     OW36739   0.514   2.296   8.709 -0.0231 -0.0166 -0.2022
 8426SOL    HW136740   0.504   2.364   8.643 -2.1494 -1.5574 -1.4529
 8426SOL    HW236741   0.602   2.271   8.680  0.5804  2.5495 -0.5602
 8427SOL     OW36742   3.925   2.393   2.579 -0.2364  0.2497 -0.2400
 8427SOL    HW136743   3.881   2.428   2.502  0.3755  0.7189 -0.3695
 8427SOL    HW236744   3.866   2.322   2.605  0.7375 -0.5263 -0.1648
 8428SOL     OW36745   0.887   4.654   3.930  0.0259  0.7707  0.1414
 8428SOL    HW136746   0.928   4.578   3.888  1.0309  0.7388  1.1694
 8428SOL    HW236747   0.947   0.003   3.924 -0.6643  1.1944 -1.4124
 8429SOL     OW36748   0.748   1.047  11.559  0.1906 -0.0551  0.3324
 8429SOL    HW136749   0.751   0.953  11.574  0.7431 -0.0074  0.4997
 8429SOL    HW236750   0.773   1.039  11.467 -0.6793 -1.6187  0.2311
 8430SOL     OW36751   4.193   0.056   7.611 -0.2567 -0.2558 -0.1394
 8430SOL    HW136752   4.219   0.088   7.697 -3.1320  1.3758  0.1230
 8430SOL    HW236753   4.157   0.134   7.570  2.4406  1.3587  0.6322
 8431SOL     OW36754   1.077   4.351   4.111 -0.0870  0.5246  0.3063
 8431SOL    HW136755   1.012   4.282   4.101  0.2125  0.2885  0.0345
 8431SOL    HW236756   1.083   4.347   4.207 -0.8566 -0.6906  0.3004
 8432SOL     OW36757   0.660   1.551  12.700  0.4481 -0.0792 -0.2031
 8432SOL    HW136758   0.584   1.499  12.725  0.2122  1.1390  1.6253
 8432SOL    HW236759   0.626   1.633  12.665  2.2535  0.3602 -0.8908
 8433SOL     OW36760   0.316   1.158   9.799  0.0480 -0.1653  0.2632
 8433SOL    HW136761   0.254   1.219   9.838  0.3292  0.1433  0.2253
 8433SOL    HW236762   0.398   1.203   9.820 -0.7064  0.8780  0.9431
 8434SOL     OW36763   2.625   3.130   3.939 -0.8972  0.2971 -0.2626
 8434SOL    HW136764   2.595   3.219   3.924  0.3273  0.3502 -2.3543
 8434SOL    HW236765   2.563   3.105   4.008 -1.9872  0.1700 -1.2862
 8435SOL     OW36766   2.901   0.231   6.925 -0.2329 -0.5748 -0.2558
 8435SOL    HW136767   2.911   0.250   7.018  1.9809  2.0410 -1.0214
 8435SOL    HW236768   2.806   0.237   6.929 -0.2651 -1.6105  0.3261
 8436SOL     OW36769   2.753   0.734   6.707 -0.4286  0.5196 -0.4342
 8436SOL    HW136770   2.821   0.685   6.754 -0.0082  1.1275 -0.3989
 8436SOL    HW236771   2.680   0.672   6.710  0.3428 -0.3582  0.0566
 8437SOL     OW36772   1.785   3.460   3.855  0.1638 -0.3734  0.3016
 8437SOL    HW136773   1.751   3.398   3.919 -0.8741 -0.9104 -0.7819
 8437SOL    HW236774   1.767   3.541   3.903  1.0690 -1.5090  2.5356
 8438SOL     OW36775   4.606   0.816  13.641 -0.7605  0.0007 -0.1135
 8438SOL    HW136776   4.633   0.905  13.664 -2.3568 -0.2620  2.7457
 8438SOL    HW236777   4.653   0.773  13.712 -2.0356 -0.2166  0.6053
 8439SOL     OW36778   1.602   4.031  11.030  0.5632  0.0285 -0.2891
 8439SOL    HW136779   1.578   4.005  11.119 -2.1286 -1.1625 -1.3647
 8439SOL    HW236780   1.515   4.044  10.992  1.0899  1.0109 -1.1571
 8440SOL     OW36781   2.366   0.827   6.081  0.3054 -0.0591 -0.5830
 8440SOL    HW136782   2.276   0.860   6.071 -0.3423 -1.5598  0.2936
 8440SOL    HW236783   2.361   0.770   6.157  0.2996  0.4634 -0.1963
 8441SOL     OW36784   0.389   2.974  11.334 -0.2406  0.0519 -0.0865
 8441SOL    HW136785   0.460   2.937  11.386  0.6215  0.9761 -0.6124
 8441SOL    HW236786   0.431   3.025  11.265 -1.1562 -0.0272 -0.7145
 8442SOL     OW36787   2.929   3.812  10.975 -0.0116  0.5333  0.1157
 8442SOL    HW136788   2.897   3.742  11.032 -0.2269  0.7223  0.2296
 8442SOL    HW236789   3.016   3.779  10.956  0.8259  2.0422  1.3742
 8443SOL     OW36790   2.238   3.429   4.545 -0.1858  0.3334  0.2965
 8443SOL    HW136791   2.273   3.516   4.565 -0.7059  1.6633 -4.4621
 8443SOL    HW236792   2.195   3.439   4.460 -0.3786  2.8096  0.6809
 8444SOL     OW36793   2.049   4.662   2.066  0.2260 -0.8782 -0.6666
 8444SOL    HW136794   1.984   0.003   2.039  0.2080 -0.7004 -0.1883
 8444SOL    HW236795   2.006   4.595   2.012 -0.7068 -0.2318 -0.7248
 8445SOL     OW36796   2.602   1.893   4.529 -0.0863  0.4502 -0.0740
 8445SOL    HW136797   2.685   1.845   4.523 -1.1019 -1.1344 -1.4394
 8445SOL    HW236798   2.586   1.907   4.623 -1.2501 -2.6414  0.2001
 8446SOL     OW36799   2.953   0.379  15.571 -0.2023  0.3021 -0.4001
 8446SOL    HW136800   2.891   0.341  15.634 -2.8265  3.7329 -0.9166
 8446SOL    HW236801   3.031   0.408  15.618  0.0672  1.9722 -1.8866
 8447SOL     OW36802   3.716   2.694   2.532  0.3802 -0.0051  0.2443
 8447SOL    HW136803   3.805   2.661   2.517  0.1660 -1.7694  2.8022
 8447SOL    HW236804   3.714   2.717   2.625  2.4033  0.7310  0.1167
 8448SOL     OW36805   3.210   3.044   6.430  0.2292 -0.2953  0.5792
 8448SOL    HW136806   3.270   3.090   6.488  1.7334 -2.4773  0.7633
 8448SOL    HW236807   3.150   3.113   6.402  2.2264  1.3409  0.3625
 8449SOL     OW36808   3.178   0.725   5.659 -0.0731  0.0501  0.1848
 8449SOL    HW136809   3.159   0.748   5.750  1.5041 -0.5546  0.6648
 8449SOL    HW236810   3.090   0.709   5.625 -0.8192  3.2996  0.5629
 8450SOL     OW36811   2.716   1.719   2.608 -0.1167  0.0834 -0.0767
 8450SOL    HW136812   2.710   1.814   2.615  1.3493  0.2846 -1.5756
 8450SOL    HW236813   2.636   1.710   2.555 -0.6820  0.6198  0.6792
 8451SOL     OW36814   1.766   1.887  10.883  0.0336 -0.2583  0.9205
 8451SOL    HW136815   1.681   1.846  10.863 -0.0259  1.6471 -2.7939
 8451SOL    HW236816   1.775   1.950  10.811 -1.2146 -0.0608  0.9288
 8452SOL     OW36817   1.036   2.378   7.837 -0.3775 -0.5214 -0.5842
 8452SOL    HW136818   0.997   2.291   7.840 -0.5987 -0.3843  0.9334
 8452SOL    HW236819   1.129   2.359   7.827 -0.0206  0.6269  0.5762
 8453SOL     OW36820   3.342   0.494   3.976 -0.1706 -0.1409 -0.1789
 8453SOL    HW136821   3.325   0.573   4.027  0.7870 -1.6101  2.3754
 8453SOL    HW236822   3.264   0.513   3.923  0.2606  0.6073 -0.5521
 8454SOL     OW36823   3.036   0.467   6.117 -0.1114  0.0022 -0.2515
 8454SOL    HW136824   3.132   0.464   6.120 -0.1008  0.1929 -0.3412
 8454SOL    HW236825   3.013   0.542   6.171  1.1012  0.3786 -0.2452
 8455SOL     OW36826   0.220   0.931   8.441  0.3092  0.1642 -0.0653
 8455SOL    HW136827   0.233   0.924   8.535 -3.2549 -1.2657  0.3377
 8455SOL    HW236828   0.140   0.984   8.440  0.4544  0.3821 -0.1671
 8456SOL     OW36829   2.321   4.338  15.180  0.0440  0.1113  0.0722
 8456SOL    HW136830   2.226   4.347  15.179 -0.2186 -2.8236  0.8195
 8456SOL    HW236831   2.352   4.429  15.182 -1.0344  0.4877 -0.5712
 8457SOL     OW36832   3.238   2.243   6.684 -0.3782 -0.3720  0.3077
 8457SOL    HW136833   3.260   2.282   6.768 -0.2623 -0.1988  0.1987
 8457SOL    HW236834   3.243   2.318   6.625 -5.7460 -0.0239  0.2583
 8458SOL     OW36835   1.059   2.224   4.125 -0.0426 -0.4966 -0.0333
 8458SOL    HW136836   1.101   2.287   4.184  1.9457 -2.6991  0.8729
 8458SOL    HW236837   1.131   2.165   4.103  0.9245  0.7632 -0.2200
 8459SOL     OW36838   0.018   2.495   4.409  0.0978 -0.2089 -0.3279
 8459SOL    HW136839   0.001   2.556   4.337 -1.4619 -1.3387 -0.9054
 8459SOL    HW236840   4.671   2.432   4.399  0.4931 -0.6713 -0.2537
 8460SOL     OW36841   4.395   0.328   6.983 -0.4707  0.3592  0.3260
 8460SOL    HW136842   4.313   0.355   6.942 -1.0546 -0.7059  0.7958
 8460SOL    HW236843   4.390   0.381   7.063  0.2566 -2.8689  2.5420
 8461SOL     OW36844   3.883   0.088   7.057  0.2211 -0.3849 -0.1752
 8461SOL    HW136845   3.859   0.006   7.015  2.3997 -0.4405 -1.3327
 8461SOL    HW236846   3.802   0.113   7.101 -0.3891  0.1278 -1.5797
 8462SOL     OW36847   2.543   0.971   2.350  0.2953 -0.3199 -0.1321
 8462SOL    HW136848   2.529   0.876   2.355 -0.3229 -0.2143  0.1708
 8462SOL    HW236849   2.627   0.970   2.396  0.0756  0.1835  0.2826
 8463SOL     OW36850   4.556   3.620   5.282 -0.3211  0.4969 -0.1299
 8463SOL    HW136851   4.620   3.686   5.256  0.6362  0.4969  2.1918
 8463SOL    HW236852   4.576   3.612   5.376  0.3016 -2.5117 -0.5064
 8464SOL     OW36853   0.099   1.407  12.243 -0.2119  0.4985 -0.0331
 8464SOL    HW136854   0.051   1.451  12.173  0.4766 -0.1999 -0.9386
 8464SOL    HW236855   0.043   1.336  12.276 -0.6445  0.2199 -1.3786
 8465SOL     OW36856   2.039   3.415  16.645  0.4964  0.1501  0.2230
 8465SOL    HW136857   2.114   3.371  16.686 -0.4437 -1.6006  0.0428
 8465SOL    HW236858   2.057   3.509  16.653 -2.3756  0.8237 -1.3951
 8466SOL     OW36859   4.275   4.186   1.918 -0.2071  0.1715  0.2864
 8466SOL    HW136860   4.273   4.103   1.871 -1.5899  0.9742 -1.0799
 8466SOL    HW236861   4.350   4.227   1.876 -0.7497  0.8689 -0.0046
 8467SOL     OW36862   2.866   0.965  13.818  0.6374  0.3820  0.3677
 8467SOL    HW136863   2.954   0.993  13.792  0.2092  3.3635  2.1397
 8467SOL    HW236864   2.849   1.026  13.889 -0.3879  0.9318 -0.3517
 8468SOL     OW36865   1.412   4.321   0.465  0.1409 -0.3642  0.8335
 8468SOL    HW136866   1.507   4.328   0.470  0.0999  0.1472  0.8615
 8468SOL    HW236867   1.404   4.279   0.379  1.0003 -0.2647  0.7125
 8469SOL     OW36868   4.329   0.139   4.519  0.0521  0.8116 -0.6816
 8469SOL    HW136869   4.313   0.069   4.583  2.8124 -0.0574 -0.9433
 8469SOL    HW236870   4.412   0.108   4.483  0.3656  1.3573 -0.4285
 8470SOL     OW36871   3.794   1.889  16.709  0.4261  0.1030  0.3363
 8470SOL    HW136872   3.751   1.903  16.793 -2.0449  0.4359 -0.9713
 8470SOL    HW236873   3.728   1.837  16.662 -1.3434  3.0203 -0.4161
 8471SOL     OW36874   4.092   1.263   8.972 -0.1294  0.0938  0.0914
 8471SOL    HW136875   4.121   1.176   8.942  0.0548 -0.1881  1.0687
 8471SOL    HW236876   4.173   1.314   8.967 -0.4122  0.5727  0.3550
 8472SOL     OW36877   0.682   0.530   2.968  0.2603  0.3557 -0.5148
 8472SOL    HW136878   0.639   0.449   2.941  0.7069 -0.1301  0.2290
 8472SOL    HW236879   0.691   0.564   2.879  0.6282  1.0385 -0.2175
 8473SOL     OW36880   4.422   1.955   3.411  0.1147 -0.1174 -0.0496
 8473SOL    HW136881   4.484   2.014   3.368 -0.1698 -0.5337 -1.0056
 8473SOL    HW236882   4.390   1.907   3.335 -2.4012  2.5062 -0.6437
 8474SOL     OW36883   1.556   3.741   7.872  0.2213 -0.1389 -0.1395
 8474SOL    HW136884   1.579   3.831   7.897 -2.0386  0.7674 -1.3309
 8474SOL    HW236885   1.462   3.749   7.855 -0.3672 -1.8538  2.3208
 8475SOL     OW36886   0.747   1.755  16.121  0.2778 -0.2300  0.4889
 8475SOL    HW136887   0.756   1.835  16.069  0.2518 -0.0669  0.7376
 8475SOL    HW236888   0.677   1.782  16.179  0.9041 -0.1489  1.2067
 8476SOL     OW36889   4.719   2.739   5.508 -0.1331  0.0737 -0.5147
 8476SOL    HW136890   4.649   2.685   5.545 -0.0643 -1.1059 -2.1130
 8476SOL    HW236891   0.070   2.681   5.494  1.3862  1.0323  3.5110
 8477SOL     OW36892   4.278   4.703   4.740  0.5164  0.0239 -0.4651
 8477SOL    HW136893   4.183   4.704   4.753  0.6234  0.2970  0.3002
 8477SOL    HW236894   4.303   4.681   4.830  1.4460 -0.9861 -0.9720
 8478SOL     OW36895   1.240   0.826   5.583  0.3838 -0.0731  0.3138
 8478SOL    HW136896   1.205   0.876   5.656  0.0151 -2.1349  1.5333
 8478SOL    HW236897   1.203   0.868   5.505  1.4030 -0.9301 -0.6466
 8479SOL     OW36898   1.406   3.257   5.530  0.2599  0.4337  0.4300
 8479SOL    HW136899   1.315   3.285   5.520 -0.2037 -0.3405  2.4863
 8479SOL    HW236900   1.460   3.329   5.497  0.1887  0.5037  0.4649
 8480SOL     OW36901   2.344   0.512  16.707  0.2176 -0.0747  0.3278
 8480SOL    HW136902   2.281   0.517  16.635 -0.1620 -2.0060  0.5258
 8480SOL    HW236903   2.410   0.575  16.677 -0.7608  0.1341 -1.3994
 8481SOL     OW36904   3.730   3.842  11.169 -0.0818 -0.5055  0.0255
 8481SOL    HW136905   3.715   3.879  11.082  0.2719  0.0826  0.2155
 8481SOL    HW236906   3.641   3.839  11.203  0.1136  2.0204  0.7303
 8482SOL     OW36907   0.126   3.989   8.879  0.6476  0.0711  0.9778
 8482SOL    HW136908   0.087   4.058   8.825  1.5743 -0.6799 -0.6224
 8482SOL    HW236909   0.141   4.034   8.962  1.0235  1.8286 -0.0488
 8483SOL     OW36910   1.547   0.445   3.491  0.4791  0.8943  0.1853
 8483SOL    HW136911   1.589   0.498   3.559  0.8323 -1.4021  1.7816
 8483SOL    HW236912   1.536   0.519   3.432 -0.2349 -0.6039 -1.5461
 8484SOL     OW36913   0.843   4.679   2.608 -0.1684  0.3270  0.0130
 8484SOL    HW136914   0.818   0.026   2.549  0.7436  0.7694  0.1638
 8484SOL    HW236915   0.867   4.616   2.541 -2.7826  0.2937 -0.9092
 8485SOL     OW36916   2.899   1.030   6.797 -0.1005 -0.3469  0.1535
 8485SOL    HW136917   2.856   0.947   6.779  3.2496 -1.4679 -2.7750
 8485SOL    HW236918   2.849   1.060   6.873 -1.5177  0.7213 -1.1996
 8486SOL     OW36919   3.766   2.508   5.957 -0.1856  0.6797 -0.4128
 8486SOL    HW136920   3.715   2.447   6.011  0.9711  1.2791  1.3258
 8486SOL    HW236921   3.784   2.580   6.017 -2.9201  0.8902  0.1854
 8487SOL     OW36922   4.653   1.349   5.454  0.1792  0.3944 -0.4915
 8487SOL    HW136923   4.638   1.312   5.367 -0.3336  4.2699 -2.0791
 8487SOL    HW236924   4.603   1.286   5.505 -2.0672  1.6285 -1.1469
 8488SOL     OW36925   2.771   3.263   7.310 -0.0574  0.0905  0.4702
 8488SOL    HW136926   2.689   3.253   7.263 -1.0375  0.0465  2.1971
 8488SOL    HW236927   2.802   3.173   7.307 -0.5315 -0.1058  1.4652
 8489SOL     OW36928   3.153   0.491   0.695  1.2758 -0.4519  0.2666
 8489SOL    HW136929   3.159   0.507   0.789 -1.4078  0.0795  0.3331
 8489SOL    HW236930   3.148   0.583   0.670 -2.1191 -0.0316  2.4871
 8490SOL     OW36931   2.815   3.641   5.576 -0.1150 -0.3610 -0.3397
 8490SOL    HW136932   2.737   3.591   5.599 -0.4454 -0.0411 -0.7839
 8490SOL    HW236933   2.841   3.583   5.505 -0.0638 -0.8393  0.0711
 8491SOL     OW36934   2.972   1.627   0.105  0.0541 -0.2629 -0.0335
 8491SOL    HW136935   2.985   1.535   0.081 -0.3441  0.4013 -2.7202
 8491SOL    HW236936   3.050   1.650   0.155 -1.2002  0.7930  1.4348
 8492SOL     OW36937   2.350   0.124   4.373  0.3465  0.4507  0.3448
 8492SOL    HW136938   2.399   0.107   4.292 -0.7737 -1.5332  0.0495
 8492SOL    HW236939   2.338   0.219   4.370  2.4208  0.6995  0.3441
 8493SOL     OW36940   4.689   0.298   3.950 -0.1034 -0.2741  0.8662
 8493SOL    HW136941   0.050   0.340   3.948 -0.3264  0.1091 -0.5738
 8493SOL    HW236942   4.641   0.345   3.882  1.3577 -1.1199 -0.7459
 8494SOL     OW36943   2.526   2.638   1.746 -0.4354  0.6972  0.3831
 8494SOL    HW136944   2.494   2.561   1.792 -0.2078  0.1909 -0.2906
 8494SOL    HW236945   2.544   2.701   1.815  1.4191  0.0288  0.5184
 8495SOL     OW36946   2.683   2.950  17.554  0.1821  0.3538 -0.0667
 8495SOL    HW136947   2.595   2.986  17.563  0.0520  0.4837 -1.7885
 8495SOL    HW236948   2.729   3.002  17.619  1.9708 -0.9499 -0.2972
 8496SOL     OW36949   0.438   3.513   9.315 -0.0937 -0.2803 -0.2664
 8496SOL    HW136950   0.351   3.480   9.295 -0.2459  0.4087 -0.7586
 8496SOL    HW236951   0.472   3.440   9.366 -1.8766 -0.8111  0.1568
 8497SOL     OW36952   1.103   2.990  12.521 -0.1717  0.6362  0.2807
 8497SOL    HW136953   1.160   2.923  12.483 -1.7873 -0.3092 -0.5060
 8497SOL    HW236954   1.057   3.020  12.442 -0.3138 -1.3523 -0.4131
 8498SOL     OW36955   3.422   1.670  15.277  0.3394 -0.0270 -0.4251
 8498SOL    HW136956   3.467   1.626  15.204 -0.5715 -2.4555  0.4592
 8498SOL    HW236957   3.419   1.761  15.249  1.5074  1.3045  3.7536
 8499SOL     OW36958   2.314   3.337   3.555  0.1810  0.0778 -0.1035
 8499SOL    HW136959   2.280   3.248   3.562  0.6076 -0.0698  0.0747
 8499SOL    HW236960   2.337   3.364   3.644  1.4720 -0.1817 -0.3602
 8500SOL     OW36961   3.989   3.751   8.141 -0.1066  0.3261  0.0423
 8500SOL    HW136962   4.042   3.737   8.220 -1.8548  0.7594  1.2897
 8500SOL    HW236963   3.981   3.846   8.127  1.9153  0.2531 -1.6783
 8501SOL     OW36964   0.601   1.991   5.179  0.0689 -0.0316 -0.2183
 8501SOL    HW136965   0.607   2.071   5.231 -0.8229  0.6514 -1.1657
 8501SOL    HW236966   0.507   1.980   5.193 -0.0636  1.2280 -0.1255
 8502SOL     OW36967   3.656   2.009  13.783 -0.3633 -0.0876  0.3253
 8502SOL    HW136968   3.571   2.003  13.740  0.5765 -1.5525 -1.3421
 8502SOL    HW236969   3.652   1.927  13.832  0.6854 -1.4424 -1.8537
 8503SOL     OW36970   0.561   3.790   6.134 -0.2651  0.3895  0.5353
 8503SOL    HW136971   0.656   3.793   6.127 -0.4710  2.4500 -1.1649
 8503SOL    HW236972   0.550   3.884   6.141 -0.7166  0.2189  2.1571
 8504SOL     OW36973   4.531   0.239  10.405 -0.1151 -0.0469  0.9170
 8504SOL    HW136974   4.552   0.208  10.493  2.6640 -2.2488 -0.5556
 8504SOL    HW236975   4.559   0.331  10.403 -0.2233 -0.1128 -3.3113
 8505SOL     OW36976   2.085   2.155   6.525  0.1460 -0.2522 -0.2421
 8505SOL    HW136977   2.068   2.136   6.617  1.8578 -0.0848  0.1082
 8505SOL    HW236978   1.997   2.162   6.489 -0.7037 -2.0874  1.4417
 8506SOL     OW36979   2.101   2.205   2.808 -0.5210  0.5408  0.3616
 8506SOL    HW136980   2.076   2.295   2.830 -1.6611  0.5164 -0.7860
 8506SOL    HW236981   2.192   2.229   2.795 -0.1321 -0.8067  0.5965
 8507SOL     OW36982   4.121   0.333   7.271  0.1675  0.3286 -0.5186
 8507SOL    HW136983   4.064   0.348   7.195  2.4797 -0.3865 -2.4161
 8507SOL    HW236984   4.194   0.391   7.251  0.5421 -0.0467 -0.2430
 8508SOL     OW36985   3.983   2.028   8.400  0.6081  0.1580  0.1366
 8508SOL    HW136986   3.948   2.095   8.342  0.0652  0.1421  0.4482
 8508SOL    HW236987   3.908   1.990   8.445  3.0001 -1.5114  2.7814
 8509SOL     OW36988   2.831   3.247   0.268  0.0426  0.3723  0.1063
 8509SOL    HW136989   2.762   3.273   0.329  0.1403  3.4064 -1.0551
 8509SOL    HW236990   2.897   3.234   0.336 -0.6385  1.2615  0.9498
 8510SOL     OW36991   0.379   2.108   6.137 -0.0381 -0.0731 -0.2861
 8510SOL    HW136992   0.333   2.184   6.100  1.7157 -0.1196 -2.5703
 8510SOL    HW236993   0.312   2.058   6.184  0.4113  0.4208  0.8937
 8511SOL     OW36994   3.409   1.164   1.498  0.3936  0.8996 -0.0790
 8511SOL    HW136995   3.335   1.103   1.501  0.2504  1.0198 -1.0008
 8511SOL    HW236996   3.432   1.166   1.405  1.3607  0.2500  0.1453
 8512SOL     OW36997   0.860   0.617   5.072 -0.2282  0.0530 -0.1757
 8512SOL    HW136998   0.871   0.604   5.166 -0.6897  0.8149 -0.0138
 8512SOL    HW236999   0.855   0.527   5.041 -0.9417  0.9950 -2.7970
 8513SOL     OW37000   4.670   1.503   5.006  0.2320  0.4752  0.3438
 8513SOL    HW137001   4.601   1.504   5.072  0.4296  0.3618  0.5550
 8513SOL    HW237002   4.665   1.418   4.963 -0.8509  0.9815 -0.5041
 8514SOL     OW37003   4.060   0.342   0.953 -0.0765  0.6752  0.4930
 8514SOL    HW137004   4.064   0.366   0.860  3.0895 -0.4764  0.3274
 8514SOL    HW237005   4.039   0.426   0.993 -0.9484  1.1335 -0.9365
 8515SOL     OW37006   0.924   0.993   6.703 -0.5271  0.5411  0.0472
 8515SOL    HW137007   0.834   1.027   6.705 -0.7549 -0.1610  1.7740
 8515SOL    HW237008   0.929   0.935   6.778  0.2507 -1.5960 -1.6661
 8516SOL     OW37009   3.002   1.893   1.792 -0.0628  0.0520 -0.4851
 8516SOL    HW137010   2.927   1.858   1.841  1.0369  0.3904  1.4415
 8516SOL    HW237011   3.063   1.823   1.814 -2.8445 -2.0457  0.4472
 8517SOL     OW37012   3.805   0.391  16.184  0.0894 -0.6728  0.3379
 8517SOL    HW137013   3.719   0.380  16.143  0.1597  1.8462 -0.5032
 8517SOL    HW237014   3.859   0.350  16.117 -0.5959 -0.1660 -0.5391
 8518SOL     OW37015   4.063   2.920   4.903  1.2640 -0.6413 -0.1968
 8518SOL    HW137016   3.998   2.904   4.835 -0.9160 -1.8485  2.1954
 8518SOL    HW237017   4.054   3.015   4.905 -0.7573 -0.8465 -0.0798
 8519SOL     OW37018   4.717   3.294  13.427  0.0856 -0.6926 -0.3492
 8519SOL    HW137019   4.693   3.348  13.502  0.3477  0.4070 -1.0473
 8519SOL    HW237020   4.665   3.323  13.352  0.2240 -2.2968 -1.0669
 8520SOL     OW37021   2.025   3.596  13.354 -0.1240 -0.9713  0.0862
 8520SOL    HW137022   2.093   3.615  13.419  0.4052 -3.6411  0.2922
 8520SOL    HW237023   1.949   3.604  13.412 -0.4479  0.7783 -0.5679
 8521SOL     OW37024   4.074   1.226   1.044  0.0920  0.0666 -0.1661
 8521SOL    HW137025   4.074   1.258   1.134 -0.8746 -0.0776 -0.1128
 8521SOL    HW237026   4.163   1.245   1.016  0.2446  1.9409  1.6324
 8522SOL     OW37027   0.412   2.909  10.753 -0.5697  0.0578  0.0968
 8522SOL    HW137028   0.374   2.985  10.798  0.8237 -0.1895  1.6921
 8522SOL    HW237029   0.414   2.841  10.821 -0.2412  0.9362  0.9722
 8523SOL     OW37030   0.782   0.915   3.201 -0.5300  0.2696 -0.2262
 8523SOL    HW137031   0.836   0.858   3.146  0.3045  0.2117  0.6617
 8523SOL    HW237032   0.800   0.998   3.156  1.9664 -0.4757 -0.5769
 8524SOL     OW37033   2.969   0.640   8.264 -0.0252 -0.7949  0.1259
 8524SOL    HW137034   3.021   0.701   8.211  0.5866 -0.1455  1.4513
 8524SOL    HW237035   3.036   0.591   8.311 -0.5381 -0.8640  0.7848
 8525SOL     OW37036   1.251   0.028   8.282  0.0152  0.3481  0.2433
 8525SOL    HW137037   1.215   0.070   8.204 -0.4780  2.6306  1.7171
 8525SOL    HW237038   1.267   0.089   8.354 -1.8133  1.4812 -0.3022
 8526SOL     OW37039   1.881   4.517   6.478  0.6324 -0.5632  0.1322
 8526SOL    HW137040   1.927   4.456   6.420  0.4629 -1.6350  1.1179
 8526SOL    HW237041   1.912   4.504   6.568  0.0686 -2.5004  0.0610
 8527SOL     OW37042   2.056   2.340   5.700  0.2293  0.4505 -0.0635
 8527SOL    HW137043   2.058   2.245   5.686  0.4397  0.6708 -1.4495
 8527SOL    HW237044   2.086   2.364   5.613 -0.2167 -1.1694 -0.6709
 8528SOL     OW37045   0.466   1.911   6.902  0.0885 -0.3057  0.2201
 8528SOL    HW137046   0.386   1.911   6.955  0.0115 -0.8115  0.0983
 8528SOL    HW237047   0.433   1.887   6.815  1.9380 -2.0408 -0.0143
 8529SOL     OW37048   1.358   3.441   0.404 -0.1972 -0.0703 -0.1480
 8529SOL    HW137049   1.445   3.412   0.377 -1.5221 -2.3641 -2.0134
 8529SOL    HW237050   1.346   3.391   0.485 -1.4985 -0.3989 -0.5516
 8530SOL     OW37051   2.525   4.280   1.985 -0.3817  0.0808  0.4944
 8530SOL    HW137052   2.469   4.330   2.045  0.9235  2.6203 -0.4140
 8530SOL    HW237053   2.566   4.216   2.043 -0.8686 -1.0123 -0.3520
 8531SOL     OW37054   3.506   4.372   7.874  0.1070  0.1391  0.0608
 8531SOL    HW137055   3.548   4.306   7.928 -0.4890  0.5855  1.0698
 8531SOL    HW237056   3.458   4.419   7.942  1.9093  3.7202 -1.1625
 8532SOL     OW37057   4.017   0.010  13.238  0.2215  0.0867  0.6282
 8532SOL    HW137058   3.953   0.050  13.297 -0.2701 -0.5476  0.5182
 8532SOL    HW237059   3.998   0.032  13.146  1.0107 -0.2727  0.3833
 8533SOL     OW37060   3.365   4.694   4.964  0.0405  0.4831 -0.2290
 8533SOL    HW137061   3.447   4.652   4.940 -0.9523 -1.6987  0.2002
 8533SOL    HW237062   3.382   0.034   5.033  1.0029  0.1965 -0.2048
 8534SOL     OW37063   1.160   2.154   7.968 -0.5858  0.3056  0.3062
 8534SOL    HW137064   1.138   2.217   8.036 -0.9214  0.8487 -0.3029
 8534SOL    HW237065   1.193   2.209   7.897 -0.3089  0.8187  0.8420
 8535SOL     OW37066   3.871   1.614   6.418  0.1936  0.3501 -0.4770
 8535SOL    HW137067   3.814   1.554   6.466  0.5563 -0.5667 -1.2034
 8535SOL    HW237068   3.877   1.691   6.476 -4.6923 -0.2873  0.8226
 8536SOL     OW37069   4.320   2.437  12.244 -0.7698 -0.2032  0.0059
 8536SOL    HW137070   4.304   2.388  12.163  0.1270  1.7177 -1.3484
 8536SOL    HW237071   4.321   2.529  12.217 -1.1779 -0.7423 -1.8648
 8537SOL     OW37072   4.476   1.683   7.931  0.3215 -0.4621 -0.3131
 8537SOL    HW137073   4.416   1.616   7.898 -0.2318  1.3879 -3.1317
 8537SOL    HW237074   4.483   1.653   8.021 -0.7135  2.6400  0.8088
 8538SOL     OW37075   2.801   4.430   3.586 -0.0775  0.0875  0.1510
 8538SOL    HW137076   2.731   4.458   3.645 -0.7711 -0.9174 -0.1978
 8538SOL    HW237077   2.871   4.495   3.588 -1.7142  1.8847 -0.6073
 8539SOL     OW37078   1.537   2.311  15.134  0.3215  0.4978  0.6606
 8539SOL    HW137079   1.456   2.361  15.138  0.1272 -0.0832  4.0071
 8539SOL    HW237080   1.567   2.316  15.043 -1.2982 -0.7651  0.0595
 8540SOL     OW37081   0.950   0.434   9.282  1.0447 -0.3038 -0.1137
 8540SOL    HW137082   0.938   0.458   9.373  0.8930 -0.1861 -0.1648
 8540SOL    HW237083   0.985   0.519   9.254 -1.6529 -0.0107 -2.6434
 8541SOL     OW37084   4.691   3.351   8.641  0.3730 -0.3154 -0.3888
 8541SOL    HW137085   0.028   3.282   8.617  2.0060  0.5567  1.2786
 8541SOL    HW237086   4.628   3.304   8.695  1.8319 -0.6175  1.0369
 8542SOL     OW37087   1.599   0.018   7.161  0.1479  0.1290  0.4383
 8542SOL    HW137088   1.605   0.006   7.256  1.0202 -0.2407  0.3348
 8542SOL    HW237089   1.682   4.706   7.131  0.7738  3.4354 -1.9330
 8543SOL     OW37090   1.866   2.900   2.315  0.0459  0.5631  0.2941
 8543SOL    HW137091   1.892   2.828   2.372 -0.9810 -0.7568 -0.8982
 8543SOL    HW237092   1.940   2.960   2.326 -1.1459  1.9341  0.9148
 8544SOL     OW37093   1.213   3.528  12.460  0.2480 -0.5630  0.1541
 8544SOL    HW137094   1.146   3.459  12.460  2.6024 -2.8310 -0.4575
 8544SOL    HW237095   1.218   3.536  12.555  0.1090 -0.8285  0.1843
 8545SOL     OW37096   2.076   1.666  10.724  0.0084 -0.9655 -0.9704
 8545SOL    HW137097   2.148   1.606  10.704  0.4162 -0.4639 -1.0192
 8545SOL    HW237098   2.001   1.608  10.710 -0.1320 -0.3192 -2.9697
 8546SOL     OW37099   0.658   4.276   1.183 -0.7307  0.2180 -0.1675
 8546SOL    HW137100   0.573   4.293   1.223 -0.5549  1.6832 -0.4128
 8546SOL    HW237101   0.712   4.262   1.262  0.4694  0.3598 -0.9534
 8547SOL     OW37102   2.761   1.304   5.534 -0.0173  0.3087 -0.0241
 8547SOL    HW137103   2.783   1.225   5.485 -2.4320 -0.4525  0.1152
 8547SOL    HW237104   2.710   1.269   5.607 -0.0418  0.3262 -0.0328
 8548SOL     OW37105   2.474   2.417   4.268  1.0572 -0.3722  0.0262
 8548SOL    HW137106   2.444   2.338   4.314  2.6104 -0.4437  0.8881
 8548SOL    HW237107   2.473   2.380   4.180  2.2851  0.2962 -0.2606
 8549SOL     OW37108   3.621   1.227  11.398  0.1172  0.2711 -0.2784
 8549SOL    HW137109   3.640   1.212  11.305 -0.6342 -2.6671  0.0554
 8549SOL    HW237110   3.687   1.178  11.446 -0.5272 -0.9484 -0.6510
 8550SOL     OW37111   0.868   0.451   4.059 -0.7871 -0.1870 -0.4800
 8550SOL    HW137112   0.948   0.431   4.011  0.4224  1.3651  0.8678
 8550SOL    HW237113   0.832   0.372   4.099 -1.1737  0.4643  0.4810
 8551SOL     OW37114   0.909   0.491  13.436 -0.4708  0.2843  0.1796
 8551SOL    HW137115   0.941   0.432  13.504 -0.2947  1.7816  1.3729
 8551SOL    HW237116   0.950   0.440  13.365  2.3342  0.1405  1.9197
 8552SOL     OW37117   2.913   2.207   4.427 -0.1084  0.0234 -0.1481
 8552SOL    HW137118   2.969   2.272   4.469 -1.2579 -0.0420  1.4940
 8552SOL    HW237119   2.946   2.207   4.337 -0.6879 -0.4443 -0.3626
 8553SOL     OW37120   0.659   3.987   4.620 -0.1138 -0.2953  0.2842
 8553SOL    HW137121   0.692   3.949   4.702 -1.1179  2.9532  2.1723
 8553SOL    HW237122   0.631   4.072   4.653  0.3685  0.3299 -0.9330
 8554SOL     OW37123   4.486   3.367   2.839 -0.9101 -0.3098 -0.0659
 8554SOL    HW137124   4.467   3.379   2.932  3.7438  0.6512  0.7100
 8554SOL    HW237125   4.581   3.363   2.836 -0.7639  2.2949  1.2308
 8555SOL     OW37126   0.024   4.555   4.077  0.2094  0.4931 -0.4093
 8555SOL    HW137127   0.066   4.639   4.056 -0.7129  0.1938 -3.4934
 8555SOL    HW237128   0.072   4.494   4.020  1.0753  1.1132 -0.3568
 8556SOL     OW37129   2.762   2.571   2.428  0.1672  0.0252 -0.0397
 8556SOL    HW137130   2.709   2.625   2.486  0.8679  1.0497 -0.3465
 8556SOL    HW237131   2.717   2.576   2.344  2.3406  0.1586 -1.2007
 8557SOL     OW37132   4.245   0.525   5.269  0.2761  0.3242 -0.1552
 8557SOL    HW137133   4.269   0.433   5.256 -1.1694  0.2302 -2.1302
 8557SOL    HW237134   4.218   0.556   5.183  0.2576  3.5230  0.9990
 8558SOL     OW37135   1.545   3.623   8.308 -0.5166 -0.1152 -0.0921
 8558SOL    HW137136   1.622   3.592   8.260  0.1666 -1.3787  1.7826
 8558SOL    HW237137   1.502   3.543   8.337  1.8211 -0.3738  2.7972
 8559SOL     OW37138   1.470   0.696   7.121  0.3991  0.3245  0.2220
 8559SOL    HW137139   1.508   0.782   7.136 -0.3094  0.6626  0.0454
 8559SOL    HW237140   1.552   0.652   7.099 -0.5351  0.0505 -2.6347
 8560SOL     OW37141   3.191   2.027   4.357  0.1633  0.0098  0.1477
 8560SOL    HW137142   3.236   2.084   4.295  1.4678  1.1076  2.1142
 8560SOL    HW237143   3.266   1.975   4.386  2.2198  2.3106 -1.0037
 8561SOL     OW37144   1.836   3.712   5.647 -0.1513  0.2799 -0.2376
 8561SOL    HW137145   1.827   3.807   5.650  2.0811  0.4759  0.1447
 8561SOL    HW237146   1.823   3.692   5.554 -1.0008  0.2453 -0.1028
 8562SOL     OW37147   1.423   1.601   5.851  0.1249 -0.3685  0.2358
 8562SOL    HW137148   1.415   1.697   5.848 -0.1283 -0.4528 -1.6492
 8562SOL    HW237149   1.402   1.570   5.763 -2.6833 -2.0128  1.4882
 8563SOL     OW37150   4.177   4.208   6.080  0.0115 -0.0432 -0.8081
 8563SOL    HW137151   4.264   4.169   6.066  0.6483  1.3958 -0.8019
 8563SOL    HW237152   4.114   4.142   6.052 -0.2005  0.3905 -1.3412
 8564SOL     OW37153   3.131   1.665   6.614 -0.1122 -0.2960 -0.2981
 8564SOL    HW137154   3.053   1.630   6.657 -0.5988  1.5065  0.2747
 8564SOL    HW237155   3.172   1.582   6.588 -1.0868 -0.7385 -0.4501
 8565SOL     OW37156   1.362   2.847  12.126 -0.5881  0.1086 -0.3818
 8565SOL    HW137157   1.326   2.826  12.212  1.7836 -2.2452  0.0320
 8565SOL    HW237158   1.381   2.758  12.096 -1.7146 -0.0288 -0.6652
 8566SOL     OW37159   1.229   4.085  12.884  0.1212 -0.4089  0.0949
 8566SOL    HW137160   1.304   4.027  12.903  1.7342  1.8805  0.6859
 8566SOL    HW237161   1.157   4.025  12.903  0.0158 -0.2155  0.3006
 8567SOL     OW37162   1.240   3.507   7.127 -0.2883  0.0807  0.1568
 8567SOL    HW137163   1.323   3.530   7.085 -1.6832  0.8595 -2.2087
 8567SOL    HW237164   1.253   3.529   7.219 -0.0530 -1.0085  0.3864
 8568SOL     OW37165   3.427   4.346  10.058 -0.0245 -0.0013  0.1090
 8568SOL    HW137166   3.484   4.294  10.115 -1.4176 -1.5659  0.0978
 8568SOL    HW237167   3.479   4.363   9.979  1.9498 -1.9021  0.9966
 8569SOL     OW37168   3.165   3.802   0.592 -0.1062  0.2053 -0.0399
 8569SOL    HW137169   3.235   3.861   0.564 -0.0442  0.1590  0.0176
 8569SOL    HW237170   3.102   3.844   0.533 -1.0730  0.3958  1.1277
 8570SOL     OW37171   0.210   3.512   1.075  0.3335  0.0734 -0.4389
 8570SOL    HW137172   0.133   3.563   1.050 -0.0675  0.7615  2.2366
 8570SOL    HW237173   0.183   3.476   1.160 -0.1454  0.3081 -0.4882
 8571SOL     OW37174   3.707   3.577  10.484  0.3760  0.1228 -0.5066
 8571SOL    HW137175   3.783   3.634  10.498  2.6854 -3.0743  0.0565
 8571SOL    HW237176   3.642   3.646  10.478  0.1340  0.1819  2.7161
 8572SOL     OW37177   2.655   4.513   2.168  0.0806 -0.2017  0.4238
 8572SOL    HW137178   2.714   4.454   2.121 -0.0981 -1.1553  1.3889
 8572SOL    HW237179   2.613   4.551   2.091  2.7667  0.9155 -0.5209
 8573SOL     OW37180   2.438   1.711   2.428  0.2918  0.0549  0.1084
 8573SOL    HW137181   2.460   1.717   2.335  2.6229  0.0813  0.6702
 8573SOL    HW237182   2.381   1.634   2.431 -0.9713  1.0514  2.1236
 8574SOL     OW37183   1.328   2.654  14.911  0.3843  0.0440  0.0365
 8574SOL    HW137184   1.275   2.732  14.931 -0.9155 -0.8689  0.1049
 8574SOL    HW237185   1.374   2.691  14.835  0.5139  1.7609  0.9304
 8575SOL     OW37186   1.148   2.141   1.509  0.4698  0.7904 -0.1973
 8575SOL    HW137187   1.106   2.195   1.577  0.0831 -1.6511  1.4940
 8575SOL    HW237188   1.083   2.142   1.438  1.4201 -1.8708 -1.0865
 8576SOL     OW37189   1.871   4.182   8.389 -0.0268 -0.3341  0.4073
 8576SOL    HW137190   1.857   4.263   8.437 -0.7733  1.0201 -2.1452
 8576SOL    HW237191   1.948   4.150   8.438  0.6928 -2.2842 -2.0099
 8577SOL     OW37192   3.643   0.068   3.188  0.6381 -0.2857 -0.2898
 8577SOL    HW137193   3.556   0.032   3.206  0.9911  0.1522  2.3149
 8577SOL    HW237194   3.699   4.715   3.195  2.1402  0.6585 -1.8275
 8578SOL     OW37195   2.625   3.754   4.037 -0.5934  0.7289  0.6691
 8578SOL    HW137196   2.712   3.760   3.997 -1.5285  1.5836 -1.2411
 8578SOL    HW237197   2.647   3.718   4.123 -0.0941  1.9835  1.0693
 8579SOL     OW37198   1.710   3.200  14.770  0.1083  0.0213 -0.6924
 8579SOL    HW137199   1.693   3.281  14.722  0.4107  0.5829  0.1621
 8579SOL    HW237200   1.644   3.141  14.733  0.2799  0.0415 -1.0368
 8580SOL     OW37201   2.482   2.809   3.274 -0.1896 -0.2456  0.0202
 8580SOL    HW137202   2.391   2.828   3.296 -0.4977 -1.1458 -0.4958
 8580SOL    HW237203   2.475   2.816   3.179  0.0957  1.4721  0.1299
 8581SOL     OW37204   1.318   2.195   5.808  0.0149  0.6403  0.2640
 8581SOL    HW137205   1.371   2.130   5.761 -1.2117 -0.4253  0.3613
 8581SOL    HW237206   1.306   2.150   5.891 -1.9746  1.6319  0.5066
 8582SOL     OW37207   3.881   2.493   2.285 -0.0705 -0.0480 -0.9310
 8582SOL    HW137208   3.800   2.481   2.235 -1.3812 -1.1942  1.5227
 8582SOL    HW237209   3.917   2.405   2.293  1.4103  0.6536  0.0263
 8583SOL     OW37210   3.112   0.651   4.787  0.0598  0.5923  0.0629
 8583SOL    HW137211   3.096   0.568   4.743  1.5168 -0.4792  1.5402
 8583SOL    HW237212   3.154   0.701   4.717 -2.2506  1.0780 -0.9674
 8584SOL     OW37213   3.250   1.258   9.398  0.6506  0.6371  0.0700
 8584SOL    HW137214   3.163   1.221   9.382  0.7335  0.7959 -0.7523
 8584SOL    HW237215   3.280   1.216   9.479  0.8385  0.3313 -0.1566
 8585SOL     OW37216   0.130   3.313  17.322 -0.1859 -0.2189  0.8596
 8585SOL    HW137217   0.201   3.343  17.265 -0.9034 -0.7889 -0.3408
 8585SOL    HW237218   0.080   3.263  17.257 -0.0499  1.4775 -0.5494
 8586SOL     OW37219   1.387   1.192   7.488 -0.1381  0.0707  1.1363
 8586SOL    HW137220   1.343   1.145   7.559 -1.6173 -2.6162 -1.6169
 8586SOL    HW237221   1.361   1.284   7.499  0.8639  0.2579  2.0259
 8587SOL     OW37222   0.694   2.822   3.187 -0.6095  0.0473 -0.2766
 8587SOL    HW137223   0.655   2.750   3.237 -0.5596 -0.5747 -1.1415
 8587SOL    HW237224   0.756   2.857   3.250 -0.1917 -0.4951 -0.3914
 8588SOL     OW37225   0.111   1.540   1.265 -0.4142  0.4532  0.0352
 8588SOL    HW137226   0.187   1.522   1.320 -1.1412 -0.3146  0.7785
 8588SOL    HW237227   0.120   1.465   1.205 -3.8165 -1.6015  2.0919
 8589SOL     OW37228   0.566   2.366   9.084 -0.1691  0.0494  0.6137
 8589SOL    HW137229   0.564   2.297   9.150  1.9519  0.2152  0.8497
 8589SOL    HW237230   0.637   2.332   9.030  0.3940 -1.8877  2.5984
 8590SOL     OW37231   4.044   1.642   6.211 -0.6809  0.0625 -0.0857
 8590SOL    HW137232   3.980   1.616   6.277 -1.2945  1.1139 -0.2534
 8590SOL    HW237233   4.116   1.582   6.230  0.6270  1.8099  0.5750
 8591SOL     OW37234   4.456   4.602   5.444 -0.4964  0.3050 -0.0182
 8591SOL    HW137235   4.544   4.599   5.483 -0.7800  0.6914  0.6424
 8591SOL    HW237236   4.403   4.634   5.516 -1.5704  1.8136 -1.4860
 8592SOL     OW37237   1.550   2.397   8.095 -0.2237 -0.0944  0.2617
 8592SOL    HW137238   1.643   2.416   8.102  0.1254 -1.9170  0.7628
 8592SOL    HW237239   1.528   2.451   8.020 -1.1273 -0.5641  0.1892
 8593SOL     OW37240   1.291   1.249  15.307 -0.1678 -0.0648  0.3346
 8593SOL    HW137241   1.198   1.240  15.328 -0.0694  0.5612  1.0408
 8593SOL    HW237242   1.296   1.340  15.279 -0.8555 -0.1752 -0.1416
 8594SOL     OW37243   4.437   3.306   7.995  0.2321 -0.6616 -0.0866
 8594SOL    HW137244   4.376   3.278   8.063 -0.5427  0.4694 -0.3179
 8594SOL    HW237245   4.458   3.399   8.004  0.1850 -0.7776  1.2269
 8595SOL     OW37246   0.979   1.404   6.355 -0.0490  0.2821  0.4244
 8595SOL    HW137247   1.056   1.425   6.409  0.6925  3.1698 -1.8077
 8595SOL    HW237248   1.021   1.364   6.279  1.1062  1.3900  0.4747
 8596SOL     OW37249   4.345   2.378   1.304 -0.1175  0.0180  0.0200
 8596SOL    HW137250   4.422   2.325   1.321 -0.4669 -0.5946 -0.3023
 8596SOL    HW237251   4.300   2.330   1.234 -0.7743  0.8230 -0.1185
 8597SOL     OW37252   3.835   2.846  13.852 -0.1376 -0.2533 -0.1803
 8597SOL    HW137253   3.859   2.855  13.760 -1.0183  1.5657 -0.2248
 8597SOL    HW237254   3.747   2.810  13.839  1.3998 -3.7033 -0.9868
 8598SOL     OW37255   2.627   4.060   3.832  0.3109 -0.1041 -0.1486
 8598SOL    HW137256   2.595   4.026   3.749  1.7271  1.7691 -1.4499
 8598SOL    HW237257   2.581   4.015   3.903 -1.5470  0.5081 -0.9589
 8599SOL     OW37258   2.607   2.108   7.292  0.3968 -0.2356  0.0573
 8599SOL    HW137259   2.700   2.102   7.269  0.5881 -2.1549  1.3097
 8599SOL    HW237260   2.582   2.153   7.211  1.0791  1.3784  0.7368
 8600SOL     OW37261   3.889   4.054  10.948  0.4594 -0.2499  0.1106
 8600SOL    HW137262   3.966   3.999  10.965  1.5761  1.2731  0.0608
 8600SOL    HW237263   3.893   4.082  10.857  0.9777 -0.2410  0.1361
 8601SOL     OW37264   0.395   3.185   6.488 -0.0417  0.1614 -0.6968
 8601SOL    HW137265   0.334   3.216   6.556  1.0950 -0.3656  0.5705
 8601SOL    HW237266   0.402   3.092   6.512 -0.6956  0.4811  0.7265
 8602SOL     OW37267   1.151   3.202   8.375 -1.1082  0.7600 -0.3108
 8602SOL    HW137268   1.064   3.163   8.366 -0.5913 -0.3713 -0.4972
 8602SOL    HW237269   1.138   3.295   8.360  1.9067  0.9248 -2.1622
 8603SOL     OW37270   1.288   1.925  17.307  0.3330  0.1883 -0.1753
 8603SOL    HW137271   1.229   1.949  17.379  0.9833  1.8975 -0.2082
 8603SOL    HW237272   1.230   1.945  17.234  0.7616 -0.8214 -0.7875
 8604SOL     OW37273   3.672   4.052  13.222 -0.1004  0.2110  0.1575
 8604SOL    HW137274   3.604   4.117  13.201 -0.0161  0.0075 -0.7667
 8604SOL    HW237275   3.640   4.005  13.299  3.2440 -2.2217  0.0475
 8605SOL     OW37276   4.623   1.428  10.097  0.0638  0.0813  0.0619
 8605SOL    HW137277   4.585   1.502  10.050  0.1487  0.4283  0.5402
 8605SOL    HW237278   4.696   1.468  10.144 -0.3881 -0.0538  0.8723
 8606SOL     OW37279   2.672   1.931   9.942  0.1274  0.0136 -0.1632
 8606SOL    HW137280   2.741   1.902   9.882  1.0132 -1.6191  1.6436
 8606SOL    HW237281   2.704   2.020   9.954 -1.4340  0.6032 -0.4062
 8607SOL     OW37282   0.174   0.998   2.222 -0.5759 -0.0940  0.4738
 8607SOL    HW137283   0.185   0.913   2.264  1.2086  0.0352  0.2579
 8607SOL    HW237284   0.263   1.031   2.211 -1.2627  1.8192  0.5741
 8608SOL     OW37285   1.689   3.223   4.995 -0.1607  0.2347 -0.0348
 8608SOL    HW137286   1.766   3.205   5.048  0.3849  0.7512 -0.6342
 8608SOL    HW237287   1.709   3.177   4.913  0.1785  0.5777 -0.1481
 8609SOL     OW37288   3.174   1.551  12.702 -0.0007 -0.4026 -0.6613
 8609SOL    HW137289   3.097   1.595  12.665 -1.1212 -1.3627  0.4905
 8609SOL    HW237290   3.246   1.608  12.678 -1.3224  0.9975 -1.2986
 8610SOL     OW37291   1.798   1.243   4.556  0.4522  0.4006 -0.2428
 8610SOL    HW137292   1.717   1.239   4.506 -0.6146  1.2288  1.4324
 8610SOL    HW237293   1.775   1.171   4.615  1.6373  1.2188  1.2160
 8611SOL     OW37294   0.105   2.101  10.677 -0.1045  0.7936 -0.6733
 8611SOL    HW137295   0.178   2.157  10.701  1.7363 -1.6711 -0.4877
 8611SOL    HW237296   0.131   2.083  10.586 -0.6252  0.1375 -0.6925
 8612SOL     OW37297   2.213   0.964   2.320 -0.0702  0.1150 -0.4323
 8612SOL    HW137298   2.292   0.916   2.345  0.2518  0.3433 -1.0161
 8612SOL    HW237299   2.199   1.011   2.402  2.2640 -0.6552  0.4157
 8613SOL     OW37300   2.178   1.962   9.271 -0.1156  0.7910  0.4864
 8613SOL    HW137301   2.084   1.958   9.290 -0.2304 -0.0348 -0.2353
 8613SOL    HW237302   2.195   2.055   9.256 -0.7416  1.0643  1.4667
 8614SOL     OW37303   1.704   1.611   7.953 -0.2627  0.7539  0.2772
 8614SOL    HW137304   1.641   1.660   7.899  0.1883  1.0332  0.0017
 8614SOL    HW237305   1.652   1.543   7.994  0.3545  0.1621  0.0845
 8615SOL     OW37306   3.919   2.559   6.735 -0.4100  0.4088  0.0664
 8615SOL    HW137307   3.844   2.506   6.761 -0.4049  0.8337  0.9513
 8615SOL    HW237308   3.987   2.493   6.725  1.5805  2.4017  0.3850
 8616SOL     OW37309   0.280   2.003   9.571  0.2401  0.2160 -0.4663
 8616SOL    HW137310   0.187   2.015   9.588  0.0746 -0.0344 -1.1866
 8616SOL    HW237311   0.274   1.964   9.484 -0.8148 -2.4675  0.7740
 8617SOL     OW37312   1.592   3.037   2.373 -0.3117  0.0386 -0.2716
 8617SOL    HW137313   1.686   3.057   2.373 -0.1412 -0.7863 -0.8426
 8617SOL    HW237314   1.590   2.942   2.386 -0.5958 -0.2124 -2.1807
 8618SOL     OW37315   0.860   3.106   2.078 -0.3806 -0.4148 -0.1123
 8618SOL    HW137316   0.829   3.068   2.160 -1.0235 -0.5215 -0.4014
 8618SOL    HW237317   0.795   3.175   2.065  0.1793  0.1860  0.2144
 8619SOL     OW37318   1.239   1.108   8.719 -0.1271  0.2349  1.0441
 8619SOL    HW137319   1.252   1.128   8.626  0.1748  0.4529  1.1310
 8619SOL    HW237320   1.297   1.169   8.765  1.9859  0.1948 -1.5445
 8620SOL     OW37321   3.753   0.600   2.515  0.3827 -0.0217  0.0115
 8620SOL    HW137322   3.816   0.664   2.482 -0.3628  1.1196  0.7945
 8620SOL    HW237323   3.731   0.558   2.432 -2.7640  1.6042 -0.0107
 8621SOL     OW37324   1.737   4.339   7.624  0.2844 -0.5756  0.2051
 8621SOL    HW137325   1.677   4.413   7.611 -0.2584 -0.9577  0.5416
 8621SOL    HW237326   1.707   4.303   7.708 -0.4128 -0.0976  0.1588
 8622SOL     OW37327   2.856   2.016   5.275  0.1112  0.5081  0.1341
 8622SOL    HW137328   2.849   1.944   5.337 -0.6612  1.8901  1.6402
 8622SOL    HW237329   2.888   1.985   5.190  0.9486 -3.3890  1.9267
 8623SOL     OW37330   4.376   1.874   3.664 -0.4134  0.2402  0.0669
 8623SOL    HW137331   4.371   1.788   3.622  0.9178  1.2570 -2.1597
 8623SOL    HW237332   4.375   1.922   3.581 -1.9680 -0.5739 -0.3694
 8624SOL     OW37333   3.155   1.836   4.834 -0.4569  0.3243 -0.7173
 8624SOL    HW137334   3.239   1.851   4.876 -1.7808  2.2666  1.2512
 8624SOL    HW237335   3.188   1.834   4.744  1.6375 -1.2648  0.0889
 8625SOL     OW37336   1.085   0.998   1.949  0.2237 -0.4193  0.0669
 8625SOL    HW137337   1.127   1.043   1.875 -1.5753  0.9307 -0.1410
 8625SOL    HW237338   1.086   0.906   1.923  1.9943 -0.0054 -1.4266
 8626SOL     OW37339   2.789   4.405   0.163  0.1902 -0.4885 -0.0096
 8626SOL    HW137340   2.808   4.490   0.202 -0.7503 -1.8884  3.4632
 8626SOL    HW237341   2.777   4.338   0.230  0.8413 -1.5564 -0.9611
 8627SOL     OW37342   3.222   4.226   2.995 -0.9456 -0.5742  0.5353
 8627SOL    HW137343   3.184   4.164   2.932  0.2589  1.1083 -1.8448
 8627SOL    HW237344   3.315   4.206   2.989 -1.1155 -1.1375 -0.2307
 8628SOL     OW37345   4.228   2.508  12.547  0.1751  0.0483 -0.3471
 8628SOL    HW137346   4.151   2.539  12.500  0.6425  3.0516  0.7979
 8628SOL    HW237347   4.220   2.558  12.629  0.3229 -0.5085  0.0042
 8629SOL     OW37348   2.395   1.022   8.238  0.2097 -0.1042 -0.2836
 8629SOL    HW137349   2.315   1.031   8.289  1.3964 -0.4384  1.6614
 8629SOL    HW237350   2.436   0.947   8.281  2.3590 -0.1567 -2.4053
 8630SOL     OW37351   3.510   3.561  14.389  0.2909  0.1127  0.4215
 8630SOL    HW137352   3.590   3.509  14.394  0.1809  0.0353  1.2822
 8630SOL    HW237353   3.470   3.512  14.316 -0.5036  0.0735  0.8830
 8631SOL     OW37354   0.193   3.717   8.971  0.5247  0.4409 -0.2382
 8631SOL    HW137355   0.170   3.794   8.919 -1.3734 -0.4185 -0.6853
 8631SOL    HW237356   0.288   3.717   8.980  0.5088  2.8338 -0.0191
 8632SOL     OW37357   1.888   2.214   9.222 -0.6227  0.5402 -0.5134
 8632SOL    HW137358   1.822   2.266   9.178  0.9822  2.3782 -0.7395
 8632SOL    HW237359   1.959   2.278   9.229  0.0892 -0.3446  0.4672
 8633SOL     OW37360   4.377   1.775   1.810 -0.1298  0.7255  0.2873
 8633SOL    HW137361   4.416   1.688   1.798  0.1816  1.1774 -1.9517
 8633SOL    HW237362   4.432   1.827   1.868 -3.3523  3.1597  1.1631
 8634SOL     OW37363   2.351   3.131   6.187  0.3657 -0.3928  0.1210
 8634SOL    HW137364   2.264   3.160   6.160 -0.1554 -0.8092  1.3943
 8634SOL    HW237365   2.407   3.184   6.130  1.0779 -1.0691  0.1941
 8635SOL     OW37366   1.196   0.627   0.685  0.8288  0.6086 -0.1712
 8635SOL    HW137367   1.129   0.568   0.651  2.2052  0.1899 -2.1721
 8635SOL    HW237368   1.159   0.656   0.768  1.7811  0.5534  0.2754
 8636SOL     OW37369   3.661   1.343   5.775  1.1027  0.4128 -0.5797
 8636SOL    HW137370   3.633   1.274   5.835  0.6004  1.6875  0.6595
 8636SOL    HW237371   3.607   1.410   5.817  0.1605 -0.9727  0.4545
 8637SOL     OW37372   1.474   3.833   1.404  0.2262  0.1953 -0.0443
 8637SOL    HW137373   1.420   3.798   1.333  0.4535  1.5204 -0.8759
 8637SOL    HW237374   1.435   3.921   1.407  0.5031  0.2924  0.7184
 8638SOL     OW37375   1.104   2.896  11.083 -0.2824 -0.3742 -0.4006
 8638SOL    HW137376   1.024   2.917  11.035 -1.2493 -3.9200 -0.3049
 8638SOL    HW237377   1.049   2.862  11.153  0.7077 -0.8166  0.1528
 8639SOL     OW37378   0.340   4.580   6.171 -0.3258  0.0002  0.0129
 8639SOL    HW137379   0.425   4.579   6.216 -1.2339  1.5249  1.7611
 8639SOL    HW237380   0.304   4.662   6.204  0.9010  0.0589  1.2090
 8640SOL     OW37381   3.099   3.288  16.451  0.2663  0.4357 -0.0414
 8640SOL    HW137382   3.143   3.235  16.517 -2.2356 -0.4626  0.9130
 8640SOL    HW237383   3.157   3.290  16.375 -0.8093  0.3676 -0.8629
 8641SOL     OW37384   4.356   4.270   0.613 -0.2013  0.2204 -0.2772
 8641SOL    HW137385   4.286   4.318   0.568 -0.3136 -0.3360 -0.7014
 8641SOL    HW237386   4.366   4.182   0.578 -2.9771 -2.1678  5.0799
 8642SOL     OW37387   3.490   1.617  15.024 -0.1972 -0.2567  0.2857
 8642SOL    HW137388   3.487   1.710  15.001 -2.0142 -0.8975 -2.0904
 8642SOL    HW237389   3.578   1.606  14.986 -0.5272  0.9677 -0.8320
 8643SOL     OW37390   3.175   1.394  10.734 -0.6137 -0.5323 -0.4019
 8643SOL    HW137391   3.149   1.486  10.744  0.3453 -0.4367  1.1771
 8643SOL    HW237392   3.253   1.386  10.788 -0.7147  1.3996  0.0263
 8644SOL     OW37393   0.360   1.208  16.650 -0.3937  0.1166 -0.0659
 8644SOL    HW137394   0.297   1.277  16.674 -1.2344  0.1079 -2.2761
 8644SOL    HW237395   0.295   1.151  16.610 -1.0003  1.0284 -0.3693
 8645SOL     OW37396   2.796   3.514   5.877 -0.5510 -0.2525 -0.0266
 8645SOL    HW137397   2.751   3.590   5.914  1.2496  0.0221  1.6323
 8645SOL    HW237398   2.723   3.475   5.830 -0.7660  1.4121 -1.0773
 8646SOL     OW37399   3.897   4.413   4.081 -0.3745 -0.4626  0.3312
 8646SOL    HW137400   3.937   4.448   4.160 -2.5300  1.1537  0.7115
 8646SOL    HW237401   3.860   4.497   4.052  0.0595  0.0264  1.2037
 8647SOL     OW37402   2.343   4.075  12.793 -0.3469 -0.1904 -0.3645
 8647SOL    HW137403   2.416   4.032  12.838 -0.4046 -0.4853 -0.5528
 8647SOL    HW237404   2.289   4.000  12.770 -1.3662 -0.2527  2.3003
 8648SOL     OW37405   1.479   4.653  10.111 -0.1530 -0.4004 -0.0161
 8648SOL    HW137406   1.454   4.659  10.203 -1.6129 -1.1855 -0.3557
 8648SOL    HW237407   1.469   4.559  10.094  1.2643 -0.3335 -1.1772
 8649SOL     OW37408   3.070   0.087   6.344 -0.2771 -0.7419  0.8223
 8649SOL    HW137409   3.090   0.001   6.380 -0.5773 -0.3438  1.9410
 8649SOL    HW237410   3.162   0.115   6.337 -0.1936 -1.6339 -1.5590
 8650SOL     OW37411   1.739   4.336   4.735 -0.0775 -0.3247  0.0948
 8650SOL    HW137412   1.714   4.412   4.682 -1.6058 -0.7558  0.2039
 8650SOL    HW237413   1.803   4.377   4.793  0.6095  0.9111 -1.4947
 8651SOL     OW37414   1.691   2.289   9.836 -0.0240  0.5036  0.6205
 8651SOL    HW137415   1.707   2.320   9.925 -0.1527 -0.2006  0.8886
 8651SOL    HW237416   1.703   2.194   9.840  0.4083  0.5844  1.2564
 8652SOL     OW37417   1.030   1.806   5.204  0.2911 -0.2598  0.1997
 8652SOL    HW137418   0.970   1.764   5.266 -2.3782  0.6680 -1.7570
 8652SOL    HW237419   1.063   1.890   5.236  1.5091 -1.4354  2.0637
 8653SOL     OW37420   4.276   4.499   7.630  0.0117  0.3259 -0.7467
 8653SOL    HW137421   4.280   4.417   7.679 -0.1599  0.8739  0.1843
 8653SOL    HW237422   4.307   4.554   7.702 -1.0797  0.4389 -0.3653
 8654SOL     OW37423   4.014   4.157   6.467  0.1334 -0.0709 -0.3618
 8654SOL    HW137424   3.959   4.149   6.389 -2.0382  0.3755  1.1391
 8654SOL    HW237425   4.048   4.247   6.462 -0.1816  0.0804  0.2517
 8655SOL     OW37426   3.151   3.839  17.605 -0.1321 -0.2296  0.3829
 8655SOL    HW137427   3.180   3.896  17.676 -0.0635  0.2473 -0.0231
 8655SOL    HW237428   3.120   3.765  17.657  0.5537 -1.0802 -0.4188
 8656SOL     OW37429   2.041   3.990   7.779  0.4662  0.4554 -0.2121
 8656SOL    HW137430   1.989   3.910   7.780 -0.7492  1.2152 -2.7078
 8656SOL    HW237431   1.978   4.048   7.822  0.0572 -0.4695  0.4365
 8657SOL     OW37432   3.041   1.420  15.102  0.6492 -0.0744 -0.1382
 8657SOL    HW137433   3.004   1.364  15.034 -0.7740 -1.0272  1.4294
 8657SOL    HW237434   3.136   1.422  15.093  0.6010  0.6215 -0.5184
 8658SOL     OW37435   1.665   1.554  16.841  0.5803 -0.3904  0.3833
 8658SOL    HW137436   1.706   1.558  16.755 -1.2750  1.7781 -0.3892
 8658SOL    HW237437   1.605   1.480  16.846 -0.7831  0.6291 -0.9901
 8659SOL     OW37438   1.136   2.369  12.910 -0.3778 -0.3041 -0.4205
 8659SOL    HW137439   1.131   2.412  12.995  1.6095  2.1317 -1.5149
 8659SOL    HW237440   1.218   2.321  12.925  0.3037  0.3026 -2.2196
 8660SOL     OW37441   3.480   4.670   5.500  0.2396  0.3518 -0.2007
 8660SOL    HW137442   3.535   4.615   5.556 -0.3309  0.2644  0.2761
 8660SOL    HW237443   3.480   4.621   5.418  0.2326 -0.3214  0.1998
 8661SOL     OW37444   0.521   3.307   2.352  0.3621 -0.1521 -0.1579
 8661SOL    HW137445   0.458   3.365   2.309  0.4849  0.6344  0.7164
 8661SOL    HW237446   0.547   3.353   2.432  2.0077 -0.5420 -0.4806
 8662SOL     OW37447   3.420   1.799   3.423  1.0333 -0.8286  0.0781
 8662SOL    HW137448   3.348   1.831   3.370  2.8852 -0.8021 -2.4132
 8662SOL    HW237449   3.489   1.863   3.404  2.2510 -2.2260 -0.2456
 8663SOL     OW37450   0.158   2.762  13.366 -0.2219 -0.6904 -0.2543
 8663SOL    HW137451   0.181   2.717  13.447 -2.4629 -1.3821  0.0027
 8663SOL    HW237452   0.143   2.846  13.410  0.2222 -0.0713 -1.2772
 8664SOL     OW37453   1.007   4.113   8.002  0.2352  0.1188 -1.0056
 8664SOL    HW137454   0.966   4.200   8.004 -1.4791 -0.6858 -0.9992
 8664SOL    HW237455   1.099   4.133   7.984  1.0153 -1.9757  0.7864
 8665SOL     OW37456   2.966   3.385   6.078  0.1264 -0.6349 -0.9951
 8665SOL    HW137457   2.901   3.435   6.028  0.5321  3.2020  2.3228
 8665SOL    HW237458   2.956   3.303   6.030 -2.4357 -1.2930  0.6336
 8666SOL     OW37459   1.990   4.228   9.901 -0.2647 -0.0646 -0.0840
 8666SOL    HW137460   2.085   4.220   9.913 -0.4567 -1.2632  0.6121
 8666SOL    HW237461   1.956   4.139   9.896  0.3165 -0.4553  2.4586
 8667SOL     OW37462   4.100   0.167   1.806  0.5868 -0.1164  0.1366
 8667SOL    HW137463   4.053   0.089   1.834 -1.5231  0.8726 -0.5988
 8667SOL    HW237464   4.104   0.216   1.889  0.9017 -2.2243  1.3591
 8668SOL     OW37465   1.909   4.087   2.698 -0.0260 -0.4036  0.2522
 8668SOL    HW137466   1.860   4.165   2.726 -0.1300 -1.0572  1.9002
 8668SOL    HW237467   1.998   4.121   2.693  0.1366 -0.8179  0.3741
 8669SOL     OW37468   0.431   3.220   5.543  0.2446 -0.2663  0.1503
 8669SOL    HW137469   0.518   3.196   5.573  1.5387  3.0911 -0.9203
 8669SOL    HW237470   0.442   3.287   5.476 -0.6653  0.1777  0.4522
 8670SOL     OW37471   2.773   2.744   8.460 -0.4174 -0.1614 -0.7453
 8670SOL    HW137472   2.772   2.699   8.376 -0.9691 -1.0531 -0.2613
 8670SOL    HW237473   2.865   2.725   8.482 -0.0821  1.6439 -0.5862
 8671SOL     OW37474   2.497   3.133   1.184  0.1886  0.2077 -0.3447
 8671SOL    HW137475   2.561   3.067   1.210  2.6793  2.4354 -0.8407
 8671SOL    HW237476   2.473   3.096   1.099  0.4738  1.2522 -0.8785
 8672SOL     OW37477   0.233   3.252  16.053  0.5793 -0.0030 -0.0019
 8672SOL    HW137478   0.139   3.255  16.035  0.7633  3.1892 -0.4171
 8672SOL    HW237479   0.235   3.248  16.148  1.5257  1.9569  0.0477
 8673SOL     OW37480   3.017   1.017   5.249  0.2197 -0.3199  0.3205
 8673SOL    HW137481   3.096   1.055   5.212  0.1542  0.3882  0.9027
 8673SOL    HW237482   3.036   0.925   5.234 -2.8821 -1.2998  2.4089
 8674SOL     OW37483   1.683   1.299   9.663 -0.1513 -0.4622 -0.3250
 8674SOL    HW137484   1.693   1.340   9.749  0.0541  0.0750 -0.5991
 8674SOL    HW237485   1.609   1.349   9.629 -0.1464 -1.2565 -1.4939
 8675SOL     OW37486   3.317   0.223   9.579  0.4721 -0.0840 -0.2314
 8675SOL    HW137487   3.305   0.252   9.670 -3.3462 -0.6344 -0.5583
 8675SOL    HW237488   3.300   0.301   9.526 -1.2265 -0.7295 -0.6314
 8676SOL     OW37489   2.305   1.380  11.844 -0.3046  0.0997  0.0237
 8676SOL    HW137490   2.297   1.410  11.754  0.2875  1.5522  0.4556
 8676SOL    HW237491   2.400   1.375  11.858 -0.6042  0.6576  2.2873
 8677SOL     OW37492   1.666   1.872  12.060 -0.4698  0.1639 -0.0757
 8677SOL    HW137493   1.754   1.886  12.095 -1.0559  0.0320  1.4499
 8677SOL    HW237494   1.657   1.958  12.020  0.9217  0.5260  0.3826
 8678SOL     OW37495   4.008   4.700   4.679 -0.0739  0.6091  0.1973
 8678SOL    HW137496   3.925   0.006   4.714 -0.3727  2.9403 -2.5989
 8678SOL    HW237497   4.022   0.016   4.593  0.9666  1.5909  0.8280
 8679SOL     OW37498   3.096   0.045  15.535  0.3809  0.3752 -0.1278
 8679SOL    HW137499   3.107   0.136  15.507  0.3324  0.6445  0.7018
 8679SOL    HW237500   3.022   0.046  15.595 -0.0081  1.2274 -0.6250
 8680SOL     OW37501   2.606   3.484  12.359 -0.5555 -0.4217  0.3457
 8680SOL    HW137502   2.584   3.533  12.439 -3.1049 -0.5803 -0.2693
 8680SOL    HW237503   2.554   3.520  12.287 -0.4447 -0.2826  0.3350
 8681SOL     OW37504   1.324   0.303   8.912  0.5141 -0.8149  0.1885
 8681SOL    HW137505   1.355   0.326   8.825  2.1662  0.4999  1.1385
 8681SOL    HW237506   1.247   0.256   8.879 -0.3808  0.4488  0.4911
 8682SOL     OW37507   4.123   2.301   2.869  0.1213  0.0442 -0.2207
 8682SOL    HW137508   4.163   2.322   2.785  0.2758  1.9882  0.3479
 8682SOL    HW237509   4.075   2.225   2.836 -1.2206  0.7104  0.1890
 8683SOL     OW37510   4.399   0.046   6.862 -0.0324  0.3849  0.0363
 8683SOL    HW137511   4.413   0.117   6.925 -0.3441 -0.3461  0.9182
 8683SOL    HW237512   4.322   0.002   6.897  0.2896 -1.2278 -1.3066
 8684SOL     OW37513   0.904   1.850   4.613 -0.4071 -0.1284  0.0871
 8684SOL    HW137514   0.844   1.920   4.586  0.3486  0.2367 -0.6214
 8684SOL    HW237515   0.890   1.844   4.708  1.3741 -2.0163  0.2189
 8685SOL     OW37516   1.631   4.006   9.972  0.1453  0.5185 -0.5985
 8685SOL    HW137517   1.592   3.924   9.942  2.5496 -0.0581 -2.1615
 8685SOL    HW237518   1.719   4.007   9.934  0.7723 -1.0917  0.8370
 8686SOL     OW37519   0.803   0.519  17.350 -0.4087  0.0339 -0.0969
 8686SOL    HW137520   0.868   0.554  17.411 -0.3120 -2.0296  0.9935
 8686SOL    HW237521   0.831   0.428  17.343 -0.9209 -0.1857  0.8524
 8687SOL     OW37522   3.562   0.098  12.272 -0.4448 -0.0725  0.3892
 8687SOL    HW137523   3.640   0.125  12.224 -0.4561 -1.6573 -0.5377
 8687SOL    HW237524   3.572   0.003  12.279  1.1309  0.0460 -0.4279
 8688SOL     OW37525   0.802   3.432   1.055 -0.3998  0.0420 -0.1566
 8688SOL    HW137526   0.714   3.449   1.090 -1.2958 -0.0715 -2.3139
 8688SOL    HW237527   0.855   3.413   1.132  0.2372  2.4995  0.0181
 8689SOL     OW37528   2.928   0.657   3.611 -0.6999  0.0858  0.3144
 8689SOL    HW137529   2.885   0.650   3.526 -1.0798 -0.4808  0.5521
 8689SOL    HW237530   3.003   0.714   3.598 -0.7650  0.3087  0.8951
 8690SOL     OW37531   3.745   1.344   0.926  0.3445  0.3270 -0.2625
 8690SOL    HW137532   3.827   1.311   0.963 -1.0563 -2.0376  0.7179
 8690SOL    HW237533   3.741   1.430   0.969 -3.0360 -0.7644  1.6484
 8691SOL     OW37534   0.830   1.178   4.561  0.4997  0.8256  0.1124
 8691SOL    HW137535   0.829   1.100   4.506  2.2545  0.4898  0.5853
 8691SOL    HW237536   0.752   1.226   4.531 -0.1795  1.9590  3.7334
 8692SOL     OW37537   0.750   1.552  14.944  0.0953  0.1881  0.2217
 8692SOL    HW137538   0.744   1.619  14.876  0.3667  1.1362  1.1310
 8692SOL    HW237539   0.697   1.486  14.899  1.2399 -0.2654 -0.4709
 8693SOL     OW37540   4.410   2.681  17.442  0.2943 -0.6428 -0.6527
 8693SOL    HW137541   4.492   2.638  17.419  1.2833  1.3591 -0.8687
 8693SOL    HW237542   4.419   2.694  17.536 -1.1634  0.7765 -0.7112
 8694SOL     OW37543   3.482   0.786  17.257 -0.2764  0.1585 -0.0632
 8694SOL    HW137544   3.417   0.807  17.324  0.8695 -2.3292  1.8437
 8694SOL    HW237545   3.514   0.709  17.304 -3.8692 -1.7367 -0.6681
 8695SOL     OW37546   0.663   2.233   5.332 -0.1134  0.0383 -0.2409
 8695SOL    HW137547   0.713   2.287   5.271  1.9007  0.9772  2.2615
 8695SOL    HW237548   0.732   2.207   5.393  2.5624  1.9436 -2.4800
 8696SOL     OW37549   0.877   2.240   5.512  0.3063  0.5785  0.6571
 8696SOL    HW137550   0.933   2.219   5.586 -0.9059 -0.4603  1.2854
 8696SOL    HW237551   0.933   2.303   5.468 -0.1993  1.6424  1.5446
 8697SOL     OW37552   3.481   4.092   6.422 -0.5196 -0.2781  0.3809
 8697SOL    HW137553   3.553   4.103   6.359 -1.1969  1.8564 -0.0500
 8697SOL    HW237554   3.480   3.998   6.436  1.5994 -0.2040  0.9505
 8698SOL     OW37555   4.386   0.625   1.921  0.0312 -0.2631 -0.3674
 8698SOL    HW137556   4.322   0.666   1.864  0.6687 -0.8889 -1.5225
 8698SOL    HW237557   4.472   0.637   1.879 -0.2740  1.6147 -0.4567
 8699SOL     OW37558   1.545   4.202   9.087  0.6789  0.1811  0.1523
 8699SOL    HW137559   1.537   4.294   9.064 -0.9637 -0.2239 -0.8980
 8699SOL    HW237560   1.623   4.183   9.034  0.2624 -1.4725  0.1225
 8700SOL     OW37561   0.863   2.007   4.152  0.3058  0.1630  0.1464
 8700SOL    HW137562   0.906   2.093   4.151  0.0350  0.3020  0.9356
 8700SOL    HW237563   0.790   2.021   4.212 -0.8243 -2.0263 -0.7022
 8701SOL     OW37564   1.514   0.883  16.749  0.4774 -0.6296  0.4219
 8701SOL    HW137565   1.587   0.837  16.708  0.8024 -1.2204  1.6787
 8701SOL    HW237566   1.439   0.844  16.704 -0.8955  0.1213  2.0268
 8702SOL     OW37567   1.089   3.570   4.402 -0.3986 -0.2593 -0.8042
 8702SOL    HW137568   1.122   3.625   4.474  0.4543 -1.8040 -0.0165
 8702SOL    HW237569   1.079   3.483   4.441 -2.3684  0.5570  0.5319
 8703SOL     OW37570   3.734   4.350   2.839  0.1226  0.2061 -0.0025
 8703SOL    HW137571   3.686   4.318   2.762  0.8318  0.2317 -0.4536
 8703SOL    HW237572   3.818   4.326   2.801  0.2517  0.1360  0.3305
 8704SOL     OW37573   1.816   0.704  10.531  0.1461 -0.0400  0.0489
 8704SOL    HW137574   1.770   0.620  10.538 -0.1679  0.0422 -0.8943
 8704SOL    HW237575   1.907   0.687  10.507 -0.2931  1.4112 -2.6152
 8705SOL     OW37576   2.360   2.400   2.783 -0.5901 -0.6208  0.5780
 8705SOL    HW137577   2.393   2.468   2.841  1.9369 -2.2088  0.9675
 8705SOL    HW237578   2.375   2.438   2.696 -1.9875 -0.3615  0.4456
 8706SOL     OW37579   0.332   1.688   5.649  0.3654 -0.2945  0.0022
 8706SOL    HW137580   0.288   1.606   5.671 -0.3398  1.6197  5.7235
 8706SOL    HW237581   0.385   1.659   5.575 -2.1374 -1.0899 -1.4603
 8707SOL     OW37582   3.032   0.549   4.503  0.5021 -0.1781 -0.1577
 8707SOL    HW137583   3.007   0.461   4.475 -1.5408  0.9810 -1.9756
 8707SOL    HW237584   2.958   0.566   4.560  0.4472  1.8445 -0.8395
 8708SOL     OW37585   2.206   1.522  10.358  0.3469 -0.5000 -0.2501
 8708SOL    HW137586   2.255   1.445  10.331  0.8105 -0.1947 -0.2950
 8708SOL    HW237587   2.118   1.492  10.378  0.4548 -0.6647 -0.0200
 8709SOL     OW37588   1.883   1.692  14.728 -0.2496  0.3778 -0.5675
 8709SOL    HW137589   1.816   1.759  14.744 -0.4451 -0.0665  0.4677
 8709SOL    HW237590   1.833   1.610  14.727 -0.7222  0.6364  2.1187
 8710SOL     OW37591   0.983   0.831  11.145 -0.3323  0.4095 -0.2405
 8710SOL    HW137592   1.034   0.820  11.225 -0.4633  1.8448  0.0482
 8710SOL    HW237593   1.045   0.895  11.110 -0.1611  0.3219 -0.0958
 8711SOL     OW37594   2.806   1.771  13.086 -0.6952  0.8202 -0.0167
 8711SOL    HW137595   2.762   1.844  13.042 -1.2929 -0.1056 -0.9582
 8711SOL    HW237596   2.785   1.701  13.025  0.0149  1.0290 -0.5118
 8712SOL     OW37597   0.628   3.656  11.561 -0.1139  0.3100  0.7075
 8712SOL    HW137598   0.669   3.721  11.504 -0.6722 -2.6574 -3.0629
 8712SOL    HW237599   0.537   3.656  11.531  0.1565 -2.3429 -0.1724
 8713SOL     OW37600   0.321   1.160  12.291 -0.1018 -0.1004  0.0294
 8713SOL    HW137601   0.291   1.227  12.230  0.1128 -0.5839 -0.5993
 8713SOL    HW237602   0.378   1.222  12.338 -1.2935  1.8384 -1.0684
 8714SOL     OW37603   1.683   0.713   5.257 -0.5991 -0.1924  0.1211
 8714SOL    HW137604   1.754   0.700   5.319  0.0371  0.0726 -0.5499
 8714SOL    HW237605   1.663   0.623   5.230  2.0163 -0.5699 -0.5437
 8715SOL     OW37606   4.669   2.433  12.100 -0.6361  0.0114  0.0769
 8715SOL    HW137607   4.647   2.350  12.143 -1.8039  0.4839  0.3977
 8715SOL    HW237608   4.667   2.419  12.005  0.4608  0.9151 -0.0675
 8716SOL     OW37609   1.262   1.776  12.976  0.6567 -0.0043  0.1666
 8716SOL    HW137610   1.327   1.813  12.916  0.7289 -0.9483 -0.3513
 8716SOL    HW237611   1.283   1.825  13.055 -2.7461  1.9120 -0.0928
 8717SOL     OW37612   4.162   3.778   8.372  0.5332 -0.2863 -0.3893
 8717SOL    HW137613   4.231   3.845   8.371  0.2582 -0.0316 -2.0420
 8717SOL    HW237614   4.144   3.770   8.466 -0.2506  0.4680 -0.4731
 8718SOL     OW37615   4.548   2.214   1.696  0.6141 -0.3738 -0.1693
 8718SOL    HW137616   4.558   2.177   1.609 -0.4299 -0.5479 -0.2087
 8718SOL    HW237617   4.641   2.209   1.720  1.2647 -0.7788 -2.7536
 8719SOL     OW37618   0.031   1.784   1.469  0.1456 -0.1468  0.5989
 8719SOL    HW137619   0.057   1.693   1.485  0.4964 -0.1243  0.1446
 8719SOL    HW237620   0.015   1.783   1.375  0.2771  2.5795  0.5449
 8720SOL     OW37621   4.028   1.453   4.743 -0.1135  0.5284  0.3253
 8720SOL    HW137622   4.118   1.479   4.763  1.1190 -2.2772 -1.5516
 8720SOL    HW237623   4.038   1.429   4.651 -0.3675  0.3820  0.3374
 8721SOL     OW37624   0.099   3.230   6.313 -0.1335 -0.4595  0.0711
 8721SOL    HW137625   0.187   3.237   6.277 -0.8304  1.3266 -1.3369
 8721SOL    HW237626   0.122   3.245   6.405 -0.0844 -0.1346  0.0069
 8722SOL     OW37627   2.536   0.600   3.234  0.6929  0.1380  0.3536
 8722SOL    HW137628   2.611   0.576   3.289  0.1228  1.1297  1.5672
 8722SOL    HW237629   2.584   0.634   3.158 -0.6844 -0.7197 -0.9011
 8723SOL     OW37630   3.277   2.148  15.904 -0.1414 -0.4692  0.1841
 8723SOL    HW137631   3.369   2.172  15.918  0.0085 -0.7803 -0.2714
 8723SOL    HW237632   3.228   2.192  15.974  1.7313 -0.8201  1.7375
 8724SOL     OW37633   1.699   1.947   3.423  0.0798 -0.7187  0.1844
 8724SOL    HW137634   1.659   1.897   3.353 -1.1836  0.7141 -0.1113
 8724SOL    HW237635   1.792   1.948   3.400  0.7779  1.6194  3.0145
 8725SOL     OW37636   3.408   4.031   2.492  0.2677 -0.0488 -0.2429
 8725SOL    HW137637   3.412   4.124   2.515 -0.5918 -0.3559  1.2113
 8725SOL    HW237638   3.444   3.999   2.574 -2.3764 -0.6543  0.6912
 8726SOL     OW37639   1.613   3.621   2.173  0.6272  0.6784  0.0781
 8726SOL    HW137640   1.707   3.622   2.194  0.5016 -1.6888  0.7866
 8726SOL    HW237641   1.607   3.675   2.095  0.1507 -0.9897 -1.0276
 8727SOL     OW37642   1.664   3.200  12.919  0.2182  0.1017  0.1043
 8727SOL    HW137643   1.643   3.109  12.896  0.9268  0.4018 -1.6923
 8727SOL    HW237644   1.739   3.191  12.977  1.1222  1.0723 -0.9147
 8728SOL     OW37645   1.288   2.301   4.911  0.6207 -0.2336  0.4981
 8728SOL    HW137646   1.320   2.216   4.881  1.0265  0.2951 -0.5700
 8728SOL    HW237647   1.213   2.271   4.963  1.6400 -0.4087  1.8632
 8729SOL     OW37648   4.345   1.297   3.094  0.1930  0.0248 -0.6994
 8729SOL    HW137649   4.374   1.332   3.010  0.2213  0.6973 -0.4139
 8729SOL    HW237650   4.307   1.376   3.134 -0.4134  0.1108 -1.4575
 8730SOL     OW37651   0.389   3.146   4.909 -0.1209  0.3407  0.3064
 8730SOL    HW137652   0.436   3.228   4.893 -0.7759  0.4792 -0.9185
 8730SOL    HW237653   0.303   3.176   4.938  0.5968  2.1779  0.5145
 8731SOL     OW37654   3.319   0.897   7.306  0.0678  0.4159  0.3473
 8731SOL    HW137655   3.242   0.928   7.354  0.8550 -0.7658  2.4039
 8731SOL    HW237656   3.287   0.835   7.241  0.4089 -0.0121  0.5851
 8732SOL     OW37657   3.822   1.888  13.462 -0.4209  0.1877 -0.6076
 8732SOL    HW137658   3.857   1.815  13.411  0.4730 -0.1151  0.4513
 8732SOL    HW237659   3.835   1.956  13.397  3.9249 -1.4970 -1.4712
 8733SOL     OW37660   0.823   4.135   5.633 -0.1831 -0.2168  0.4419
 8733SOL    HW137661   0.878   4.206   5.666  0.8515 -0.8392  0.0480
 8733SOL    HW237662   0.735   4.171   5.644 -0.9449 -2.1554  0.6390
 8734SOL     OW37663   4.336   3.567   0.790  0.1339 -0.8266  0.1794
 8734SOL    HW137664   4.251   3.548   0.752 -0.1180 -0.3286  0.4842
 8734SOL    HW237665   4.392   3.559   0.713  1.9185 -3.0814  1.6970
 8735SOL     OW37666   4.010   0.633   0.260  0.3922 -0.4883 -0.0060
 8735SOL    HW137667   3.996   0.675   0.345  1.1286  0.1194 -0.1853
 8735SOL    HW237668   3.971   0.547   0.275 -1.5537  0.3526 -0.3256
 8736SOL     OW37669   4.689   1.418   2.467  0.0167  0.4206 -0.1925
 8736SOL    HW137670   4.619   1.439   2.404  0.8274  2.5833 -0.3696
 8736SOL    HW237671   4.711   1.330   2.438  1.0500  0.3548  0.8001
 8737SOL     OW37672   3.860   4.718   5.486 -0.0391  0.0241 -0.4852
 8737SOL    HW137673   3.808   4.711   5.405 -1.9187  0.9221  0.6500
 8737SOL    HW237674   3.937   0.041   5.452 -0.7807  1.4505 -0.1787
 8738SOL     OW37675   0.516   2.294  12.660 -0.9643  0.1023 -0.8432
 8738SOL    HW137676   0.593   2.339  12.694 -0.5390 -1.1073 -0.1930
 8738SOL    HW237677   0.476   2.244  12.732 -1.7297  2.0701  0.0993
 8739SOL     OW37678   4.359   1.863   9.731 -0.6199  0.3731  0.4074
 8739SOL    HW137679   4.410   1.841   9.653  0.1735  1.0682  0.7331
 8739SOL    HW237680   4.286   1.804   9.714 -0.2373 -0.1654  0.6342
 8740SOL     OW37681   1.344   0.366  11.658 -0.2025 -0.1067 -0.7948
 8740SOL    HW137682   1.316   0.356  11.567  2.4826 -3.5293 -1.2389
 8740SOL    HW237683   1.439   0.378  11.651  0.2370 -2.4121  1.0828
 8741SOL     OW37684   2.118   4.412   7.686  0.6666  0.6264 -0.6702
 8741SOL    HW137685   2.029   4.437   7.709  0.4784 -1.0361  0.3586
 8741SOL    HW237686   2.128   4.473   7.612 -1.3772  0.3691 -1.1478
 8742SOL     OW37687   3.501   0.415   5.234  0.6107 -0.0196  0.3659
 8742SOL    HW137688   3.585   0.454   5.255  0.4709 -0.9067  2.5923
 8742SOL    HW237689   3.449   0.422   5.315 -0.0005 -2.1754  0.1677
 8743SOL     OW37690   0.748   3.635   0.772 -0.2847  0.5004  0.2294
 8743SOL    HW137691   0.796   3.645   0.854  2.2088  1.4649 -1.3542
 8743SOL    HW237692   0.676   3.699   0.776 -1.0857 -0.3723 -0.2753
 8744SOL     OW37693   3.832   0.242  15.693  0.2665 -0.8694 -0.3493
 8744SOL    HW137694   3.843   0.285  15.778  1.0388 -0.0529 -0.8609
 8744SOL    HW237695   3.743   0.208  15.700  0.5985 -1.5215  0.8387
 8745SOL     OW37696   3.579   4.110   3.854  0.2837 -0.2481 -0.6701
 8745SOL    HW137697   3.638   4.076   3.787  1.3697 -1.3920  0.8825
 8745SOL    HW237698   3.589   4.047   3.925 -2.8144 -0.9676 -0.8452
 8746SOL     OW37699   1.527   1.378   2.048 -0.2278  0.0133 -0.6525
 8746SOL    HW137700   1.525   1.422   2.133 -1.9722 -0.8871 -0.2321
 8746SOL    HW237701   1.435   1.357   2.033 -0.3876 -1.4687  2.4250
 8747SOL     OW37702   2.484   3.982   4.883  0.4171 -0.3273  0.2639
 8747SOL    HW137703   2.423   3.923   4.927  0.9224  0.0355  1.4442
 8747SOL    HW237704   2.495   4.041   4.958 -0.4137 -1.5194  1.3239
 8748SOL     OW37705   0.048   3.676   9.198  0.0938  0.2587  0.2040
 8748SOL    HW137706   0.086   3.695   9.113 -0.4172  0.0873 -0.0588
 8748SOL    HW237707   0.039   3.766   9.232  2.4823  0.7673 -0.5334
 8749SOL     OW37708   3.840   4.343   4.674 -0.1949  0.2645  0.0846
 8749SOL    HW137709   3.822   4.314   4.584  1.5531 -0.9127  0.1087
 8749SOL    HW237710   3.934   4.360   4.674 -0.1704  0.1240 -1.2713
 8750SOL     OW37711   0.477   2.029  13.574  0.2726  0.3154 -0.4511
 8750SOL    HW137712   0.452   1.991  13.490 -1.3835  1.2114 -0.3641
 8750SOL    HW237713   0.533   2.102  13.548  1.7142 -1.1272 -1.3750
 8751SOL     OW37714   0.637   4.313   3.690 -0.1749  0.6452  0.1666
 8751SOL    HW137715   0.732   4.300   3.700  0.1767  2.0734 -1.4752
 8751SOL    HW237716   0.624   4.407   3.689  0.0842  0.6890  0.6950
 8752SOL     OW37717   1.448   3.802   4.505  0.7742 -0.0181  0.0280
 8752SOL    HW137718   1.525   3.854   4.527  1.1808 -0.6961  0.2078
 8752SOL    HW237719   1.405   3.862   4.443  0.2731  1.4795  1.8166
 8753SOL     OW37720   2.551   3.507   8.846 -0.2776 -0.0228 -0.1274
 8753SOL    HW137721   2.633   3.463   8.826 -0.8533  0.6559 -4.0838
 8753SOL    HW237722   2.546   3.570   8.774 -0.9015 -0.4600 -0.4658
 8754SOL     OW37723   0.285   2.355   1.328 -0.2450 -0.1114  0.3023
 8754SOL    HW137724   0.193   2.382   1.329 -0.0641  0.4923  0.2722
 8754SOL    HW237725   0.270   2.268   1.290 -0.7261  0.6093 -1.1687
 8755SOL     OW37726   3.346   1.010   5.573  0.0692 -0.3941 -0.6127
 8755SOL    HW137727   3.357   1.097   5.612 -2.0133 -1.1901  1.7165
 8755SOL    HW237728   3.323   0.949   5.643 -2.9127  0.2420 -1.0409
 8756SOL     OW37729   4.505   0.073   5.694  0.3016  0.3080  0.5688
 8756SOL    HW137730   4.543   0.000   5.744 -0.1936 -0.4988 -0.2250
 8756SOL    HW237731   4.412   0.050   5.694  0.5475 -0.6845 -2.0963
 8757SOL     OW37732   2.055   0.069   4.042  0.6328 -0.4463  0.3067
 8757SOL    HW137733   2.094   4.709   4.060  1.8454 -0.3418 -1.8178
 8757SOL    HW237734   2.016   0.084   4.128 -0.9425  0.5072 -0.5591
 8758SOL     OW37735   3.828   4.109  14.272 -0.0328 -0.1538 -0.4139
 8758SOL    HW137736   3.869   4.196  14.273  3.3900 -1.8095  0.1550
 8758SOL    HW237737   3.909   4.070  14.302  0.2298  1.5947  1.1420
 8759SOL     OW37738   2.781   1.762  17.033 -0.4798  0.3379 -0.1576
 8759SOL    HW137739   2.798   1.671  17.058  0.2163  0.0662 -1.6491
 8759SOL    HW237740   2.844   1.815  17.082  0.8177  0.3900 -1.8958
 8760SOL     OW37741   2.079   1.651  14.116 -0.5276 -0.4362  0.4004
 8760SOL    HW137742   2.021   1.580  14.088 -1.9507  0.8367  0.0978
 8760SOL    HW237743   2.061   1.718  14.049 -2.5762  0.4156  1.8064
 8761SOL     OW37744   0.042   3.561   6.557  0.3273 -0.3796  0.3446
 8761SOL    HW137745   4.687   3.608   6.580  1.0564  1.0056  0.0997
 8761SOL    HW237746   0.006   3.480   6.522 -0.7603 -0.1658  0.9809
 8762SOL     OW37747   2.691   1.885   0.797  0.3041 -0.4603 -0.5279
 8762SOL    HW137748   2.623   1.903   0.732 -0.2037 -0.3677  0.0233
 8762SOL    HW237749   2.657   1.931   0.874  1.8640  0.2540 -0.2760
 8763SOL     OW37750   3.537   1.491   1.181 -0.5462  0.8837 -0.4229
 8763SOL    HW137751   3.613   1.535   1.145 -0.2434  1.9155  1.4513
 8763SOL    HW237752   3.466   1.553   1.164  0.9291  3.0353  1.3195
 8764SOL     OW37753   3.479   2.629  12.556  0.6882  0.2445 -0.4359
 8764SOL    HW137754   3.427   2.556  12.524 -0.6204  1.2249 -0.5379
 8764SOL    HW237755   3.444   2.706  12.510  2.0230  1.6176  0.8493
 8765SOL     OW37756   2.792   1.755   3.155  0.3384  0.4034 -0.0237
 8765SOL    HW137757   2.702   1.742   3.126 -0.3158  2.7953  0.9529
 8765SOL    HW237758   2.836   1.734   3.072 -1.7508 -1.6940 -0.6084
 8766SOL     OW37759   0.045   4.212  12.600 -0.2121  0.0272  0.1219
 8766SOL    HW137760   0.048   4.135  12.657  0.8768 -1.8053 -2.4152
 8766SOL    HW237761   0.138   4.229  12.589 -0.5728  2.2224  0.3546
 8767SOL     OW37762   2.364   1.386  14.904 -0.1218  0.0455 -0.0964
 8767SOL    HW137763   2.325   1.339  14.831  0.4886 -1.2939  0.4454
 8767SOL    HW237764   2.287   1.429  14.941 -1.4375 -1.0933 -1.5698
 8768SOL     OW37765   2.061   1.119   1.690 -0.1165  0.0052  0.0967
 8768SOL    HW137766   2.116   1.041   1.679 -0.4063 -0.0446 -1.0076
 8768SOL    HW237767   2.011   1.113   1.609 -1.8960  0.1097  1.1957
 8769SOL     OW37768   1.054   1.479   6.787 -0.3034  0.0384 -0.2734
 8769SOL    HW137769   1.127   1.429   6.824  0.1378 -0.0823 -1.3029
 8769SOL    HW237770   1.035   1.420   6.714  0.7768  0.3810 -0.8383
 8770SOL     OW37771   3.102   4.404   7.859  0.2111  0.6704 -0.6024
 8770SOL    HW137772   3.118   4.489   7.817  0.1242  0.9290 -0.1101
 8770SOL    HW237773   3.184   4.396   7.908 -0.4649 -1.8441  0.0730
 8771SOL     OW37774   4.114   1.010  10.867  0.7884 -0.2497 -0.3060
 8771SOL    HW137775   4.086   0.993  10.777  0.6652  0.5016 -0.4070
 8771SOL    HW237776   4.201   1.050  10.863  2.6520 -4.3495 -1.0103
 8772SOL     OW37777   0.456   4.092   8.380  0.4744 -0.2728 -0.1304
 8772SOL    HW137778   0.493   4.038   8.449 -0.2812 -0.5627  0.0428
 8772SOL    HW237779   0.533   4.091   8.323  1.6012  0.4598  1.3844
 8773SOL     OW37780   3.822   2.020   8.106  0.6337 -0.2510  0.4972
 8773SOL    HW137781   3.891   2.079   8.074 -1.9772  1.8962 -1.2004
 8773SOL    HW237782   3.763   2.022   8.031  1.4652 -0.8502 -0.1685
 8774SOL     OW37783   4.599   0.909   5.643 -0.0899 -0.3495  0.4254
 8774SOL    HW137784   4.607   0.874   5.731  0.4265 -1.4047 -0.0420
 8774SOL    HW237785   4.511   0.878   5.622 -0.5291  1.3754 -0.2984
 8775SOL     OW37786   1.256   1.957   4.371 -0.2460  0.6535 -0.8244
 8775SOL    HW137787   1.183   2.007   4.406 -0.5131  0.4186 -1.0379
 8775SOL    HW237788   1.271   1.985   4.280  1.6306  1.8137 -0.1559
 8776SOL     OW37789   3.800   3.048  11.091  0.2726  0.5032  0.0906
 8776SOL    HW137790   3.743   2.972  11.078 -1.3241  1.5820  0.8844
 8776SOL    HW237791   3.734   3.116  11.097 -2.1712 -1.9634  1.1943
 8777SOL     OW37792   2.811   0.214   5.506  0.0869 -0.0965  0.3895
 8777SOL    HW137793   2.828   0.185   5.416 -1.9964 -1.9260  0.5711
 8777SOL    HW237794   2.889   0.176   5.547  0.0575  0.6455  1.1140
 8778SOL     OW37795   3.265   4.064   3.369  0.9248 -0.3861 -0.0674
 8778SOL    HW137796   3.235   4.141   3.321  0.7145 -0.6096 -0.2986
 8778SOL    HW237797   3.194   4.064   3.433 -0.5206  3.3378 -1.6937
 8779SOL     OW37798   1.040   3.408  10.634 -0.3175  0.1465  0.2259
 8779SOL    HW137799   1.121   3.364  10.608  0.2538  1.3748 -0.0729
 8779SOL    HW237800   0.990   3.328  10.621  1.1703 -0.9050  1.0893
 8780SOL     OW37801   4.070   2.680   2.254  0.6012  0.0332  0.8611
 8780SOL    HW137802   4.116   2.665   2.336  0.7087 -1.2252  0.5752
 8780SOL    HW237803   3.987   2.633   2.265  0.3236  0.6646  1.4374
 8781SOL     OW37804   4.293   2.132   5.443 -0.5177 -0.1098 -0.5434
 8781SOL    HW137805   4.275   2.165   5.531  0.9011 -0.2597 -0.1900
 8781SOL    HW237806   4.243   2.051   5.435 -0.8838 -0.0016  0.6673
 8782SOL     OW37807   1.447   1.885   1.902  0.4029 -0.2811  0.1017
 8782SOL    HW137808   1.408   1.798   1.899  0.8677 -0.4623 -0.7309
 8782SOL    HW237809   1.413   1.915   1.817 -0.7114 -0.8566  0.3420
 8783SOL     OW37810   3.197   1.711   5.787  0.2340  0.5591 -0.5039
 8783SOL    HW137811   3.210   1.622   5.753  0.9781  0.9087 -1.1265
 8783SOL    HW237812   3.103   1.707   5.807 -0.3179  1.6234 -2.9036
 8784SOL     OW37813   1.474   2.850  15.636 -0.0398  0.3386 -0.5718
 8784SOL    HW137814   1.423   2.793  15.579 -1.0016  0.4651  0.1555
 8784SOL    HW237815   1.548   2.791  15.651  0.4309  1.2145  0.6138
 8785SOL     OW37816   1.289   1.220   3.233  0.0914  0.1566 -0.2015
 8785SOL    HW137817   1.279   1.206   3.139  0.6900  0.9253 -0.3838
 8785SOL    HW237818   1.378   1.256   3.237 -0.0770  0.6178 -0.6742
 8786SOL     OW37819   0.124   0.490   7.182  0.3028 -0.0217 -0.0943
 8786SOL    HW137820   0.203   0.472   7.130  0.7463 -3.5081  1.7495
 8786SOL    HW237821   0.103   0.397   7.194  0.0585  0.0288 -0.1483
 8787SOL     OW37822   3.806   3.078   6.677 -0.2103  0.7880 -0.5192
 8787SOL    HW137823   3.869   3.064   6.607  0.0435 -1.0172  0.0725
 8787SOL    HW237824   3.850   3.033   6.748 -1.8486 -3.1137 -1.9463
 8788SOL     OW37825   2.008   1.731   4.902 -0.2167  0.3100  0.1858
 8788SOL    HW137826   1.980   1.716   4.992 -0.6395 -2.3911 -0.4071
 8788SOL    HW237827   1.928   1.755   4.856 -0.7668 -0.7874  0.5632
 8789SOL     OW37828   3.204   0.792  14.495  0.2464  0.0827 -0.3210
 8789SOL    HW137829   3.270   0.806  14.428 -1.0652 -1.2446 -1.9060
 8789SOL    HW237830   3.274   0.769  14.555  0.3923 -1.6887 -1.1673
 8790SOL     OW37831   0.487   0.011   7.733 -0.0941 -0.6020 -0.0822
 8790SOL    HW137832   0.469   4.675   7.661  0.7219 -2.5148  1.3361
 8790SOL    HW237833   0.484   4.675   7.806  1.5583  1.1018  1.3893
 8791SOL     OW37834   4.201   3.950   6.515  0.8606 -0.3161  0.0333
 8791SOL    HW137835   4.221   3.918   6.428 -1.4838  2.4817 -1.5567
 8791SOL    HW237836   4.131   4.011   6.493  0.2991 -0.5868  1.0378
 8792SOL     OW37837   1.726   1.695  15.095 -0.0734  0.1967 -0.3445
 8792SOL    HW137838   1.719   1.638  15.019 -0.3368 -0.3005  0.0537
 8792SOL    HW237839   1.664   1.755  15.053 -0.4942  0.0371  0.0532
 8793SOL     OW37840   3.521   3.532   9.430  0.0297 -0.7513  0.2192
 8793SOL    HW137841   3.521   3.574   9.344 -2.7921  0.1962  0.6575
 8793SOL    HW237842   3.574   3.454   9.417 -1.3210 -1.5552 -0.5054
 8794SOL     OW37843   4.114   3.271   0.860 -0.3147 -0.3903  0.2860
 8794SOL    HW137844   4.055   3.321   0.916  0.5353 -1.7309  2.3873
 8794SOL    HW237845   4.120   3.333   0.788 -2.2935 -0.2185  0.2795
 8795SOL     OW37846   3.561   0.705   3.809 -0.7337  0.1066 -0.6159
 8795SOL    HW137847   3.617   0.765   3.759  1.3791  0.4125  2.1266
 8795SOL    HW237848   3.526   0.643   3.745  0.0368  0.3048 -1.2335
 8796SOL     OW37849   2.895   2.491   1.040 -0.6199 -0.0426 -0.7638
 8796SOL    HW137850   2.874   2.539   0.960 -1.4960  0.0807 -0.4513
 8796SOL    HW237851   2.906   2.400   1.011 -1.5776  0.0941 -1.5335
 8797SOL     OW37852   3.321   3.508   6.512  0.0305 -0.4625  0.2095
 8797SOL    HW137853   3.235   3.521   6.473  0.0190 -0.0133  0.3851
 8797SOL    HW237854   3.375   3.509   6.433 -0.4578  0.4053 -0.1118
 8798SOL     OW37855   1.275   0.603   7.499  0.4568  0.8974  0.2509
 8798SOL    HW137856   1.270   0.509   7.482  2.5413  1.0075 -0.9447
 8798SOL    HW237857   1.347   0.596   7.563  1.3938 -2.0057 -1.1438
 8799SOL     OW37858   2.291   0.367   2.891 -0.8450  0.1047 -0.0099
 8799SOL    HW137859   2.198   0.346   2.891 -0.7003 -0.6475  3.8709
 8799SOL    HW237860   2.313   0.338   2.802  0.7246 -2.1829  1.1037
 8800SOL     OW37861   0.055   1.553   5.870  0.5747 -0.4245 -0.2040
 8800SOL    HW137862   0.040   1.499   5.793  1.5224 -1.0221  0.0188
 8800SOL    HW237863   0.020   1.640   5.849 -3.0825 -1.5751  1.1223
 8801SOL     OW37864   0.995   4.075   5.962  0.1703 -0.5457 -0.0063
 8801SOL    HW137865   1.010   4.161   5.923  0.3281  0.2604  1.8197
 8801SOL    HW237866   1.062   4.022   5.919  1.4644  1.5760 -0.6115
 8802SOL     OW37867   4.360   0.924  11.511  0.2874 -0.2715 -0.0238
 8802SOL    HW137868   4.370   0.868  11.434  0.5841 -0.0620 -0.1382
 8802SOL    HW237869   4.267   0.903  11.524  0.4401 -1.1353 -0.3377
 8803SOL     OW37870   1.535   3.173  10.504  0.6026  0.3413 -0.2487
 8803SOL    HW137871   1.558   3.214  10.587 -0.4656 -2.3873  1.3605
 8803SOL    HW237872   1.579   3.088  10.512  0.0953  0.3365  2.4387
 8804SOL     OW37873   4.054   4.095   4.373  0.2436  0.2957  0.0653
 8804SOL    HW137874   4.087   4.005   4.369  2.4219  1.1191  0.0378
 8804SOL    HW237875   4.088   4.129   4.290 -1.0342  0.4485 -0.3993
 8805SOL     OW37876   0.612   3.663   2.106  0.0186 -0.0427  0.6959
 8805SOL    HW137877   0.600   3.666   2.011 -0.9658  1.0509  0.8514
 8805SOL    HW237878   0.575   3.747   2.131 -1.9782 -0.5163 -0.6225
 8806SOL     OW37879   1.368   4.096   1.418  0.4488 -0.8224  0.2449
 8806SOL    HW137880   1.349   4.158   1.347  2.1096  1.9188  2.2051
 8806SOL    HW237881   1.341   4.147   1.494  2.0517 -0.0801  0.3211
 8807SOL     OW37882   1.108   0.551   8.908 -0.0591 -0.8451  0.1790
 8807SOL    HW137883   1.030   0.607   8.911 -0.7180 -1.8479  1.7603
 8807SOL    HW237884   1.074   0.470   8.870 -0.1437 -1.6675  1.9958
 8808SOL     OW37885   2.952   0.223   7.205 -0.1374 -0.1975  0.7776
 8808SOL    HW137886   3.040   0.191   7.187  0.5280  2.0097  0.1595
 8808SOL    HW237887   2.969   0.315   7.224  0.2667 -0.3335  1.0794
 8809SOL     OW37888   1.866   0.141   4.572 -0.0751 -0.3254 -0.2998
 8809SOL    HW137889   1.939   0.082   4.591  1.3220  0.3901 -3.5361
 8809SOL    HW237890   1.896   0.232   4.576 -0.2792 -0.2874  0.4702
 8810SOL     OW37891   3.283   2.233   4.180 -0.1431 -0.0504 -0.3990
 8810SOL    HW137892   3.265   2.243   4.087 -2.4967  2.3395  0.3099
 8810SOL    HW237893   3.379   2.225   4.174 -0.0577 -0.4975  1.4504
 8811SOL     OW37894   1.149   4.451   2.843 -0.3491  0.1843 -0.2080
 8811SOL    HW137895   1.185   4.428   2.757  2.3642 -1.8778  1.4805
 8811SOL    HW237896   1.105   4.368   2.861 -0.0838  0.1485  0.2796
 8812SOL     OW37897   3.022   1.972   0.090 -0.0284  0.0214 -0.3392
 8812SOL    HW137898   2.981   1.888   0.110 -1.6259  0.4682 -1.6502
 8812SOL    HW237899   3.070   1.935   0.016 -1.5050 -0.9766 -0.7975
 8813SOL     OW37900   0.350   2.617  15.746  0.3351  0.4925  0.3155
 8813SOL    HW137901   0.303   2.700  15.744 -1.3522 -0.4013  3.0046
 8813SOL    HW237902   0.442   2.630  15.771  0.0346  0.5511  1.3959
 8814SOL     OW37903   3.139   1.602  12.177  0.6711  0.6454 -0.6434
 8814SOL    HW137904   3.073   1.566  12.236  0.3736  2.9396  0.4136
 8814SOL    HW237905   3.142   1.532  12.112 -0.9674  0.2706 -0.3085
 8815SOL     OW37906   3.166   4.128   2.709  0.1402 -0.5425  0.3083
 8815SOL    HW137907   3.099   4.183   2.668  0.1108 -0.4307  0.5094
 8815SOL    HW237908   3.156   4.044   2.662 -0.1910 -0.8952  1.0057
 8816SOL     OW37909   0.082   4.528   3.720  0.6184  0.9023  0.1453
 8816SOL    HW137910   0.124   4.477   3.790 -1.5474 -1.0173  0.0632
 8816SOL    HW237911   4.716   4.532   3.750  0.2224  1.6975 -1.1705
 8817SOL     OW37912   2.939   3.006   4.385  0.7283 -0.1241 -0.1793
 8817SOL    HW137913   2.861   3.021   4.332 -0.0799 -0.9352  0.7770
 8817SOL    HW237914   2.936   3.080   4.446 -2.2531 -0.1457 -0.3289
 8818SOL     OW37915   4.140   1.115   6.175  0.1211  0.1630 -0.1794
 8818SOL    HW137916   4.206   1.046   6.175  0.6415  0.6624  0.0895
 8818SOL    HW237917   4.072   1.072   6.228  1.5312  0.6855  2.0337
 8819SOL     OW37918   1.801   2.018   7.014 -0.2382  0.2194  0.5941
 8819SOL    HW137919   1.874   2.077   6.995 -0.0380  0.3414  1.7235
 8819SOL    HW237920   1.744   2.045   6.942  0.7965  3.6489  1.0349
 8820SOL     OW37921   4.423   2.470   4.739  0.4541 -0.1959  0.2016
 8820SOL    HW137922   4.385   2.436   4.658 -2.1061  0.5246  1.0891
 8820SOL    HW237923   4.349   2.494   4.796  0.9006  2.2306 -0.2537
 8821SOL     OW37924   3.774   0.965   4.804  0.4598  0.1936 -0.2090
 8821SOL    HW137925   3.845   0.954   4.740 -0.8874 -1.5841 -1.3993
 8821SOL    HW237926   3.805   1.045   4.846 -0.4782  2.4680 -3.8607
 8822SOL     OW37927   0.401   0.244   5.642 -0.2614  0.1526 -0.0535
 8822SOL    HW137928   0.435   0.321   5.688  1.4442 -2.1453  2.5542
 8822SOL    HW237929   0.477   0.186   5.637  0.6174  1.4871 -2.0217
 8823SOL     OW37930   2.857   3.195   4.577  0.8376 -0.2542  0.1771
 8823SOL    HW137931   2.856   3.271   4.636 -1.5196  0.5951 -0.9412
 8823SOL    HW237932   2.767   3.201   4.543  0.9939 -0.6043 -0.2916
 8824SOL     OW37933   2.254   0.357   3.612  0.0930 -0.6084  0.1315
 8824SOL    HW137934   2.340   0.398   3.615  0.2582 -0.9584  0.1929
 8824SOL    HW237935   2.212   0.435   3.575  1.0761 -1.3343 -2.4909
 8825SOL     OW37936   3.985   0.964   4.630 -0.1522  0.1711 -0.1141
 8825SOL    HW137937   4.063   0.910   4.643  0.5186  0.9406 -0.9423
 8825SOL    HW237938   4.005   1.012   4.549 -1.4253  1.6457  0.4402
 8826SOL     OW37939   1.343   0.770  16.576 -0.3574 -0.1090  0.1371
 8826SOL    HW137940   1.268   0.806  16.529 -2.3396 -2.9813  1.1426
 8826SOL    HW237941   1.365   0.689  16.531  1.6700 -0.4183  1.6824
 8827SOL     OW37942   3.211   2.446   4.626  0.0510  0.5027 -0.0472
 8827SOL    HW137943   3.129   2.491   4.609  0.5982  1.1188 -1.1062
 8827SOL    HW237944   3.255   2.466   4.543 -0.6871  1.1965 -0.2678
 8828SOL     OW37945   1.579   2.154   3.909  0.5261 -0.4009  0.9247
 8828SOL    HW137946   1.667   2.163   3.872 -0.3932 -0.1437 -1.2050
 8828SOL    HW237947   1.528   2.119   3.836 -0.7462  0.7023  1.3077
 8829SOL     OW37948   0.269   2.608  11.310  0.3369  0.1917  0.0307
 8829SOL    HW137949   0.176   2.596  11.326  0.2982 -1.0225 -1.1228
 8829SOL    HW237950   0.279   2.691  11.357  2.2864  0.3342 -0.6093
 8830SOL     OW37951   2.626   4.485   1.654  0.0109  0.4177 -0.1676
 8830SOL    HW137952   2.625   4.437   1.737  0.6909  2.6142  1.0984
 8830SOL    HW237953   2.662   4.418   1.595  0.2021 -0.2610  0.7054
 8831SOL     OW37954   3.336   2.237   7.091  0.1843 -0.2830 -0.1898
 8831SOL    HW137955   3.313   2.298   7.020 -1.0677 -0.2759  0.2222
 8831SOL    HW237956   3.379   2.307   7.141  2.0212 -1.0377 -0.6975
 8832SOL     OW37957   0.104   3.615   2.853 -0.1367  0.1299 -0.5704
 8832SOL    HW137958   0.108   3.668   2.933  1.3514  0.9530 -1.1977
 8832SOL    HW237959   0.028   3.645   2.803  0.0331  1.3150 -0.1255
 8833SOL     OW37960   1.579   3.839  15.491  0.6096 -0.4226 -0.1145
 8833SOL    HW137961   1.516   3.769  15.509 -1.5126  1.6064  0.3474
 8833SOL    HW237962   1.530   3.921  15.495 -0.3344 -0.9921 -0.0274
 8834SOL     OW37963   2.850   3.011   7.300  0.2013  0.0841 -0.3226
 8834SOL    HW137964   2.823   2.975   7.215  1.4803 -0.5771 -0.4466
 8834SOL    HW237965   2.943   3.032   7.298  0.0655  0.6803 -0.2188
 8835SOL     OW37966   0.619   3.104  11.190 -0.1458 -0.3648 -0.4238
 8835SOL    HW137967   0.692   3.132  11.135  0.7800  0.5171  1.2409
 8835SOL    HW237968   0.670   3.076  11.266 -1.0272  1.1709  0.7496
 8836SOL     OW37969   2.874   4.498  11.239  0.2583  0.1797 -0.5948
 8836SOL    HW137970   2.956   4.457  11.267  0.2757  0.2661 -0.5224
 8836SOL    HW237971   2.812   4.432  11.270  1.1036 -0.3437 -0.0225
 8837SOL     OW37972   3.816   1.005   6.092  0.1266  0.1071  0.3067
 8837SOL    HW137973   3.729   0.994   6.130  0.1761  0.1946  0.4478
 8837SOL    HW237974   3.867   0.948   6.149  3.0390 -0.6487 -3.0515
 8838SOL     OW37975   2.182   1.463   9.110  0.3298  0.3496  0.2066
 8838SOL    HW137976   2.105   1.416   9.141  0.2433  1.3021  1.4285
 8838SOL    HW237977   2.139   1.536   9.065  1.0170  0.6015 -0.0340
 8839SOL     OW37978   2.652   1.220  15.466  0.2310 -0.1161  0.8740
 8839SOL    HW137979   2.725   1.172  15.503  1.1050  0.0806 -0.5995
 8839SOL    HW237980   2.664   1.307  15.503 -0.2456 -0.3133  1.5038
 8840SOL     OW37981   2.891   4.466   6.859  0.2742 -0.0084 -0.4997
 8840SOL    HW137982   2.875   4.560   6.850  2.0195  0.4781  1.5036
 8840SOL    HW237983   2.852   4.437   6.776 -3.1490 -0.9050  1.4162
 8841SOL     OW37984   0.632   4.545  16.058  0.1079 -0.1630  0.0406
 8841SOL    HW137985   0.574   4.543  16.134  1.3496 -1.1284  0.9576
 8841SOL    HW237986   0.603   4.475  16.000  0.2112 -0.6831  0.6179
 8842SOL     OW37987   3.528   0.423   4.415  0.6317 -0.2992 -0.1785
 8842SOL    HW137988   3.587   0.435   4.341 -0.4562 -0.5860 -1.0875
 8842SOL    HW237989   3.463   0.493   4.403  0.4250 -0.3374  0.7005
 8843SOL     OW37990   0.525   2.464   1.239 -0.2812 -0.4879 -0.0164
 8843SOL    HW137991   0.558   2.499   1.322 -2.0816 -0.6748  0.7807
 8843SOL    HW237992   0.442   2.430   1.271 -0.8850  1.6514  0.6677
 8844SOL     OW37993   2.274   0.183   6.213  0.6115  0.2517  0.0469
 8844SOL    HW137994   2.331   0.226   6.150 -1.9226  0.4746 -2.1025
 8844SOL    HW237995   2.295   0.092   6.192  0.9805 -0.1648  2.2465
 8845SOL     OW37996   2.830   2.603   8.231 -0.0763 -0.6870 -0.0305
 8845SOL    HW137997   2.925   2.588   8.229  0.2908  1.1728  3.1350
 8845SOL    HW237998   2.830   2.652   8.149 -0.0717 -0.2139  0.2549
 8846SOL     OW37999   1.398   4.157   9.947 -0.0657  0.1648  0.2051
 8846SOL    HW138000   1.349   4.075   9.941 -1.1190  0.6560  2.0561
 8846SOL    HW238001   1.486   4.123   9.958  0.2561  1.6998  2.5199
 8847SOL     OW38002   0.702   0.798  10.704 -0.4621 -0.3234 -0.0118
 8847SOL    HW138003   0.703   0.743  10.782  0.1880 -0.9068 -0.4378
 8847SOL    HW238004   0.643   0.867  10.734  0.2008 -1.0707  3.0424
 8848SOL     OW38005   3.778   3.998   6.291 -0.1419  0.6149  0.3424
 8848SOL    HW138006   3.792   3.927   6.354  1.3565 -0.6745 -1.4636
 8848SOL    HW238007   3.743   3.948   6.217  3.1312 -1.8084  0.4656
 8849SOL     OW38008   0.825   1.974  13.871 -0.5071  0.2116 -0.3830
 8849SOL    HW138009   0.872   1.892  13.857 -0.7631  0.6524 -4.0203
 8849SOL    HW238010   0.904   2.024  13.893 -0.1758 -0.5478  0.1414
 8850SOL     OW38011   2.796   3.790   4.874 -0.0908 -0.1658  0.2085
 8850SOL    HW138012   2.717   3.795   4.928 -2.7225 -0.5417 -3.6470
 8850SOL    HW238013   2.858   3.747   4.933  0.6629 -0.9431 -1.1620
 8851SOL     OW38014   3.322   1.476   6.513 -0.1884 -0.4524  0.2465
 8851SOL    HW138015   3.393   1.534   6.542  0.1030  0.2381 -1.8094
 8851SOL    HW238016   3.352   1.453   6.425  0.4588  2.4800 -0.2924
 8852SOL     OW38017   0.394   2.063  10.135 -1.0379 -0.3100  1.2751
 8852SOL    HW138018   0.442   1.987  10.167 -0.5445 -0.4880  0.1117
 8852SOL    HW238019   0.463   2.124  10.108  0.1241 -1.7791  0.9334
 8853SOL     OW38020   0.467   3.988   6.684 -0.0329 -0.0940  0.1382
 8853SOL    HW138021   0.373   4.005   6.689  0.0500  0.4207 -0.0680
 8853SOL    HW238022   0.471   3.897   6.654 -2.1401 -0.2107  0.2131
 8854SOL     OW38023   2.732   3.236  12.662  0.2737 -0.0742 -0.3282
 8854SOL    HW138024   2.802   3.191  12.615 -0.7101 -1.4444 -0.4645
 8854SOL    HW238025   2.789   3.274  12.729  2.2528 -0.2168 -1.9316
 8855SOL     OW38026   3.455   0.434   4.945  0.4870  0.0542 -0.2220
 8855SOL    HW138027   3.539   0.476   4.959  1.5937 -2.0845 -0.4448
 8855SOL    HW238028   3.443   0.386   5.027 -1.1557  0.4187 -0.2498
 8856SOL     OW38029   3.487   3.007   3.478  0.0356  0.8819  0.4688
 8856SOL    HW138030   3.556   3.055   3.431 -1.2100  1.2523 -0.9994
 8856SOL    HW238031   3.526   2.985   3.562  1.2729  0.3512 -0.2447
 8857SOL     OW38032   2.255   1.164   4.355 -0.2007 -0.0727  0.1512
 8857SOL    HW138033   2.178   1.220   4.343 -0.2749 -0.1681  0.1813
 8857SOL    HW238034   2.219   1.116   4.430  0.1993  0.5217  0.7227
 8858SOL     OW38035   1.402   3.860   1.972 -0.2218 -0.1202  0.6820
 8858SOL    HW138036   1.421   3.887   2.062 -0.0655  0.8411  0.3537
 8858SOL    HW238037   1.307   3.867   1.972 -0.3241 -1.5640 -0.3874
 8859SOL     OW38038   0.296   1.505  12.396 -0.1384  0.4207 -0.0262
 8859SOL    HW138039   0.224   1.466  12.346 -0.0943  1.1358 -0.6558
 8859SOL    HW238040   0.338   1.551  12.323  0.0221  0.6224  0.1942
 8860SOL     OW38041   0.931   0.388  12.376  0.2874 -0.7896  0.0923
 8860SOL    HW138042   0.837   0.378  12.394 -0.2687  1.2507 -1.6648
 8860SOL    HW238043   0.959   0.300  12.352  0.2499 -0.8751  0.3611
 8861SOL     OW38044   1.920   4.043  14.713 -0.0862 -0.2455  0.4750
 8861SOL    HW138045   1.955   4.049  14.802  0.5590 -3.3934  0.4299
 8861SOL    HW238046   1.970   3.962  14.702 -0.4248 -0.4151  0.2061
 8862SOL     OW38047   1.251   4.675   7.572 -0.1834  0.4064 -0.4522
 8862SOL    HW138048   1.319   4.700   7.634  0.4366  0.5681 -1.2005
 8862SOL    HW238049   1.294   4.679   7.487 -1.2162 -1.4076 -1.0588
 8863SOL     OW38050   4.194   3.024   9.714 -0.0270 -0.1434 -0.4194
 8863SOL    HW138051   4.145   2.983   9.642  0.7925  1.0085 -1.6338
 8863SOL    HW238052   4.253   3.084   9.669  1.4871 -1.9557 -0.9051
 8864SOL     OW38053   2.780   3.636   2.549  0.2424 -0.0241  0.4549
 8864SOL    HW138054   2.768   3.547   2.582  1.8717 -0.4647 -0.1355
 8864SOL    HW238055   2.768   3.618   2.456 -1.3617 -0.1734  0.6943
 8865SOL     OW38056   0.173   4.171   4.329  0.7852 -0.0707 -0.3584
 8865SOL    HW138057   0.168   4.174   4.424  0.1975  0.8542 -0.4108
 8865SOL    HW238058   0.246   4.111   4.314  0.3166 -0.6479 -0.3060
 8866SOL     OW38059   1.912   3.665   1.855 -0.2575  0.0447 -0.2323
 8866SOL    HW138060   1.822   3.698   1.861 -0.6586 -1.3154  1.1024
 8866SOL    HW238061   1.962   3.747   1.854 -2.0476  1.1123 -1.7019
 8867SOL     OW38062   2.962   2.191   3.439 -0.1612  0.0591 -0.0522
 8867SOL    HW138063   2.938   2.098   3.446 -1.6210  0.4709  0.4952
 8867SOL    HW238064   2.964   2.211   3.345 -0.7015 -0.2414 -0.1291
 8868SOL     OW38065   4.432   2.793   6.570  0.4563  0.3331  0.3067
 8868SOL    HW138066   4.484   2.799   6.651 -1.4453  2.1453  1.4047
 8868SOL    HW238067   4.360   2.852   6.593 -0.6477 -2.0050  2.8543
 8869SOL     OW38068   0.123   0.506   5.271 -0.0844 -0.5005 -0.0255
 8869SOL    HW138069   0.165   0.432   5.228  2.4023  0.8485  0.0673
 8869SOL    HW238070   0.159   0.495   5.359 -1.5268  0.2160  0.6524
 8870SOL     OW38071   1.691   3.655   0.042  0.7561  0.4768 -0.1936
 8870SOL    HW138072   1.746   3.691  17.672  0.0373 -1.7139 -1.8750
 8870SOL    HW238073   1.623   3.722   0.051  0.3657 -0.1384  1.4442
 8871SOL     OW38074   0.580   3.841   4.327 -0.0583  0.4891  0.0214
 8871SOL    HW138075   0.643   3.876   4.390  1.6151  0.0383 -1.4271
 8871SOL    HW238076   0.591   3.748   4.346 -0.9407  0.3221 -0.2919
 8872SOL     OW38077   0.501   4.498  16.674  0.4452 -0.0889 -0.0563
 8872SOL    HW138078   0.525   4.560  16.605  0.4829 -0.1094 -0.0620
 8872SOL    HW238079   0.406   4.500  16.663  0.3416  0.9247  1.0643
 8873SOL     OW38080   2.046   0.669  11.044 -0.1679 -0.5437 -0.1709
 8873SOL    HW138081   1.997   0.664  10.962  0.7940  2.2281 -0.9011
 8873SOL    HW238082   2.041   0.764  11.052 -0.6471 -0.6700  1.0609
 8874SOL     OW38083   2.979   2.611   3.904 -0.2634  0.0092  0.4562
 8874SOL    HW138084   2.939   2.527   3.926  0.3785 -0.7106 -1.1547
 8874SOL    HW238085   2.904   2.666   3.879 -1.1208 -0.3734  2.1787
 8875SOL     OW38086   2.984   1.653   4.205  0.0412 -0.0242 -0.3449
 8875SOL    HW138087   3.014   1.645   4.296  0.5503 -1.0619 -0.6032
 8875SOL    HW238088   3.045   1.605   4.149 -3.1498 -1.3954 -2.6372
 8876SOL     OW38089   2.791   2.208   6.717  0.3015  0.0910 -0.1867
 8876SOL    HW138090   2.836   2.131   6.684 -1.1368 -0.6937 -0.2856
 8876SOL    HW238091   2.764   2.255   6.638  0.6511 -3.6006 -2.4786
 8877SOL     OW38092   3.567   3.737   6.309 -0.0899 -0.3096 -0.5183
 8877SOL    HW138093   3.614   3.744   6.392  0.1928 -1.0701 -0.6057
 8877SOL    HW238094   3.550   3.643   6.319  1.0897 -0.2870  1.7008
 8878SOL     OW38095   3.486   0.003  16.373 -0.2740  0.3837 -0.2330
 8878SOL    HW138096   3.563   4.712  16.428 -0.8090 -1.8086 -0.1000
 8878SOL    HW238097   3.432   4.650  16.382 -1.1111  1.5165  4.8433
 8879SOL     OW38098   3.702   0.702  15.109 -0.4036 -0.5468  0.1254
 8879SOL    HW138099   3.650   0.776  15.140  2.2219  0.6270  1.7436
 8879SOL    HW238100   3.637   0.641  15.073  0.9867 -1.0829 -1.4694
 8880SOL     OW38101   4.369   3.176   9.578  0.2980  0.0764  0.0406
 8880SOL    HW138102   4.363   3.213   9.490  2.4206 -0.7471 -0.4726
 8880SOL    HW238103   4.385   3.260   9.622  0.1500  0.9812 -1.6446
 8881SOL     OW38104   0.443   2.816  10.509 -0.2653 -0.0973 -0.4563
 8881SOL    HW138105   0.428   2.843  10.600  1.5497 -1.1538  0.1677
 8881SOL    HW238106   0.394   2.734  10.513 -0.8381  0.2304 -0.6962
 8882SOL     OW38107   3.435   3.851   8.437  0.4731  0.3106  0.2044
 8882SOL    HW138108   3.388   3.770   8.414 -1.2172  1.1095  0.8137
 8882SOL    HW238109   3.402   3.917   8.375  0.8207  3.3693  3.2750
 8883SOL     OW38110   2.490   3.417   3.347 -0.6561  0.1540 -0.1814
 8883SOL    HW138111   2.411   3.381   3.388  0.4000 -1.5956  0.3258
 8883SOL    HW238112   2.546   3.342   3.369  1.3187  1.7674  0.3208
 8884SOL     OW38113   3.515   0.301   7.669  0.8603 -0.0058  0.4258
 8884SOL    HW138114   3.497   0.395   7.679 -0.1099  0.0044 -1.4143
 8884SOL    HW238115   3.459   0.273   7.742  0.3689 -0.2138 -0.0270
 8885SOL     OW38116   1.169   2.697   1.510 -0.2018 -0.1996  0.7706
 8885SOL    HW138117   1.088   2.650   1.493 -1.0224  0.7645  2.1061
 8885SOL    HW238118   1.227   2.633   1.551 -1.1004 -1.4537  0.0825
 8886SOL     OW38119   0.045   1.636   7.849 -0.4768 -0.2529  0.0979
 8886SOL    HW138120   0.025   1.652   7.757 -0.3895 -0.8778 -0.0272
 8886SOL    HW238121   4.682   1.657   7.882 -1.3060 -0.2646 -2.0609
 8887SOL     OW38122   2.982   0.439  11.218 -0.7909 -0.5737 -1.3450
 8887SOL    HW138123   2.890   0.429  11.194 -1.7472  1.1828  1.6086
 8887SOL    HW238124   3.022   0.401  11.140 -0.1118 -0.5461 -1.0143
 8888SOL     OW38125   2.943   1.658   8.825 -0.1323 -0.0581 -0.1167
 8888SOL    HW138126   2.902   1.580   8.862  0.2679 -0.0379  0.3579
 8888SOL    HW238127   3.016   1.674   8.884 -1.1494  1.1137  0.8154
 8889SOL     OW38128   4.102   2.944  15.152  0.4303 -0.0658  0.3084
 8889SOL    HW138129   4.181   2.964  15.102  0.0436  0.1455 -0.2081
 8889SOL    HW238130   4.125   2.961  15.244 -0.4500 -2.6254  1.0094
 8890SOL     OW38131   1.786   2.637   4.305 -0.1900 -0.0292  0.1820
 8890SOL    HW138132   1.693   2.633   4.329 -0.3959 -1.5971 -0.8831
 8890SOL    HW238133   1.808   2.560   4.357  0.5119 -0.5556 -0.8914
 8891SOL     OW38134   1.803   4.488   6.124  0.4108 -0.0940 -0.0604
 8891SOL    HW138135   1.724   4.440   6.098 -0.7683  0.3425  2.6040
 8891SOL    HW238136   1.868   4.456   6.062  0.6928 -1.8771  1.1430
 8892SOL     OW38137   1.482   2.195   8.730 -0.2150 -0.2551  0.2074
 8892SOL    HW138138   1.478   2.245   8.649 -0.3379 -0.1296  0.2911
 8892SOL    HW238139   1.433   2.249   8.793 -2.1828 -2.3523  0.4765
 8893SOL     OW38140   0.562   2.681   6.951 -0.4454  0.0565  0.0530
 8893SOL    HW138141   0.568   2.631   6.869 -0.5710 -0.6598  0.4842
 8893SOL    HW238142   0.467   2.687   6.951 -0.3290  1.6935 -0.5195
 8894SOL     OW38143   3.760   1.853   2.124  0.1547  0.2553  0.5742
 8894SOL    HW138144   3.771   1.759   2.135  0.0132  0.2597  0.7443
 8894SOL    HW238145   3.836   1.857   2.067 -0.7439  1.4129 -0.5372
 8895SOL     OW38146   0.639   3.150   3.105 -0.4204  0.3867 -0.6122
 8895SOL    HW138147   0.734   3.154   3.099 -0.3685 -1.4310 -0.9539
 8895SOL    HW238148   0.624   3.192   3.190 -1.1035 -1.8698  0.3973
 8896SOL     OW38149   0.356   1.655   3.897 -0.5348  0.2022 -0.1836
 8896SOL    HW138150   0.404   1.687   3.973  0.2715 -0.0518 -0.5874
 8896SOL    HW238151   0.420   1.694   3.838  0.3613  0.1426  0.7588
 8897SOL     OW38152   0.178   4.159   9.881 -0.1369  0.3779 -0.2256
 8897SOL    HW138153   0.128   4.192   9.956 -0.3887  2.1705 -1.1933
 8897SOL    HW238154   0.165   4.065   9.891  0.7262  0.3945  1.1994
 8898SOL     OW38155   4.701   2.532  10.423  0.0686  0.1203 -0.2651
 8898SOL    HW138156   0.018   2.592  10.361  0.3071 -0.5387 -0.7411
 8898SOL    HW238157   4.607   2.531  10.402  0.6156  1.5778 -2.8199
 8899SOL     OW38158   3.800   4.004   7.450  0.7924  0.1799  0.3898
 8899SOL    HW138159   3.771   4.001   7.542  1.2531 -0.5715  0.5111
 8899SOL    HW238160   3.836   4.092   7.444  1.1981 -0.0698 -0.7347
 8900SOL     OW38161   2.455   1.556   3.953 -0.5605 -0.0246  0.3698
 8900SOL    HW138162   2.359   1.564   3.955 -0.5156  0.3957  0.8239
 8900SOL    HW238163   2.484   1.630   3.900  0.9844 -0.5528  0.4745
 8901SOL     OW38164   0.958   4.148   7.286 -0.0567  0.1008 -0.8704
 8901SOL    HW138165   0.874   4.123   7.247 -0.7655 -0.8900  1.2569
 8901SOL    HW238166   0.924   4.214   7.346 -1.3709 -0.4518 -1.0010
 8902SOL     OW38167   0.387   2.401   5.786 -0.2972 -0.5437 -0.4952
 8902SOL    HW138168   0.319   2.466   5.801 -0.9811 -0.6654 -3.1305
 8902SOL    HW238169   0.461   2.460   5.803 -0.2037 -0.2546 -1.9497
 8903SOL     OW38170   3.021   4.678   4.383  0.1426 -0.1589  0.3397
 8903SOL    HW138171   3.078   4.664   4.308 -0.1156 -0.6065  0.2281
 8903SOL    HW238172   2.991   4.588   4.399 -1.3336  0.3843  0.6000
 8904SOL     OW38173   3.273   4.254  14.337  0.0955  0.4264  0.4113
 8904SOL    HW138174   3.348   4.194  14.339 -1.6395 -1.7477 -0.7296
 8904SOL    HW238175   3.288   4.305  14.417 -1.5780 -0.9675  1.6237
 8905SOL     OW38176   1.323   2.926  14.938  0.1304  0.2856 -0.2075
 8905SOL    HW138177   1.325   3.019  14.960 -0.6721  0.4288 -0.7346
 8905SOL    HW238178   1.379   2.944  14.862  0.7418 -2.3349 -0.3843
 8906SOL     OW38179   1.043   2.400   9.264 -0.2876 -0.2462  1.1690
 8906SOL    HW138180   0.978   2.329   9.268 -0.3190 -0.3824 -1.6892
 8906SOL    HW238181   1.085   2.383   9.180 -2.9072 -1.4772  0.0959
 8907SOL     OW38182   2.889   2.575  15.602 -0.1826 -0.1626  0.3555
 8907SOL    HW138183   2.883   2.483  15.628 -2.1453 -0.0301  0.3847
 8907SOL    HW238184   2.888   2.621  15.686  0.0231  1.5640 -0.5749
 8908SOL     OW38185   4.677   0.331   1.518 -0.1089  0.9890 -0.5562
 8908SOL    HW138186   0.043   0.339   1.490  0.3442  0.5658  0.8028
 8908SOL    HW238187   4.683   0.353   1.611  2.3909 -3.2229  0.3098
 8909SOL     OW38188   0.149   4.707   7.530 -0.2568 -0.1253  0.1238
 8909SOL    HW138189   0.244   4.721   7.534 -0.3387  0.2560  0.7749
 8909SOL    HW238190   0.137   4.657   7.449 -1.7693 -0.1271  0.3481
 8910SOL     OW38191   3.359   2.528   7.929 -0.7265  0.1678 -0.0771
 8910SOL    HW138192   3.340   2.463   7.997  0.4380 -0.4234 -0.3195
 8910SOL    HW238193   3.437   2.492   7.888 -0.6211  1.5497 -1.0978
 8911SOL     OW38194   4.117   3.679   2.981 -0.0401  0.3065  0.0270
 8911SOL    HW138195   4.199   3.704   3.024 -0.3583  0.9772  0.2417
 8911SOL    HW238196   4.114   3.742   2.908  1.8122 -0.3876 -0.6403
 8912SOL     OW38197   2.044   4.003   4.798 -0.0470 -0.3075  0.1703
 8912SOL    HW138198   2.138   4.002   4.782 -0.2435  1.7882 -1.1743
 8912SOL    HW238199   2.011   3.993   4.709 -1.9317  2.5154  0.5438
 8913SOL     OW38200   3.993   2.942   0.908  0.4576 -0.0307  1.1535
 8913SOL    HW138201   3.933   2.956   0.981  0.6164  1.2582  1.0341
 8913SOL    HW238202   4.076   2.981   0.936  0.7134  0.0272  0.3074
 8914SOL     OW38203   2.310   1.888   8.665 -0.1796  0.0184 -0.1350
 8914SOL    HW138204   2.337   1.823   8.731 -0.4734  1.8148  1.7445
 8914SOL    HW238205   2.266   1.833   8.600  1.9393 -0.7843 -0.8880
 8915SOL     OW38206   0.991   3.950   3.174  0.4243 -0.1606 -0.0569
 8915SOL    HW138207   0.933   3.944   3.250  1.0366 -3.6398  0.1032
 8915SOL    HW238208   1.011   4.044   3.182 -1.3870  0.2406 -0.2376
 8916SOL     OW38209   1.474   4.377  10.077 -0.5910 -0.1141  0.3648
 8916SOL    HW138210   1.561   4.344  10.057 -1.0916 -0.7218 -0.8195
 8916SOL    HW238211   1.425   4.298  10.056  1.3180 -1.2785  0.3487
 8917SOL     OW38212   4.714   2.083   2.590 -0.0405 -0.2605  0.0136
 8917SOL    HW138213   4.664   2.105   2.669 -0.3959  0.2276 -0.3510
 8917SOL    HW238214   0.045   2.160   2.586 -0.9627  0.5589  3.1277
 8918SOL     OW38215   1.607   2.489   2.440 -0.0018  0.0402  0.4128
 8918SOL    HW138216   1.587   2.570   2.394 -2.2918 -0.5948  0.2896
 8918SOL    HW238217   1.646   2.444   2.365  0.4919 -0.0338  0.7127
 8919SOL     OW38218   3.960   4.638   1.045  0.1699 -0.6994 -0.3260
 8919SOL    HW138219   3.952   4.557   1.094 -0.0477 -0.1221  0.5826
 8919SOL    HW238220   4.055   4.637   1.038  0.0851 -1.5908 -1.3672
 8920SOL     OW38221   0.573   1.244  11.692 -0.2322  0.0754 -0.0033
 8920SOL    HW138222   0.502   1.227  11.629 -0.0420 -0.8203  0.0157
 8920SOL    HW238223   0.646   1.205  11.644  0.2728 -2.9313  3.2408
 8921SOL     OW38224   4.588   3.543   4.493 -0.3824  0.1009  0.1640
 8921SOL    HW138225   4.678   3.570   4.477 -1.2832  2.4660 -0.8912
 8921SOL    HW238226   4.586   3.536   4.589  1.1699  0.6667  0.2431
 8922SOL     OW38227   2.297   0.769  15.431 -0.5241 -0.5367 -0.3652
 8922SOL    HW138228   2.353   0.844  15.412 -0.2573 -0.9131 -1.0662
 8922SOL    HW238229   2.214   0.791  15.391 -0.3083  2.2124  0.7242
 8923SOL     OW38230   0.860   2.096   2.254 -0.6466  0.1699 -0.9149
 8923SOL    HW138231   0.903   2.178   2.277 -1.3245  0.0090  0.8893
 8923SOL    HW238232   0.791   2.127   2.194  0.1573  1.0892 -1.3711
 8924SOL     OW38233   0.963   3.872   4.014  0.3829  0.0910  0.6242
 8924SOL    HW138234   0.896   3.847   3.950 -1.5895  0.9211  2.3977
 8924SOL    HW238235   0.981   3.788   4.057 -1.2380  0.6766  2.4074
 8925SOL     OW38236   2.791   2.283   9.765  0.7055  0.1148  0.0789
 8925SOL    HW138237   2.845   2.230   9.825  0.2209 -0.5218 -0.0556
 8925SOL    HW238238   2.863   2.293   9.702  1.1770  3.0879  1.1026
 8926SOL     OW38239   2.739   2.620   6.906 -0.2411  0.0564  0.2262
 8926SOL    HW138240   2.800   2.569   6.852  0.8586  1.2427  0.3487
 8926SOL    HW238241   2.743   2.553   6.975  2.2022  0.5657  0.5762
 8927SOL     OW38242   2.933   0.633   8.590  0.4009 -0.3330 -0.4142
 8927SOL    HW138243   2.995   0.560   8.597 -0.6476 -1.3661 -1.9692
 8927SOL    HW238244   2.865   0.594   8.535 -0.2322 -0.6484  0.6107
 8928SOL     OW38245   4.563   0.376   0.484 -0.5727  0.3155  0.0632
 8928SOL    HW138246   4.554   0.454   0.429 -1.7984  0.5584  0.6104
 8928SOL    HW238247   4.593   0.310   0.422  0.0827 -0.9716  1.7494
 8929SOL     OW38248   3.183   1.874   9.029 -0.2405  0.2755  0.0207
 8929SOL    HW138249   3.117   1.943   9.021 -0.6568 -0.1663 -0.3622
 8929SOL    HW238250   3.186   1.866   9.124 -3.2588 -1.4288 -0.0532
 8930SOL     OW38251   0.893   3.861   1.747  0.6055  0.6144  0.2141
 8930SOL    HW138252   0.942   3.944   1.748 -0.5361  1.2627  1.1371
 8930SOL    HW238253   0.933   3.812   1.675 -0.4295  0.4370 -0.2406
 8931SOL     OW38254   3.489   0.057   9.843  0.0833 -0.3917  0.5896
 8931SOL    HW138255   3.531   4.705   9.882 -1.7487 -1.4871  0.3975
 8931SOL    HW238256   3.482   0.116   9.918  0.6110 -3.2716  2.9264
 8932SOL     OW38257   0.888   4.063   7.702  0.0063 -0.5353 -0.1668
 8932SOL    HW138258   0.927   4.116   7.772 -0.0508  2.3476 -2.3132
 8932SOL    HW238259   0.958   4.004   7.676 -0.5260 -0.4170 -1.8750
 8933SOL     OW38260   3.737   3.354  15.950 -0.2359 -0.8517 -0.0298
 8933SOL    HW138261   3.654   3.399  15.937 -0.1890 -1.3062 -1.9613
 8933SOL    HW238262   3.792   3.422  15.988 -1.1053 -0.6044  0.7803
 8934SOL     OW38263   3.992   2.097   4.889  0.4144  0.3769 -0.1539
 8934SOL    HW138264   3.980   2.167   4.952  1.1456  0.2388  0.1396
 8934SOL    HW238265   4.082   2.066   4.902  0.3741  1.0155  1.6747
 8935SOL     OW38266   1.653   4.581   2.670  0.2812  0.5713  0.1162
 8935SOL    HW138267   1.700   4.639   2.611 -0.8610 -0.7528 -2.0998
 8935SOL    HW238268   1.569   4.596   2.626  0.9143  0.7156 -1.0358
 8936SOL     OW38269   3.783   4.488   6.472 -0.0224  0.4623 -0.0588
 8936SOL    HW138270   3.870   4.521   6.449 -0.3483  0.7751 -0.8399
 8936SOL    HW238271   3.746   4.569   6.508  1.6389  0.0133  2.6606
 8937SOL     OW38272   4.130   3.201   7.420  0.1652  0.2293  0.3976
 8937SOL    HW138273   4.193   3.152   7.472 -0.1100 -0.9040 -0.3481
 8937SOL    HW238274   4.182   3.277   7.394 -1.2259 -0.0058 -3.0423
 8938SOL     OW38275   3.419   2.741  13.532  0.5084 -0.1769  0.3383
 8938SOL    HW138276   3.430   2.657  13.577  0.0949 -0.5359 -0.2343
 8938SOL    HW238277   3.337   2.728  13.483  1.3803 -2.2717 -0.5928
 8939SOL     OW38278   3.394   3.227  17.353  0.0504 -0.3912  0.7627
 8939SOL    HW138279   3.450   3.171  17.299 -0.2278  0.6133 -0.5561
 8939SOL    HW238280   3.389   3.310  17.306  1.6606 -1.0769 -0.5718
 8940SOL     OW38281   0.131   3.476   8.159 -0.2967 -0.2305  0.7073
 8940SOL    HW138282   0.128   3.571   8.164 -1.0438 -0.3898  3.2280
 8940SOL    HW238283   0.126   3.450   8.251  0.4909 -1.5532  0.3818
 8941SOL     OW38284   3.791   3.338   7.166  0.1929 -0.2363 -0.0051
 8941SOL    HW138285   3.828   3.371   7.248 -0.0484 -2.4018  0.9818
 8941SOL    HW238286   3.775   3.415   7.111 -0.4323  0.0990  0.6318
 8942SOL     OW38287   2.209   0.456  17.680 -0.5389 -0.1282  0.1045
 8942SOL    HW138288   2.170   0.376  17.644 -2.3961  0.3874  0.9687
 8942SOL    HW238289   2.168   0.534  17.643 -0.5221 -0.9665 -1.6624
 8943SOL     OW38290   3.104   0.533   3.866  0.2997 -0.0781 -0.1200
 8943SOL    HW138291   3.062   0.510   3.949  1.2212  1.3229  0.7223
 8943SOL    HW238292   3.044   0.488   3.806 -1.2291 -0.3948  1.6594
 8944SOL     OW38293   2.025   4.171   3.701  0.2480  0.0570 -0.0746
 8944SOL    HW138294   2.102   4.117   3.680 -0.2156 -1.0749  1.1567
 8944SOL    HW238295   1.973   4.103   3.744  0.5006  0.4214  0.8116
 8945SOL     OW38296   4.544   2.039  13.336  0.3004 -0.0351 -0.1823
 8945SOL    HW138297   4.513   2.017  13.248  1.7470 -1.8648 -0.2400
 8945SOL    HW238298   4.488   1.985  13.393  1.8656  1.3464  2.6278
 8946SOL     OW38299   1.847   3.458   6.084 -0.1609 -0.2867  0.5238
 8946SOL    HW138300   1.806   3.521   6.143  0.1626 -0.1238  0.5740
 8946SOL    HW238301   1.829   3.491   5.996  1.1661 -0.0078  0.3600
 8947SOL     OW38302   2.090   4.578   1.565  0.6087 -0.0182  0.1035
 8947SOL    HW138303   2.102   4.524   1.643  0.3655  1.4318  1.1411
 8947SOL    HW238304   2.108   4.518   1.493  1.4484  0.4381 -0.0681
 8948SOL     OW38305   3.461   2.312   7.712  0.0023  0.5921 -0.2231
 8948SOL    HW138306   3.540   2.365   7.711 -0.5081  1.3280 -0.8233
 8948SOL    HW238307   3.420   2.316   7.626 -0.1023  1.0938 -0.1460
 8949SOL     OW38308   3.905   4.060   5.709 -0.2337  0.0150 -0.0297
 8949SOL    HW138309   3.825   4.078   5.659 -0.9878 -2.0042  0.4589
 8949SOL    HW238310   3.921   3.968   5.689 -0.0544  0.1913 -0.7030
 8950SOL     OW38311   3.770   1.006   3.996  0.4449  0.3043 -0.2029
 8950SOL    HW138312   3.839   1.072   3.985  1.3246 -0.4960  0.4804
 8950SOL    HW238313   3.722   1.031   3.918 -2.1793 -0.6590  1.0926
 8951SOL     OW38314   1.158   4.296   0.787  0.3685 -0.1445  0.5826
 8951SOL    HW138315   1.225   4.235   0.755 -1.3019 -2.0339  0.7463
 8951SOL    HW238316   1.199   4.382   0.795 -0.2062  0.2459 -0.7552
 8952SOL     OW38317   3.181   1.844   3.921  0.0318 -0.0638 -0.0455
 8952SOL    HW138318   3.259   1.789   3.929 -0.7679 -1.0084  1.2108
 8952SOL    HW238319   3.120   1.771   3.914  3.0598 -2.6980  0.8903
 8953SOL     OW38320   1.078   3.693  13.747 -0.1661 -0.1714  0.3800
 8953SOL    HW138321   1.099   3.786  13.748 -0.8358 -0.0336  0.9342
 8953SOL    HW238322   0.992   3.693  13.788 -0.5552  0.2438 -0.4445
 8954SOL     OW38323   0.742   3.284  14.164 -0.4416 -0.3906  0.4829
 8954SOL    HW138324   0.703   3.202  14.195 -2.0653  0.6492  1.1869
 8954SOL    HW238325   0.836   3.268  14.159 -0.5469 -0.5624 -0.9223
 8955SOL     OW38326   1.305   1.412   4.413 -0.1759  0.3472  0.0975
 8955SOL    HW138327   1.310   1.503   4.442  0.3353 -0.0472  1.2738
 8955SOL    HW238328   1.387   1.393   4.368 -0.6282  1.6304 -1.2496
 8956SOL     OW38329   2.046   2.328   5.404  0.0733 -0.3758 -0.1778
 8956SOL    HW138330   2.071   2.236   5.397 -0.3580 -0.6659  1.9442
 8956SOL    HW238331   1.992   2.333   5.326  1.9127 -0.2472 -1.4547
 8957SOL     OW38332   1.295   3.665   2.670 -0.3431 -0.0504 -0.0866
 8957SOL    HW138333   1.327   3.596   2.612  3.2906  1.6339 -0.0747
 8957SOL    HW238334   1.361   3.663   2.739  0.5054 -0.8900 -0.9172
 8958SOL     OW38335   1.298   3.318   1.355  0.2364 -0.4460 -0.2853
 8958SOL    HW138336   1.373   3.335   1.411 -1.1718  0.0920  1.4382
 8958SOL    HW238337   1.259   3.404   1.342  1.1537 -0.1249 -0.8882
 8959SOL     OW38338   1.422   4.535  13.599  1.0278  0.4849 -0.0119
 8959SOL    HW138339   1.331   4.540  13.628  0.3175  0.2379 -2.2282
 8959SOL    HW238340   1.470   4.541  13.682  2.1133 -0.6087 -0.5585
 8960SOL     OW38341   3.901   3.416   9.085 -1.1398 -0.5240  0.1513
 8960SOL    HW138342   3.855   3.399   9.003 -1.2714  0.1036  0.0893
 8960SOL    HW238343   3.898   3.512   9.082  1.8319 -0.4203  0.3525
 8961SOL     OW38344   2.805   0.908   2.901  0.3567 -0.2753 -0.0383
 8961SOL    HW138345   2.752   0.846   2.950 -0.0406  1.2394  1.4329
 8961SOL    HW238346   2.795   0.994   2.943  0.7507  0.2562 -1.0213
 8962SOL     OW38347   2.034   3.286   2.881  0.4414 -0.0505  0.4676
 8962SOL    HW138348   1.945   3.294   2.847  1.0718  1.1218 -0.8840
 8962SOL    HW238349   2.018   3.283   2.975 -0.7938  0.6961  0.2744
 8963SOL     OW38350   4.469   2.853   1.290 -0.0881 -0.1000  0.5734
 8963SOL    HW138351   4.547   2.837   1.343 -0.1492 -2.4464 -0.0375
 8963SOL    HW238352   4.425   2.770   1.310  0.6351 -0.7135 -0.3395
 8964SOL     OW38353   4.388   3.426   4.322  0.1755 -0.0281  0.5030
 8964SOL    HW138354   4.432   3.486   4.381 -0.8958  0.9396  0.3152
 8964SOL    HW238355   4.438   3.439   4.242 -1.0756  1.0290 -0.1099
 8965SOL     OW38356   3.483   0.867   5.065 -0.2691  0.1358  0.1034
 8965SOL    HW138357   3.422   0.794   5.074  3.1905 -2.6428  1.1348
 8965SOL    HW238358   3.476   0.897   5.155  1.4674  1.9922 -0.3762
 8966SOL     OW38359   3.578   1.481   3.362  0.1522  0.0685 -0.0715
 8966SOL    HW138360   3.525   1.402   3.346 -0.9378  0.8783 -0.4223
 8966SOL    HW238361   3.663   1.445   3.388  1.6779  0.6428 -4.2589
 8967SOL     OW38362   1.985   3.416  17.299  0.0116  0.1267 -0.2309
 8967SOL    HW138363   2.021   3.428  17.387  2.4760  0.0406 -1.2123
 8967SOL    HW238364   1.912   3.477  17.308 -1.4943 -1.6749 -0.2666
 8968SOL     OW38365   0.241   2.487   3.725  0.2406 -0.1695  0.2082
 8968SOL    HW138366   0.173   2.463   3.662 -0.9938  1.4344  0.9195
 8968SOL    HW238367   0.284   2.558   3.678  0.7153 -0.9506 -0.5281
 8969SOL     OW38368   3.785   2.912   8.796 -0.1135  0.4523 -0.4429
 8969SOL    HW138369   3.844   2.852   8.750  1.4897  0.6796  1.3270
 8969SOL    HW238370   3.704   2.862   8.803  0.5805 -0.2319  2.5074
 8970SOL     OW38371   0.178   2.635   0.355 -0.5262  0.2918  0.2144
 8970SOL    HW138372   0.133   2.719   0.360 -1.1703 -0.0772  0.6671
 8970SOL    HW238373   0.259   2.676   0.386 -0.6511 -0.4644  1.5426
 8971SOL     OW38374   0.607   3.321   7.375  0.0707  0.1045 -0.8355
 8971SOL    HW138375   0.699   3.310   7.351  0.3060  0.7742 -0.2370
 8971SOL    HW238376   0.558   3.255   7.324 -1.2367 -2.1093  3.2403
 8972SOL     OW38377   3.186   3.422   0.802 -0.0308  0.4867  0.2599
 8972SOL    HW138378   3.181   3.337   0.845 -1.3173 -0.5374 -1.8773
 8972SOL    HW238379   3.124   3.476   0.852  1.2002  0.7206  1.5185
 8973SOL     OW38380   1.311   1.353   9.076 -0.0029  0.3450 -0.1101
 8973SOL    HW138381   1.353   1.420   9.022 -1.4539  1.3435  0.0123
 8973SOL    HW238382   1.361   1.349   9.157 -0.0708  0.9588 -0.0448
 8974SOL     OW38383   3.966   0.172   7.467 -0.8643 -0.3720 -0.7416
 8974SOL    HW138384   3.968   0.078   7.450  1.4382 -0.5988  0.8836
 8974SOL    HW238385   3.978   0.201   7.376  0.2523 -0.9530 -0.7766
 8975SOL     OW38386   2.808   3.470   8.732  0.1722  0.3544 -0.2447
 8975SOL    HW138387   2.902   3.462   8.714  0.2787  0.5633  0.2323
 8975SOL    HW238388   2.778   3.485   8.643  0.8241  1.1672 -0.3253
 8976SOL     OW38389   4.255   2.674   5.719  0.5625  0.4636  0.2413
 8976SOL    HW138390   4.224   2.625   5.644 -0.4879  0.7743  0.4774
 8976SOL    HW238391   4.315   2.615   5.766 -1.7911 -1.0472  1.3056
 8977SOL     OW38392   3.290   1.649   3.192 -0.3935 -0.4898 -0.0580
 8977SOL    HW138393   3.324   1.620   3.276  0.0835 -2.0812 -0.8013
 8977SOL    HW238394   3.253   1.735   3.211 -2.0091 -1.6478  2.0236
 8978SOL     OW38395   2.395   0.253  16.736  0.2558  0.1363 -0.2171
 8978SOL    HW138396   2.371   0.346  16.733 -0.3114 -0.0753 -2.3044
 8978SOL    HW238397   2.400   0.248  16.832 -0.2673  1.6847 -0.1144
 8979SOL     OW38398   3.664   3.796   7.190  0.1027  0.0133  0.4711
 8979SOL    HW138399   3.721   3.776   7.264 -0.4455 -0.2679  0.8204
 8979SOL    HW238400   3.720   3.858   7.144 -1.7586 -0.0175 -1.8491
 8980SOL     OW38401   1.735   2.806   3.580 -0.3679  0.3056 -0.1948
 8980SOL    HW138402   1.702   2.729   3.626 -2.4549  1.3929  0.1083
 8980SOL    HW238403   1.826   2.790   3.556 -0.0367 -0.4306  1.5717
 8981SOL     OW38404   1.173   3.242   5.001  0.0765  0.1448  0.7251
 8981SOL    HW138405   1.232   3.174   4.967  0.1754  0.5143  0.1588
 8981SOL    HW238406   1.114   3.180   5.043  0.3850  0.5581  1.7635
 8982SOL     OW38407   1.149   4.515  13.921 -0.2866 -0.4747  0.0118
 8982SOL    HW138408   1.212   4.455  13.880  2.7531  0.6712  3.0010
 8982SOL    HW238409   1.181   4.533  14.009  0.6890 -0.3032 -0.3728
 8983SOL     OW38410   0.957   3.316   5.900 -0.6156  0.2163 -0.3547
 8983SOL    HW138411   0.903   3.391   5.925 -0.1786  0.0405  1.1014
 8983SOL    HW238412   0.936   3.254   5.970 -1.3440  1.2832  0.3569
 8984SOL     OW38413   0.157   3.215   8.082  0.3729  0.3733  0.2245
 8984SOL    HW138414   0.089   3.203   8.016 -2.0167  1.1327  2.5251
 8984SOL    HW238415   0.153   3.310   8.096 -0.9759  0.2678  0.5014
 8985SOL     OW38416   3.432   0.462   6.786  0.4362  0.6009  0.6104
 8985SOL    HW138417   3.513   0.509   6.764  0.7804  0.7997  2.2920
 8985SOL    HW238418   3.362   0.514   6.746 -1.3347  0.0798  2.9982
 8986SOL     OW38419   0.726   3.534   6.537  0.3760  0.2246  0.6111
 8986SOL    HW138420   0.795   3.556   6.475 -1.7568  3.2521 -0.6805
 8986SOL    HW238421   0.660   3.521   6.469 -0.0079 -0.9353  1.2017
 8987SOL     OW38422   3.519   3.593   1.992  0.2402 -0.0032  0.8359
 8987SOL    HW138423   3.450   3.538   1.957  0.9562  1.7120 -3.2761
 8987SOL    HW238424   3.594   3.545   1.957 -0.2358 -0.6080  0.6662
 8988SOL     OW38425   1.820   4.633   3.487  0.4480  0.4743 -0.0398
 8988SOL    HW138426   1.872   4.554   3.496 -0.5932 -0.0553  1.3161
 8988SOL    HW238427   1.739   4.583   3.499  0.6665  0.1027 -0.1176
 8989SOL     OW38428   3.922   1.631  14.058  0.5540 -0.3043  0.3975
 8989SOL    HW138429   3.925   1.551  14.007 -0.5383  0.5631 -1.0438
 8989SOL    HW238430   3.914   1.692  13.985 -3.2163 -0.4804  0.6856
 8990SOL     OW38431   2.700   0.301   9.011  0.3346 -0.1162  0.8073
 8990SOL    HW138432   2.703   0.316   9.105 -0.3092  2.1871  0.4475
 8990SOL    HW238433   2.785   0.258   8.997 -0.0192 -0.8762  0.9991
 8991SOL     OW38434   4.181   3.346  17.654  0.3065  0.2181  0.0630
 8991SOL    HW138435   4.189   3.332   0.048  3.9316 -1.5555 -0.5250
 8991SOL    HW238436   4.159   3.258  17.621  0.0421  0.1114  0.5253
 8992SOL     OW38437   2.908   2.504   5.372 -0.1858 -0.1050 -0.0575
 8992SOL    HW138438   2.841   2.563   5.337  0.9372  0.9154 -0.5202
 8992SOL    HW238439   2.881   2.473   5.458  2.4309  2.3279  1.6647
 8993SOL     OW38440   3.285   0.128  15.871 -0.2130 -0.3803 -0.2729
 8993SOL    HW138441   3.337   0.072  15.813 -3.4836 -1.4730 -2.1110
 8993SOL    HW238442   3.339   0.207  15.875  0.5517 -0.9263  0.1806
 8994SOL     OW38443   3.917   3.566   2.183  0.5629 -0.2648 -0.0790
 8994SOL    HW138444   3.839   3.622   2.186  1.9945  1.8402 -2.2439
 8994SOL    HW238445   3.887   3.502   2.119  0.2181 -0.7441  0.5665
 8995SOL     OW38446   2.139   1.216   9.626 -0.0880  0.2741 -0.2502
 8995SOL    HW138447   2.202   1.255   9.565 -0.0422 -0.4086 -0.6455
 8995SOL    HW238448   2.135   1.272   9.704  1.8745  0.8304 -0.5370
 8996SOL     OW38449   4.122   1.053   3.699  0.4504  0.6659  0.2882
 8996SOL    HW138450   4.179   0.983   3.730  0.1711  0.9358  1.4121
 8996SOL    HW238451   4.061   1.066   3.771 -0.9241  1.7044 -1.0372
 8997SOL     OW38452   1.557   3.030   9.667  0.3657  0.4091  0.4728
 8997SOL    HW138453   1.622   2.960   9.677  0.2432  0.1364 -0.6909
 8997SOL    HW238454   1.506   3.024   9.748 -0.1570  0.8118  0.1694
 8998SOL     OW38455   3.614   3.875  13.436 -0.2396 -0.0491  0.3817
 8998SOL    HW138456   3.532   3.825  13.430  0.0946 -0.5328 -0.2522
 8998SOL    HW238457   3.647   3.851  13.522  3.0873  0.7073 -0.6801
 8999SOL     OW38458   4.217   0.971   7.968  0.0022 -0.3968 -0.4659
 8999SOL    HW138459   4.230   0.915   7.892  3.2980 -1.1517  0.6546
 8999SOL    HW238460   4.166   0.923   8.033 -0.5621  1.1872  0.2849
 9000SOL     OW38461   2.865   1.554  10.054  0.2924  0.1362  0.0007
 9000SOL    HW138462   2.955   1.527  10.035 -0.0577 -2.3373  1.8391
 9000SOL    HW238463   2.886   1.644  10.081 -0.8089  0.2607  0.4352
 9001SOL     OW38464   0.424   1.739   4.884  0.3459 -0.6247 -0.0897
 9001SOL    HW138465   0.360   1.803   4.917 -0.3403 -0.7435 -1.2023
 9001SOL    HW238466   0.502   1.793   4.872 -0.7700  0.8085 -0.9101
 9002SOL     OW38467   1.070   4.663   9.575  0.2479  0.4656 -0.3113
 9002SOL    HW138468   1.129   0.007   9.604 -0.8751  0.1794  2.6087
 9002SOL    HW238469   1.115   4.583   9.602  0.3568 -0.3821 -2.9422
 9003SOL     OW38470   3.163   0.631   9.226 -0.4370  0.9307  0.4708
 9003SOL    HW138471   3.160   0.547   9.181 -1.7767  1.6709 -0.7971
 9003SOL    HW238472   3.253   0.656   9.205  0.1067  0.3400  2.1058
 9004SOL     OW38473   1.962   1.682  14.358 -0.6680  0.2434 -0.1596
 9004SOL    HW138474   1.978   1.683  14.264 -1.5043  0.2105 -0.3042
 9004SOL    HW238475   2.049   1.673  14.397 -0.2310  5.2511  0.0774
 9005SOL     OW38476   3.497   1.760  17.493 -0.4082 -0.0869 -0.3355
 9005SOL    HW138477   3.571   1.819  17.480  0.7292 -1.8654 -1.9905
 9005SOL    HW238478   3.544   1.677  17.486  0.1096  0.2905 -1.4488
 9006SOL     OW38479   1.699   3.050   2.962 -0.1211 -0.1340 -0.4932
 9006SOL    HW138480   1.728   3.128   2.916 -1.0243 -0.2362 -1.2458
 9006SOL    HW238481   1.625   3.016   2.911 -0.7348 -0.7990  0.8226
 9007SOL     OW38482   0.829   0.914   7.708  0.3709  0.0620  0.0381
 9007SOL    HW138483   0.752   0.932   7.654  1.1507  0.4937 -0.9321
 9007SOL    HW238484   0.801   0.911   7.799  0.8240  2.4263  0.2707
 9008SOL     OW38485   3.660   1.480  13.573 -0.2615 -0.5156 -0.0321
 9008SOL    HW138486   3.635   1.563  13.613 -0.3268 -0.2856 -0.5533
 9008SOL    HW238487   3.579   1.457  13.529  0.8080  0.1078 -2.2963
 9009SOL     OW38488   3.298   4.628  14.726  0.2955 -0.8296 -0.1472
 9009SOL    HW138489   3.250   4.628  14.809  0.6994  0.4194  0.0927
 9009SOL    HW238490   3.245   4.698  14.687 -1.7557 -1.8213  0.8692
 9010SOL     OW38491   1.582   3.940  17.564 -0.0145 -0.4903 -0.0828
 9010SOL    HW138492   1.657   3.890  17.531  0.7708 -0.0450  1.0050
 9010SOL    HW238493   1.629   4.001  17.620  0.9537 -0.6848 -0.6818
 9011SOL     OW38494   0.938   0.909   2.173  0.3436  0.3333 -0.4180
 9011SOL    HW138495   0.995   0.968   2.123  0.8655  0.9900  0.9326
 9011SOL    HW238496   0.995   0.837   2.200  0.6092  0.7499  0.1241
 9012SOL     OW38497   0.999   4.301   5.308  0.3400 -0.1651 -0.3980
 9012SOL    HW138498   1.036   4.255   5.384 -0.1642 -2.0215 -1.2757
 9012SOL    HW238499   1.073   4.326   5.253 -0.5353  2.3762 -0.4197
 9013SOL     OW38500   3.121   0.902   9.131  0.2936 -0.2880 -0.3450
 9013SOL    HW138501   3.215   0.922   9.137 -0.2566  3.1194 -3.1091
 9013SOL    HW238502   3.111   0.814   9.167 -0.9693  1.3034  3.1857
 9014SOL     OW38503   2.712   2.857  14.599 -0.1482 -0.6316 -0.2326
 9014SOL    HW138504   2.711   2.905  14.682  0.7299 -2.0721  0.5977
 9014SOL    HW238505   2.683   2.774  14.637 -1.1010  0.4372  1.3682
 9015SOL     OW38506   4.444   0.901  15.744  0.1193 -0.8512 -0.1647
 9015SOL    HW138507   4.357   0.861  15.747 -1.0878  1.9197  1.0457
 9015SOL    HW238508   4.437   0.985  15.788  0.5059  1.1562 -3.9368
 9016SOL     OW38509   3.501   2.029   4.078 -0.1710 -0.2060 -0.3583
 9016SOL    HW138510   3.561   2.058   4.147  0.3516  2.4792 -1.9602
 9016SOL    HW238511   3.552   1.975   4.018 -1.8151 -3.4815  1.1960
 9017SOL     OW38512   4.072   3.046   8.900  0.0152 -0.1733 -0.0826
 9017SOL    HW138513   4.058   2.959   8.863 -1.7646  0.6728 -1.3881
 9017SOL    HW238514   4.003   3.045   8.967  0.2720  1.2344  0.2053
 9018SOL     OW38515   0.165   4.094  11.463 -0.4912  0.0814  0.2894
 9018SOL    HW138516   0.135   4.166  11.407  1.2156 -0.5214 -1.4129
 9018SOL    HW238517   0.254   4.129  11.468 -1.2672  1.9321  1.1344
 9019SOL     OW38518   1.463   2.623   6.259  0.0827  0.0851  0.1107
 9019SOL    HW138519   1.381   2.622   6.309 -0.4305  1.9529 -0.6629
 9019SOL    HW238520   1.532   2.610   6.323  0.6178  1.6619 -0.1585
 9020SOL     OW38521   1.280   1.308   1.998  0.3277  0.1972 -0.4009
 9020SOL    HW138522   1.211   1.343   2.054  0.2730 -1.3774  0.5375
 9020SOL    HW238523   1.251   1.218   1.985  2.2765 -0.2248 -1.9098
 9021SOL     OW38524   3.020   4.205  14.291 -0.1488  0.0193 -0.0218
 9021SOL    HW138525   2.989   4.244  14.372 -2.5239 -0.6627 -0.6192
 9021SOL    HW238526   3.114   4.219  14.303 -0.1890  2.0012 -1.8192
 9022SOL     OW38527   4.160   3.588   2.507  0.4467  0.0661 -0.2475
 9022SOL    HW138528   4.144   3.538   2.587 -0.6159  3.5452  1.7365
 9022SOL    HW238529   4.231   3.644   2.538 -0.9894  1.1920  0.9951
 9023SOL     OW38530   0.187   1.950   0.567 -0.0191 -0.1431 -0.4943
 9023SOL    HW138531   0.140   1.977   0.487 -0.3644  1.8273  0.3741
 9023SOL    HW238532   0.164   2.023   0.624  1.5683  1.0299 -1.3548
 9024SOL     OW38533   3.559   2.821   9.184  0.0256 -0.0392  0.5931
 9024SOL    HW138534   3.533   2.837   9.093  0.8312 -1.4304  0.1142
 9024SOL    HW238535   3.631   2.760   9.168  0.2277  1.0389 -2.5902
 9025SOL     OW38536   0.452   1.346   3.128  0.0239 -0.7947  0.0231
 9025SOL    HW138537   0.539   1.374   3.102  1.2490 -2.4919  2.3533
 9025SOL    HW238538   0.403   1.365   3.047 -0.7635  0.0196  0.6853
 9026SOL     OW38539   3.008   3.213   6.313  0.5090 -0.4184 -0.2255
 9026SOL    HW138540   2.913   3.218   6.321  0.5283  0.7026 -0.7248
 9026SOL    HW238541   3.011   3.235   6.220 -2.2806  1.4644  0.1314
 9027SOL     OW38542   3.354   3.572  13.655  0.1974  0.9599  0.1802
 9027SOL    HW138543   3.361   3.652  13.603 -0.8072  0.4794 -0.6967
 9027SOL    HW238544   3.429   3.584  13.713  1.0810 -0.2543 -0.7267
 9028SOL     OW38545   0.759   0.535   2.658  0.3819 -0.3924 -0.6379
 9028SOL    HW138546   0.848   0.545   2.625  0.2476  1.8674 -0.2808
 9028SOL    HW238547   0.773   0.450   2.700 -1.3717 -0.5501 -0.3861
 9029SOL     OW38548   0.021   3.552   7.590 -0.1869 -0.3870  0.4990
 9029SOL    HW138549   0.105   3.585   7.622  1.3629 -0.5442 -3.2941
 9029SOL    HW238550   0.029   3.463   7.555 -2.0340  0.5320 -2.2677
 9030SOL     OW38551   1.989   4.455  17.452  0.4822  0.2170 -0.2026
 9030SOL    HW138552   2.031   4.425  17.371 -0.3225 -3.1771  0.6668
 9030SOL    HW238553   1.900   4.465  17.417  0.4308 -2.7187 -0.9138
 9031SOL     OW38554   3.450   0.223  14.565 -0.3659 -0.2174  0.3228
 9031SOL    HW138555   3.363   0.221  14.605 -0.6561 -1.2518 -0.3593
 9031SOL    HW238556   3.422   0.224  14.473 -1.4006 -0.1945  0.6350
 9032SOL     OW38557   4.047   3.172   0.422  0.3678 -0.2346  0.1281
 9032SOL    HW138558   4.011   3.260   0.429  0.6923 -0.2718  2.1984
 9032SOL    HW238559   4.009   3.133   0.501  2.2305  0.0364  1.1325
 9033SOL     OW38560   2.821   0.999  17.362  0.4098 -0.6076 -0.5262
 9033SOL    HW138561   2.867   0.976  17.281  1.1345 -1.1059  0.0225
 9033SOL    HW238562   2.878   0.958  17.427  0.0588 -0.4093 -0.0967
 9034SOL     OW38563   0.427   2.640  11.576 -0.0712 -0.0796 -0.4055
 9034SOL    HW138564   0.436   2.546  11.595  2.0399 -0.1331 -1.6002
 9034SOL    HW238565   0.511   2.664  11.536  0.4455  2.0276  1.9782
 9035SOL     OW38566   2.854   4.277   1.047  0.0164 -0.1589 -0.1707
 9035SOL    HW138567   2.930   4.219   1.055 -0.3182 -0.2426  2.3766
 9035SOL    HW238568   2.893   4.344   1.104  1.0657 -0.5111 -0.4626
 9036SOL     OW38569   4.559   0.158   2.639  0.4837 -0.4373 -0.4701
 9036SOL    HW138570   4.503   0.087   2.671 -1.3203  1.1390 -0.1208
 9036SOL    HW238571   4.487   0.220   2.626  0.0753 -0.4689  1.6804
 9037SOL     OW38572   0.555   4.380  15.159  0.0205 -0.1556 -0.1697
 9037SOL    HW138573   0.540   4.442  15.088 -0.4504  1.0206  0.9521
 9037SOL    HW238574   0.648   4.367  15.141  0.4783  1.1111  1.3455
 9038SOL     OW38575   1.809   4.051   0.002 -0.3022  0.5779  0.1406
 9038SOL    HW138576   1.877   3.992   0.035 -2.1049 -0.6625  1.6467
 9038SOL    HW238577   1.865   4.101  17.643 -1.6666  0.9567 -0.8271
 9039SOL     OW38578   1.073   2.167   5.027  0.2238 -0.2758  0.0141
 9039SOL    HW138579   1.079   2.129   5.115 -2.0729  0.4420  0.4862
 9039SOL    HW238580   0.981   2.191   5.035  0.5020  0.4881  0.9308
 9040SOL     OW38581   2.913   2.387   5.980 -0.2217  0.4728 -0.2671
 9040SOL    HW138582   2.931   2.298   6.011 -2.2125  0.5021  1.0015
 9040SOL    HW238583   2.992   2.434   6.007  0.1927  0.8951 -2.2348
 9041SOL     OW38584   4.700   0.605   2.888  0.1308  0.0306  0.0596
 9041SOL    HW138585   4.609   0.589   2.863  0.1190  1.3611 -0.7811
 9041SOL    HW238586   0.018   0.525   2.858  0.4447  0.1805  0.1048
 9042SOL     OW38587   1.785   1.438  14.698  0.7408 -0.0047 -0.2621
 9042SOL    HW138588   1.852   1.388  14.651  2.1354  1.0049  0.6474
 9042SOL    HW238589   1.714   1.438  14.634 -0.5614 -1.2772  1.1795
 9043SOL     OW38590   0.290   3.372   5.108 -0.1951  0.3717  0.2556
 9043SOL    HW138591   0.205   3.376   5.151 -0.5140 -1.3588 -0.2547
 9043SOL    HW238592   0.265   3.344   5.020 -0.0243  1.8769 -0.2791
 9044SOL     OW38593   3.866   3.118   2.054  0.4071  0.9550  0.3218
 9044SOL    HW138594   3.797   3.099   2.118 -0.2635  1.6119 -0.2049
 9044SOL    HW238595   3.876   3.032   2.012 -0.3971 -0.1329  2.3600
 9045SOL     OW38596   2.359   2.437   1.850 -0.2211 -0.1300 -0.0291
 9045SOL    HW138597   2.284   2.471   1.899 -0.8060  0.4826 -1.3781
 9045SOL    HW238598   2.363   2.348   1.886  0.3099 -0.7122 -1.5563
 9046SOL     OW38599   4.010   0.315   4.674 -0.0778  0.4573 -0.2471
 9046SOL    HW138600   4.037   0.266   4.596 -1.4197 -1.4789  0.4988
 9046SOL    HW238601   3.937   0.369   4.640 -2.3055 -1.9028  0.8044
 9047SOL     OW38602   0.591   2.677   3.554 -0.2897 -0.0035 -0.2897
 9047SOL    HW138603   0.611   2.655   3.463 -1.0688  1.7064 -0.8739
 9047SOL    HW238604   0.503   2.715   3.550  0.7710  2.4394 -0.0034
 9048SOL     OW38605   3.884   1.398   6.966 -0.1623 -0.1112 -0.2562
 9048SOL    HW138606   3.826   1.327   6.938 -1.3998  0.1779  1.6156
 9048SOL    HW238607   3.968   1.352   6.970  0.8461  1.7818  0.4429
 9049SOL     OW38608   0.614   0.904   5.952 -0.2104 -0.2577 -0.4855
 9049SOL    HW138609   0.685   0.964   5.976 -1.7467  0.3733  2.4636
 9049SOL    HW238610   0.589   0.934   5.865  1.3781  1.3836 -0.3874
 9050SOL     OW38611   4.510   2.615   7.561  0.1420 -0.0956 -0.2181
 9050SOL    HW138612   4.527   2.529   7.599  1.1418 -0.2933 -1.1008
 9050SOL    HW238613   4.490   2.665   7.640 -3.2907 -1.9374  0.0611
 9051SOL     OW38614   1.736   0.404   5.461 -0.0296  0.7121 -0.1938
 9051SOL    HW138615   1.697   0.433   5.543  1.5255 -1.1802  1.2082
 9051SOL    HW238616   1.658   0.402   5.406  1.2888  0.8619 -2.0870
 9052SOL     OW38617   0.285   0.929  16.863  0.0638 -1.1936  0.2052
 9052SOL    HW138618   0.314   0.838  16.853  0.9308 -0.6915 -1.7668
 9052SOL    HW238619   0.207   0.927  16.807  0.2311  1.3008 -0.0829
 9053SOL     OW38620   0.702   3.130   2.421 -0.0172  0.0276 -0.0421
 9053SOL    HW138621   0.623   3.121   2.474 -0.2999 -2.1204 -0.8383
 9053SOL    HW238622   0.671   3.200   2.364  4.3889  1.5584 -0.5714
 9054SOL     OW38623   2.028   4.301  11.949 -0.6539 -0.2657  0.4935
 9054SOL    HW138624   2.046   4.351  12.028 -0.0688 -0.4247  0.4607
 9054SOL    HW238625   2.046   4.367  11.882  0.6783 -1.0914  0.0306
 9055SOL     OW38626   4.297   4.206   8.435 -0.0595  0.5342  0.4655
 9055SOL    HW138627   4.331   4.120   8.460 -0.7870 -0.7049 -2.9266
 9055SOL    HW238628   4.204   4.187   8.446  0.1533 -1.0795 -0.5699
 9056SOL     OW38629   0.713   1.297   2.702 -0.8288  0.2524 -0.6845
 9056SOL    HW138630   0.798   1.259   2.682 -0.2491  2.2891 -2.1257
 9056SOL    HW238631   0.687   1.339   2.620 -0.8321 -0.2883 -0.9603
 9057SOL     OW38632   2.462   3.322   5.019 -0.0776  0.0426 -0.1820
 9057SOL    HW138633   2.522   3.252   5.043 -0.4064  0.0848  0.7896
 9057SOL    HW238634   2.448   3.368   5.102  1.1140 -1.7532  1.0113
 9058SOL     OW38635   2.483   0.967   5.006  0.1433  0.3048 -0.3480
 9058SOL    HW138636   2.495   0.988   4.913 -0.8917  0.8304 -0.3611
 9058SOL    HW238637   2.429   0.888   4.998  0.1855 -0.2220  4.4832
 9059SOL     OW38638   4.182   3.489   1.215 -0.0376  0.2766 -0.1889
 9059SOL    HW138639   4.106   3.452   1.170 -0.3701 -1.4697  1.8193
 9059SOL    HW238640   4.186   3.423   1.284  0.7222  0.3583 -0.1560
 9060SOL     OW38641   2.384   2.058   2.242  0.0769 -0.1100 -0.7526
 9060SOL    HW138642   2.470   2.021   2.260 -0.0981  0.5739  1.4477
 9060SOL    HW238643   2.334   1.986   2.202 -1.4077  1.2226 -1.3105
 9061SOL     OW38644   0.326   2.778   9.303 -0.0752  0.2485  0.8262
 9061SOL    HW138645   0.329   2.854   9.245  0.1612 -1.0296 -0.8077
 9061SOL    HW238646   0.232   2.760   9.301 -0.0109  0.0907 -0.3811
 9062SOL     OW38647   3.363   3.551   5.616  0.1133  0.3197 -0.1109
 9062SOL    HW138648   3.414   3.622   5.654  2.0350 -1.1948  0.1248
 9062SOL    HW238649   3.345   3.578   5.526  0.5922 -1.7027 -0.8224
 9063SOL     OW38650   2.205   1.326   1.822 -0.0959 -0.1788  0.0040
 9063SOL    HW138651   2.168   1.270   1.753 -0.3573  0.5929 -0.4811
 9063SOL    HW238652   2.204   1.411   1.779  1.9199  0.5222  1.3379
 9064SOL     OW38653   2.906   1.984   6.636  0.0782  0.1475  0.5987
 9064SOL    HW138654   2.966   1.956   6.567 -0.2587  0.4340  0.1919
 9064SOL    HW238655   2.899   1.908   6.694  1.5782 -1.0896 -0.8366
 9065SOL     OW38656   4.100   1.460  16.186  0.2896  0.4779 -0.2155
 9065SOL    HW138657   4.166   1.507  16.237  0.6285 -1.7400  1.3943
 9065SOL    HW238658   4.060   1.414  16.260  3.7590 -2.5115 -0.1712
 9066SOL     OW38659   4.039   3.311   6.333 -0.9700  0.0712  0.4178
 9066SOL    HW138660   4.125   3.340   6.362 -0.5798  0.5055 -1.2139
 9066SOL    HW238661   4.047   3.294   6.239  0.7010 -0.6506  0.7040
 9067SOL     OW38662   1.207   4.532   3.486 -0.2976 -0.0188  0.0196
 9067SOL    HW138663   1.272   4.581   3.436 -0.3551 -1.9898 -1.9569
 9067SOL    HW238664   1.144   4.521   3.415  0.0397 -1.4783 -0.0494
 9068SOL     OW38665   2.900   3.023   5.319 -0.7821 -0.0984  0.0726
 9068SOL    HW138666   2.963   3.035   5.248  0.8655  0.0966  1.5925
 9068SOL    HW238667   2.945   2.960   5.375 -0.1860  0.1130 -0.1721
 9069SOL     OW38668   2.473   1.131  13.798 -0.3710 -0.4996  0.9643
 9069SOL    HW138669   2.470   1.068  13.870  0.8043 -2.0091 -0.3058
 9069SOL    HW238670   2.496   1.089  13.715  0.7617 -1.3786  1.7151
 9070SOL     OW38671   1.954   3.153  12.481 -0.6445  0.8275 -0.2156
 9070SOL    HW138672   1.928   3.245  12.485  2.4357  1.6602  0.2249
 9070SOL    HW238673   1.977   3.143  12.389 -1.0079  1.0080 -0.3274
 9071SOL     OW38674   3.181   3.786   9.140  0.5518 -0.0249  0.0964
 9071SOL    HW138675   3.094   3.782   9.100 -0.6048  1.9912  2.4448
 9071SOL    HW238676   3.178   3.867   9.190 -0.9038 -0.5374  0.8465
 9072SOL     OW38677   1.915   3.285   6.979 -0.5598 -0.1232  0.0312
 9072SOL    HW138678   1.942   3.193   6.981  0.5504  0.1775 -1.7164
 9072SOL    HW238679   1.855   3.296   6.905  1.8040  1.2695 -1.6678
 9073SOL     OW38680   3.816   4.667   2.417  0.3511  0.3209 -0.3591
 9073SOL    HW138681   3.894   4.678   2.471 -0.1442 -2.3204  0.9126
 9073SOL    HW238682   3.792   0.035   2.417  0.4578  0.3535  0.8014
 9074SOL     OW38683   4.575   2.553   8.767 -0.2779  0.5100  0.1028
 9074SOL    HW138684   4.653   2.523   8.812 -0.4921  1.2540  0.9856
 9074SOL    HW238685   4.611   2.567   8.679  0.8127  0.5073  0.5585
 9075SOL     OW38686   1.184   0.380  10.835  0.6881 -0.0125  0.2606
 9075SOL    HW138687   1.165   0.287  10.822 -1.1563  0.0161  2.6286
 9075SOL    HW238688   1.221   0.371  10.923  2.2639 -0.1234 -0.4193
 9076SOL     OW38689   1.376   0.320   6.398  0.0014 -0.1871  0.2311
 9076SOL    HW138690   1.364   0.356   6.310  1.0341  1.9482  0.9605
 9076SOL    HW238691   1.470   0.303   6.397 -0.0215 -0.3016  0.1678
 9077SOL     OW38692   3.037   4.473   8.284  0.2900  0.4458 -0.0457
 9077SOL    HW138693   3.032   4.382   8.255  0.6393  0.7187 -0.9802
 9077SOL    HW238694   2.965   4.514   8.236  1.9564  1.9298 -1.2924
 9078SOL     OW38695   4.241   4.654   5.968  0.0270  0.5403  0.4132
 9078SOL    HW138696   4.206   0.007   5.924 -3.4440 -0.3818  1.5705
 9078SOL    HW238697   4.170   4.590   5.965  0.2758  0.2479  0.7292
 9079SOL     OW38698   4.494   3.798   6.458  0.0627 -0.1083  0.1885
 9079SOL    HW138699   4.473   3.753   6.540 -1.9664 -0.1044 -0.3246
 9079SOL    HW238700   4.470   3.730   6.395 -1.0439 -0.8849  1.4466
 9080SOL     OW38701   3.048   1.150   3.767  0.5083  0.3829  0.3370
 9080SOL    HW138702   3.139   1.158   3.796  0.2941  0.7205  0.9031
 9080SOL    HW238703   3.006   1.207   3.831  0.3867  0.4126  0.2321
 9081SOL     OW38704   1.650   1.812   8.849 -0.1736 -0.1205 -0.3838
 9081SOL    HW138705   1.730   1.790   8.897 -0.3740 -1.9175 -0.8749
 9081SOL    HW238706   1.619   1.886   8.900  0.2442  0.5703 -1.1233
 9082SOL     OW38707   3.485   1.730   4.749 -0.7753  0.1001  0.4132
 9082SOL    HW138708   3.491   1.695   4.838 -0.7713 -0.8259  0.0475
 9082SOL    HW238709   3.477   1.824   4.767  0.4950  0.0199  1.4229
 9083SOL     OW38710   4.477   1.201  10.081  0.2226  0.8142  0.5577
 9083SOL    HW138711   4.550   1.145  10.054 -1.0381 -0.1393 -0.8598
 9083SOL    HW238712   4.521   1.286  10.077  0.3396  0.6351 -1.8650
 9084SOL     OW38713   4.050   3.720   3.906 -0.4275 -0.0565 -0.3123
 9084SOL    HW138714   3.982   3.772   3.863  0.4689  0.4143 -1.1632
 9084SOL    HW238715   3.987   3.692   3.973  1.8483 -0.9789  1.4339
 9085SOL     OW38716   2.274   4.114   1.364 -0.0837 -0.5122  0.3741
 9085SOL    HW138717   2.328   4.117   1.285  0.8109  0.0951  1.0030
 9085SOL    HW238718   2.251   4.022   1.374  2.0636 -0.9386  1.4925
 9086SOL     OW38719   1.306   0.145   8.535  0.1838  0.0901  0.2477
 9086SOL    HW138720   1.253   0.082   8.584 -1.8174  1.2123 -0.4951
 9086SOL    HW238721   1.384   0.152   8.590  0.0699 -0.2723  0.4568
 9087SOL     OW38722   1.064   3.005   9.349  0.6416 -0.2981 -0.6767
 9087SOL    HW138723   1.143   2.971   9.389  1.4562  0.5410 -1.5658
 9087SOL    HW238724   1.095   3.009   9.259  1.5958 -2.0810 -0.4110
 9088SOL     OW38725   0.084   0.138   5.376 -0.5596 -0.2615 -0.1821
 9088SOL    HW138726   4.718   0.144   5.347 -0.4863  2.3086  0.1923
 9088SOL    HW238727   0.080   0.169   5.466  2.8491  3.3838 -1.2629
 9089SOL     OW38728   4.677   2.016   4.003 -0.0068 -0.3310 -0.5521
 9089SOL    HW138729   0.017   1.953   4.033  0.9803  0.8447 -0.2257
 9089SOL    HW238730   4.662   1.988   3.912  1.0046 -1.5686 -0.3317
 9090SOL     OW38731   2.072   1.351  15.097 -0.5449 -0.2215 -0.2199
 9090SOL    HW138732   2.002   1.381  15.039 -0.9220 -0.4670  0.1043
 9090SOL    HW238733   2.103   1.436  15.127  0.5633  0.2640 -2.7557
 9091SOL     OW38734   1.224   0.513   7.193  0.5879 -0.1808  0.1725
 9091SOL    HW138735   1.280   0.590   7.203 -0.9763  0.7077  2.0217
 9091SOL    HW238736   1.283   0.437   7.196  0.3539 -0.4223 -1.3664
 9092SOL     OW38737   3.654   1.187  11.939  0.0883 -0.3077 -0.1257
 9092SOL    HW138738   3.654   1.278  11.968  1.9343 -0.3100 -0.0785
 9092SOL    HW238739   3.719   1.198  11.869  1.6645 -1.8652  1.0922
 9093SOL     OW38740   4.033   4.453  13.262 -0.1544 -0.3366 -0.1478
 9093SOL    HW138741   3.939   4.437  13.267 -0.4691  1.2172 -1.3885
 9093SOL    HW238742   4.035   4.548  13.271  1.1808 -0.3504 -0.2492
 9094SOL     OW38743   0.674   2.369   3.546  0.1413  0.3350  0.1822
 9094SOL    HW138744   0.616   2.357   3.622 -0.8992  0.7181 -0.5448
 9094SOL    HW238745   0.601   2.349   3.488 -0.1899  0.6540  0.4798
 9095SOL     OW38746   1.099   3.258  16.964 -0.1900  0.2103  0.6867
 9095SOL    HW138747   1.111   3.183  16.906 -1.9596  1.5979 -1.4947
 9095SOL    HW238748   1.005   3.252  16.983 -0.6048  0.2360 -1.3621
 9096SOL     OW38749   3.121   4.002   3.977 -0.3168 -0.1047 -0.2682
 9096SOL    HW138750   3.037   4.028   3.940 -0.7306  0.5339  1.1153
 9096SOL    HW238751   3.180   4.011   3.902 -0.4162 -3.4563 -0.7910
 9097SOL     OW38752   4.721   3.581   3.691  0.1642 -0.3038  0.3951
 9097SOL    HW138753   0.057   3.609   3.623  0.1050 -0.3820  0.3097
 9097SOL    HW238754   4.657   3.652   3.686  0.0590 -0.3023  1.7693
 9098SOL     OW38755   1.493   1.469   9.557 -0.3314 -0.6180  0.2612
 9098SOL    HW138756   1.418   1.497   9.609  1.6141  0.0468  2.6643
 9098SOL    HW238757   1.533   1.555   9.548 -0.9011 -0.1922  1.7815
 9099SOL     OW38758   0.073   2.346   8.688 -0.0466 -0.3942  0.0190
 9099SOL    HW138759   0.144   2.410   8.685  1.7254 -2.3437  0.3710
 9099SOL    HW238760   0.082   2.303   8.604 -0.2259 -1.6496  0.6470
 9100SOL     OW38761   3.714   2.571   9.209  0.1544  0.4961  0.0023
 9100SOL    HW138762   3.697   2.478   9.191 -2.4117  1.1180 -0.8848
 9100SOL    HW238763   3.694   2.572   9.302  0.8413  0.6953  0.1432
 9101SOL     OW38764   2.098   2.961  11.389  0.0886  0.2200 -0.0031
 9101SOL    HW138765   2.118   3.035  11.332 -1.3565  0.7889  0.2367
 9101SOL    HW238766   2.003   2.961  11.393  0.1087 -1.1727  0.4521
 9102SOL     OW38767   3.254   3.764   2.740 -0.2417  0.1424  0.3021
 9102SOL    HW138768   3.313   3.689   2.728 -1.1071 -0.1610 -2.1198
 9102SOL    HW238769   3.195   3.734   2.809 -0.7989  0.0531 -0.2166
 9103SOL     OW38770   4.704   1.311   8.509 -0.2163 -0.4286  0.6845
 9103SOL    HW138771   4.706   1.406   8.506 -0.3199 -0.4333  0.4350
 9103SOL    HW238772   4.628   1.288   8.562 -0.2108 -0.1179  0.8239
 9104SOL     OW38773   0.339   0.654   5.426 -0.2977 -0.3494 -0.4535
 9104SOL    HW138774   0.317   0.578   5.480  2.3322 -0.9030 -0.1669
 9104SOL    HW238775   0.254   0.697   5.417 -0.3696 -0.5741 -0.8507
 9105SOL     OW38776   1.795   0.891  10.753 -0.2734  0.6265  0.1196
 9105SOL    HW138777   1.717   0.854  10.712  1.4317 -2.4307 -0.3442
 9105SOL    HW238778   1.860   0.821  10.749  2.4180  3.0528  1.1866
 9106SOL     OW38779   3.932   0.626  17.698 -0.2659 -1.4087 -0.1004
 9106SOL    HW138780   3.955   0.536  17.677 -0.1594 -1.0965 -1.3253
 9106SOL    HW238781   3.971   0.637   0.085  1.9845 -0.6705 -1.1946
 9107SOL     OW38782   1.638   4.317   8.141  0.3393  0.5745  0.0610
 9107SOL    HW138783   1.634   4.407   8.175  1.7147  0.8227 -0.4317
 9107SOL    HW238784   1.695   4.328   8.065  0.6702 -0.2952  0.1870
 9108SOL     OW38785   0.571   1.301  16.893 -0.8961 -0.1193  0.2380
 9108SOL    HW138786   0.498   1.361  16.904 -0.3237  0.4725  0.7666
 9108SOL    HW238787   0.517   1.238  16.844 -1.3365 -0.3825  1.0652
 9109SOL     OW38788   1.728   3.172  16.670 -0.5781  0.2242  0.2505
 9109SOL    HW138789   1.778   3.239  16.623 -1.3735  1.5641  1.2981
 9109SOL    HW238790   1.718   3.105  16.602  2.1575 -0.3800  0.4642
 9110SOL     OW38791   3.423   3.981   7.009 -0.0542 -0.6524 -0.3957
 9110SOL    HW138792   3.510   3.987   6.968 -1.1500 -0.8255 -2.7700
 9110SOL    HW238793   3.434   3.986   7.104 -2.7480  1.1533 -0.1767
 9111SOL     OW38794   2.250   3.786   7.745  0.4163 -0.0245 -0.0620
 9111SOL    HW138795   2.334   3.827   7.768  0.3417 -1.4870  2.7805
 9111SOL    HW238796   2.211   3.858   7.695  0.2973 -0.4405 -0.5706
 9112SOL     OW38797   4.089   2.532   7.535 -0.0580 -0.2510  0.1247
 9112SOL    HW138798   4.113   2.625   7.539  0.0980 -0.3276  0.8644
 9112SOL    HW238799   4.059   2.522   7.444 -1.5449 -0.1597  0.6129
 9113SOL     OW38800   2.575   4.445   4.154 -0.6759 -0.3228 -0.0626
 9113SOL    HW138801   2.550   4.423   4.064  0.4382  0.1566 -0.4912
 9113SOL    HW238802   2.660   4.481   4.129 -0.8032 -2.1141 -3.1102
 9114SOL     OW38803   0.689   0.375   6.104 -0.2999  0.5955 -0.7605
 9114SOL    HW138804   0.600   0.338   6.103  1.2795 -3.2230  0.1720
 9114SOL    HW238805   0.742   0.295   6.104  1.1528  1.5884 -0.0806
 9115SOL     OW38806   0.908   2.852   6.874  0.0879 -0.1510 -0.2586
 9115SOL    HW138807   0.823   2.881   6.907  0.1261 -0.9135  0.5323
 9115SOL    HW238808   0.892   2.848   6.779  0.0322 -1.1753 -0.2068
 9116SOL     OW38809   1.012   2.772   5.581  0.0714 -0.4330 -0.0782
 9116SOL    HW138810   0.919   2.753   5.567 -0.0180 -1.6222  2.0390
 9116SOL    HW238811   1.009   2.864   5.554  1.7485 -0.1488  0.7206
 9117SOL     OW38812   3.512   1.542   7.103  0.1604  0.6145 -0.3852
 9117SOL    HW138813   3.601   1.507   7.104 -0.2677 -0.4997 -0.6712
 9117SOL    HW238814   3.495   1.511   7.193 -1.1247  0.1769 -0.7745
 9118SOL     OW38815   4.611   0.293   3.259  0.3940  0.1182  0.3734
 9118SOL    HW138816   4.580   0.218   3.309  2.2437 -1.8526 -1.4466
 9118SOL    HW238817   4.704   0.275   3.244  0.7916  0.9919  1.7695
 9119SOL     OW38818   0.681   1.791  14.776 -0.4885 -0.0277 -0.0891
 9119SOL    HW138819   0.603   1.815  14.827  0.2335 -0.1720  1.1049
 9119SOL    HW238820   0.640   1.786  14.690  1.6448 -0.1172 -1.0864
 9120SOL     OW38821   2.240   1.135   6.465  0.5895 -0.4784  0.0945
 9120SOL    HW138822   2.223   1.225   6.491  1.0505 -0.7564  1.3798
 9120SOL    HW238823   2.263   1.096   6.549  2.6358 -1.0462 -0.7232
 9121SOL     OW38824   2.192   1.829   2.526 -0.6284  0.7564  0.0976
 9121SOL    HW138825   2.287   1.817   2.519 -0.4047  1.2296  2.2742
 9121SOL    HW238826   2.179   1.901   2.465 -0.2234  0.0469 -0.8300
 9122SOL     OW38827   3.885   2.294   9.981 -0.1662 -0.3408  0.2549
 9122SOL    HW138828   3.864   2.386   9.996  2.8254  0.5572 -0.9533
 9122SOL    HW238829   3.798   2.269   9.950  0.1593 -0.6379 -0.4397
 9123SOL     OW38830   2.060   3.309  17.075  0.6291 -0.1487  1.3401
 9123SOL    HW138831   2.014   3.363  17.010  0.8712 -0.9981  0.4510
 9123SOL    HW238832   2.028   3.344  17.158 -1.0195  1.9059 -0.1576
 9124SOL     OW38833   2.005   0.525   8.510 -0.1367 -0.4628  0.1551
 9124SOL    HW138834   1.953   0.523   8.591  0.4506  1.2613  0.5808
 9124SOL    HW238835   2.080   0.580   8.534 -0.9282  0.9298 -0.5951
 9125SOL     OW38836   3.595   1.769  16.565 -0.8884  0.5053 -0.3224
 9125SOL    HW138837   3.593   1.680  16.600  3.1477  0.3624 -0.4727
 9125SOL    HW238838   3.501   1.781  16.555 -0.7091  0.8260 -1.6868
 9126SOL     OW38839   2.450   2.566   5.745  0.1474  0.1674  0.0255
 9126SOL    HW138840   2.486   2.477   5.740  2.0022  0.9220 -0.4376
 9126SOL    HW238841   2.421   2.544   5.833  0.1564 -1.0055 -0.2546
 9127SOL     OW38842   2.421   3.842   3.865 -0.1845 -0.1780  0.2484
 9127SOL    HW138843   2.481   3.787   3.916 -0.4898 -1.2836 -0.6192
 9127SOL    HW238844   2.343   3.830   3.919  0.6024 -2.6110  0.8206
 9128SOL     OW38845   1.797   2.505   2.638 -0.3667 -0.5099  0.4040
 9128SOL    HW138846   1.802   2.587   2.688  2.4598 -0.6205  0.3181
 9128SOL    HW238847   1.725   2.512   2.576 -0.8764 -0.7190  0.9744
 9129SOL     OW38848   2.878   1.893  11.079 -0.2374  0.2729 -0.3047
 9129SOL    HW138849   2.811   1.961  11.072 -2.2180 -1.5756  0.6193
 9129SOL    HW238850   2.830   1.815  11.107 -0.4378  1.3137  2.2741
 9130SOL     OW38851   4.552   2.174  10.936  0.5152 -0.3170 -0.4536
 9130SOL    HW138852   4.574   2.217  11.019 -0.7276 -0.0573 -0.2563
 9130SOL    HW238853   4.487   2.107  10.958  0.0438  0.5736  0.9046
 9131SOL     OW38854   1.160   3.818  17.185  0.4846 -0.1863  0.3909
 9131SOL    HW138855   1.171   3.805  17.280 -1.7475  0.2645  0.7063
 9131SOL    HW238856   1.120   3.734  17.163  1.4274 -0.5984  0.2400
 9132SOL     OW38857   3.643   0.334   3.283  0.2034  0.7636  0.2182
 9132SOL    HW138858   3.729   0.357   3.249  0.6069 -0.4139  0.4460
 9132SOL    HW238859   3.646   0.240   3.265  1.1016  0.9688 -0.6646
 9133SOL     OW38860   3.791   1.771   4.278  0.2328 -1.2173 -0.5133
 9133SOL    HW138861   3.704   1.770   4.237 -0.5527 -2.4963  1.1805
 9133SOL    HW238862   3.762   1.772   4.370 -3.0210  0.8444 -1.5328
 9134SOL     OW38863   2.506   1.405   6.691  0.0592  0.8186 -0.1341
 9134SOL    HW138864   2.459   1.338   6.741  0.1445 -0.5345 -1.8897
 9134SOL    HW238865   2.535   1.342   6.626  0.6025  0.0005  0.9009
 9135SOL     OW38866   1.028   1.097  16.325 -0.6003  0.1141  0.1172
 9135SOL    HW138867   1.021   1.189  16.349 -1.8633 -0.0175  0.2722
 9135SOL    HW238868   1.097   1.100  16.258  0.5696 -1.6762  1.2397
 9136SOL     OW38869   2.246   3.024   7.843 -0.3723  0.1201  0.6009
 9136SOL    HW138870   2.191   3.093   7.881 -2.5045 -0.2222 -1.8348
 9136SOL    HW238871   2.331   3.027   7.886  1.6240 -0.3618 -3.3407
 9137SOL     OW38872   1.510   3.803  11.206  0.3063 -0.5242 -0.2347
 9137SOL    HW138873   1.474   3.790  11.294  0.8848  0.8437  0.1916
 9137SOL    HW238874   1.424   3.804  11.164  2.1802 -0.5238 -4.0698
 9138SOL     OW38875   1.322   3.307   7.548 -0.3499 -0.4070 -0.2345
 9138SOL    HW138876   1.308   3.395   7.513  1.9848 -0.3733 -1.1478
 9138SOL    HW238877   1.348   3.258   7.470  1.4407  1.1343 -0.6121
 9139SOL     OW38878   0.528   2.992   5.989 -0.2183 -0.6742  0.0557
 9139SOL    HW138879   0.434   2.994   5.971 -0.8376  1.9857  3.7436
 9139SOL    HW238880   0.530   2.972   6.083 -0.1721  0.2874  0.2507
 9140SOL     OW38881   3.006   3.888   6.214 -0.0763 -0.5290 -0.3367
 9140SOL    HW138882   3.029   3.814   6.157  1.7763 -0.2953  0.0925
 9140SOL    HW238883   2.918   3.856   6.234  0.0366 -2.6474 -3.0847
 9141SOL     OW38884   2.349   4.216   6.205  0.5894 -0.0903 -0.1679
 9141SOL    HW138885   2.441   4.230   6.186  0.4361  1.1506 -0.0532
 9141SOL    HW238886   2.355   4.127   6.239  0.9648  0.4422  1.1992
 9142SOL     OW38887   0.259   2.710   0.999  0.0342  0.4459 -0.1051
 9142SOL    HW138888   0.328   2.736   1.061 -0.7114 -1.1766  1.4170
 9142SOL    HW238889   0.286   2.620   0.981 -0.4981  0.3307 -0.3050
 9143SOL     OW38890   0.418   0.706   7.251 -0.4525 -0.3547 -0.1045
 9143SOL    HW138891   0.425   0.800   7.237  0.3922 -0.4402 -0.2481
 9143SOL    HW238892   0.400   0.709   7.345  0.6234  2.8168 -0.0109
 9144SOL     OW38893   0.842   4.129   2.847 -0.0390  0.8106 -0.1441
 9144SOL    HW138894   0.863   4.078   2.769 -4.0278 -0.1742 -0.5927
 9144SOL    HW238895   0.761   4.082   2.869  0.8297 -0.0367  1.2593
 9145SOL     OW38896   2.609   1.453   5.989  0.4388  0.5327 -0.2332
 9145SOL    HW138897   2.619   1.375   6.044 -0.4189  2.3755  2.4977
 9145SOL    HW238898   2.542   1.498   6.039  1.5823  2.2865 -0.2916
 9146SOL     OW38899   3.073   2.618  14.130 -0.1029 -0.2711 -0.6157
 9146SOL    HW138900   2.978   2.626  14.118 -0.3480 -1.9738  0.1843
 9146SOL    HW238901   3.085   2.542  14.187  1.4631  1.4997  1.4117
 9147SOL     OW38902   3.070   1.127   5.710  0.3511  0.2654 -0.6372
 9147SOL    HW138903   2.995   1.167   5.754  1.8110 -0.3071  2.3602
 9147SOL    HW238904   3.029   1.048   5.675  0.0006 -0.3287  1.1263
 9148SOL     OW38905   4.144   2.842   2.707 -0.1844  0.3244  0.5346
 9148SOL    HW138906   4.105   2.758   2.733  0.0791 -0.1972 -0.7689
 9148SOL    HW238907   4.126   2.831   2.614 -1.2782  2.7500  0.4558
 9149SOL     OW38908   1.056   0.983   7.594  0.1257  0.5564 -0.1699
 9149SOL    HW138909   0.970   0.972   7.633 -0.0242  1.0922 -0.3583
 9149SOL    HW238910   1.101   0.927   7.658  2.1238 -0.5732 -2.5593
 9150SOL     OW38911   1.793   0.807   3.061  0.5488 -0.1680 -0.3594
 9150SOL    HW138912   1.736   0.882   3.043 -1.5312 -0.5352  4.6732
 9150SOL    HW238913   1.876   0.856   3.058 -0.4361  1.5057 -0.4757
 9151SOL     OW38914   2.973   3.082   2.012 -0.1812  0.0282 -0.6977
 9151SOL    HW138915   3.045   3.025   1.985 -0.5149 -0.5588 -0.3297
 9151SOL    HW238916   3.023   3.157   2.044 -1.5546 -0.0234  1.5282
 9152SOL     OW38917   2.214   3.286   8.287  0.1943 -0.1430 -0.0081
 9152SOL    HW138918   2.223   3.193   8.309 -0.5222 -0.0115  0.8831
 9152SOL    HW238919   2.131   3.307   8.331  0.1839  0.0225 -0.1082
 9153SOL     OW38920   1.008   3.579   0.260 -0.6515  0.2515  0.0641
 9153SOL    HW138921   1.002   3.628   0.342 -0.5659  0.0108  0.2155
 9153SOL    HW238922   0.937   3.520   0.284 -0.1360 -1.1566 -1.8571
 9154SOL     OW38923   3.339   3.366   7.672 -0.0710  0.3562 -1.0579
 9154SOL    HW138924   3.258   3.343   7.627 -0.4815  0.9229 -0.6193
 9154SOL    HW238925   3.352   3.451   7.631  0.0913  0.2683 -1.1859
 9155SOL     OW38926   3.959   2.359   9.661 -0.4464  0.1029  0.0190
 9155SOL    HW138927   3.980   2.368   9.754  2.5142 -1.7273 -0.4920
 9155SOL    HW238928   3.871   2.396   9.661 -0.3234  0.3927  0.0394
 9156SOL     OW38929   1.686   2.797  16.206  0.0451 -0.4861 -0.0001
 9156SOL    HW138930   1.645   2.882  16.196 -0.4146 -0.6172  0.7676
 9156SOL    HW238931   1.694   2.800  16.302 -0.5768 -1.9174  0.0975
 9157SOL     OW38932   1.477   1.311   5.535  0.4089  0.3318 -0.0174
 9157SOL    HW138933   1.406   1.374   5.547  0.2348 -0.3367  2.2966
 9157SOL    HW238934   1.511   1.339   5.450  0.2328  2.4278  0.6020
 9158SOL     OW38935   0.547   3.818  17.082 -0.3054 -0.4630 -1.2356
 9158SOL    HW138936   0.551   3.772  17.166 -0.3552  1.4019 -0.2109
 9158SOL    HW238937   0.496   3.895  17.107 -0.9965 -1.3580  0.1377
 9159SOL     OW38938   2.712   4.343   6.656 -0.0322 -0.3292  0.7617
 9159SOL    HW138939   2.779   4.303   6.601  0.5602 -0.3121  1.4884
 9159SOL    HW238940   2.632   4.304   6.620 -0.5212 -0.6341  2.1800
 9160SOL     OW38941   2.502   4.253   8.179  0.2873  0.0273  0.5388
 9160SOL    HW138942   2.463   4.306   8.110 -2.2037 -1.2354  0.9668
 9160SOL    HW238943   2.588   4.234   8.142  0.2227 -0.2433  0.5306
 9161SOL     OW38944   3.099   0.958   7.088  0.2004 -0.0551  0.0626
 9161SOL    HW138945   3.103   1.035   7.144 -1.3469 -1.7959  2.5706
 9161SOL    HW238946   3.135   0.995   7.008 -1.5857  0.1189 -0.6419
 9162SOL     OW38947   1.545   0.472   5.256 -0.3651 -0.8030 -0.1514
 9162SOL    HW138948   1.457   0.471   5.294  0.3705 -2.0271  1.5475
 9162SOL    HW238949   1.528   0.431   5.171 -3.6266 -0.5037  0.3547
 9163SOL     OW38950   3.958   4.303   8.206 -0.3851 -0.0675  0.7995
 9163SOL    HW138951   4.031   4.354   8.243  0.7841 -1.9068  1.0239
 9163SOL    HW238952   3.948   4.230   8.267  2.7167 -1.3336 -0.2122
 9164SOL     OW38953   0.520   0.172   6.488  0.3700  0.2234  0.5446
 9164SOL    HW138954   0.467   0.126   6.552  0.7609 -0.2388  0.5312
 9164SOL    HW238955   0.569   0.231   6.546  2.6098 -1.3393  0.2336
 9165SOL     OW38956   0.232   3.367   9.508  0.1863 -0.5997  0.1070
 9165SOL    HW138957   0.143   3.338   9.526  0.0091  0.2542  0.6052
 9165SOL    HW238958   0.223   3.410   9.423 -1.3956 -3.8924 -1.3550
 9166SOL     OW38959   0.799   1.463   8.270 -0.6313  0.4467  0.3552
 9166SOL    HW138960   0.769   1.406   8.198  2.5231 -0.1922 -0.4420
 9166SOL    HW238961   0.717   1.495   8.308 -0.5351  1.7853 -0.5733
 9167SOL     OW38962   0.660   2.955   3.731 -0.1643  0.8547 -0.0476
 9167SOL    HW138963   0.613   3.029   3.768  1.0786  1.6199 -0.0224
 9167SOL    HW238964   0.623   2.943   3.643  2.0903  3.3915 -1.3165
 9168SOL     OW38965   3.500   0.146   8.250 -0.4517  0.4058 -0.6335
 9168SOL    HW138966   3.425   0.206   8.257 -0.5608  0.1277  0.6050
 9168SOL    HW238967   3.520   0.151   8.156 -0.9355 -0.0477 -0.7651
 9169SOL     OW38968   0.269   2.219   5.545 -0.0710 -0.0082  0.1633
 9169SOL    HW138969   0.190   2.170   5.520 -0.0392 -0.3074  0.6426
 9169SOL    HW238970   0.309   2.239   5.461  0.1198 -0.1723  0.2161
 9170SOL     OW38971   4.589   2.277  12.352  0.0826 -0.0161  0.2728
 9170SOL    HW138972   4.577   2.205  12.290 -0.3589  0.9412 -0.7482
 9170SOL    HW238973   4.684   2.268  12.357 -0.0144 -1.2766 -0.0393
 9171SOL     OW38974   4.553   1.731   9.487  0.4061  0.1507 -0.1324
 9171SOL    HW138975   4.549   1.799   9.420  0.2223  0.2273 -0.0453
 9171SOL    HW238976   4.485   1.670   9.459  0.7335 -0.8885  1.3260
 9172SOL     OW38977   0.905   0.785   6.499 -0.0110 -0.0362 -0.1102
 9172SOL    HW138978   0.974   0.721   6.479 -0.0408 -0.3697  0.8182
 9172SOL    HW238979   0.932   0.829   6.579 -1.4506  0.2787  0.1947
 9173SOL     OW38980   4.405   2.964   1.044  0.3688  0.3126 -0.4569
 9173SOL    HW138981   4.324   3.012   1.060  0.6506  0.3523  0.8134
 9173SOL    HW238982   4.404   2.905   1.119  1.6183 -1.1318 -1.5558
 9174SOL     OW38983   0.542   0.557   8.769  0.5509 -0.0831 -0.6086
 9174SOL    HW138984   0.537   0.618   8.843 -1.7471 -1.8434  0.6941
 9174SOL    HW238985   0.584   0.614   8.705  3.8111 -1.2040  0.5631
 9175SOL     OW38986   2.920   3.596   4.434  0.1317  0.9931  0.0033
 9175SOL    HW138987   2.876   3.645   4.504  0.7622  1.2408  0.2225
 9175SOL    HW238988   2.844   3.550   4.397  0.4197 -0.3201  1.0294
 9176SOL     OW38989   1.764   2.390  10.084 -0.0824 -0.1721  0.5093
 9176SOL    HW138990   1.712   2.347  10.152 -0.8925 -0.7557 -0.4818
 9176SOL    HW238991   1.854   2.376  10.115 -0.5056 -0.2914  1.6921
 9177SOL     OW38992   4.208   1.502   1.574  0.5879 -0.1219 -0.3911
 9177SOL    HW138993   4.277   1.504   1.508 -0.6024  1.4361 -1.6021
 9177SOL    HW238994   4.174   1.412   1.575  0.1600  0.0549  1.3499
 9178SOL     OW38995   0.366   2.046   2.851 -0.2416  0.1751  0.6572
 9178SOL    HW138996   0.308   2.120   2.869  1.6050  1.3737  1.6121
 9178SOL    HW238997   0.371   2.040   2.756 -0.7540 -1.7662  0.7369
 9179SOL     OW38998   3.634   2.719   7.557  0.3625 -0.3906 -0.1727
 9179SOL    HW138999   3.543   2.689   7.558  0.4560 -0.6942 -0.6380
 9179SOL    HW239000   3.671   2.633   7.539  0.3127 -0.2877 -0.7530
 9180SOL     OW39001   2.458   1.829  15.677 -0.3794 -0.2145 -0.4387
 9180SOL    HW139002   2.548   1.835  15.644 -0.5593 -0.4753 -0.9774
 9180SOL    HW239003   2.467   1.888  15.752 -1.9923 -0.6915  0.1347
 9181SOL     OW39004   1.558   4.273   0.816 -0.3297 -0.5976 -0.3177
 9181SOL    HW139005   1.565   4.263   0.721  0.3795  0.0735 -0.3363
 9181SOL    HW239006   1.647   4.249   0.843 -0.1820  1.2075  0.8484
 9182SOL     OW39007   0.185   2.279   2.637 -0.4683  0.0975 -0.2833
 9182SOL    HW139008   0.205   2.279   2.731  1.8914 -0.6155 -0.7687
 9182SOL    HW239009   0.132   2.357   2.622  1.8113  2.1133  2.0520
 9183SOL     OW39010   1.742   0.305  14.556  0.6014  0.0707  0.2120
 9183SOL    HW139011   1.811   0.251  14.518  1.1558  1.0951 -0.2486
 9183SOL    HW239012   1.721   0.249  14.631  0.9868  1.8810  1.6571
 9184SOL     OW39013   3.338   4.144  13.318  0.2923  0.2672  0.2340
 9184SOL    HW139014   3.320   4.142  13.412  2.7494  2.1593  0.7318
 9184SOL    HW239015   3.292   4.066  13.286 -2.7591  1.4794  1.7073
 9185SOL     OW39016   2.597   2.285  16.688 -0.3648  0.1699  0.2787
 9185SOL    HW139017   2.564   2.196  16.701 -0.2834  0.3933  1.9965
 9185SOL    HW239018   2.531   2.326  16.743  0.1500  1.2829  0.0777
 9186SOL     OW39019   1.690   4.547  12.665 -0.1183 -0.0170 -0.0155
 9186SOL    HW139020   1.637   4.605  12.720  1.1212 -0.5325  1.7316
 9186SOL    HW239021   1.628   4.542  12.593 -0.2230  0.0250  0.0711
 9187SOL     OW39022   0.077   2.479  10.914  0.3420  0.3975  0.1438
 9187SOL    HW139023   0.019   2.487  10.989 -1.8830  0.5231 -1.5902
 9187SOL    HW239024   0.134   2.408  10.945 -1.1362  0.3531  2.6734
 9188SOL     OW39025   2.353   3.257  13.821 -0.2703 -0.0174  0.6933
 9188SOL    HW139026   2.408   3.250  13.898  1.3761 -1.6431 -0.6265
 9188SOL    HW239027   2.420   3.249  13.753 -1.2042  1.6341 -0.4158
 9189SOL     OW39028   4.389   1.313   9.282 -0.4876 -0.0501 -0.3328
 9189SOL    HW139029   4.451   1.368   9.234  2.8767 -3.6924 -0.1450
 9189SOL    HW239030   4.397   1.219   9.273  1.3123 -0.2411  3.3866
 9190SOL     OW39031   3.273   2.645   9.116 -0.1099  0.0877 -0.0376
 9190SOL    HW139032   3.304   2.561   9.081 -0.8202  0.6479 -2.0261
 9190SOL    HW239033   3.288   2.632   9.210 -0.8868 -1.8587 -0.1799
 9191SOL     OW39034   4.003   2.639   9.848  0.7504 -0.0419  0.4259
 9191SOL    HW139035   3.929   2.616   9.904 -0.0078  2.3748  0.4216
 9191SOL    HW239036   4.040   2.709   9.901 -1.2775 -0.6518  2.6486
 9192SOL     OW39037   0.675   4.554  13.045 -0.1571  0.5446  0.0415
 9192SOL    HW139038   0.675   4.599  13.129  2.4574 -1.3820  1.0765
 9192SOL    HW239039   0.592   4.569  13.000 -0.4730 -0.8799  0.1459
 9193SOL     OW39040   0.391   4.025   4.383 -0.2503 -0.2100 -0.2934
 9193SOL    HW139041   0.343   3.985   4.456 -0.8384  0.5912 -0.2420
 9193SOL    HW239042   0.450   3.956   4.352 -1.4573 -0.9542 -0.9355
 9194SOL     OW39043   3.437   1.652  12.972  0.3815 -0.5563  0.0356
 9194SOL    HW139044   3.407   1.710  12.902 -0.5405  0.2300  1.0889
 9194SOL    HW239045   3.355   1.625  13.014  0.1879  1.0481  0.6926
 9195SOL     OW39046   0.266   0.511   2.410  0.0548  0.4959 -0.6870
 9195SOL    HW139047   0.358   0.498   2.433 -0.3505  0.4864  0.9643
 9195SOL    HW239048   0.222   0.470   2.485 -0.2838  2.8266  0.4080
 9196SOL     OW39049   1.065   4.477   3.276  1.0176  0.3529 -0.0268
 9196SOL    HW139050   1.115   4.426   3.212 -0.0393 -0.1141 -0.4765
 9196SOL    HW239051   0.978   4.448   3.249  0.8732 -0.5532  1.4238
 9197SOL     OW39052   2.862   0.831  13.468  0.3262  0.1011 -0.0527
 9197SOL    HW139053   2.851   0.922  13.496  1.1800 -0.1923  1.1692
 9197SOL    HW239054   2.783   0.783  13.495 -0.1804  0.1265 -1.4768
 9198SOL     OW39055   2.220   3.585   3.220  0.4944 -0.0356 -0.4798
 9198SOL    HW139056   2.204   3.627   3.136 -0.2220  0.7038  0.0220
 9198SOL    HW239057   2.266   3.510   3.184 -1.7564 -0.9533 -1.4577
 9199SOL     OW39058   1.389   4.116  17.549  0.4642 -0.1349 -0.5523
 9199SOL    HW139059   1.356   4.083  17.633  1.3850 -2.4699 -1.1246
 9199SOL    HW239060   1.454   4.048  17.533  1.7448  0.2764  2.8813
 9200SOL     OW39061   3.282   1.355  12.333 -0.1808 -0.2376 -0.2192
 9200SOL    HW139062   3.351   1.380  12.272  0.0125 -1.2666 -0.4208
 9200SOL    HW239063   3.206   1.396  12.290  1.0500  0.5776 -1.6268
 9201SOL     OW39064   3.559   4.146  14.400  0.0975 -0.3676  0.3495
 9201SOL    HW139065   3.651   4.128  14.383  0.7408  1.5169  1.8217
 9201SOL    HW239066   3.546   4.083  14.470 -0.1500  1.3819  1.8691
 9202SOL     OW39067   0.509   2.290   7.914 -0.3676 -0.1114  0.2471
 9202SOL    HW139068   0.520   2.217   7.974  0.9778 -0.3965 -0.3415
 9202SOL    HW239069   0.483   2.231   7.843  1.0002  3.5391 -3.3096
 9203SOL     OW39070   0.579   0.074   5.823 -0.6734  0.2374 -0.3829
 9203SOL    HW139071   0.501   0.108   5.866  1.9073  1.4573  3.3170
 9203SOL    HW239072   0.642   0.099   5.890 -0.8598  2.0970 -0.8757
 9204SOL     OW39073   2.308   0.741   4.115 -0.6710  0.3907 -0.1462
 9204SOL    HW139074   2.230   0.789   4.140 -1.4122 -0.3973 -0.9504
 9204SOL    HW239075   2.368   0.815   4.108  0.7023 -0.8605 -1.7067
 9205SOL     OW39076   2.333   3.047  11.520  0.2237  0.2624  1.0839
 9205SOL    HW139077   2.341   2.988  11.595  0.2723 -0.8600  0.2001
 9205SOL    HW239078   2.261   3.013  11.467  1.8854  0.3250 -1.2450
 9206SOL     OW39079   4.107   0.693   6.232  0.3469 -0.3876 -0.0414
 9206SOL    HW139080   4.107   0.634   6.157 -1.4356  0.8956 -1.0385
 9206SOL    HW239081   4.190   0.668   6.273  0.4258  1.1997  0.7834
 9207SOL     OW39082   4.650   3.130   0.308 -0.3470  0.6067 -0.4714
 9207SOL    HW139083   4.709   3.110   0.236 -0.6485  0.6964 -0.7437
 9207SOL    HW239084   4.571   3.139   0.255  0.1498 -1.2734 -1.5105
 9208SOL     OW39085   2.111   0.754  12.131 -0.3852 -0.1783  0.5922
 9208SOL    HW139086   2.159   0.829  12.166 -1.1343  0.4976  0.1487
 9208SOL    HW239087   2.180   0.694  12.104  0.3829  0.7621  0.4802
 9209SOL     OW39088   3.620   2.791   6.329 -0.2588 -0.1352 -0.4425
 9209SOL    HW139089   3.596   2.848   6.402 -0.1761 -0.7843  0.0926
 9209SOL    HW239090   3.539   2.741   6.316 -0.0907 -0.6562  0.5634
 9210SOL     OW39091   2.733   0.308   1.825  0.5062 -0.3557 -0.4638
 9210SOL    HW139092   2.694   0.254   1.894  1.6070 -1.0174 -0.3524
 9210SOL    HW239093   2.733   0.256   1.744  0.7927 -0.8680 -0.1356
 9211SOL     OW39094   0.604   3.726   8.745  0.2839 -0.0017 -0.3067
 9211SOL    HW139095   0.521   3.700   8.786  0.1350 -0.9768 -1.2013
 9211SOL    HW239096   0.590   3.696   8.654 -0.3516  0.4146 -0.3473
 9212SOL     OW39097   0.382   3.082   9.493  0.3112 -0.0139 -0.3351
 9212SOL    HW139098   0.342   3.168   9.505 -0.6574 -0.7942  1.8480
 9212SOL    HW239099   0.357   3.060   9.403 -0.9975  1.1119 -0.2452
 9213SOL     OW39100   1.070   4.334   4.381  0.0424 -0.0810  0.3325
 9213SOL    HW139101   1.027   4.398   4.437 -1.0906 -2.1955  1.8721
 9213SOL    HW239102   1.121   4.281   4.442  2.0355 -0.1978 -1.4160
 9214SOL     OW39103   2.317   2.124   2.614  0.1388 -0.0644  0.4848
 9214SOL    HW139104   2.333   2.187   2.543  2.1472  0.3758  1.3232
 9214SOL    HW239105   2.231   2.097   2.582 -0.0021  1.1659 -0.2010
 9215SOL     OW39106   3.353   3.854   7.815 -0.0244  1.0913  0.2957
 9215SOL    HW139107   3.403   3.850   7.734  1.2882 -0.1024  1.1447
 9215SOL    HW239108   3.401   3.804   7.882  0.4237  2.1438  0.7771
 9216SOL     OW39109   1.342   3.992   4.303 -0.2592 -0.1791  0.8695
 9216SOL    HW139110   1.409   4.056   4.280 -0.2635 -0.9136 -1.1212
 9216SOL    HW239111   1.316   3.953   4.220 -1.4563  1.2728  0.5701
 9217SOL     OW39112   1.464   2.769  16.911 -0.1186  0.0051  0.4201
 9217SOL    HW139113   1.474   2.721  16.829  1.3972 -3.4339  2.6509
 9217SOL    HW239114   1.369   2.772  16.919  0.0371  0.2107  2.1259
 9218SOL     OW39115   2.768   3.436   4.077 -0.4413  0.2525  0.5083
 9218SOL    HW139116   2.748   3.412   3.986 -0.5220 -3.1841  1.4007
 9218SOL    HW239117   2.862   3.453   4.078 -0.4133  0.1596 -0.7492
 9219SOL     OW39118   4.235   0.627   4.568 -0.7257 -0.0032 -0.7442
 9219SOL    HW139119   4.218   0.559   4.503  0.0394  0.6922 -1.6871
 9219SOL    HW239120   4.329   0.643   4.554 -0.7302  0.0405 -0.7247
 9220SOL     OW39121   2.258   0.689   5.486 -0.2687  0.3800 -0.4267
 9220SOL    HW139122   2.334   0.730   5.446  0.9589 -1.2206  0.2730
 9220SOL    HW239123   2.183   0.723   5.438  0.6617 -0.6802 -2.6358
 9221SOL     OW39124   1.253   2.593   6.416  0.7685 -0.6598 -0.0739
 9221SOL    HW139125   1.234   2.500   6.429 -0.9402 -0.6353 -2.5929
 9221SOL    HW239126   1.263   2.620   6.508 -1.3183  2.0954 -0.6716
 9222SOL     OW39127   0.602   3.114   5.074 -0.3879 -0.1077 -0.3631
 9222SOL    HW139128   0.563   3.055   5.139 -1.3467  1.9993  0.9849
 9222SOL    HW239129   0.532   3.117   5.009  1.8706  3.0846 -2.6116
 9223SOL     OW39130   3.091   2.424   8.413 -0.2660  0.0631 -0.5044
 9223SOL    HW139131   3.006   2.382   8.424 -0.3484  0.6147  0.9125
 9223SOL    HW239132   3.102   2.459   8.501 -0.5578  0.8720 -0.7950
 9224SOL     OW39133   1.227   2.566   0.459  0.0300  0.1713 -0.3128
 9224SOL    HW139134   1.158   2.618   0.502  0.3062 -0.3769  0.7873
 9224SOL    HW239135   1.296   2.630   0.440  0.1157 -0.3026 -1.5677
 9225SOL     OW39136   2.520   3.292   6.035 -0.8470  0.0854  1.0045
 9225SOL    HW139137   2.542   3.261   5.948  0.3642 -1.3151  1.8112
 9225SOL    HW239138   2.478   3.376   6.017  0.3994  0.2161 -1.2864
 9226SOL     OW39139   1.861   2.138  14.408 -0.1383 -0.2464  0.4489
 9226SOL    HW139140   1.948   2.134  14.449  0.6598  0.4999 -1.1789
 9226SOL    HW239141   1.880   2.194  14.333 -0.5045  0.5412  0.9408
 9227SOL     OW39142   2.420   4.643   6.835 -0.1593 -0.0501 -0.3057
 9227SOL    HW139143   2.494   4.658   6.894  0.0194 -0.0723 -0.5208
 9227SOL    HW239144   2.361   4.606   6.900 -0.9331  0.4574 -0.7228
 9228SOL     OW39145   1.473   2.077   5.574 -0.0120  0.6451 -0.1680
 9228SOL    HW139146   1.485   2.109   5.485 -1.0791 -0.1419 -0.5861
 9228SOL    HW239147   1.561   2.041   5.587  2.3061  4.1081 -6.0181
 9229SOL     OW39148   4.194   2.924   3.789  0.1321 -0.4202 -0.2213
 9229SOL    HW139149   4.166   2.871   3.715 -2.0359 -0.1929  0.4461
 9229SOL    HW239150   4.188   2.869   3.868 -0.5143  0.0220  0.0351
 9230SOL     OW39151   4.243   2.239   5.709 -0.4316 -0.1355 -0.1950
 9230SOL    HW139152   4.228   2.172   5.775 -0.4639 -1.9770 -2.0671
 9230SOL    HW239153   4.154   2.270   5.695  0.3290  1.6140 -1.1709
 9231SOL     OW39154   4.159   3.158   5.859  0.0981 -0.1613 -0.5737
 9231SOL    HW139155   4.231   3.158   5.795 -1.2722 -1.3015 -2.1302
 9231SOL    HW239156   4.091   3.150   5.792 -1.3360  1.1239  0.7332
 9232SOL     OW39157   2.194   0.844  14.872  0.1862 -0.1614  0.3279
 9232SOL    HW139158   2.275   0.800  14.847  1.4795  2.4969 -0.1525
 9232SOL    HW239159   2.225   0.908  14.936 -2.4803 -0.3874  1.8127
 9233SOL     OW39160   0.130   3.484   3.397 -0.1704  0.2544  0.1859
 9233SOL    HW139161   0.202   3.534   3.359 -0.9598  1.7192  0.6180
 9233SOL    HW239162   0.154   3.474   3.489  0.6223  0.7638  0.0412
 9234SOL     OW39163   2.540   0.074   3.528  0.1979  0.2290 -1.0308
 9234SOL    HW139164   2.483   0.131   3.476 -0.9229  0.9280  0.9857
 9234SOL    HW239165   2.482   0.068   3.604 -0.6946  0.5904 -1.6781
 9235SOL     OW39166   0.507   1.115   7.893  0.7376 -0.2208 -0.2069
 9235SOL    HW139167   0.505   1.145   7.802 -0.1446 -0.7114 -0.3480
 9235SOL    HW239168   0.423   1.072   7.906  0.6354  0.2545  0.7689
 9236SOL     OW39169   0.936   0.388  12.948 -0.0499  0.5549  0.3384
 9236SOL    HW139170   0.883   0.343  13.014 -0.3571 -0.3823 -0.5624
 9236SOL    HW239171   1.025   0.370  12.980  0.8067  1.4815 -1.5446
 9237SOL     OW39172   1.706   4.314   9.918 -0.0871 -0.2685  0.6251
 9237SOL    HW139173   1.702   4.362   9.836 -0.7784 -1.2315  0.1003
 9237SOL    HW239174   1.798   4.287   9.921 -0.5744 -1.6021  4.5953
 9238SOL     OW39175   0.840   2.372   8.274  0.4310 -0.1381 -0.2204
 9238SOL    HW139176   0.780   2.400   8.205  0.0251 -1.4754 -0.4084
 9238SOL    HW239177   0.829   2.432   8.347 -1.3285  0.5130 -1.0358
 9239SOL     OW39178   2.289   4.400  12.659  0.2649  0.8754 -0.2620
 9239SOL    HW139179   2.280   4.402  12.563 -1.6770 -0.6361 -0.1074
 9239SOL    HW239180   2.211   4.447  12.687  0.2023  2.6436 -3.3596
 9240SOL     OW39181   1.193   3.422   1.040  0.6474 -0.6115 -0.5797
 9240SOL    HW139182   1.109   3.444   0.998  1.7838  2.4408 -1.2667
 9240SOL    HW239183   1.249   3.487   0.998  1.1003  0.5155  1.7469
 9241SOL     OW39184   1.572   0.498  13.336 -0.2473  0.3598 -0.7399
 9241SOL    HW139185   1.479   0.488  13.357 -0.2052  0.6092 -0.4313
 9241SOL    HW239186   1.604   0.529  13.421 -1.4006  1.2292 -0.6209
 9242SOL     OW39187   3.643   3.072   5.608  0.0079  0.0101 -0.5210
 9242SOL    HW139188   3.595   3.154   5.600  3.0505  1.8803  0.5219
 9242SOL    HW239189   3.668   3.068   5.700 -3.2680  2.4877  0.5080
 9243SOL     OW39190   2.027   3.068   3.674  0.1118 -0.2061 -0.6460
 9243SOL    HW139191   2.112   3.053   3.717  0.7395 -0.1196 -1.8526
 9243SOL    HW239192   2.028   3.164   3.682 -1.1272 -0.3166  0.7380
 9244SOL     OW39193   3.050   4.079   3.531 -0.4485 -0.3393  0.3845
 9244SOL    HW139194   2.964   4.114   3.551 -0.4167  0.9548 -1.8617
 9244SOL    HW239195   3.055   4.016   3.604 -0.9768 -0.0535  0.6612
 9245SOL     OW39196   1.581   0.958  12.215  0.3230  0.1289  0.9488
 9245SOL    HW139197   1.594   1.001  12.299  4.0090  2.2171 -0.6663
 9245SOL    HW239198   1.548   0.872  12.239 -1.7796  0.6397 -0.1532
 9246SOL     OW39199   1.058   1.957   2.961  0.1938  0.7093 -0.4656
 9246SOL    HW139200   1.106   1.909   3.029 -0.0292  0.4124 -0.5193
 9246SOL    HW239201   1.103   2.040   2.975  1.2103  0.2133 -0.6994
 9247SOL     OW39202   4.047   0.905   6.801 -0.1280 -0.0396 -0.0302
 9247SOL    HW139203   4.028   0.886   6.709  1.0607  0.0689 -0.2896
 9247SOL    HW239204   4.134   0.868   6.788  0.6018  1.1447  1.5596
 9248SOL     OW39205   4.670   2.649   1.198  0.1225 -0.8149  0.0146
 9248SOL    HW139206   4.697   2.737   1.171  0.1076 -0.2110  2.0069
 9248SOL    HW239207   4.587   2.637   1.152 -0.3529 -2.7145  1.3816
 9249SOL     OW39208   1.388   3.987   7.177 -0.0470 -0.4692  0.0205
 9249SOL    HW139209   1.302   3.987   7.220 -0.1143  0.7310 -0.1248
 9249SOL    HW239210   1.373   3.998   7.083 -0.3287 -3.4346 -0.2895
 9250SOL     OW39211   3.221   4.231  17.289 -0.2976 -0.2882 -0.0915
 9250SOL    HW139212   3.153   4.225  17.221 -0.8358  0.0314  0.4197
 9250SOL    HW239213   3.221   4.326  17.304 -0.1010 -0.0402 -1.6304
 9251SOL     OW39214   1.254   3.916  11.200  0.1268 -0.4080 -0.5841
 9251SOL    HW139215   1.280   3.982  11.264 -1.3566  0.4577 -0.8861
 9251SOL    HW239216   1.238   3.979  11.130  3.4829  0.0650 -0.8971
 9252SOL     OW39217   3.930   1.300   0.296  0.2444 -0.0244 -0.2592
 9252SOL    HW139218   3.902   1.391   0.300 -3.3762 -1.0977 -1.8105
 9252SOL    HW239219   4.017   1.299   0.256  0.3987  2.4298 -0.0154
 9253SOL     OW39220   1.655   0.783   8.830 -0.1044  0.0055 -0.5887
 9253SOL    HW139221   1.620   0.800   8.918 -3.1242 -1.1508 -1.6031
 9253SOL    HW239222   1.583   0.801   8.771 -0.6018 -0.7248 -0.2042
 9254SOL     OW39223   2.437   3.849   0.717 -0.5252 -0.3013 -0.4869
 9254SOL    HW139224   2.365   3.798   0.679  0.5490 -2.2204  0.0789
 9254SOL    HW239225   2.506   3.810   0.664  0.9261  1.2320  0.2999
 9255SOL     OW39226   3.894   1.217   5.370 -0.2174  0.0821 -0.1997
 9255SOL    HW139227   3.976   1.169   5.361 -0.8926 -1.2071  0.4363
 9255SOL    HW239228   3.895   1.232   5.464 -0.6645 -1.2326  0.0272
 9256SOL     OW39229   1.631   0.372   2.310 -0.3166  0.5839  0.3097
 9256SOL    HW139230   1.633   0.395   2.217  1.2978  1.3078  0.5321
 9256SOL    HW239231   1.715   0.409   2.336  0.4091 -0.8972  0.0891
 9257SOL     OW39232   3.290   2.420   6.870  0.2336 -0.3656  0.2727
 9257SOL    HW139233   3.224   2.489   6.863  1.0198  0.4279  0.6955
 9257SOL    HW239234   3.369   2.473   6.883  0.6605 -0.0871 -3.3428
 9258SOL     OW39235   0.188   2.557  11.733 -0.5746  0.0740 -0.0213
 9258SOL    HW139236   0.257   2.492  11.725 -1.7905 -1.2050 -0.1192
 9258SOL    HW239237   0.111   2.500  11.738  0.0648 -0.8225 -0.3377
 9259SOL     OW39238   4.089   2.393   2.036 -0.1198 -0.1511 -0.2604
 9259SOL    HW139239   4.059   2.308   2.004 -2.6177  0.1037  1.4169
 9259SOL    HW239240   4.136   2.430   1.961 -0.9049  0.5635 -0.3974
 9260SOL     OW39241   4.622   2.496  11.140 -0.3436 -0.2824 -0.3881
 9260SOL    HW139242   4.624   2.516  11.233 -0.4836  1.2952 -0.7152
 9260SOL    HW239243   4.534   2.524  11.114 -0.7114  0.8164  2.0386
 9261SOL     OW39244   3.244   4.488  13.301 -0.4258  0.4938  0.4813
 9261SOL    HW139245   3.204   4.438  13.371  0.7473 -2.3005 -0.8576
 9261SOL    HW239246   3.315   4.540  13.340 -0.2801 -0.7854  1.9023
 9262SOL     OW39247   1.995   3.038  15.602 -0.2839 -0.2548  0.1892
 9262SOL    HW139248   1.963   2.956  15.640  0.5616 -0.8514 -0.4089
 9262SOL    HW239249   1.985   3.027  15.508  1.0211 -1.2402  0.1607
 9263SOL     OW39250   1.954   4.066   4.003  0.2289 -0.2873  0.1716
 9263SOL    HW139251   1.866   4.102   3.989 -0.7707 -3.6727 -2.3300
 9263SOL    HW239252   1.940   3.991   4.060 -2.1610 -0.7415 -0.9891
 9264SOL     OW39253   0.128   4.350   6.920 -0.3169 -0.3516 -0.6184
 9264SOL    HW139254   0.219   4.326   6.904  0.8006  3.6361 -0.1029
 9264SOL    HW239255   0.116   4.417   6.853 -0.1156  0.8799  0.5732
 9265SOL     OW39256   4.516   1.369   1.641 -0.2579 -0.1410 -0.1420
 9265SOL    HW139257   4.518   1.274   1.641  1.3569 -0.1315 -2.0392
 9265SOL    HW239258   4.568   1.378   1.560 -0.1493 -0.6503 -0.1269
 9266SOL     OW39259   4.492   4.170  12.547  0.6639 -0.3110  0.3899
 9266SOL    HW139260   4.579   4.168  12.507  1.4236  0.5036  2.0415
 9266SOL    HW239261   4.508   4.117  12.625 -2.5176 -0.7896  0.7239
 9267SOL     OW39262   1.562   3.030   9.099  0.4032  0.1107 -0.2185
 9267SOL    HW139263   1.567   3.059   9.190  0.6880 -0.2366 -0.1224
 9267SOL    HW239264   1.636   2.969   9.103  1.8050  1.6231 -2.6788
 9268SOL     OW39265   3.030   1.983   4.572 -0.0532  0.0044 -0.3703
 9268SOL    HW139266   2.968   2.032   4.519 -0.0747  0.2319 -0.1335
 9268SOL    HW239267   3.104   1.990   4.512  0.2275 -2.1327 -0.2714
 9269SOL     OW39268   1.098   4.049   3.841  0.1681  0.2541  0.3663
 9269SOL    HW139269   1.120   4.026   3.751 -2.9901  1.2080 -0.6294
 9269SOL    HW239270   1.048   3.977   3.879  2.0735 -0.9048  0.6559
 9270SOL     OW39271   2.289   2.294   9.671 -0.0072 -0.0719  0.3840
 9270SOL    HW139272   2.370   2.279   9.719  0.7800 -1.1652 -1.2801
 9270SOL    HW239273   2.327   2.341   9.597 -1.8877  0.3864 -0.2871
 9271SOL     OW39274   2.262   2.319   4.892  0.1830 -0.5869 -0.3274
 9271SOL    HW139275   2.329   2.276   4.838  0.0489 -0.6054 -0.4783
 9271SOL    HW239276   2.295   2.311   4.981 -1.1962 -0.6295  0.1753
 9272SOL     OW39277   4.399   0.909   3.365  0.5219 -0.2979 -0.2904
 9272SOL    HW139278   4.397   0.950   3.452 -0.1703 -2.1023  0.5419
 9272SOL    HW239279   4.424   0.984   3.311  0.7157 -2.6050 -3.3538
 9273SOL     OW39280   1.238   2.700  10.096 -0.1704 -0.1267 -0.2958
 9273SOL    HW139281   1.260   2.736  10.182  0.0401 -0.4751 -0.2047
 9273SOL    HW239282   1.226   2.772  10.034  2.1793 -0.9105 -1.6604
 9274SOL     OW39283   2.497   3.621   0.902 -0.5553 -0.0730 -0.1983
 9274SOL    HW139284   2.426   3.574   0.945 -0.6323  1.5688  1.4801
 9274SOL    HW239285   2.470   3.713   0.897  2.9604  0.8921 -1.3358
 9275SOL     OW39286   3.627   2.742   5.802 -0.7459  0.0323  0.1254
 9275SOL    HW139287   3.638   2.654   5.836  0.1636 -0.3592 -1.1850
 9275SOL    HW239288   3.718   2.773   5.801 -0.7778  0.1179 -0.5432
 9276SOL     OW39289   1.160   0.379   9.957 -0.4648  0.0125 -0.1290
 9276SOL    HW139290   1.109   0.303   9.929 -0.7815 -0.3837  1.5216
 9276SOL    HW239291   1.210   0.344  10.031 -0.7644  0.4245  0.2635
 9277SOL     OW39292   4.584   3.323   7.246 -0.9172 -0.0115 -0.3757
 9277SOL    HW139293   4.522   3.250   7.235  2.4177 -2.6035 -1.9905
 9277SOL    HW239294   4.651   3.291   7.186  0.0879 -1.3370  1.4728
 9278SOL     OW39295   2.860   4.303   8.772 -0.0865 -0.1252  0.2044
 9278SOL    HW139296   2.773   4.265   8.786 -0.2283  1.3223  3.1264
 9278SOL    HW239297   2.833   4.394   8.764 -1.8980 -0.7665 -1.0085
 9279SOL     OW39298   2.586   4.528   7.389  0.3086  0.0966 -0.0530
 9279SOL    HW139299   2.546   4.484   7.315  0.4157  1.4764 -0.9184
 9279SOL    HW239300   2.674   4.552   7.359 -0.1829  1.3047 -0.5097
 9280SOL     OW39301   0.051   3.933   2.497  0.0115 -0.0079 -0.2388
 9280SOL    HW139302   0.131   3.946   2.548 -0.1005  1.3131 -0.4095
 9280SOL    HW239303   0.035   3.840   2.509 -0.0871 -0.0026 -0.3355
 9281SOL     OW39304   3.488   0.986   7.087 -0.6396  0.4958  0.1651
 9281SOL    HW139305   3.553   0.925   7.123 -2.1443 -0.5972  1.0128
 9281SOL    HW239306   3.432   0.993   7.164  0.6611 -1.1691  1.2631
 9282SOL     OW39307   3.830   4.173   7.026  0.0066 -0.2150 -0.7872
 9282SOL    HW139308   3.849   4.080   7.042 -2.7723 -0.8600 -1.2601
 9282SOL    HW239309   3.887   4.192   6.951  1.7673 -1.2255  0.3003
 9283SOL     OW39310   0.520   1.344   5.579 -0.2197  0.0530 -0.0300
 9283SOL    HW139311   0.595   1.381   5.626  0.8472 -1.3984 -0.5844
 9283SOL    HW239312   0.459   1.379   5.644  0.7138  1.1790  0.2462
 9284SOL     OW39313   3.979   0.777   1.648 -0.1141 -0.2111 -0.6279
 9284SOL    HW139314   3.954   0.724   1.573 -0.1743 -1.4361  0.2572
 9284SOL    HW239315   3.967   0.860   1.602  4.0454 -0.3905 -2.0079
 9285SOL     OW39316   4.006   1.591   3.723  0.0285  0.1769  0.1948
 9285SOL    HW139317   4.062   1.588   3.801 -1.4664 -3.1979  1.1870
 9285SOL    HW239318   4.012   1.681   3.693  0.2077  0.6786  1.7421
 9286SOL     OW39319   3.164   2.421   7.712  0.2002 -0.3468 -0.8384
 9286SOL    HW139320   3.178   2.510   7.743 -0.4900  0.1455 -1.9223
 9286SOL    HW239321   3.256   2.398   7.722  0.4939  1.5502  0.7621
 9287SOL     OW39322   3.774   1.575   2.160  0.2918  0.1030 -0.3813
 9287SOL    HW139323   3.769   1.544   2.070 -1.4526  1.0470 -0.6195
 9287SOL    HW239324   3.801   1.501   2.214 -1.1258 -1.1550 -1.3784
 9288SOL     OW39325   3.387   1.543  17.699 -0.1535 -0.1170  0.5262
 9288SOL    HW139326   3.327   1.563  17.627 -0.2875  1.4626  1.0918
 9288SOL    HW239327   3.453   1.489  17.654 -0.3281 -2.0226  2.5450
 9289SOL     OW39328   0.905   0.818   8.654  0.9203 -0.5417 -0.2304
 9289SOL    HW139329   0.927   0.893   8.709 -0.6312 -1.1670  1.2137
 9289SOL    HW239330   0.983   0.799   8.601  1.7100 -0.7347  0.9945
 9290SOL     OW39331   2.255   4.694   7.587  0.0357  0.2460 -0.2083
 9290SOL    HW139332   2.327   4.644   7.624 -0.4094  1.1019  1.8131
 9290SOL    HW239333   2.289   0.056   7.564  0.2908 -0.0502 -0.9426
 9291SOL     OW39334   0.267   1.980   4.902 -0.6842  0.0926 -0.5713
 9291SOL    HW139335   0.228   2.028   4.975  0.1680 -0.0679 -0.0080
 9291SOL    HW239336   0.218   2.024   4.833 -1.5634 -0.4508 -0.2986
 9292SOL     OW39337   2.879   2.360   3.931 -0.0479 -0.7646 -0.2791
 9292SOL    HW139338   2.806   2.298   3.936 -0.1325 -0.4894  2.2500
 9292SOL    HW239339   2.925   2.316   3.861 -0.9622 -0.4247 -1.0982
 9293SOL     OW39340   0.941   3.083   3.508 -0.4350 -0.1327  0.2170
 9293SOL    HW139341   1.028   3.073   3.469  0.7147  1.9347  2.3108
 9293SOL    HW239342   0.913   3.146   3.442 -2.3030  0.4444  1.5837
 9294SOL     OW39343   2.444   1.965   3.984  0.2993 -0.0683  0.1136
 9294SOL    HW139344   2.406   1.995   3.901 -0.9708  2.7058  1.6872
 9294SOL    HW239345   2.461   1.873   3.964 -1.1107 -0.6562  1.6698
 9295SOL     OW39346   4.119   2.125   6.313 -0.2034  0.1049  0.0314
 9295SOL    HW139347   4.092   2.163   6.229  0.3809 -2.1729 -1.1936
 9295SOL    HW239348   4.138   2.206   6.360 -2.4247  0.0952  0.9557
 9296SOL     OW39349   0.583   1.095   5.393  0.0195 -0.1426 -0.3935
 9296SOL    HW139350   0.624   1.158   5.451 -0.4603  2.0271 -2.4225
 9296SOL    HW239351   0.563   1.154   5.320 -0.7249 -1.4160 -1.2212
 9297SOL     OW39352   0.750   4.323   4.805 -0.2640 -0.4124 -1.1502
 9297SOL    HW139353   0.666   4.279   4.818 -0.0829 -0.4554 -0.1406
 9297SOL    HW239354   0.719   4.402   4.761 -0.4296 -0.9698 -2.0313
 9298SOL     OW39355   3.850   2.933   3.402  0.1098 -0.0751  0.3059
 9298SOL    HW139356   3.875   2.995   3.471 -0.5166 -0.3543  0.7909
 9298SOL    HW239357   3.840   2.855   3.458 -1.9693  0.6131  0.8692
 9299SOL     OW39358   3.363   1.231   7.344  0.3472  0.1986 -0.0761
 9299SOL    HW139359   3.361   1.303   7.407  3.5552 -1.0661  1.4624
 9299SOL    HW239360   3.330   1.151   7.383 -1.9255  0.9681 -0.4280
 9300SOL     OW39361   2.367   1.555   4.997  0.7184  0.5546  0.2732
 9300SOL    HW139362   2.295   1.521   4.944  0.5165  1.0798  0.2170
 9300SOL    HW239363   2.320   1.586   5.074 -0.0477  1.9788 -0.7710
 9301SOL     OW39364   3.520   3.634   5.859  0.4216 -0.7001  0.7324
 9301SOL    HW139365   3.489   3.682   5.936  2.4918  1.3638  0.2799
 9301SOL    HW239366   3.477   3.549   5.866  0.0557 -0.6342 -0.7981
 9302SOL     OW39367   2.314   2.945  15.043 -0.4463  0.6553  0.5652
 9302SOL    HW139368   2.364   2.913  15.118  1.4847 -0.3324 -1.1208
 9302SOL    HW239369   2.270   2.866  15.012  0.2293 -0.9715  3.7666
 9303SOL     OW39370   2.290   4.539   3.513  0.7139  0.3933  0.7031
 9303SOL    HW139371   2.356   4.564   3.449  0.3455  0.5975  0.4090
 9303SOL    HW239372   2.254   4.466   3.461  3.1106  0.5368 -1.1289
 9304SOL     OW39373   3.969   4.696  14.304 -0.3019  0.1977  0.3276
 9304SOL    HW139374   3.984   4.718  14.212  1.4367 -0.5545  0.4286
 9304SOL    HW239375   4.059   4.697  14.336 -0.4531 -1.1221  0.8295
 9305SOL     OW39376   4.052   4.000  14.378  0.5625 -0.2322  0.2162
 9305SOL    HW139377   4.025   3.917  14.416 -1.2080 -0.6987 -2.0398
 9305SOL    HW239378   4.124   4.016  14.439  0.0696 -2.0292  1.2633
 9306SOL     OW39379   1.649   3.405   1.141 -0.6171  0.4355  0.0789
 9306SOL    HW139380   1.676   3.370   1.226 -0.0590  0.3288 -0.1404
 9306SOL    HW239381   1.568   3.358   1.120 -0.9999  0.8720  0.5915
 9307SOL     OW39382   2.309   0.101  11.458 -0.1844  0.3378 -0.0848
 9307SOL    HW139383   2.294   0.132  11.369 -0.6979  0.6890  0.1261
 9307SOL    HW239384   2.304   0.180  11.512  0.1325  1.0453 -1.0836
 9308SOL     OW39385   3.489   2.626  14.653  0.2319 -0.2427 -0.6406
 9308SOL    HW139386   3.573   2.620  14.608  1.3866  1.3090  1.3024
 9308SOL    HW239387   3.520   2.626  14.744 -1.1780 -1.3951 -0.1499
 9309SOL     OW39388   1.820   3.598   2.882  0.0960 -0.3383  0.0225
 9309SOL    HW139389   1.811   3.694   2.880  2.3239 -0.1479 -0.6567
 9309SOL    HW239390   1.914   3.582   2.878  0.2493  1.1849 -2.3159
 9310SOL     OW39391   0.546   4.231   8.012  0.5654 -0.1076  0.1097
 9310SOL    HW139392   0.461   4.245   8.054 -0.5755  0.9431 -2.5096
 9310SOL    HW239393   0.621   4.258   8.064 -0.6501  1.6041  0.9646
 9311SOL     OW39394   3.434   3.074   7.924  0.0636  0.4430  0.4198
 9311SOL    HW139395   3.469   3.050   8.010  0.8708 -0.2417 -0.1126
 9311SOL    HW239396   3.459   3.167   7.918  2.4635 -0.3410 -1.5328
 9312SOL     OW39397   1.526   1.671  15.601 -0.0984 -0.6114  0.2752
 9312SOL    HW139398   1.551   1.579  15.604 -1.6084 -0.9783  1.8747
 9312SOL    HW239399   1.576   1.703  15.676  0.2178  1.3259 -0.7711
 9313SOL     OW39400   4.526   3.549   9.223 -0.6684  0.0948 -0.7780
 9313SOL    HW139401   4.611   3.582   9.194  1.4498 -1.2732  3.9590
 9313SOL    HW239402   4.465   3.620   9.203  1.0517  2.1185  1.1988
 9314SOL     OW39403   3.439   2.064   9.439  0.3650  0.0014  0.5885
 9314SOL    HW139404   3.507   2.132   9.438 -1.4330  1.7787 -1.4533
 9314SOL    HW239405   3.374   2.096   9.501 -1.4960 -1.6542 -0.5245
 9315SOL     OW39406   2.239   0.121   3.492  0.0534  0.2229  0.4667
 9315SOL    HW139407   2.173   0.075   3.544  0.1518 -3.3618 -2.6638
 9315SOL    HW239408   2.250   0.201   3.545 -0.8291  0.1602  0.7414
 9316SOL     OW39409   3.229   2.940   6.130  0.3414  0.0310  0.1894
 9316SOL    HW139410   3.258   2.908   6.216 -1.1775 -0.0579  0.6768
 9316SOL    HW239411   3.306   2.911   6.081 -0.7436 -0.8045 -1.0061
 9317SOL     OW39412   1.231   3.061  16.787  0.1511  0.3179  0.0500
 9317SOL    HW139413   1.232   3.001  16.712  1.2214 -0.6558  0.8434
 9317SOL    HW239414   1.315   3.106  16.782 -0.4349  1.4370  0.2356
 9318SOL     OW39415   4.555   2.254   3.297 -0.3698 -0.2192 -0.6264
 9318SOL    HW139416   4.505   2.315   3.352  1.1293 -0.3429  0.8837
 9318SOL    HW239417   4.630   2.226   3.350 -0.9834  0.4800  0.6268
 9319SOL     OW39418   3.009   0.784   0.888  0.3520 -0.1854 -0.1849
 9319SOL    HW139419   3.092   0.739   0.908 -0.0271  0.0026  1.8149
 9319SOL    HW239420   3.015   0.807   0.795  0.8244 -0.0039 -0.1104
 9320SOL     OW39421   1.876   0.941   8.766 -0.0654  0.0469  0.3628
 9320SOL    HW139422   1.789   0.902   8.758 -0.1821  0.0196  1.8573
 9320SOL    HW239423   1.855   0.997   8.840 -1.8916  1.4231 -1.1962
 9321SOL     OW39424   0.878   3.882   6.972  0.0802  0.0739 -0.3398
 9321SOL    HW139425   0.945   3.814   6.969  0.2983  0.2244  1.1377
 9321SOL    HW239426   0.858   3.916   6.885  1.9014 -1.5825 -1.4081
 9322SOL     OW39427   4.185   3.199   7.740  0.5841 -0.3822 -0.1227
 9322SOL    HW139428   4.092   3.208   7.721  1.4454  1.2850 -3.5773
 9322SOL    HW239429   4.198   3.263   7.809 -1.6029  0.3738 -0.4243
 9323SOL     OW39430   0.938   1.702  13.885 -0.1261  0.4972 -0.2593
 9323SOL    HW139431   1.005   1.665  13.827  0.4964  0.0359  0.7571
 9323SOL    HW239432   0.855   1.661  13.857  0.7051 -2.6442  1.9485
 9324SOL     OW39433   2.853   3.076  12.493  0.5078 -0.3642  0.6989
 9324SOL    HW139434   2.788   3.130  12.448  1.9719  1.4312  0.7147
 9324SOL    HW239435   2.937   3.092  12.450  0.3518  0.7839  0.8176
 9325SOL     OW39436   2.566   0.236   7.206 -0.4682  0.1394  0.8169
 9325SOL    HW139437   2.595   0.324   7.231  1.0113 -0.6426  1.8818
 9325SOL    HW239438   2.610   0.177   7.268  0.6242  1.3791  1.2244
 9326SOL     OW39439   1.951   3.033   5.843 -0.7061  0.0772 -0.4538
 9326SOL    HW139440   1.898   3.101   5.802 -1.2442 -0.7309 -1.1046
 9326SOL    HW239441   2.033   3.032   5.794 -1.1632 -0.6672 -1.2164
 9327SOL     OW39442   1.704   3.936   4.189 -0.2985  0.1384  0.2683
 9327SOL    HW139443   1.777   3.938   4.251  0.4866 -2.2678 -0.5886
 9327SOL    HW239444   1.666   4.022   4.210  3.9846  2.2099 -0.4153
 9328SOL     OW39445   4.030   0.016   2.622 -0.2308  0.0634 -0.3828
 9328SOL    HW139446   4.016   4.675   2.690 -0.6283  0.6483  0.0948
 9328SOL    HW239447   4.125   0.016   2.607  0.1539 -0.1375  2.1129
 9329SOL     OW39448   3.822   1.878   7.637  0.0512 -0.0205  0.6098
 9329SOL    HW139449   3.835   1.967   7.669  2.0170 -0.1803  0.2307
 9329SOL    HW239450   3.859   1.823   7.706 -0.8145 -0.8377  0.4256
 9330SOL     OW39451   2.536   2.771   7.670 -0.1604  0.0857  0.0222
 9330SOL    HW139452   2.602   2.766   7.601 -0.2660  0.2605 -0.0915
 9330SOL    HW239453   2.588   2.728   7.738 -1.1311 -0.3409  0.5055
 9331SOL     OW39454   2.608   0.063   8.208 -0.7944  0.1906 -0.1467
 9331SOL    HW139455   2.699   0.075   8.233  0.2958 -4.2724 -1.8368
 9331SOL    HW239456   2.572   0.151   8.212 -1.1155  0.1096 -1.0635
 9332SOL     OW39457   0.320   2.967   5.518  0.3560  0.2175  0.3591
 9332SOL    HW139458   0.243   3.001   5.472 -0.1877 -0.9842  0.3730
 9332SOL    HW239459   0.349   3.053   5.551  1.8043 -0.2550  0.2973
 9333SOL     OW39460   0.324   3.258   1.042  0.7085  0.3721  0.2736
 9333SOL    HW139461   0.284   3.340   1.012 -2.6214 -0.6187  1.9511
 9333SOL    HW239462   0.284   3.195   0.982 -0.7761  2.3308 -0.8248
 9334SOL     OW39463   4.536   0.196   3.673 -0.2033 -0.6752  0.3867
 9334SOL    HW139464   4.513   0.277   3.718 -0.4367  1.1263 -2.9423
 9334SOL    HW239465   4.608   0.175   3.732 -0.1681  0.0019  0.5848
 9335SOL     OW39466   3.159   4.074   7.803  0.3509  0.2970  0.0864
 9335SOL    HW139467   3.230   4.127   7.766  0.8328  0.9967  2.0236
 9335SOL    HW239468   3.203   3.992   7.826 -0.3381 -0.6056 -1.8152
 9336SOL     OW39469   2.335   0.177   3.250 -0.4365  0.6589  0.6435
 9336SOL    HW139470   2.320   0.270   3.268 -0.1994  0.2019  3.2946
 9336SOL    HW239471   2.297   0.139   3.330  0.0351 -3.7115 -1.1768
 9337SOL     OW39472   3.663   1.907   8.501  0.3041  0.2609  0.0486
 9337SOL    HW139473   3.655   1.940   8.591  1.5281 -3.5342  1.5507
 9337SOL    HW239474   3.592   1.843   8.496  0.3857  0.0950  0.9613
 9338SOL     OW39475   2.984   3.062   6.622  0.1400 -0.3258  0.6177
 9338SOL    HW139476   3.000   2.984   6.675  0.1934  0.0829  1.2051
 9338SOL    HW239477   3.052   3.044   6.558 -0.2415  0.0543  0.1064
 9339SOL     OW39478   0.414   1.511   1.713  0.0043 -0.4446  0.1886
 9339SOL    HW139479   0.432   1.447   1.782  0.2149 -0.9881 -0.3815
 9339SOL    HW239480   0.331   1.544   1.748 -0.0943 -0.1351 -0.3443
 9340SOL     OW39481   1.236   4.379   1.559 -0.0189  0.0952  0.1811
 9340SOL    HW139482   1.206   4.425   1.637 -0.6831  1.6383 -0.9721
 9340SOL    HW239483   1.300   4.442   1.524 -0.7702  1.0616  0.5561
 9341SOL     OW39484   1.977   2.922   5.294 -0.1939 -0.4067 -0.0170
 9341SOL    HW139485   1.930   2.888   5.370  0.9808 -0.0536  0.8782
 9341SOL    HW239486   2.051   2.971   5.330 -0.3319 -1.6341  1.9573
 9342SOL     OW39487   1.743   4.441  11.940 -0.6951  0.0361  0.6206
 9342SOL    HW139488   1.794   4.361  11.943  1.8836  1.6852  0.7369
 9342SOL    HW239489   1.651   4.415  11.949 -1.7040  3.0990 -0.5459
 9343SOL     OW39490   0.242   1.621   7.572  0.4623 -0.4155  0.3852
 9343SOL    HW139491   0.307   1.651   7.635  1.1397 -0.6896 -0.1935
 9343SOL    HW239492   0.247   1.699   7.517 -0.0220 -0.2812  0.5289
 9344SOL     OW39493   3.182   1.475   0.885  0.0459  0.6561 -0.4218
 9344SOL    HW139494   3.129   1.403   0.920 -1.7206  1.4796 -1.4316
 9344SOL    HW239495   3.156   1.492   0.794 -0.6397  0.0059 -0.3512
 9345SOL     OW39496   2.867   1.787  13.695  0.1429 -0.0855  0.5160
 9345SOL    HW139497   2.814   1.789  13.775 -0.0424 -1.0290  0.4245
 9345SOL    HW239498   2.875   1.882  13.685  1.2791 -0.2437 -0.0485
 9346SOL     OW39499   3.060   2.063   0.390 -0.2012  0.1743  0.0912
 9346SOL    HW139500   3.057   2.048   0.296  0.0099  0.4896  0.0363
 9346SOL    HW239501   3.026   1.977   0.413 -1.0949  0.4812 -0.0771
 9347SOL     OW39502   1.197   3.408   8.063  0.3800 -0.3286  0.3146
 9347SOL    HW139503   1.202   3.403   8.159  0.6498  0.9861  0.3662
 9347SOL    HW239504   1.156   3.494   8.072 -1.3551 -0.9308 -1.8203
 9348SOL     OW39505   3.581   4.177   5.288  0.0269  0.8970  0.0173
 9348SOL    HW139506   3.652   4.142   5.234  0.2663  2.4441 -0.6521
 9348SOL    HW239507   3.508   4.115   5.276  0.5005  0.4045 -0.3093
 9349SOL     OW39508   3.649   3.827  12.698  0.2803  0.6230  0.1324
 9349SOL    HW139509   3.616   3.762  12.761  0.4043 -0.9320 -1.4081
 9349SOL    HW239510   3.598   3.801  12.622  2.9844 -0.0295 -1.4326
 9350SOL     OW39511   1.658   0.392  13.070 -0.3525 -0.2709  0.2786
 9350SOL    HW139512   1.599   0.349  13.007 -2.1084  1.4880  0.7073
 9350SOL    HW239513   1.607   0.384  13.150 -3.2122  2.1741 -1.2690
 9351SOL     OW39514   2.218   3.486   6.296 -0.3285 -0.4464 -0.6610
 9351SOL    HW139515   2.176   3.565   6.262 -0.2669 -0.9248 -1.8390
 9351SOL    HW239516   2.145   3.425   6.294  1.5747 -2.7238 -1.0034
 9352SOL     OW39517   4.069   2.404  16.324 -0.3793 -0.8599  0.1108
 9352SOL    HW139518   4.091   2.494  16.347 -0.9474 -0.7980  0.4160
 9352SOL    HW239519   3.995   2.384  16.381 -0.6331  0.8778  0.3995
 9353SOL     OW39520   3.317   1.313   3.134 -0.2473  0.2623 -0.4263
 9353SOL    HW139521   3.249   1.350   3.078 -0.4186 -0.8186 -0.9328
 9353SOL    HW239522   3.362   1.254   3.074 -1.2815  0.2759 -1.2236
 9354SOL     OW39523   2.951   4.127   8.973  0.6118 -0.9494 -0.6007
 9354SOL    HW139524   3.046   4.138   8.963  0.3755  0.6821 -0.9194
 9354SOL    HW239525   2.933   4.205   8.921 -2.1804  0.8451  3.1637
 9355SOL     OW39526   3.171   1.525   7.223  0.6111 -0.1690 -0.0456
 9355SOL    HW139527   3.241   1.589   7.231  1.4099 -1.2160  1.2820
 9355SOL    HW239528   3.087   1.569   7.237  1.1191  1.3205 -1.7164
 9356SOL     OW39529   4.398   3.954   8.056 -0.1773  0.1736  0.2954
 9356SOL    HW139530   4.480   3.922   8.094 -0.1222  0.7078  0.6160
 9356SOL    HW239531   4.404   4.044   8.086 -0.4602 -0.0466  1.0000
 9357SOL     OW39532   3.743   1.300   8.680 -0.1221 -0.4392  0.1188
 9357SOL    HW139533   3.781   1.262   8.759  0.2130  0.4777  0.4101
 9357SOL    HW239534   3.697   1.375   8.719  0.7992  0.3801 -0.3702
 9358SOL     OW39535   2.171   3.994   9.136  0.1053 -0.2195  0.5488
 9358SOL    HW139536   2.265   4.004   9.120 -0.1752  0.9525 -0.4287
 9358SOL    HW239537   2.142   3.905   9.114  2.1004 -0.7489  0.0983
 9359SOL     OW39538   2.764   2.913   5.843  0.3359  0.1337 -0.3311
 9359SOL    HW139539   2.849   2.872   5.824 -1.2102 -1.7217 -3.2697
 9359SOL    HW239540   2.736   2.864   5.920 -0.6880  0.8186 -0.2679
 9360SOL     OW39541   0.610   2.136   1.617 -0.0953 -0.3392  1.1510
 9360SOL    HW139542   0.550   2.211   1.615  0.3866  0.1080  3.7619
 9360SOL    HW239543   0.582   2.099   1.700  0.6557 -1.0501  1.0826
 9361SOL     OW39544   2.960   0.366  11.472  0.4392 -0.1490 -0.2877
 9361SOL    HW139545   3.012   0.446  11.476 -0.1191  0.1759  0.5200
 9361SOL    HW239546   2.960   0.345  11.379  0.5072 -0.5784 -0.1888
 9362SOL     OW39547   2.986   3.343  10.017 -0.0863 -0.2783  0.0176
 9362SOL    HW139548   3.043   3.269  10.040 -0.6359 -1.6736 -3.0380
 9362SOL    HW239549   2.996   3.407  10.087  1.5261 -1.1015  0.5368
 9363SOL     OW39550   1.004   2.334   7.156 -0.0583  0.8582  0.2569
 9363SOL    HW139551   0.921   2.372   7.130 -0.4457 -0.5776 -0.5780
 9363SOL    HW239552   1.059   2.408   7.183  1.1585 -0.8123  2.3572
 9364SOL     OW39553   3.875   1.397   9.008  0.1141 -0.3742 -0.6719
 9364SOL    HW139554   3.848   1.388   9.099 -0.6356 -0.5870 -0.9180
 9364SOL    HW239555   3.968   1.373   9.009 -0.1645 -1.3699  1.4393
 9365SOL     OW39556   1.820   0.692  16.192  0.2496  0.1108  0.0223
 9365SOL    HW139557   1.761   0.768  16.196 -0.4688 -0.5882  2.3568
 9365SOL    HW239558   1.864   0.711  16.274 -0.0265 -1.9969  0.6498
 9366SOL     OW39559   0.009   1.693   6.311  0.3062  0.0961 -0.1710
 9366SOL    HW139560   4.658   1.684   6.252 -0.8454 -0.6917  1.4313
 9366SOL    HW239561   4.701   1.644   6.386 -0.1346 -1.7651 -1.5544
 9367SOL     OW39562   1.294   2.630   6.682 -0.5841  0.0152 -0.0801
 9367SOL    HW139563   1.279   2.702   6.742  1.3574  1.5585 -1.4210
 9367SOL    HW239564   1.385   2.610   6.705 -0.3084  1.6972  0.2850
 9368SOL     OW39565   2.844   1.442  10.778  0.0336 -0.3390 -0.1263
 9368SOL    HW139566   2.829   1.533  10.806  0.7822 -0.4659  0.6781
 9368SOL    HW239567   2.825   1.455  10.685  1.9957 -0.3049 -0.5115
 9369SOL     OW39568   0.403   2.006   4.615  0.3498 -0.2012 -0.5357
 9369SOL    HW139569   0.372   1.953   4.689 -0.1622  0.6684 -0.1246
 9369SOL    HW239570   0.449   2.080   4.654 -0.7891  0.0103  0.4169
 9370SOL     OW39571   4.619   1.113   5.248  0.0406  0.2024  0.0231
 9370SOL    HW139572   4.654   1.039   5.298  2.9524  1.3133 -0.3398
 9370SOL    HW239573   4.682   1.109   5.175  0.1847  0.9308  0.1087
 9371SOL     OW39574   0.165   1.395   1.040  0.8388 -0.2449  0.0431
 9371SOL    HW139575   0.250   1.366   1.008  1.6351  1.2214  0.8273
 9371SOL    HW239576   0.154   1.467   0.978  0.1630 -0.9446 -0.6332
 9372SOL     OW39577   3.179   1.565  17.507 -0.9613  0.3487 -0.2704
 9372SOL    HW139578   3.139   1.511  17.576  1.1870 -0.9407 -0.0625
 9372SOL    HW239579   3.134   1.531  17.429  0.1149  0.4834 -0.9388
 9373SOL     OW39580   2.276   1.041   3.540  0.0220 -0.2784 -0.0329
 9373SOL    HW139581   2.214   1.113   3.553 -1.1524 -0.9541 -1.8167
 9373SOL    HW239582   2.349   1.073   3.594 -0.8904  0.7049  0.6249
 9374SOL     OW39583   0.209   2.266  15.060 -0.0163  0.5521 -0.1252
 9374SOL    HW139584   0.270   2.254  15.133  0.9144 -0.3293 -1.0496
 9374SOL    HW239585   0.124   2.253  15.103  0.7362  0.3279  1.3065
 9375SOL     OW39586   2.903   1.623  11.267  0.3959  0.1903  0.3033
 9375SOL    HW139587   2.903   1.707  11.313 -0.0930  0.9778 -1.1129
 9375SOL    HW239588   2.978   1.580  11.309 -1.7834 -2.9176  0.9523
 9376SOL     OW39589   0.051   1.643   3.826  0.7131 -0.1744  0.1706
 9376SOL    HW139590   0.084   1.555   3.807 -0.1745 -0.8482  1.7544
 9376SOL    HW239591   0.130   1.677   3.868  1.3164 -0.1294 -0.9929
 9377SOL     OW39592   1.529   3.244   2.115 -0.2840 -0.2533 -0.2386
 9377SOL    HW139593   1.609   3.193   2.127  0.0505 -0.2355 -2.3710
 9377SOL    HW239594   1.560   3.312   2.055 -2.7528 -1.3150 -2.7322
 9378SOL     OW39595   1.685   4.239  15.313 -0.2860 -0.1592  0.8280
 9378SOL    HW139596   1.701   4.263  15.221 -1.7421 -1.9651  0.0999
 9378SOL    HW239597   1.636   4.313  15.349 -1.9117 -2.7986  4.0009
 9379SOL     OW39598   3.492   2.658   8.744 -0.5522  0.1534 -0.3081
 9379SOL    HW139599   3.407   2.693   8.772  0.0068  2.7892 -1.9015
 9379SOL    HW239600   3.470   2.566   8.730 -2.1786  0.6140 -0.8610
 9380SOL     OW39601   3.811   3.612   2.455  0.0788 -0.0986  0.3496
 9380SOL    HW139602   3.744   3.666   2.496 -0.7469 -0.5494 -0.4145
 9380SOL    HW239603   3.870   3.678   2.419 -0.7218  0.1960 -0.4125
 9381SOL     OW39604   4.462   1.856   8.281  0.5247 -0.4482 -0.5120
 9381SOL    HW139605   4.396   1.925   8.293 -0.7262 -1.4329 -1.7055
 9381SOL    HW239606   4.399   1.784   8.287  3.4679 -3.0484 -1.0813
 9382SOL     OW39607   0.488   3.472   6.399  0.2133  0.0068 -0.2318
 9382SOL    HW139608   0.416   3.530   6.373 -1.6891 -1.9565  0.6526
 9382SOL    HW239609   0.436   3.396   6.424  0.0382 -0.0979 -0.9027
 9383SOL     OW39610   4.210   2.994  15.407 -0.0549 -0.5096 -0.6420
 9383SOL    HW139611   4.253   2.949  15.479  0.6336 -0.0507 -0.7667
 9383SOL    HW239612   4.268   2.958  15.340 -0.4705  1.0516 -1.8490
 9384SOL     OW39613   2.450   0.247   5.094 -0.0215 -0.0737 -0.7904
 9384SOL    HW139614   2.501   0.314   5.139  0.3161  1.1318 -2.9702
 9384SOL    HW239615   2.499   0.225   5.015  1.2018  1.1826 -0.3604
 9385SOL     OW39616   4.567   0.033   4.370  0.2727 -0.3493  0.3143
 9385SOL    HW139617   4.624   0.090   4.319  0.6002 -0.6514  0.3409
 9385SOL    HW239618   4.633   4.713   4.423 -0.8692 -0.0601  2.0033
 9386SOL     OW39619   0.972   2.481  17.381 -0.6616  0.2013  0.7021
 9386SOL    HW139620   0.978   2.576  17.391  0.4589  0.1893  0.1209
 9386SOL    HW239621   1.055   2.452  17.345 -1.1511 -1.1892  0.7049
 9387SOL     OW39622   2.929   2.906   0.540  0.2327  0.4028 -0.0225
 9387SOL    HW139623   2.995   2.920   0.608 -0.2795  1.1008  0.3239
 9387SOL    HW239624   2.957   2.969   0.473 -2.0292  1.0896 -0.3092
 9388SOL     OW39625   2.219   0.008   8.972  0.2773 -0.5278  0.6086
 9388SOL    HW139626   2.216   0.101   8.949  2.2982 -0.6239 -0.0539
 9388SOL    HW239627   2.147   4.720   9.033  0.4357  0.5252  1.0190
 9389SOL     OW39628   0.674   2.049   3.227 -0.3576 -0.1700  0.0263
 9389SOL    HW139629   0.724   1.996   3.165 -1.7172 -1.4516  0.0144
 9389SOL    HW239630   0.654   1.983   3.294  1.6496 -0.2083  0.6051
 9390SOL     OW39631   1.513   3.291  15.531 -0.3523  0.1233  0.1486
 9390SOL    HW139632   1.607   3.277  15.542 -0.8552 -2.3013  1.5273
 9390SOL    HW239633   1.502   3.237  15.453  0.1045 -1.1997  0.9956
 9391SOL     OW39634   3.712   2.271   5.332 -0.3527  0.3012  0.3642
 9391SOL    HW139635   3.630   2.278   5.381  0.0508  1.0540  0.9427
 9391SOL    HW239636   3.692   2.210   5.261  1.6036  0.7939 -0.5935
 9392SOL     OW39637   3.870   4.182   2.435 -0.1577 -0.3837 -0.7607
 9392SOL    HW139638   3.863   4.209   2.527  1.2764 -0.7724 -0.5363
 9392SOL    HW239639   3.957   4.212   2.407 -0.0669 -1.7696 -1.9399
 9393SOL     OW39640   0.281   2.152   7.544 -0.5229  0.3546  0.1464
 9393SOL    HW139641   0.212   2.125   7.484  0.0144  1.5323 -1.0066
 9393SOL    HW239642   0.337   2.192   7.478  0.0815 -0.1989  0.3255
 9394SOL     OW39643   3.670   4.450   3.087 -0.2312 -0.4627  0.0508
 9394SOL    HW139644   3.688   4.412   3.000 -0.1381 -0.1732 -0.0563
 9394SOL    HW239645   3.755   4.491   3.102  1.0083 -3.8187  2.0846
 9395SOL     OW39646   4.200   1.070   2.626  0.1013  0.4772  0.1058
 9395SOL    HW139647   4.111   1.101   2.613 -0.4585 -1.2778 -0.3105
 9395SOL    HW239648   4.180   0.983   2.661  1.2999  0.7223  1.3861
 9396SOL     OW39649   2.230   1.894  12.110 -0.8222  0.1464  0.0033
 9396SOL    HW139650   2.297   1.962  12.110 -1.3454  0.6594 -0.9365
 9396SOL    HW239651   2.158   1.951  12.083 -1.5561  0.2546  2.1961
 9397SOL     OW39652   2.324   0.357  11.073 -0.0745  0.7013 -0.2017
 9397SOL    HW139653   2.361   0.290  11.015  0.3263 -0.4161  1.3286
 9397SOL    HW239654   2.271   0.297  11.126  0.1828  0.4027 -0.2812
 9398SOL     OW39655   3.443   2.206   8.548  0.1423  0.0527  0.1151
 9398SOL    HW139656   3.382   2.202   8.474  1.7798 -1.8965 -1.0900
 9398SOL    HW239657   3.422   2.121   8.586  2.8528  0.1562  1.7983
 9399SOL     OW39658   0.540   2.004   6.460 -0.4688  0.5727 -0.1848
 9399SOL    HW139659   0.599   1.972   6.392  1.3200  1.1456  1.0984
 9399SOL    HW239660   0.477   1.932   6.463 -1.8754  1.8826  1.5428
 9400SOL     OW39661   4.264   1.781   8.996 -0.2617 -0.2790 -0.5672
 9400SOL    HW139662   4.222   1.792   9.081  0.3182  0.6436 -0.4060
 9400SOL    HW239663   4.243   1.689   8.980  1.3906 -0.9543  1.1387
 9401SOL     OW39664   2.881   3.527   2.148  0.0505  0.3098 -0.5249
 9401SOL    HW139665   2.964   3.532   2.195  0.2479  0.0309 -0.8515
 9401SOL    HW239666   2.910   3.554   2.062 -2.7660  0.0823 -1.5650
 9402SOL     OW39667   3.915   4.112   9.065  0.5281 -0.6043  0.3131
 9402SOL    HW139668   3.891   4.129   9.156 -0.7848 -1.3567  0.1159
 9402SOL    HW239669   3.937   4.202   9.040 -0.2855 -0.2895  0.7138
 9403SOL     OW39670   1.694   1.567   6.718  0.7996 -0.5753 -0.1299
 9403SOL    HW139671   1.717   1.501   6.653  1.3515 -1.3710  0.8630
 9403SOL    HW239672   1.777   1.612   6.705  0.0206  0.0698 -2.9148
 9404SOL     OW39673   4.270   2.913   5.980 -0.1143  0.6636  0.0740
 9404SOL    HW139674   4.237   2.972   6.048  2.4858  3.5649 -1.1436
 9404SOL    HW239675   4.228   2.950   5.903 -0.1889  0.0666 -0.1689
 9405SOL     OW39676   3.816   1.427  16.832  0.4049 -0.1682  0.2996
 9405SOL    HW139677   3.890   1.375  16.865 -0.7736 -2.4466 -0.6400
 9405SOL    HW239678   3.779   1.467  16.910 -1.3495 -2.4419  0.6265
 9406SOL     OW39679   1.880   0.593   2.531 -0.4384  0.0366  0.9689
 9406SOL    HW139680   1.910   0.650   2.603 -0.7897  2.9075 -1.1455
 9406SOL    HW239681   1.792   0.620   2.504  0.8854  3.0221 -0.4015
 9407SOL     OW39682   0.403   3.640   5.099 -0.1216  0.2813 -0.1365
 9407SOL    HW139683   0.381   3.548   5.086  2.6999 -0.3970 -0.2412
 9407SOL    HW239684   0.397   3.680   5.012  0.0922  0.1124 -0.2301
 9408SOL     OW39685   1.555   0.358  17.549 -0.4731  0.3616  0.2394
 9408SOL    HW139686   1.620   0.428  17.543 -0.7283  0.6585  0.9305
 9408SOL    HW239687   1.470   0.400  17.537 -0.7779 -0.9767 -2.2989
 9409SOL     OW39688   1.698   2.531   5.383  0.3869 -0.0755  0.4329
 9409SOL    HW139689   1.673   2.528   5.290  0.9134  2.1052  0.2379
 9409SOL    HW239690   1.738   2.445   5.398  2.1230  0.7784  0.5851
 9410SOL     OW39691   2.021   1.280   2.117  0.6297  0.4130  0.0002
 9410SOL    HW139692   1.987   1.299   2.030  2.6683  1.9674 -0.4605
 9410SOL    HW239693   2.025   1.184   2.126 -0.0131  0.6641  3.1311
 9411SOL     OW39694   0.512   3.323   5.883  0.7835 -0.5703  0.0996
 9411SOL    HW139695   0.505   3.290   5.972  1.1373  0.4486  0.5088
 9411SOL    HW239696   0.544   3.412   5.895  0.5623 -0.2889 -1.4088
 9412SOL     OW39697   1.216   2.288   6.451 -0.1562  0.6090 -0.2287
 9412SOL    HW139698   1.212   2.192   6.455  0.5262  0.5668 -0.5132
 9412SOL    HW239699   1.305   2.294   6.485  0.0124 -2.0013 -0.2231
 9413SOL     OW39700   2.637   1.042   3.538 -0.5678  0.0851  0.5604
 9413SOL    HW139701   2.663   0.976   3.474 -0.3034  1.6821 -0.9820
 9413SOL    HW239702   2.701   1.111   3.518 -0.2901 -0.2381  0.3322
 9414SOL     OW39703   2.593   0.951   6.045 -0.1473 -0.3990 -0.1123
 9414SOL    HW139704   2.504   0.918   6.054 -0.2257  0.0538  0.7308
 9414SOL    HW239705   2.622   0.893   5.975  1.5001  0.1825  0.0836
 9415SOL     OW39706   4.166   2.363  15.926 -0.3591  0.5607 -0.2189
 9415SOL    HW139707   4.209   2.437  15.883  1.0714  0.4944  1.0831
 9415SOL    HW239708   4.132   2.321  15.847  0.8625 -1.6250  0.4339
 9416SOL     OW39709   0.601   2.618   4.532  0.1365 -0.0245  0.2883
 9416SOL    HW139710   0.630   2.674   4.603  0.6151 -0.3621  0.3610
 9416SOL    HW239711   0.621   2.672   4.455  1.7412  0.2255  0.8768
 9417SOL     OW39712   4.624   2.683   2.055  0.0193  0.2970 -0.2010
 9417SOL    HW139713   4.594   2.598   2.021  0.0387 -0.2683  1.1859
 9417SOL    HW239714   4.676   2.730   1.990 -0.4944 -1.3370 -1.8081
 9418SOL     OW39715   2.059   1.221   5.540  0.5500 -0.1163 -0.0645
 9418SOL    HW139716   1.995   1.288   5.565  0.1253 -0.5894  0.1008
 9418SOL    HW239717   2.141   1.266   5.518  2.0640 -2.1981  1.3345
 9419SOL     OW39718   1.908   1.076   2.599  0.2306  0.5857 -0.1690
 9419SOL    HW139719   1.889   1.149   2.539 -0.7624  1.8354  1.6598
 9419SOL    HW239720   1.905   1.002   2.538 -2.1855  0.9008 -0.4326
 9420SOL     OW39721   1.261   0.456   2.536  0.5999 -0.0331  0.2164
 9420SOL    HW139722   1.349   0.466   2.573  1.0892 -3.1900 -0.0903
 9420SOL    HW239723   1.287   0.464   2.444  2.4251  0.8206  0.8042
 9421SOL     OW39724   1.809   1.166   6.913  0.1860  0.1125 -0.0711
 9421SOL    HW139725   1.776   1.251   6.944 -0.0372 -0.7256  1.9831
 9421SOL    HW239726   1.853   1.193   6.833 -0.5498 -0.2721 -0.6029
 9422SOL     OW39727   0.873   4.439   9.804 -0.8052 -0.4054  0.1704
 9422SOL    HW139728   0.862   4.393   9.887 -0.4349 -1.8832 -0.5950
 9422SOL    HW239729   0.919   4.368   9.760 -1.1951 -0.7643  0.3467
 9423SOL     OW39730   0.195   3.747   3.604 -0.1749  0.2164  0.3083
 9423SOL    HW139731   0.283   3.760   3.570 -0.8079  1.4536 -0.8606
 9423SOL    HW239732   0.196   3.802   3.683  0.7275  2.1078 -1.0234
 9424SOL     OW39733   4.508   2.574   5.309 -0.2643 -0.0225  0.3924
 9424SOL    HW139734   4.444   2.518   5.354  1.2882 -1.4673  0.7854
 9424SOL    HW239735   4.463   2.644   5.262  0.6282  1.1392  1.2884
 9425SOL     OW39736   3.838   1.309   2.041  0.3125  0.3280 -0.5147
 9425SOL    HW139737   3.885   1.338   1.963  0.3418 -0.3627 -0.7559
 9425SOL    HW239738   3.888   1.232   2.068  2.6197  1.0651 -2.6264
 9426SOL     OW39739   4.613   1.227   1.170  0.1678  0.0279  0.1266
 9426SOL    HW139740   4.522   1.211   1.146 -0.1473  2.0783 -0.1020
 9426SOL    HW239741   4.632   1.290   1.100 -0.4502  1.9441  1.6743
 9427SOL     OW39742   1.284   1.766   6.568 -0.1663 -0.2348 -0.3146
 9427SOL    HW139743   1.246   1.746   6.653  3.8412 -1.0204  1.3300
 9427SOL    HW239744   1.288   1.861   6.577  0.4602 -0.1594 -1.3502
 9428SOL     OW39745   3.619   2.526   9.453  0.0166  0.1363  0.2190
 9428SOL    HW139746   3.536   2.575   9.452  0.4428  0.8374 -0.5910
 9428SOL    HW239747   3.661   2.568   9.527 -2.1815  1.9370  0.4484
 9429SOL     OW39748   2.180   3.000   9.239 -0.1744 -0.2615 -0.3356
 9429SOL    HW139749   2.125   2.964   9.308  0.0424 -0.1477 -0.1023
 9429SOL    HW239750   2.187   3.094   9.259 -2.4078 -0.2649  0.4733
 9430SOL     OW39751   0.180   4.013   8.291  0.4903 -0.1309 -0.6652
 9430SOL    HW139752   0.134   4.007   8.374  0.4934 -2.4526 -0.8287
 9430SOL    HW239753   0.269   4.025   8.324 -0.8056  1.3222  2.2652
 9431SOL     OW39754   3.444   0.294   7.029  0.1569  0.1721 -0.0551
 9431SOL    HW139755   3.428   0.336   6.945 -0.5502 -0.8765 -0.4481
 9431SOL    HW239756   3.363   0.244   7.034  0.3623 -0.1587 -0.0496
 9432SOL     OW39757   2.112   2.251   0.069  0.1051 -0.1389  0.0011
 9432SOL    HW139758   2.117   2.320   0.003  0.5833 -0.6211 -0.4718
 9432SOL    HW239759   2.068   2.188   0.013  2.2003 -1.6229  0.0158
 9433SOL     OW39760   1.853   2.829   7.130 -0.0874  0.8645 -0.2638
 9433SOL    HW139761   1.789   2.878   7.181  0.4577  1.7563 -0.4245
 9433SOL    HW239762   1.918   2.829   7.200 -1.0799 -0.0482  0.6379
 9434SOL     OW39763   3.114   1.409   4.109 -0.1709  0.2866 -0.0094
 9434SOL    HW139764   3.072   1.406   4.195 -1.4173  1.8732 -0.5704
 9434SOL    HW239765   3.147   1.319   4.104  1.4044  0.7773  1.4560
 9435SOL     OW39766   4.345   0.248  16.832 -0.4167  0.1647  0.1271
 9435SOL    HW139767   4.338   0.179  16.766  1.9881 -0.5369  0.5831
 9435SOL    HW239768   4.257   0.256  16.867 -0.5738  0.5746 -0.3561
 9436SOL     OW39769   1.933   0.298   6.871 -0.3139 -0.1484  0.1139
 9436SOL    HW139770   2.022   0.270   6.850 -0.2171  0.1571  0.1238
 9436SOL    HW239771   1.878   0.230   6.833  0.9461 -0.9483 -0.2645
 9437SOL     OW39772   0.709   2.699  12.314 -0.2910 -0.3399  0.0338
 9437SOL    HW139773   0.702   2.752  12.394  1.5269 -1.0496  0.6663
 9437SOL    HW239774   0.791   2.733  12.277 -0.8820 -0.7304 -1.5931
 9438SOL     OW39775   2.462   2.877   2.390 -0.4121 -0.3972  0.2887
 9438SOL    HW139776   2.391   2.855   2.450  0.3516 -1.8493  0.6730
 9438SOL    HW239777   2.413   2.941   2.338  2.4340  2.5996  1.3133
 9439SOL     OW39778   3.345   0.910   5.928  0.2048 -0.2429 -0.0807
 9439SOL    HW139779   3.290   0.853   5.982  1.7603 -0.7970  0.9105
 9439SOL    HW239780   3.425   0.858   5.932  1.1960  1.0186 -3.4841
 9440SOL     OW39781   3.126   3.787   4.370  0.1764 -0.5474  0.2981
 9440SOL    HW139782   3.048   3.840   4.349  0.4200  0.1009  1.0444
 9440SOL    HW239783   3.091   3.700   4.387  0.0561 -0.4205  0.6976
 9441SOL     OW39784   3.353   2.020  12.619 -0.1525  0.1341  0.6324
 9441SOL    HW139785   3.280   2.077  12.597 -0.5323 -0.4645  0.3352
 9441SOL    HW239786   3.430   2.050  12.571  1.0926 -0.2565  2.3709
 9442SOL     OW39787   2.477   1.994   8.165  0.4932  0.2420  0.2637
 9442SOL    HW139788   2.525   1.974   8.245  1.1032 -1.4607 -0.5254
 9442SOL    HW239789   2.422   2.062   8.203 -1.2339 -0.5208 -0.8636
 9443SOL     OW39790   2.337   3.830   6.834 -0.5682  0.2282 -0.7297
 9443SOL    HW139791   2.392   3.761   6.872  0.8181  1.1676 -1.0270
 9443SOL    HW239792   2.299   3.773   6.767 -0.8734  0.7874 -1.0287
 9444SOL     OW39793   3.116   3.548   8.790  0.1198  0.4331 -0.1498
 9444SOL    HW139794   3.166   3.497   8.726  0.2505  1.5326 -0.9265
 9444SOL    HW239795   3.139   3.509   8.874 -3.4955  1.7899  1.4756
 9445SOL     OW39796   2.609   0.432   4.896 -0.1272 -0.0818 -0.2603
 9445SOL    HW139797   2.701   0.417   4.918 -0.1301 -0.3491 -0.4399
 9445SOL    HW239798   2.571   0.457   4.980  0.1936  2.3803 -0.8452
 9446SOL     OW39799   1.033   1.806  11.638 -0.8109 -0.2916  0.7207
 9446SOL    HW139800   1.106   1.845  11.687  0.4439  0.1904 -1.5441
 9446SOL    HW239801   1.031   1.866  11.563  0.1070 -1.9197 -0.5836
 9447SOL     OW39802   2.532   4.390  13.799  0.0722  0.3308 -0.0176
 9447SOL    HW139803   2.607   4.369  13.854 -0.1380  2.0812  0.9663
 9447SOL    HW239804   2.468   4.442  13.848 -1.0543 -0.3020 -0.8315
 9448SOL     OW39805   1.040   1.432   9.705 -0.0062  0.6351  0.3955
 9448SOL    HW139806   1.044   1.512   9.758 -2.5608  2.0248 -1.4848
 9448SOL    HW239807   0.952   1.430   9.669 -0.3603 -0.4790  1.3492
 9449SOL     OW39808   3.307   3.244   9.986 -0.1136  0.2293  0.2070
 9449SOL    HW139809   3.350   3.217  10.067  2.9252  0.9489 -1.2028
 9449SOL    HW239810   3.317   3.339   9.988  0.5178  0.1820 -0.6455
 9450SOL     OW39811   0.965   1.912   0.811 -0.0439  0.0680  0.0373
 9450SOL    HW139812   0.905   1.934   0.740  1.3255  2.3634 -0.3939
 9450SOL    HW239813   1.038   1.970   0.790  0.0407  0.0767  0.3550
 9451SOL     OW39814   1.185   0.278  16.763  0.2631  0.0710  0.0279
 9451SOL    HW139815   1.181   0.252  16.671 -0.3892 -0.8016  0.3079
 9451SOL    HW239816   1.179   0.373  16.753  1.9065  0.2289  0.5282
 9452SOL     OW39817   4.244   1.414  14.183 -0.1261 -0.1879 -0.3167
 9452SOL    HW139818   4.154   1.444  14.169 -0.1482 -0.2620 -0.3371
 9452SOL    HW239819   4.262   1.376  14.097 -0.2276 -0.5436 -0.1824
 9453SOL     OW39820   3.426   0.824  14.323 -0.2716 -0.6326 -0.3741
 9453SOL    HW139821   3.464   0.904  14.285 -1.2383  1.7363  3.5818
 9453SOL    HW239822   3.503   0.771  14.342 -1.2257 -1.9643 -0.2782
 9454SOL     OW39823   1.066   4.637   4.611  0.7625 -0.0356 -0.4353
 9454SOL    HW139824   1.077   4.660   4.519  1.8921  0.3022 -0.2177
 9454SOL    HW239825   1.007   4.562   4.617  1.4698 -0.3936  2.0863
 9455SOL     OW39826   0.039   2.403   6.238  0.3097  0.6696 -0.5741
 9455SOL    HW139827   0.121   2.375   6.196  0.9681  1.3210  0.2664
 9455SOL    HW239828   4.705   2.328   6.244  1.9629 -0.4319  1.7721
 9456SOL     OW39829   3.662   3.363   3.954  0.6121 -0.0599 -0.0944
 9456SOL    HW139830   3.691   3.416   4.028 -0.2775  3.1593 -2.0417
 9456SOL    HW239831   3.566   3.368   3.958  0.5663  0.3140 -1.4424
 9457SOL     OW39832   0.857   1.324   7.896 -0.2200  0.2669  0.4598
 9457SOL    HW139833   0.803   1.289   7.967 -2.9810  0.5129 -1.5149
 9457SOL    HW239834   0.936   1.273   7.911  1.1681  2.1259 -0.6046
 9458SOL     OW39835   4.419   1.934   6.560  0.2485  0.7261 -0.5821
 9458SOL    HW139836   4.416   1.859   6.500  1.2336  1.5271 -1.6419
 9458SOL    HW239837   4.334   1.921   6.602  0.9782 -2.4276 -0.0490
 9459SOL     OW39838   0.511   1.641   8.839  0.3617  0.2057 -0.2991
 9459SOL    HW139839   0.564   1.562   8.837  2.2990  1.5143 -2.1149
 9459SOL    HW239840   0.432   1.594   8.864  0.8205 -1.0701 -1.2711
 9460SOL     OW39841   0.303   2.401   1.020  0.0492  0.8778  0.1173
 9460SOL    HW139842   0.336   2.423   1.107 -1.4454  1.4428  0.5355
 9460SOL    HW239843   0.211   2.379   1.033  0.0075 -1.1402 -3.6790
 9461SOL     OW39844   0.822   2.955   8.833 -0.3310 -0.0865 -0.3943
 9461SOL    HW139845   0.817   2.971   8.738 -0.5020  1.0627 -0.1823
 9461SOL    HW239846   0.909   2.917   8.843 -0.6107 -0.4192  0.7657
 9462SOL     OW39847   2.122   4.635  10.441 -0.3539  0.0318 -0.2545
 9462SOL    HW139848   2.165   4.720  10.445  2.5115 -1.3668 -1.1079
 9462SOL    HW239849   2.157   4.606  10.525 -0.6178 -0.0021 -0.1574
 9463SOL     OW39850   2.114   4.520   7.343 -0.1302  0.2483 -0.6119
 9463SOL    HW139851   2.201   4.496   7.313  0.2395 -1.4486  1.8086
 9463SOL    HW239852   2.130   4.596   7.398 -0.1690  1.1184 -1.8112
 9464SOL     OW39853   1.993   3.997   7.458 -0.3007  0.0208  0.0638
 9464SOL    HW139854   2.073   3.957   7.491  0.5486  1.6850  0.0223
 9464SOL    HW239855   1.966   3.941   7.385 -1.1507  1.2457 -0.5686
 9465SOL     OW39856   2.275   0.735   2.515 -0.0004 -0.5066 -0.3085
 9465SOL    HW139857   2.252   0.642   2.515  0.8331 -0.7136 -0.1129
 9465SOL    HW239858   2.340   0.740   2.445 -0.3012 -2.6653 -0.7431
 9466SOL     OW39859   2.953   4.111  12.174 -0.3947 -0.0749 -0.4667
 9466SOL    HW139860   3.037   4.066  12.185  0.1418  1.3884  1.5828
 9466SOL    HW239861   2.972   4.185  12.232 -1.5980  0.2915 -0.5424
 9467SOL     OW39862   1.062   0.664   4.248 -0.0098 -0.1484 -0.4456
 9467SOL    HW139863   1.054   0.721   4.172 -1.8650 -0.3922 -0.4333
 9467SOL    HW239864   0.972   0.639   4.273  0.6956 -1.3361  0.9227
 9468SOL     OW39865   1.292   3.065  15.734 -0.1781  0.4093 -0.2205
 9468SOL    HW139866   1.354   2.993  15.731 -0.7180  0.0062 -1.6779
 9468SOL    HW239867   1.287   3.096  15.643 -1.9453 -0.1371 -0.3211
 9469SOL     OW39868   2.674   3.921   8.200  0.3395  0.0753 -0.1177
 9469SOL    HW139869   2.646   4.001   8.155  0.0749  0.7912  1.3303
 9469SOL    HW239870   2.615   3.860   8.156  1.3019 -1.7231  1.0727
 9470SOL     OW39871   3.561   2.170   8.166 -0.3202 -0.0917  0.0411
 9470SOL    HW139872   3.614   2.148   8.090 -0.6873  0.2564 -0.3160
 9470SOL    HW239873   3.504   2.093   8.175 -1.6058  0.8719  0.1858
 9471SOL     OW39874   1.867   3.329   7.523  0.1779 -0.3556  0.3033
 9471SOL    HW139875   1.958   3.355   7.509 -0.2015  1.6153  1.4791
 9471SOL    HW239876   1.806   3.379   7.469 -0.4710 -1.6180 -0.1273
 9472SOL     OW39877   0.333   0.248   2.538 -0.0557  0.0135 -0.1682
 9472SOL    HW139878   0.386   0.328   2.545 -0.4355  0.2300  0.2555
 9472SOL    HW239879   0.310   0.257   2.446 -0.6542  1.0394  0.0873
 9473SOL     OW39880   4.434   4.179   2.851 -0.4456  0.0507  0.1326
 9473SOL    HW139881   4.463   4.187   2.942  1.7519 -1.0929 -0.4493
 9473SOL    HW239882   4.505   4.212   2.796 -1.0121  0.2304 -0.4903
 9474SOL     OW39883   4.263   1.585   5.362  1.0563  0.6352  0.3151
 9474SOL    HW139884   4.277   1.630   5.446 -3.0082 -0.4530  1.5764
 9474SOL    HW239885   4.263   1.496   5.396 -0.2514  0.3877 -0.3432
 9475SOL     OW39886   3.757   4.698   2.901  0.6462  0.0701  0.2982
 9475SOL    HW139887   3.766   4.662   2.990  0.9362  0.6249  0.4952
 9475SOL    HW239888   3.764   0.068   2.915 -0.0713 -0.0393  1.4797
 9476SOL     OW39889   2.680   4.325   5.143 -0.2338  0.0113  0.4268
 9476SOL    HW139890   2.638   4.304   5.227 -0.6761  2.6979  0.8822
 9476SOL    HW239891   2.667   4.241   5.100 -5.6945  0.6398  0.8192
 9477SOL     OW39892   2.678   3.080   1.955  0.4900  0.9297  0.5340
 9477SOL    HW139893   2.671   3.165   1.998 -0.0562  1.3274 -0.3274
 9477SOL    HW239894   2.773   3.078   1.949  0.4407  2.3944 -0.7507
 9478SOL     OW39895   4.715   1.917  15.544  0.2662  0.3758 -0.1705
 9478SOL    HW139896   0.014   1.829  15.515  0.1822  0.6443 -1.0658
 9478SOL    HW239897   0.069   1.942  15.591 -1.0228  0.2738  2.0127
 9479SOL     OW39898   2.913   1.431   2.448  0.0892  0.4000 -0.4696
 9479SOL    HW139899   2.862   1.423   2.367  0.1313 -0.0789 -0.4497
 9479SOL    HW239900   2.947   1.341   2.453  1.3766  0.9294  0.1774
 9480SOL     OW39901   3.172   1.845  11.238 -0.4730 -0.1609 -0.2540
 9480SOL    HW139902   3.199   1.753  11.243  3.5334  1.0166 -0.1967
 9480SOL    HW239903   3.094   1.851  11.293  0.1851  2.7494  0.3249
 9481SOL     OW39904   1.348   2.352   1.984 -0.1847  0.0002  0.0559
 9481SOL    HW139905   1.294   2.274   1.994 -0.0101 -0.0130  0.8557
 9481SOL    HW239906   1.416   2.328   1.921  0.5147 -0.4801  0.9996
 9482SOL     OW39907   0.013   2.838   2.798 -0.4388  0.2526 -0.0604
 9482SOL    HW139908   4.673   2.802   2.738 -0.2055 -0.9698  0.4264
 9482SOL    HW239909   0.024   2.929   2.769 -1.4541  0.9933  1.8868
 9483SOL     OW39910   1.814   0.320  10.998 -0.1271 -0.0278  0.0656
 9483SOL    HW139911   1.786   0.371  11.074 -0.5864 -2.5124  1.5683
 9483SOL    HW239912   1.844   0.240  11.041  2.2909  1.2644  0.7703
 9484SOL     OW39913   4.641   1.637  11.326 -0.9617  0.3212 -0.6464
 9484SOL    HW139914   4.591   1.687  11.261 -1.3645  0.5489 -0.1661
 9484SOL    HW239915   4.584   1.564  11.352 -1.7885  1.6602  1.3373
 9485SOL     OW39916   1.264   3.795   1.206 -0.1816  0.1864 -0.2383
 9485SOL    HW139917   1.287   3.833   1.121  4.1283  0.3159  1.0144
 9485SOL    HW239918   1.207   3.860   1.248 -0.0500  0.2932 -0.2246
 9486SOL     OW39919   4.548   3.524  17.095 -0.9500  0.2197 -0.3638
 9486SOL    HW139920   4.576   3.613  17.071 -0.1056  0.0035 -0.1719
 9486SOL    HW239921   4.489   3.548  17.166 -3.2300  0.3936 -2.3389
 9487SOL     OW39922   1.170   0.663  10.928 -0.3796  0.0651  0.4713
 9487SOL    HW139923   1.219   0.673  11.009 -0.6724 -2.1065  0.9371
 9487SOL    HW239924   1.187   0.571  10.906 -1.4976 -0.1595  0.5396
 9488SOL     OW39925   2.600   1.120   3.956 -0.1353 -0.1143 -0.2211
 9488SOL    HW139926   2.558   1.149   3.875  0.9683 -0.5695 -0.9565
 9488SOL    HW239927   2.675   1.074   3.919  1.0049  1.1837  0.4667
 9489SOL     OW39928   1.432   3.753   5.865  0.6790  0.0638  0.3110
 9489SOL    HW139929   1.477   3.821   5.815 -0.9190  0.4316 -0.6148
 9489SOL    HW239930   1.436   3.679   5.805 -0.2040 -0.0264  0.3666
 9490SOL     OW39931   2.636   4.619   4.386  0.0755  0.0484 -0.4476
 9490SOL    HW139932   2.651   4.545   4.445 -1.2591  0.0927 -0.0553
 9490SOL    HW239933   2.603   4.573   4.309  0.5830  1.9333 -1.7951
 9491SOL     OW39934   2.336   4.051   5.931  0.0282  0.4534 -0.2938
 9491SOL    HW139935   2.256   4.066   5.881 -0.2345  0.2306  0.0617
 9491SOL    HW239936   2.381   4.131   5.906  0.2307 -0.3524 -2.5201
 9492SOL     OW39937   2.585   0.349   8.253  0.3969 -0.3386 -0.4272
 9492SOL    HW139938   2.638   0.330   8.176  2.3444  0.7784  0.6515
 9492SOL    HW239939   2.502   0.374   8.212 -1.1552 -0.9754  2.3250
 9493SOL     OW39940   3.809   2.966   1.151  0.3082  0.0141  0.0911
 9493SOL    HW139941   3.821   2.894   1.213 -2.0510  0.8342  1.4734
 9493SOL    HW239942   3.730   2.935   1.107 -0.2709  2.8231 -0.8551
 9494SOL     OW39943   0.214   2.163   7.816  0.1622  0.0890 -0.8728
 9494SOL    HW139944   0.212   2.157   7.720  0.5422 -2.8214 -0.6748
 9494SOL    HW239945   0.248   2.079   7.846 -0.2826  0.3596  0.3908
 9495SOL     OW39946   3.212   3.919  16.447 -0.2844 -0.1422 -0.0855
 9495SOL    HW139947   3.255   3.930  16.532 -0.1804  0.7419 -0.2481
 9495SOL    HW239948   3.176   3.831  16.439  1.9663 -1.2125  1.4489
 9496SOL     OW39949   0.371   2.405   8.894  0.5245  0.4350 -0.9241
 9496SOL    HW139950   0.425   2.382   8.969  0.1271 -2.2161 -1.4712
 9496SOL    HW239951   0.407   2.358   8.819  0.2211  0.5257 -1.1276
 9497SOL     OW39952   0.205   0.417   5.537 -0.7509  0.0655  0.4629
 9497SOL    HW139953   0.265   0.345   5.557 -0.7755  0.2285  1.1383
 9497SOL    HW239954   0.127   0.387   5.584 -1.1706  1.5750  0.7039
 9498SOL     OW39955   1.150   2.555   2.265  0.0342  0.3613 -0.1145
 9498SOL    HW139956   1.240   2.525   2.255  0.5773  1.0048  3.0063
 9498SOL    HW239957   1.144   2.566   2.360 -2.0315 -2.0228  0.0186
 9499SOL     OW39958   0.412   1.404   2.425 -0.4085 -0.1755 -0.8871
 9499SOL    HW139959   0.474   1.416   2.353  1.6492  1.4418  1.1782
 9499SOL    HW239960   0.362   1.483   2.401 -2.2537 -0.3644  2.3853
 9500SOL     OW39961   1.453   1.256   8.277 -0.1755  0.2189 -0.7602
 9500SOL    HW139962   1.542   1.234   8.305 -1.9573 -0.7919  4.0999
 9500SOL    HW239963   1.466   1.348   8.253  4.4330 -0.1317  0.2314
 9501SOL     OW39964   3.965   1.463   8.383  0.0387 -0.1279  0.6924
 9501SOL    HW139965   3.927   1.382   8.416  0.1478 -0.3908  0.1812
 9501SOL    HW239966   3.887   1.516   8.372 -0.2884 -0.7450 -0.0366
 9502SOL     OW39967   2.519   3.615   2.916  0.1219 -0.1829 -0.1648
 9502SOL    HW139968   2.444   3.673   2.930 -0.3537 -0.5713 -1.1349
 9502SOL    HW239969   2.567   3.674   2.858 -1.3949  1.0487 -0.1791
 9503SOL     OW39970   0.360   3.298   1.706  0.4857 -0.4102 -0.3032
 9503SOL    HW139971   0.438   3.298   1.650 -0.5722  1.9971 -1.7912
 9503SOL    HW239972   0.398   3.272   1.790  1.3261  0.9044 -0.2698
 9504SOL     OW39973   3.896   1.223  10.538  0.2533  0.1811  0.2007
 9504SOL    HW139974   3.814   1.180  10.562 -0.0117  1.0977  0.9478
 9504SOL    HW239975   3.957   1.152  10.557 -2.2782 -2.2382 -0.7904
 9505SOL     OW39976   3.365   3.845  10.669  0.0518  0.6034  0.2682
 9505SOL    HW139977   3.425   3.821  10.599 -1.1133  0.6504 -0.7470
 9505SOL    HW239978   3.414   3.818  10.747  0.2718  1.0491  0.2852
 9506SOL     OW39979   1.585   2.038   8.957  0.2080 -0.1285 -0.4065
 9506SOL    HW139980   1.556   2.086   8.879  0.6636  0.5443 -0.1591
 9506SOL    HW239981   1.562   2.091   9.034  0.4650 -0.0600 -0.3795
 9507SOL     OW39982   1.976   3.689   4.685 -0.5211 -0.3449  0.1805
 9507SOL    HW139983   1.977   3.599   4.719  1.4650  0.2016  1.5721
 9507SOL    HW239984   1.900   3.728   4.729 -2.0008  0.6504 -3.2695
 9508SOL     OW39985   4.268   1.355   4.197 -0.2039  0.4108 -0.3397
 9508SOL    HW139986   4.233   1.408   4.269 -2.1683 -0.6175 -0.5490
 9508SOL    HW239987   4.323   1.408   4.140  0.0175  0.2980 -0.2297
 9509SOL     OW39988   2.476   1.717   3.743  0.2742  0.1851  0.1698
 9509SOL    HW139989   2.546   1.782   3.741  0.8549 -0.4882 -1.3256
 9509SOL    HW239990   2.430   1.743   3.662 -0.4350 -2.4182 -0.2472
 9510SOL     OW39991   4.237   0.323   6.446 -0.2529  0.2335  0.3582
 9510SOL    HW139992   4.150   0.329   6.484 -0.6069 -0.4538 -0.3430
 9510SOL    HW239993   4.244   0.233   6.416  0.4693  0.5046 -0.2979
 9511SOL     OW39994   1.333   3.494   6.249  0.3001 -0.1590 -0.4793
 9511SOL    HW139995   1.407   3.434   6.243 -0.7273 -1.0909 -4.1243
 9511SOL    HW239996   1.307   3.502   6.158 -0.2884  0.1809 -0.2800
 9512SOL     OW39997   4.159   1.757   2.228  0.0201 -0.2800 -0.0300
 9512SOL    HW139998   4.185   1.718   2.145  0.4315  1.2246 -0.6168
 9512SOL    HW239999   4.125   1.842   2.199 -1.5251 -0.6546  0.6975
 9513SOL     OW40000   2.274   0.467   2.533 -0.0865  0.1150 -0.2845
 9513SOL    HW140001   2.314   0.388   2.568 -0.2364 -0.3104 -1.0561
 9513SOL    HW240002   2.304   0.455   2.442  2.1164  0.1691  0.4341
 9514SOL     OW40003   0.870   3.355  13.865  0.2051  0.0863  0.4097
 9514SOL    HW140004   0.846   3.373  13.774 -0.9125 -0.4759  0.5954
 9514SOL    HW240005   0.812   3.285  13.895 -1.8937  1.5302 -0.1996
 9515SOL     OW40006   3.007   2.283   2.681 -0.4599  0.1354 -0.3552
 9515SOL    HW140007   3.013   2.228   2.603  1.4293  0.5198 -0.4863
 9515SOL    HW240008   3.034   2.369   2.649  0.9981  0.3961  1.5469
 9516SOL     OW40009   1.087   3.161   7.508 -0.0086  0.7556 -0.2591
 9516SOL    HW140010   1.162   3.199   7.554  0.6952  0.1537 -0.9086
 9516SOL    HW240011   1.110   3.073   7.540  0.7639  0.8410 -0.5683
 9517SOL     OW40012   4.513   4.006  12.752  0.6870 -0.2141 -0.7323
 9517SOL    HW140013   4.608   3.992  12.754  0.9149  1.0111 -2.9640
 9517SOL    HW240014   4.487   3.913  12.751  0.9042 -0.2770 -0.3326
 9518SOL     OW40015   3.379   4.189  15.844  0.0053 -0.4324 -0.2496
 9518SOL    HW140016   3.302   4.233  15.807  0.2965 -1.5753 -2.2145
 9518SOL    HW240017   3.379   4.100  15.809  0.1160 -0.3847 -0.3710
 9519SOL     OW40018   0.509   4.346   2.932  0.9945  0.8675  0.3168
 9519SOL    HW140019   0.415   4.364   2.926  0.5610 -0.5788  2.9805
 9519SOL    HW240020   0.537   4.427   2.974  1.5861  1.9121 -2.0705
 9520SOL     OW40021   2.682   0.893   5.206  0.2932  0.0117  0.0472
 9520SOL    HW140022   2.702   0.936   5.289 -0.5069  0.0710  0.2103
 9520SOL    HW240023   2.661   0.966   5.148  1.2022 -0.7471 -1.2150
 9521SOL     OW40024   3.291   2.782  13.240 -0.5347  0.5061  0.2690
 9521SOL    HW140025   3.230   2.754  13.171  0.3193  1.2564 -0.7843
 9521SOL    HW240026   3.311   2.871  13.213  0.1992  0.5568  0.9839
 9522SOL     OW40027   2.481   4.124   2.547  0.0616 -0.4457  0.3254
 9522SOL    HW140028   2.458   4.032   2.537 -0.7500 -0.1826 -0.2202
 9522SOL    HW240029   2.514   4.124   2.637 -1.2467  1.4436  0.8137
 9523SOL     OW40030   0.970   3.132   7.149 -0.0507 -0.2411  0.2094
 9523SOL    HW140031   0.966   3.149   7.055  0.9410  0.5778  0.3138
 9523SOL    HW240032   0.983   3.220   7.185 -3.1494  0.3482 -0.1126
 9524SOL     OW40033   2.161   2.184   7.429 -0.1678 -0.1063  0.1790
 9524SOL    HW140034   2.081   2.195   7.378  0.3987 -0.3491 -0.7672
 9524SOL    HW240035   2.231   2.216   7.372 -0.6496 -0.3617 -0.5549
 9525SOL     OW40036   1.199   4.313   7.095 -0.3579 -0.7295 -0.2447
 9525SOL    HW140037   1.169   4.400   7.068 -1.4356 -1.0342 -0.0279
 9525SOL    HW240038   1.240   4.287   7.013  3.2633  4.0241 -0.0137
 9526SOL     OW40039   3.006   3.095   4.029 -0.2626 -0.2322 -0.4852
 9526SOL    HW140040   2.992   3.113   3.936  2.5127  0.5520 -0.7659
 9526SOL    HW240041   2.961   3.012   4.042  2.2832 -1.7392 -1.3180
 9527SOL     OW40042   1.939   3.945   8.919 -0.0631  0.9018  0.1810
 9527SOL    HW140043   1.939   3.926   8.825 -0.2892 -1.6229  0.6947
 9527SOL    HW240044   1.943   4.040   8.921  2.4336  0.7917 -0.3193
 9528SOL     OW40045   1.303   4.001  17.065 -0.3752  0.1209  0.4255
 9528SOL    HW140046   1.284   3.933  17.130  0.3720  0.1770  0.7122
 9528SOL    HW240047   1.387   4.027  17.103 -0.3378  0.4242  0.1354
 9529SOL     OW40048   0.296   3.790  11.336  0.1252  0.6551  0.4135
 9529SOL    HW140049   0.304   3.717  11.398  0.0100 -1.3768 -1.9661
 9529SOL    HW240050   0.373   3.834  11.370  0.7457 -1.4397  1.7244
 9530SOL     OW40051   0.627   4.209   6.787 -0.7881 -0.0753 -0.2922
 9530SOL    HW140052   0.655   4.218   6.696 -4.3823 -0.3690 -1.4158
 9530SOL    HW240053   0.575   4.129   6.781 -0.7184 -0.2021  0.7550
 9531SOL     OW40054   3.910   0.679   7.871 -0.6658 -0.2124 -0.2430
 9531SOL    HW140055   3.836   0.677   7.931 -1.9345  1.9409 -1.7279
 9531SOL    HW240056   3.863   0.653   7.792 -2.5527  0.5170  0.6588
 9532SOL     OW40057   2.994   3.424   7.894 -0.4787  0.4592  0.2532
 9532SOL    HW140058   2.952   3.341   7.915 -2.8143  1.0606 -2.0938
 9532SOL    HW240059   2.987   3.415   7.799 -0.2599  3.3854 -0.0618
 9533SOL     OW40060   2.435   3.103   4.166  0.2595  0.1617  0.1870
 9533SOL    HW140061   2.453   3.197   4.161 -0.5573  0.4218  2.1152
 9533SOL    HW240062   2.360   3.105   4.226  0.1965  0.3608  0.1023
 9534SOL     OW40063   2.441   1.411   9.129 -0.0342 -0.6809 -0.1479
 9534SOL    HW140064   2.346   1.424   9.127  0.5036  2.8879 -1.6997
 9534SOL    HW240065   2.466   1.428   9.220 -1.4950  0.3727  0.0408
 9535SOL     OW40066   2.879   2.939  10.935 -0.4769 -0.4124  0.7965
 9535SOL    HW140067   2.787   2.938  10.960 -0.9068  0.8922 -0.6884
 9535SOL    HW240068   2.891   3.034  10.944  1.4156 -0.8499  2.8149
 9536SOL     OW40069   4.713   2.147   8.872 -0.0223 -0.0878 -0.2649
 9536SOL    HW140070   0.078   2.158   8.840 -0.7099 -0.2338 -2.2522
 9536SOL    HW240071   4.659   2.199   8.811 -2.1679 -1.0335  0.8316
 9537SOL     OW40072   3.394   2.768   2.753 -0.7095  0.1966 -0.0311
 9537SOL    HW140073   3.484   2.740   2.767 -0.9600  0.1004  1.3829
 9537SOL    HW240074   3.361   2.688   2.712 -2.4513  0.4067  0.9360
 9538SOL     OW40075   1.562   3.785   9.843  0.5490  0.3071 -0.7599
 9538SOL    HW140076   1.537   3.819   9.757  0.5888 -0.4327 -1.0666
 9538SOL    HW240077   1.527   3.696   9.845 -3.9870  2.1000 -0.4320
 9539SOL     OW40078   0.081   0.170   8.251  0.5719 -0.1710  0.3215
 9539SOL    HW140079   0.133   0.130   8.181 -0.3448  1.7960 -1.5104
 9539SOL    HW240080   0.154   0.209   8.299 -0.8805 -0.5733  2.8572
 9540SOL     OW40081   2.257   4.361   5.025 -0.3470  0.4575  0.4000
 9540SOL    HW140082   2.241   4.387   5.116  0.9144  1.7495  0.2626
 9540SOL    HW240083   2.270   4.448   4.988  1.3344 -0.8240 -1.9817
 9541SOL     OW40084   3.635   2.416   6.462  0.3910 -0.0994  0.2960
 9541SOL    HW140085   3.568   2.404   6.529 -2.2446 -0.2667 -2.4028
 9541SOL    HW240086   3.717   2.401   6.509 -1.0656 -2.6070  2.0270
 9542SOL     OW40087   1.273   4.412   2.342  0.2848  0.1968  0.1425
 9542SOL    HW140088   1.217   4.481   2.308  0.0700  0.1710  0.4432
 9542SOL    HW240089   1.340   4.397   2.275  0.2511  1.0018 -0.0767
 9543SOL     OW40090   3.742   0.997   8.350 -0.2941  0.7364  0.0799
 9543SOL    HW140091   3.830   0.966   8.375 -0.1695  0.3945 -0.7943
 9543SOL    HW240092   3.688   0.985   8.428 -2.4680 -1.9453 -1.8458
 9544SOL     OW40093   1.384   2.252   4.375 -0.4951 -0.3999  0.3038
 9544SOL    HW140094   1.313   2.233   4.313 -0.8276  0.5507  0.4014
 9544SOL    HW240095   1.347   2.217   4.456  0.2415  0.2433  0.9066
 9545SOL     OW40096   1.547   0.691   3.661 -0.1565  0.3440 -0.6483
 9545SOL    HW140097   1.614   0.731   3.607  1.0247  0.9115  1.2530
 9545SOL    HW240098   1.480   0.759   3.669  2.9933  3.2937  0.5324
 9546SOL     OW40099   3.217   2.192   8.990 -0.2704  0.8313  0.2525
 9546SOL    HW140100   3.138   2.236   8.959 -0.6800 -1.0304 -1.2848
 9546SOL    HW240101   3.200   2.171   9.082  1.3934 -0.2990  0.2889
 9547SOL     OW40102   0.262   3.351   0.741  0.3121 -0.1376  0.2783
 9547SOL    HW140103   0.356   3.358   0.729  0.4166  0.0251  1.2504
 9547SOL    HW240104   0.236   3.261   0.760 -0.7965  0.4622  1.6121
 9548SOL     OW40105   0.714   1.402   1.822  0.0580  0.4947 -0.4843
 9548SOL    HW140106   0.745   1.312   1.822 -0.0659  0.4510  0.3147
 9548SOL    HW240107   0.631   1.382   1.865 -0.1628 -1.3253 -1.7896
 9549SOL     OW40108   3.939   2.905  14.087  0.0622  0.5588 -0.0640
 9549SOL    HW140109   3.905   2.844  14.152  0.7753  2.2991  1.9414
 9549SOL    HW240110   3.899   2.870  14.007  0.3695 -0.8452  0.3953
 9550SOL     OW40111   1.947   3.158   6.434 -0.0791 -0.4379 -0.1669
 9550SOL    HW140112   2.006   3.227   6.466  0.1684 -2.1568  3.0521
 9550SOL    HW240113   1.997   3.080   6.458  0.3779 -0.0555  0.1183
 9551SOL     OW40114   3.858   2.182   7.103  0.6693  0.1311 -0.9715
 9551SOL    HW140115   3.950   2.208   7.102 -0.0943  2.9250 -0.2135
 9551SOL    HW240116   3.862   2.094   7.066 -0.4734 -0.0714 -0.6320
 9552SOL     OW40117   2.677   4.266  17.306  0.3099 -0.1494 -0.3043
 9552SOL    HW140118   2.705   4.192  17.252 -1.1371 -1.2917  0.5240
 9552SOL    HW240119   2.591   4.261  17.265  1.6003 -0.9705 -2.9097
 9553SOL     OW40120   3.610   3.631   8.139  0.6340 -0.3133  0.0594
 9553SOL    HW140121   3.635   3.546   8.177  1.7730  0.6265  1.3971
 9553SOL    HW240122   3.688   3.671   8.100  0.3369  0.1562 -0.0457
 9554SOL     OW40123   1.914   2.039   4.323  0.1539  0.2288 -0.7801
 9554SOL    HW140124   1.826   2.047   4.284 -0.9639 -1.5933  1.3433
 9554SOL    HW240125   1.931   2.131   4.341  1.6071 -0.0688 -0.6265
 9555SOL     OW40126   1.840   3.041  17.167 -0.1695 -0.4140  0.7246
 9555SOL    HW140127   1.854   3.073  17.078 -1.4512  3.2158  1.8322
 9555SOL    HW240128   1.762   2.986  17.157  1.0063 -2.6150  3.5316
 9556SOL     OW40129   4.338   1.996   2.088  0.4007 -0.0372 -0.2366
 9556SOL    HW140130   4.410   2.058   2.080  0.5699  0.2327  3.6413
 9556SOL    HW240131   4.394   1.918   2.087  0.8098  0.2427  0.9934
 9557SOL     OW40132   1.283   1.813   4.047 -0.1584  0.1412  0.1034
 9557SOL    HW140133   1.268   1.816   3.953 -1.7345  2.7469  0.4424
 9557SOL    HW240134   1.323   1.726   4.057 -0.1469  0.1012 -0.3310
 9558SOL     OW40135   1.439   4.317   4.960 -0.1833 -0.0732 -0.4988
 9558SOL    HW140136   1.508   4.375   4.992 -0.2509 -0.7850  0.9575
 9558SOL    HW240137   1.434   4.318   4.865 -0.0065 -0.7322 -0.5161
 9559SOL     OW40138   4.311   0.623   0.716  0.1320  0.4594 -0.1658
 9559SOL    HW140139   4.358   0.591   0.792 -1.2444  2.5990  1.5750
 9559SOL    HW240140   4.244   0.681   0.753 -1.4181 -0.7128 -1.1046
 9560SOL     OW40141   1.605   4.522   4.971  0.0346 -0.1257 -0.1538
 9560SOL    HW140142   1.585   4.604   4.927 -3.6617  0.0160  1.8238
 9560SOL    HW240143   1.696   4.533   5.000  0.4368  0.1034 -1.5115
 9561SOL     OW40144   0.871   0.960  13.226 -0.3933 -0.0550 -0.0709
 9561SOL    HW140145   0.792   0.913  13.198 -0.9161  0.9883 -0.3118
 9561SOL    HW240146   0.902   0.995  13.143 -0.2614 -2.3301 -0.9980
 9562SOL     OW40147   0.080   1.039   5.035 -0.7459 -0.6560 -0.3199
 9562SOL    HW140148   0.063   0.945   5.039 -2.3501 -0.2605  1.9798
 9562SOL    HW240149   0.174   1.047   5.048 -0.4993 -3.3964 -0.5572
 9563SOL     OW40150   0.978   1.978   6.140 -0.1884 -0.0592 -0.0245
 9563SOL    HW140151   0.986   2.011   6.229 -3.5586 -4.2083  1.8236
 9563SOL    HW240152   0.966   2.061   6.094  0.0036 -0.6050 -1.0632
 9564SOL     OW40153   4.477   2.501  11.657  0.5054 -0.2690  0.1479
 9564SOL    HW140154   4.532   2.575  11.630  1.0234 -0.9809 -0.7476
 9564SOL    HW240155   4.481   2.447  11.578 -0.5450  0.4885 -0.4399
 9565SOL     OW40156   3.590   3.580   3.201 -0.0386  0.0949  0.3248
 9565SOL    HW140157   3.504   3.538   3.201  1.1209 -2.2615 -0.5189
 9565SOL    HW240158   3.648   3.506   3.220  0.6614 -0.1135 -2.6042
 9566SOL     OW40159   0.256   2.149   8.152 -0.0757 -0.7598 -0.0617
 9566SOL    HW140160   0.230   2.067   8.192  2.8633 -1.0391  1.3107
 9566SOL    HW240161   0.331   2.184   8.201  0.3357 -0.8318 -0.6399
 9567SOL     OW40162   0.822   1.989   1.564  0.0882 -0.8428  0.1617
 9567SOL    HW140163   0.872   1.995   1.645  1.1077  2.9263 -0.7268
 9567SOL    HW240164   0.743   2.038   1.588  0.9171  0.9141 -0.6958
 9568SOL     OW40165   2.716   0.941  12.957  0.1783  0.5505 -0.2910
 9568SOL    HW140166   2.784   0.918  13.021 -0.9573  0.5706  0.9210
 9568SOL    HW240167   2.766   1.000  12.901 -0.2793  1.0279 -0.1882
   4.72466   4.72466  17.70012
