Membrane in water
40167
    1TCq1    O1    1   2.702   4.642  11.071 -0.4072  0.2490  0.7171
    1TCq1    C1    2   2.823   4.683  11.033  0.2192  0.0747 -0.5334
    1TCq1    O2    3   2.865   4.695  10.919  0.1559  0.4185 -0.5933
    1TCq1    C2    4   2.925   4.656  11.144  0.3176 -0.2440 -0.3883
    1TCq1    C3    5   3.046   4.603  11.107 -0.3086  0.4961 -0.7148
    1TCq1    C4    6   3.120   4.565  11.212  0.3263  0.4627  0.2559
    1TCq1    C5    7   3.087   4.560  11.345 -0.2958  0.5138  0.1658
    1TCq1    C6    8   2.962   4.621  11.372  0.0755  0.0395 -0.2690
    1TCq1    C7    9   2.887   4.667  11.274  0.6628 -0.4735 -0.1913
    1TCq1    C8   10   2.921   4.649  11.508 -0.2463 -0.3953  0.1970
    1TCq1    O4   11   2.826   0.000  11.516  0.1650 -0.3812 -0.1601
    1TCq1    C9   12   3.261   4.538  11.190 -0.4380  0.2319  0.1517
    1TCq1    O5   13   3.302   4.576  11.081  0.3041 -0.0124  1.0376
    1TCq1    O6   14   3.335   4.509  11.286  0.1512  0.6303  0.5144
    1TCq1    H1   15   2.682   4.622  11.165 -0.8640 -3.3170 -0.1508
    1TCq1    H2   16   3.080   4.603  11.004 -0.4232 -0.3063 -0.7543
    1TCq1    H3   17   3.161   4.546  11.423 -0.8846 -0.0057  0.6283
    1TCq1    H4   18   2.790   4.705  11.304  0.1994 -1.8203  0.0076
    2MPD2     C   19   2.950   4.510  11.997  0.1094  0.4028 -0.4353
    2MPD2    C1   20   2.873   4.611  11.937  0.5244 -0.8293  0.6540
    2MPD2    C2   21   2.879   4.626  11.800  0.0984  0.2737 -0.3956
    2MPD2    C3   22   2.963   4.550  11.727 -0.0658 -0.3131  0.7261
    2MPD2    C4   23   3.035   4.446  11.789  0.1879 -0.0927  0.3232
    2MPD2    C5   24   3.016   4.423  11.919  0.0066  0.2788  0.3811
    2MPD2     H   25   2.822   4.700  11.746 -0.9987 -0.1598  0.1679
    2MPD2    H1   26   3.098   4.380  11.730  2.4460  1.4581  1.0104
    2MPD2    H2   27   2.946   4.502  12.105  3.8262  0.2120 -0.3066
    2MPD2    H3   28   3.052   4.334  11.969  0.4024 -0.8450 -1.8539
    2MPD2     N   29   2.990   4.566  11.593  0.4185  0.0183 -0.5506
    2MPD2    H5   30   3.045   4.493  11.548  1.2004  0.9430 -1.0843
    2MPD2    N1   31   2.775   4.691  12.002  0.9722 -0.0646 -0.1581
    2MPD2    H7   32   2.709   0.022  11.948  0.9044 -1.7607 -1.8115
    3TCq1    O1   33   2.666   1.140  10.392  0.1454  0.1534  0.1968
    3TCq1    C1   34   2.743   1.251  10.410 -0.8673 -0.6397 -0.9298
    3TCq1    O2   35   2.828   1.300  10.338  0.0887  0.3009  0.2431
    3TCq1    C2   36   2.692   1.329  10.517 -0.2608 -0.6356  0.0717
    3TCq1    C3   37   2.774   1.430  10.563  0.7111  0.3513 -0.1266
    3TCq1    C4   38   2.721   1.516  10.655  0.2695  0.8538  0.7906
    3TCq1    C5   39   2.591   1.507  10.698  1.0911  0.2116 -0.1101
    3TCq1    C6   40   2.516   1.404  10.651 -0.5504  1.0586  0.4241
    3TCq1    C7   41   2.563   1.326  10.552  0.1466 -0.0288  0.7055
    3TCq1    C8   42   2.376   1.380  10.684 -0.6570 -0.1886 -0.3876
    3TCq1    O4   43   2.312   1.292  10.628  0.2404 -0.4252  0.1150
    3TCq1    C9   44   2.784   1.647  10.658  0.0006  0.0553 -0.5060
    3TCq1    O5   45   2.706   1.744  10.678  0.6859  0.2156  0.5582
    3TCq1    O6   46   2.903   1.662  10.617  0.2235 -0.3334 -0.2432
    3TCq1    H1   47   2.635   1.098  10.474 -1.6602  2.3216  0.6058
    3TCq1    H2   48   2.877   1.441  10.533  0.4411 -0.9408 -1.5266
    3TCq1    H3   49   2.555   1.584  10.765  0.8655 -0.3426  0.4006
    3TCq1    H4   50   2.496   1.252  10.509  1.0562 -1.7545  2.2747
    4MPD2     C   51   1.950   1.578  10.896  0.6533 -0.6479 -0.0089
    4MPD2    C1   52   2.060   1.600  10.987 -0.6239 -0.3815 -0.2372
    4MPD2    C2   53   2.176   1.535  10.955  0.2913 -0.9351 -0.7568
    4MPD2    C3   54   2.195   1.466  10.833 -0.2136  0.0200 -0.1789
    4MPD2    C4   55   2.085   1.441  10.758 -0.7102  0.0997 -0.6034
    4MPD2    C5   56   1.968   1.503  10.779 -0.1068 -1.2361 -0.5035
    4MPD2     H   57   2.262   1.554  11.018 -2.0744  2.6102  1.3917
    4MPD2    H1   58   2.096   1.387  10.665  0.6294  0.3817 -0.6064
    4MPD2    H2   59   1.851   1.621  10.905  0.9626  0.1830 -0.6218
    4MPD2    H3   60   1.889   1.489  10.706 -1.0186  1.3820  0.0050
    4MPD2     N   61   2.330   1.437  10.801 -0.2211  0.3140  0.0273
    4MPD2    H5   62   2.398   1.478  10.864 -0.2368  3.1564 -1.7819
    4MPD2    N1   63   2.042   1.672  11.108 -0.8338  0.1439  0.2668
    4MPD2    H7   64   2.125   1.704  11.157 -0.4831 -0.6615  0.2004
    5TCq1    O1   65   2.512   4.019  11.262  0.4249  0.1423  0.7216
    5TCq1    C1   66   2.514   3.958  11.144  0.6072 -0.0613  0.3118
    5TCq1    O2   67   2.460   3.990  11.037  0.5120 -1.1189 -0.2096
    5TCq1    C2   68   2.516   3.816  11.178 -0.1375 -0.5761 -0.1196
    5TCq1    C3   69   2.415   3.785  11.268  0.2515 -0.1163  0.3221
    5TCq1    C4   70   2.388   3.649  11.295  0.2926 -0.6260 -0.4024
    5TCq1    C5   71   2.460   3.556  11.232 -0.2205  0.8461 -0.0562
    5TCq1    C6   72   2.544   3.586  11.131 -0.2615  0.1421  0.4090
    5TCq1    C7   73   2.574   3.721  11.102  0.2678 -0.3168  0.0476
    5TCq1    C8   74   2.598   3.472  11.058 -0.1757 -0.5243  0.2172
    5TCq1    O4   75   2.615   3.366  11.121  0.4932 -0.6765 -0.1770
    5TCq1    C9   76   2.299   3.621  11.405 -0.1096  0.5347  0.3461
    5TCq1    O5   77   2.289   3.499  11.436  0.3600 -0.1267  0.4394
    5TCq1    O6   78   2.273   3.722  11.479 -0.4267  0.0314  0.0675
    5TCq1    H1   79   2.561   3.971  11.332  1.4618  2.8807  1.8515
    5TCq1    H2   80   2.352   3.862  11.310 -0.5062 -0.4270 -0.2492
    5TCq1    H3   81   2.438   3.452  11.252  0.0912  0.9435  0.7742
    5TCq1    H4   82   2.639   3.752  11.022 -1.2836  0.4236 -0.9207
    6MPD2     C   83   2.717   3.474  10.709  0.6214 -0.2051  0.2632
    6MPD2    C1   84   2.700   3.418  10.830 -0.0012 -0.2393 -0.0121
    6MPD2    C2   85   2.744   3.291  10.861  0.3580  0.8436  0.1653
    6MPD2    C3   86   2.790   3.207  10.762  0.4220 -0.4477  0.4150
    6MPD2    C4   87   2.806   3.264  10.636 -0.9863  0.1150 -0.0186
    6MPD2    C5   88   2.778   3.398  10.615 -0.2558  0.6388 -0.3397
    6MPD2     H   89   2.727   3.251  10.960  1.0377  0.8071  0.2668
    6MPD2    H1   90   2.848   3.210  10.552  0.3774  1.4102 -0.1645
    6MPD2    H2   91   2.686   3.575  10.685  0.1980 -0.2827  0.4965
    6MPD2    H3   92   2.796   3.440  10.517  0.6976 -0.7740 -0.7883
    6MPD2     N   93   2.837   3.078  10.790 -0.0514 -0.6613 -0.1130
    6MPD2    H5   94   2.838   3.041  10.885 -0.4342 -0.2134  0.0602
    6MPD2    N1   95   2.637   3.503  10.930  0.2416  0.1039 -0.0151
    6MPD2    H7   96   2.622   3.598  10.896  0.5761  0.5578  1.0780
    7TCq1    O1   97   0.294   2.527  13.022 -0.4672  0.3341  0.0856
    7TCq1    C1   98   0.375   2.428  12.984  0.1576 -0.0770  0.0590
    7TCq1    O2   99   0.485   2.414  13.034  0.1879 -0.4651  0.3858
    7TCq1    C2  100   0.284   2.312  12.946 -1.3214 -0.0124  0.6361
    7TCq1    C3  101   0.169   2.337  12.879  0.2147  0.1529  0.2982
    7TCq1    C4  102   0.089   2.221  12.859 -0.5930  0.3993 -0.3506
    7TCq1    C5  103   0.122   2.097  12.909 -0.0176 -0.2632  0.2296
    7TCq1    C6  104   0.233   2.084  12.986 -0.6678 -0.2861  0.0411
    7TCq1    C7  105   0.330   2.185  12.990 -0.3624  0.6165 -0.4900
    7TCq1    C8  106   0.270   1.950  13.032  0.1644  0.4002 -0.3838
    7TCq1    O4  107   0.188   1.860  13.016  0.8784  0.1129 -0.3508
    7TCq1    C9  108   4.699   2.228  12.773 -0.1415  0.3478  0.4785
    7TCq1    O5  109   4.606   2.140  12.785  0.6650 -0.1516 -0.6539
    7TCq1    O6  110   4.691   2.327  12.696 -0.1704  0.0668 -0.1888
    7TCq1    H1  111   0.199   2.513  13.002 -0.2872 -2.6630  1.2726
    7TCq1    H2  112   0.146   2.435  12.839  1.0342  0.0670 -0.3841
    7TCq1    H3  113   0.051   2.016  12.897 -0.4862  0.1332  0.3399
    7TCq1    H4  114   0.428   2.182  13.036 -0.7563  3.7723  0.5660
    8MPD2     C  115   0.606   1.638  13.243 -0.2168 -0.1043  0.2791
    8MPD2    C1  116   0.483   1.603  13.195  0.3640 -0.5441  0.5432
    8MPD2    C2  117   0.402   1.703  13.137 -0.0684  0.2160  0.0090
    8MPD2    C3  118   0.444   1.835  13.148 -0.7409 -0.2296 -0.3891
    8MPD2    C4  119   0.568   1.865  13.204  0.5170  0.0870 -0.6518
    8MPD2    C5  120   0.646   1.768  13.253  0.1412  0.1044 -0.3233
    8MPD2     H  121   0.316   1.667  13.083  1.2850 -0.1859 -1.8764
    8MPD2    H1  122   0.592   1.970  13.208 -0.0919  0.2270 -0.7021
    8MPD2    H2  123   0.672   1.560  13.278  1.7674  1.0670 -0.8463
    8MPD2    H3  124   0.736   1.790  13.309 -0.2831 -1.4039  0.9731
    8MPD2     N  125   0.379   1.953  13.105 -0.1577  0.2177 -0.2586
    8MPD2    H5  126   0.434   2.035  13.127 -0.3257  0.4260 -0.6194
    8MPD2    N1  127   0.459   1.463  13.189 -0.4729  0.8031  0.1837
    8MPD2    H7  128   0.533   1.397  13.209 -2.2722 -0.5589  2.3863
    9TCq1    O1  129   1.891   1.024  10.601  0.7085  0.1676  0.5073
    9TCq1    C1  130   1.992   1.029  10.686 -0.3121  0.9802 -0.2770
    9TCq1    O2  131   1.994   1.073  10.801 -0.1241 -0.6556 -0.3936
    9TCq1    C2  132   2.108   0.987  10.616 -0.4914  0.0868  0.1633
    9TCq1    C3  133   2.105   0.902  10.510 -0.5447 -0.5540  0.2528
    9TCq1    C4  134   2.219   0.876  10.445 -0.1740  0.3042  0.2283
    9TCq1    C5  135   2.343   0.917  10.490  0.1375 -0.1898  0.0002
    9TCq1    C6  136   2.343   0.989  10.602  0.3882 -0.7660 -0.3184
    9TCq1    C7  137   2.226   1.027  10.660  0.7742 -0.0913  0.2293
    9TCq1    C8  138   2.465   1.012  10.667  0.3330 -0.2293  0.0594
    9TCq1    O4  139   2.565   1.005  10.597 -0.0232  0.2282  0.5789
    9TCq1    C9  140   2.225   0.802  10.328 -0.2270  0.1501 -0.1061
    9TCq1    O5  141   2.114   0.766  10.278  0.5729 -0.1669  0.1049
    9TCq1    O6  142   2.325   0.819  10.258  0.0590 -0.5366 -0.6028
    9TCq1    H1  143   1.923   1.031  10.508  0.9183  1.0155  0.6421
    9TCq1    H2  144   2.014   0.863  10.464 -0.6745 -1.4189  1.2263
    9TCq1    H3  145   2.434   0.892  10.436 -0.1751 -0.5385 -0.3667
    9TCq1    H4  146   2.225   1.105  10.736  0.0057 -0.5510  0.6966
   10MPD2     C  147   2.683   1.107  10.842 -0.5968 -0.4709 -0.6095
   10MPD2    C1  148   2.558   1.056  10.886  0.1175 -0.3471  0.0088
   10MPD2    C2  149   2.542   1.044  11.021 -0.1669  0.6047  0.0341
   10MPD2    C3  150   2.656   1.048  11.107 -0.2897  0.2553  0.5236
   10MPD2    C4  151   2.773   1.100  11.060 -0.2383 -0.5796  0.3749
   10MPD2    C5  152   2.784   1.129  10.927 -0.3552  0.1156  0.0304
   10MPD2     H  153   2.444   1.015  11.058 -0.6339  1.3275 -0.6641
   10MPD2    H1  154   2.854   1.112  11.131 -0.0754  2.4490 -0.3284
   10MPD2    H2  155   2.705   1.117  10.737 -0.2535  0.1160 -0.4747
   10MPD2    H3  156   2.875   1.174  10.888 -1.2471  2.1003  0.2386
   10MPD2     N  157   2.641   1.025  11.246  0.2327  0.0349  0.8100
   10MPD2    H5  158   2.714   1.060  11.306 -0.2864 -0.9955  2.0394
   10MPD2    N1  159   2.448   1.021  10.804 -0.5961 -0.6575 -0.1854
   10MPD2    H7  160   2.359   0.992  10.843 -0.0616  1.4706  2.5532
   11TCq1    O1  161   3.825   0.963  13.544  0.0974  0.0946  0.4639
   11TCq1    C1  162   3.762   0.874  13.619  0.6757 -0.0230  0.7236
   11TCq1    O2  163   3.745   0.752  13.591 -0.0606  0.9583 -0.1233
   11TCq1    C2  164   3.730   0.913  13.755 -0.1352 -0.0371 -0.4826
   11TCq1    C3  165   3.758   1.041  13.799 -0.3886  0.2221  0.0072
   11TCq1    C4  166   3.677   1.096  13.898  0.1825 -0.4126  0.6423
   11TCq1    C5  167   3.569   1.025  13.949 -0.0251 -0.0184 -0.0194
   11TCq1    C6  168   3.550   0.899  13.909 -0.3998 -0.3386  0.2625
   11TCq1    C7  169   3.627   0.841  13.812  0.0822 -0.4576 -0.3304
   11TCq1    C8  170   3.432   0.829  13.958  0.0701 -0.9022  0.3102
   11TCq1    O4  171   3.372   0.898  14.038  0.0286 -0.3532  0.2389
   11TCq1    C9  172   3.721   1.218  13.972 -0.4613 -0.2719 -0.6845
   11TCq1    O5  173   3.645   1.252  14.066 -0.6160 -0.3454  0.0400
   11TCq1    O6  174   3.846   1.235  13.973 -0.1816 -0.1195  0.2084
   11TCq1    H1  175   3.833   1.055  13.578 -1.1485  0.1472  0.6232
   11TCq1    H2  176   3.841   1.103  13.767 -0.4974  0.0188 -0.6603
   11TCq1    H3  177   3.508   1.066  14.029 -2.2902 -1.6820 -0.8982
   11TCq1    H4  178   3.605   0.740  13.778 -0.7514 -0.6694  0.8209
   12MPD2     C  179   3.236   0.656  14.079  1.0198  0.0120  0.6056
   12MPD2    C1  180   3.297   0.624  13.963  1.2488 -0.0235 -0.5625
   12MPD2    C2  181   3.250   0.518  13.890  0.4761  0.2962 -0.3142
   12MPD2    C3  182   3.135   0.448  13.930 -0.0415  0.3815  0.3445
   12MPD2    C4  183   3.078   0.485  14.048 -0.4463  0.4045  0.1926
   12MPD2    C5  184   3.126   0.589  14.121  0.8922 -0.2587  1.0140
   12MPD2     H  185   3.305   0.498  13.798  2.2346  0.5216  0.6764
   12MPD2    H1  186   2.999   0.425  14.090 -0.1125  1.1623  1.9127
   12MPD2    H2  187   3.265   0.736  14.147 -0.9437 -0.0281  1.4989
   12MPD2    H3  188   3.086   0.623  14.216 -0.7981  1.3881 -0.2890
   12MPD2     N  189   3.068   0.352  13.846 -0.0848 -0.1901 -1.1601
   12MPD2    H5  190   2.984   0.311  13.886  0.1100  0.1631 -0.4103
   12MPD2    N1  191   3.409   0.700  13.916  0.4507 -0.5673 -0.0686
   12MPD2    H7  192   3.473   0.663  13.846  0.2771  0.1645 -0.6196
   13TCq1    O1  193   3.021   1.063  10.704 -1.1305 -0.6112  0.1702
   13TCq1    C1  194   2.950   0.953  10.663  0.1214  0.3287 -0.0423
   13TCq1    O2  195   2.895   0.939  10.555  0.0732 -0.7891  0.5260
   13TCq1    C2  196   2.934   0.860  10.776 -0.2068  0.3025  0.0414
   13TCq1    C3  197   3.045   0.824  10.842  0.5379  0.5951  0.4763
   13TCq1    C4  198   3.031   0.731  10.942  0.8706 -0.1613 -0.7560
   13TCq1    C5  199   2.907   0.676  10.970  0.1957 -0.9132 -0.0843
   13TCq1    C6  200   2.799   0.726  10.902 -0.3384 -0.3436  0.2875
   13TCq1    C7  201   2.813   0.809  10.796  0.1593 -0.0081  0.5399
   13TCq1    C8  202   2.658   0.696  10.946  0.4377  0.3881  0.1548
   13TCq1    O4  203   2.639   0.658  11.060 -0.0195  0.4907  0.4419
   13TCq1    C9  204   3.146   0.700  11.024  0.5613  0.0238  0.3142
   13TCq1    O5  205   3.234   0.789  11.037 -0.1094  0.2104  0.1326
   13TCq1    O6  206   3.125   0.614  11.111 -0.0782 -0.6862  1.0259
   13TCq1    H1  207   3.066   1.050  10.791 -1.5580  0.7100  0.5957
   13TCq1    H2  208   3.138   0.877  10.822  0.5505  0.5381  0.3877
   13TCq1    H3  209   2.893   0.608  11.054 -0.8516 -0.9301 -0.2703
   13TCq1    H4  210   2.731   0.857  10.745 -0.2587 -1.7807 -0.4522
   14MPD2     C  211   2.345   0.677  10.745 -0.7226 -0.5630  0.1095
   14MPD2    C1  212   2.429   0.689  10.858  0.7977 -0.5525 -0.0086
   14MPD2    C2  213   2.375   0.722  10.983 -0.0922 -0.4054 -0.0795
   14MPD2    C3  214   2.236   0.734  10.998 -0.2724 -0.3367  0.1558
   14MPD2    C4  215   2.156   0.708  10.888  0.2543  0.4060  1.1972
   14MPD2    C5  216   2.207   0.676  10.763  0.4535 -0.5855  0.3775
   14MPD2     H  217   2.432   0.729  11.075 -1.6383  0.4147  0.8069
   14MPD2    H1  218   2.050   0.727  10.881 -0.0556 -1.2528  1.5557
   14MPD2    H2  219   2.393   0.682  10.648  1.1868  3.3123  1.2694
   14MPD2    H3  220   2.149   0.678  10.671  3.4625 -0.6724 -1.5144
   14MPD2     N  221   2.191   0.787  11.117 -0.4250 -0.0917 -0.0033
   14MPD2    H5  222   2.264   0.823  11.177 -0.1573  1.6535 -1.4006
   14MPD2    N1  223   2.569   0.697  10.842 -0.1351 -0.1503 -0.5254
   14MPD2    H7  224   2.607   0.692  10.748 -0.9223  0.6795 -0.8840
   15TCq1    O1  225   3.492   3.957   1.939 -0.1198 -0.2676 -0.2525
   15TCq1    C1  226   3.619   3.918   1.903  0.4866  0.1620 -0.2644
   15TCq1    O2  227   3.671   3.814   1.941  0.2436  0.1818  0.7867
   15TCq1    C2  228   3.666   3.972   1.781 -0.3286 -0.5296 -0.3295
   15TCq1    C3  229   3.670   4.110   1.772  0.6394 -0.6272 -0.1012
   15TCq1    C4  230   3.753   4.168   1.686 -0.4692  0.0248  0.0930
   15TCq1    C5  231   3.840   4.089   1.613  0.7420 -0.3566 -0.0397
   15TCq1    C6  232   3.828   3.957   1.616 -0.2920  0.5235  0.3496
   15TCq1    C7  233   3.742   3.895   1.696 -0.5239  0.2069  0.3490
   15TCq1    C8  234   3.921   3.871   1.537 -0.2796 -0.3857 -0.0640
   15TCq1    O4  235   3.962   3.765   1.582 -0.0489 -0.1400 -0.1132
   15TCq1    C9  236   3.771   4.312   1.684 -0.4770  0.4066 -0.1900
   15TCq1    O5  237   3.674   4.385   1.718  0.0189 -0.3712  0.4909
   15TCq1    O6  238   3.886   4.353   1.649 -0.4348  0.3374 -0.4037
   15TCq1    H1  239   3.459   4.030   1.881 -3.8880 -3.1476 -1.7054
   15TCq1    H2  240   3.604   4.170   1.833  0.2051 -1.4147  0.2023
   15TCq1    H3  241   3.924   4.132   1.560  0.4388  1.0435  0.6019
   15TCq1    H4  242   3.743   3.787   1.695 -0.3941  0.2214 -1.2645
   16MPD2     C  243   3.967   3.923   1.180 -0.1606 -0.0084 -0.2682
   16MPD2    C1  244   3.976   3.862   1.303 -0.2304 -0.1728 -0.3615
   16MPD2    C2  245   4.031   3.732   1.297  0.5660 -0.5278  0.3548
   16MPD2    C3  246   4.071   3.680   1.177 -0.1954  0.1805 -0.0445
   16MPD2    C4  247   4.059   3.751   1.058  0.1863  0.0167  0.5959
   16MPD2    C5  248   4.000   3.869   1.061  0.0876 -0.0363 -0.0412
   16MPD2     H  249   4.048   3.673   1.387  3.2426 -1.9353 -1.0802
   16MPD2    H1  250   4.085   3.722   0.957 -1.7739 -3.2710  1.0430
   16MPD2    H2  251   3.938   4.027   1.177  0.1353  0.0744 -0.2041
   16MPD2    H3  252   3.998   3.938   0.977 -0.0619  0.7358  0.5929
   16MPD2     N  253   4.108   3.546   1.175 -0.0444 -0.3501  0.2551
   16MPD2    H5  254   4.109   3.493   1.262 -1.4425 -0.4437  0.2044
   16MPD2    N1  255   3.925   3.929   1.415 -0.3997  0.1983  0.0867
   16MPD2    H7  256   3.881   4.020   1.406 -1.8544 -0.8420 -3.3838
   17TCq1    O1  257   1.904   0.535  11.402 -0.0344  0.3016 -0.1052
   17TCq1    C1  258   1.847   0.493  11.285 -0.2351 -0.2597  0.2037
   17TCq1    O2  259   1.731   0.511  11.251 -0.2178 -0.2538 -0.2049
   17TCq1    C2  260   1.947   0.461  11.189  0.1949  0.6487  0.4237
   17TCq1    C3  261   1.921   0.449  11.058 -0.2142 -0.0529  0.0228
   17TCq1    C4  262   2.019   0.412  10.967  1.2662 -0.1916 -0.2390
   17TCq1    C5  263   2.143   0.372  11.009  0.4777 -0.6212  0.0392
   17TCq1    C6  264   2.169   0.368  11.143  0.3546 -0.1609  0.0214
   17TCq1    C7  265   2.080   0.421  11.231  0.1284  0.5531 -0.8706
   17TCq1    C8  266   2.299   0.339  11.202  0.2637 -0.1313 -0.4879
   17TCq1    O4  267   2.298   0.334  11.324 -0.0853 -0.3414  0.2669
   17TCq1    C9  268   1.976   0.393  10.825 -0.4646 -0.4494  0.5448
   17TCq1    O5  269   2.052   0.319  10.757  0.0329 -0.0850 -0.5305
   17TCq1    O6  270   1.854   0.417  10.795  0.8037 -0.2514 -0.2195
   17TCq1    H1  271   2.001   0.550  11.403 -0.0350  0.3293 -0.4671
   17TCq1    H2  272   1.822   0.483  11.028  0.8400  1.4077 -1.7789
   17TCq1    H3  273   2.213   0.331  10.936 -0.0206 -1.6882  0.1662
   17TCq1    H4  274   2.100   0.402  11.336 -2.0423  0.5624 -0.4697
   18MPD2     C  275   2.576   0.266  11.276 -0.3265  0.6410 -1.1073
   18MPD2    C1  276   2.539   0.304  11.149 -0.6740  0.3270  0.3722
   18MPD2    C2  277   2.637   0.311  11.051 -0.1125  0.0535 -0.5873
   18MPD2    C3  278   2.775   0.294  11.083 -0.4349 -0.1205  0.8888
   18MPD2    C4  279   2.805   0.278  11.214  0.2712  0.3477  0.0400
   18MPD2    C5  280   2.707   0.260  11.306  0.2312 -0.3333 -0.0105
   18MPD2     H  281   2.610   0.350  10.953 -1.4389  0.1445 -0.1810
   18MPD2    H1  282   2.905   0.254  11.247  0.4977 -1.6300 -2.0741
   18MPD2    H2  283   2.506   0.250  11.357  0.5678 -0.7062 -0.6150
   18MPD2    H3  284   2.729   0.236  11.410 -1.2769  0.2760  0.4490
   18MPD2     N  285   2.876   0.304  10.993 -0.4578  0.1620  0.3510
   18MPD2    H5  286   2.962   0.327  11.041 -1.0533  2.1054  0.4798
   18MPD2    N1  287   2.397   0.332  11.108  0.1940 -0.3355  0.2887
   18MPD2    H7  288   2.376   0.353  11.011  2.9548 -0.1898 -0.2702
   19TMC2    C1  289   4.486   0.159  14.023  0.4797 -0.0672 -0.2320
   19TMC2    C2  290   4.469   0.229  13.909  0.5385 -0.0386  0.7179
   19TMC2    C3  291   4.346   0.280  13.892  0.0886 -0.7464 -0.4295
   19TMC2    C4  292   4.395   0.139  14.118 -0.2439 -0.1330 -0.3999
   19TMC2    C5  293   4.270   0.191  14.097 -0.4937  0.4795 -0.0733
   19TMC2    C6  294   4.237   0.260  13.976  0.1636 -0.0352  0.4002
   19TMC2     C  295   4.620   0.110  14.056 -0.6392  0.3111 -0.2960
   19TMC2     O  296   4.698   0.088  13.966 -0.0000  0.0983 -0.0890
   19TMC2     H  297   4.556   0.231  13.845  2.0149  2.7369  2.8284
   19TMC2    H1  298   4.414   0.067  14.197  1.8003  0.3775 -0.4119
   19TMC2    H2  299   4.134   0.284  13.954  0.2513 -0.2579 -0.2401
   19TMC2    C7  300   4.161   0.121  14.164  0.1031  0.3446  0.1988
   19TMC2    C8  301   4.319   0.395  13.799  0.0757  0.8835 -0.0022
   19TMC2    O1  302   4.056   0.107  14.104  0.5623 -0.3712  0.7011
   19TMC2    O2  303   4.210   0.451  13.801  0.4683 -0.7687 -0.0737
   19TMC2    O5  304   4.402   0.395  13.693 -0.0126  0.8025 -0.3118
   19TMC2    H5  305   4.462   0.318  13.687  0.2634  1.0432 -0.6527
   20MPD2     C  306   0.146   0.013  14.184 -0.0702  0.2845  0.0401
   20MPD2    C1  307   0.043   0.081  14.251 -0.0611  0.2510 -0.1977
   20MPD2    C2  308   0.057   0.113  14.385 -0.2183  0.2497  0.2054
   20MPD2    C3  309   0.156   0.059  14.464 -0.1623 -0.3093 -0.3953
   20MPD2    C4  310   0.259   4.715  14.395  0.6066  0.3271 -0.1046
   20MPD2    C5  311   0.249   4.692  14.258 -0.0602 -0.1639 -0.1210
   20MPD2     H  312   4.703   0.171  14.432  0.3187  0.9578  0.2267
   20MPD2    H1  313   0.343   4.669  14.446  2.9920  1.3138 -3.1756
   20MPD2    H2  314   0.155   4.721  14.078  0.1486  0.7231 -0.0077
   20MPD2    H3  315   0.319   4.625  14.211  0.6753  0.7069 -0.2798
   20MPD2     N  316   0.171   0.082  14.602 -1.1350  0.6366  0.0395
   20MPD2    H5  317   0.240   0.025  14.650 -0.8440  1.8985  1.1282
   20MPD2    N1  318   4.647   0.125  14.190  0.2887 -0.1044 -0.2780
   20MPD2    H7  319   4.574   0.167  14.246  0.7605  0.7980 -0.3357
   21MPD2     C  320   1.913   0.470  13.802  0.3974  0.2682  0.2932
   21MPD2    C1  321   2.024   0.460  13.882  0.5529  0.1444 -0.2723
   21MPD2    C2  322   2.008   0.455  14.019  0.1966 -0.1019  0.4277
   21MPD2    C3  323   1.882   0.462  14.077  0.5122  0.8754 -0.7861
   21MPD2    C4  324   1.774   0.484  13.995  0.3078  0.4274  0.0840
   21MPD2    C5  325   1.788   0.487  13.856  0.0396  0.1778  0.1847
   21MPD2     H  326   2.095   0.432  14.079 -0.5101 -1.3993  0.9505
   21MPD2    H1  327   1.673   0.471  14.031  0.9099  0.8506  1.9185
   21MPD2    H2  328   1.910   0.490  13.696 -0.4238 -1.4094 -0.0116
   21MPD2    H3  329   1.703   0.512  13.793 -0.1633  2.6986  1.4428
   21MPD2     N  330   1.857   0.457  14.215  0.3727  0.5880  0.2365
   21MPD2    H5  331   1.767   0.477  14.257 -0.6224 -1.0572 -1.0937
   21MPD2    N1  332   2.144   0.456  13.812  0.0523 -0.4607  0.5638
   21MPD2    H7  333   2.150   0.446  13.712  2.1597  0.6639  0.5911
   22TCq2    C1  334   1.949   0.397  14.298 -0.2460 -0.1425  0.0152
   22TCq2    O2  335   2.032   0.314  14.265  0.4980  0.7579 -0.0662
   22TCq2    C2  336   1.929   0.409  14.442  0.0252 -0.0413 -0.7089
   22TCq2    C3  337   2.019   0.346  14.522 -0.2503  0.0681 -0.2992
   22TCq2    C4  338   2.001   0.338  14.651  0.4308 -0.1568  0.1118
   22TCq2    C5  339   1.897   0.394  14.708 -0.0380 -0.2951  0.4080
   22TCq2    C6  340   1.800   0.461  14.634 -0.5120 -0.0252 -1.0167
   22TCq2    C7  341   1.821   0.475  14.498 -0.5464 -0.1390 -0.5914
   22TCq2    C8  342   1.698   0.536  14.706 -0.0368  0.5337 -0.3307
   22TCq2    O4  343   1.695   0.513  14.829  0.6800 -0.1410  0.2658
   22TCq2    C9  344   2.102   0.279  14.737  0.9066 -0.0023 -0.1005
   22TCq2    O5  345   2.126   0.344  14.845 -0.3711 -0.4200 -0.0134
   22TCq2    O6  346   2.189   0.220  14.678  0.6623  0.3464  0.1696
   22TCq2    H2  347   2.101   0.289  14.479  0.0147  2.3610 -2.8529
   22TCq2    H3  348   1.899   0.401  14.816 -0.8613  0.3555  0.3816
   22TCq2    H4  349   1.755   0.537  14.438 -1.0894  0.3142  0.4857
   23MPD2     C  350   3.896   1.541  14.864 -0.2376  0.7690 -0.6854
   23MPD2    C1  351   3.769   1.512  14.913  0.7910 -0.2294  0.1749
   23MPD2    C2  352   3.656   1.576  14.853 -0.4548  1.0400 -0.1807
   23MPD2    C3  353   3.669   1.662  14.747 -0.1993 -0.3945  0.4098
   23MPD2    C4  354   3.798   1.680  14.696 -0.1185  0.4119  0.2187
   23MPD2    C5  355   3.912   1.626  14.758  0.1578  0.1183 -0.2176
   23MPD2     H  356   3.557   1.557  14.893  0.0739 -0.9540  0.1891
   23MPD2    H1  357   3.820   1.748  14.614 -0.7073  0.9280  0.4902
   23MPD2    H2  358   3.985   1.491  14.899  0.1690  1.4978 -0.6877
   23MPD2    H3  359   4.010   1.645  14.717  0.2129 -2.6899 -1.3219
   23MPD2     N  360   3.558   1.731  14.687  0.4922 -0.4385  0.3262
   23MPD2    H5  361   3.585   1.807  14.625  1.6819  0.3775  1.8562
   23MPD2    N1  362   3.750   1.433  15.030  0.4129  0.6536 -0.3799
   23MPD2    H7  363   3.665   1.464  15.074  0.1291  0.2182 -0.6146
   24TCq2    C1  364   3.425   1.713  14.713  0.0879 -0.2331 -0.9147
   24TCq2    O2  365   3.369   1.648  14.803  0.6050  0.1658 -0.4464
   24TCq2    C2  366   3.335   1.776  14.612  0.7298  0.0714 -0.8646
   24TCq2    C3  367   3.384   1.819  14.495 -0.2410 -0.0074 -0.8979
   24TCq2    C4  368   3.297   1.854  14.396  0.2252 -0.0576  0.4261
   24TCq2    C5  369   3.163   1.845  14.410 -0.0900  0.0784 -0.2102
   24TCq2    C6  370   3.118   1.806  14.529  0.0797  0.3673 -0.2482
   24TCq2    C7  371   3.205   1.778  14.634 -0.1220 -0.1444  0.2716
   24TCq2    C8  372   2.988   1.755  14.537  0.1027  0.3909  0.7861
   24TCq2    O4  373   2.967   1.680  14.632  0.5555  0.5172 -0.0752
   24TCq2    C9  374   3.356   1.885  14.272  0.0575 -0.2377  0.1749
   24TCq2    O5  375   3.482   1.875  14.253 -0.3158 -0.2379  0.1660
   24TCq2    O6  376   3.274   1.904  14.178 -0.1026  0.3062 -0.8395
   24TCq2    H2  377   3.489   1.834  14.473  0.0874 -0.3360  0.4594
   24TCq2    H3  378   3.100   1.866  14.324  1.3454 -0.0116 -1.2987
   24TCq2    H4  379   3.167   1.743  14.730 -1.2631 -1.7102 -0.7383
   25TMC2    C1  380   1.745   4.643  11.006  0.0483 -0.0240  0.0454
   25TMC2    C2  381   1.689   0.032  10.956  0.2033 -1.0223 -0.2142
   25TMC2    C3  382   1.610   0.096  11.038  0.0984 -0.4750  0.0237
   25TMC2    C4  383   1.727   4.594  11.138 -0.4946 -0.0451  0.3545
   25TMC2    C5  384   1.652   4.676  11.220 -0.3343  0.1441 -0.1184
   25TMC2    C6  385   1.584   0.060  11.168  0.2140 -0.5601 -0.5257
   25TMC2     C  386   1.873   4.614  10.948  1.0233  0.0516  0.4180
   25TMC2     O  387   1.921   4.694  10.870 -0.5074 -0.2782  0.1852
   25TMC2     H  388   1.708   0.061  10.853  0.1137 -0.7302 -0.1492
   25TMC2    H1  389   1.788   4.517  11.184 -0.0507 -1.1666 -2.1212
   25TMC2    H2  390   1.517   0.125  11.224 -0.6252 -0.7932 -1.2505
   25TMC2    C7  391   1.620   4.641  11.358  0.6743 -0.3894  0.2182
   25TMC2    C8  392   1.558   0.224  11.001 -0.4841 -0.6437  0.2268
   25TMC2    O1  393   1.652   4.529  11.396  0.3737  0.4679  0.1199
   25TMC2    O2  394   1.544   0.319  11.075  0.0344  0.0694 -0.4320
   25TMC2    O5  395   1.512   0.220  10.875  0.1513 -0.0602 -0.1936
   25TMC2    H5  396   1.502   0.125  10.851 -0.6936 -0.2212  0.8116
   26MPD2     C  397   2.267   4.290  10.903 -0.6522 -0.0356 -0.1633
   26MPD2    C1  398   2.163   4.227  10.977  0.3941 -0.2919  0.3862
   26MPD2    C2  399   2.053   4.309  11.008 -0.3511  0.1237 -0.7995
   26MPD2    C3  400   2.031   4.438  10.955 -0.1159  0.4605 -1.1919
   26MPD2    C4  401   2.115   4.480  10.854  0.2800  0.6982 -0.5608
   26MPD2    C5  402   2.233   4.414  10.841 -0.2207  0.4496  0.0376
   26MPD2     H  403   1.976   4.256  11.062  0.2956  0.8428  0.8335
   26MPD2    H1  404   2.100   4.566  10.790 -0.6978  0.7230 -0.2902
   26MPD2    H2  405   2.359   4.241  10.871 -0.5738  0.6044 -0.9389
   26MPD2    H3  406   2.294   4.465  10.768 -0.2031 -0.5831 -0.6675
   26MPD2     N  407   1.916   4.492  10.985  0.3259  0.6077 -0.7449
   26MPD2    H5  408   1.852   4.438  11.041  1.3283 -0.6336 -0.8083
   26MPD2    N1  409   2.180   4.093  11.013  0.1636  0.5372  0.0866
   26MPD2    H7  410   2.269   4.051  10.988  0.7494  1.6845  0.2298
   27TMC2    C1  411   1.243   1.460  12.208  0.3733  0.1024  0.5296
   27TMC2    C2  412   1.196   1.452  12.081 -0.5314  0.4860 -0.4693
   27TMC2    C3  413   1.140   1.566  12.023 -0.2257 -0.1322 -0.2229
   27TMC2    C4  414   1.259   1.582  12.266 -0.1397  0.0235  0.6644
   27TMC2    C5  415   1.214   1.698  12.201  0.4605 -0.0508  0.8752
   27TMC2    C6  416   1.161   1.688  12.073 -0.7113 -0.5883 -0.1252
   27TMC2     C  417   1.260   1.338  12.281 -0.3314 -0.0229 -0.3673
   27TMC2     O  418   1.281   1.238  12.215 -0.2496  0.3932  0.2103
   27TMC2     H  419   1.189   1.351  12.044  1.3599  0.1196  0.2186
   27TMC2    H1  420   1.309   1.580  12.362 -0.8252 -3.4004  0.9402
   27TMC2    H2  421   1.121   1.775  12.023  0.5201  0.1033  0.0993
   27TMC2    C7  422   1.159   1.812  12.282  0.2249 -0.3509 -0.2049
   27TMC2    C8  423   1.089   1.569  11.897 -0.7121 -0.5602  0.2119
   27TMC2    O1  424   1.088   1.888  12.220 -0.1612  0.2070 -0.0420
   27TMC2    O2  425   1.084   1.658  11.817  0.4036 -0.3689 -0.6640
   27TMC2    O5  426   1.010   1.461  11.892 -0.4530 -0.0422 -0.3057
   27TMC2    H5  427   1.002   1.409  11.975 -0.6434 -0.6030 -0.6750
   28MPD2     C  428   1.055   1.087  12.689 -0.3366  0.1305  0.5361
   28MPD2    C1  429   1.027   1.224  12.699  0.0244  0.4720 -0.5461
   28MPD2    C2  430   1.077   1.305  12.597 -0.0007  0.1299  0.0506
   28MPD2    C3  431   1.156   1.256  12.499 -0.2566 -0.9688  0.3467
   28MPD2    C4  432   1.189   1.126  12.482  0.1861 -0.0208  0.1601
   28MPD2    C5  433   1.138   1.042  12.591  0.2923  0.8074 -0.2131
   28MPD2     H  434   1.047   1.409  12.587  2.0171  0.8269  1.0417
   28MPD2    H1  435   1.252   1.094  12.400 -0.9628 -2.5444  0.2666
   28MPD2    H2  436   1.017   1.007  12.753 -0.9695 -2.3072 -2.9019
   28MPD2    H3  437   1.165   0.937  12.590  1.8864  1.2208  1.0809
   28MPD2     N  438   1.209   1.356  12.409 -0.0240  0.4436  0.2268
   28MPD2    H5  439   1.190   1.451  12.441 -0.7939  0.3339  0.0876
   28MPD2    N1  440   0.933   1.274  12.792  0.1898  0.8062  0.5559
   28MPD2    H7  441   0.881   1.212  12.853 -0.1271  1.1361  0.6198
   29MPD2     C  442   0.501   3.228  14.077  0.3409 -1.0475  0.1957
   29MPD2    C1  443   0.580   3.208  14.191  0.0491 -0.1188  0.0094
   29MPD2    C2  444   0.618   3.310  14.276 -0.2618 -0.1254  0.4005
   29MPD2    C3  445   0.573   3.442  14.244 -0.0671  0.1632  0.2360
   29MPD2    C4  446   0.490   3.460  14.133 -0.2994 -0.0078  0.5177
   29MPD2    C5  447   0.452   3.353  14.052 -0.3556 -0.2169  1.3734
   29MPD2     H  448   0.698   3.292  14.346  1.0594  1.4564 -0.6878
   29MPD2    H1  449   0.448   3.556  14.107 -2.2499 -1.1599 -0.5261
   29MPD2    H2  450   0.470   3.153  14.005  1.4684  0.8986 -2.2990
   29MPD2    H3  451   0.393   3.367  13.962  1.6442  0.5739  0.1817
   29MPD2     N  452   0.615   3.554  14.308  0.1463  0.4824 -0.3084
   29MPD2    H5  453   0.567   3.638  14.278 -1.6128 -0.3641  0.1729
   29MPD2    N1  454   0.638   3.078  14.217 -0.4396 -0.1295  0.1805
   29MPD2    H7  455   0.691   3.069  14.304  0.2395 -3.0132 -0.5346
   30TCq2    C1  456   0.678   3.556  14.433 -0.0760  0.0458  1.0996
   30TCq2    O2  457   0.685   3.464  14.514  0.3105  0.1379 -0.1708
   30TCq2    C2  458   0.714   3.692  14.479  0.7610  0.0911 -0.0468
   30TCq2    C3  459   0.677   3.725  14.602 -0.3647  1.1071  0.7209
   30TCq2    C4  460   0.693   3.852  14.648 -0.1132  0.8682 -0.1670
   30TCq2    C5  461   0.740   3.944  14.560  0.3831  0.1687  0.1195
   30TCq2    C6  462   0.774   3.913  14.435 -0.1615  0.0251  0.4841
   30TCq2    C7  463   0.777   3.780  14.392  0.3808 -0.0819  0.7564
   30TCq2    C8  464   0.863   4.002  14.365  0.5221  0.5250  0.1238
   30TCq2    O4  465   0.875   3.981  14.248 -0.4007  0.2814  0.2673
   30TCq2    C9  466   0.654   3.891  14.781 -0.1546  1.2291 -0.7348
   30TCq2    O5  467   0.653   3.801  14.866 -0.3133  0.5776 -0.3260
   30TCq2    O6  468   0.697   4.006  14.813 -0.5878  0.1867 -0.3922
   30TCq2    H2  469   0.611   3.656  14.655 -0.5158 -1.2036 -2.4622
   30TCq2    H3  470   0.739   4.050  14.583  0.0936  0.2762 -0.3898
   30TCq2    H4  471   0.812   3.757  14.292 -0.4874  0.0378  0.4231
   31MPD2     C  472   3.468   2.555  14.806  0.1229  0.2844  0.2172
   31MPD2    C1  473   3.346   2.561  14.740  0.3314  0.0845 -0.1966
   31MPD2    C2  474   3.238   2.491  14.786  0.2646 -0.1929 -0.7269
   31MPD2    C3  475   3.247   2.432  14.917 -0.0115  0.1480  0.0439
   31MPD2    C4  476   3.361   2.458  14.991 -0.9600  0.1189  0.2187
   31MPD2    C5  477   3.474   2.507  14.937  0.2578 -0.1220 -0.0319
   31MPD2     H  478   3.152   2.477  14.721 -1.5646  0.4016  1.5222
   31MPD2    H1  479   3.372   2.413  15.089 -1.9729 -0.1978  0.1843
   31MPD2    H2  480   3.561   2.593  14.765  0.5019 -0.4717  0.3762
   31MPD2    H3  481   3.565   2.508  14.996  1.0295 -0.4635 -1.2358
   31MPD2     N  482   3.135   2.388  14.993  0.3547 -0.0968  0.5180
   31MPD2    H5  483   3.149   2.386  15.093 -3.1982  4.8688  1.1280
   31MPD2    N1  484   3.353   2.624  14.619  0.5977  0.5854  0.5244
   31MPD2    H7  485   3.449   2.634  14.588  0.6671  0.7214  0.7793
   32TCq2    C1  486   3.012   2.363  14.942  0.2103 -0.4631 -0.4164
   32TCq2    O2  487   2.974   2.360  14.827 -0.0832 -0.4257 -0.3519
   32TCq2    C2  488   2.913   2.333  15.045 -0.4760 -0.6915  0.1867
   32TCq2    C3  489   2.780   2.353  15.014  0.5210 -0.4463 -0.1548
   32TCq2    C4  490   2.680   2.299  15.087 -0.1466 -0.0095 -0.4425
   32TCq2    C5  491   2.714   2.223  15.204  0.6970  0.2915  0.3768
   32TCq2    C6  492   2.848   2.210  15.237 -0.7628  0.7693  0.3668
   32TCq2    C7  493   2.951   2.259  15.159  0.1907  0.0310 -0.3529
   32TCq2    C8  494   2.874   2.148  15.361  0.0214 -0.3968 -0.5394
   32TCq2    O4  495   2.991   2.130  15.386  0.5533 -0.4924 -0.0295
   32TCq2    C9  496   2.536   2.318  15.064  0.2780  0.3147  0.3980
   32TCq2    O5  497   2.462   2.273  15.153  0.3516  0.2093  0.1495
   32TCq2    O6  498   2.499   2.415  14.991  0.6612  0.7680 -0.9030
   32TCq2    H2  499   2.742   2.415  14.933  0.3655 -0.7700 -0.3313
   32TCq2    H3  500   2.633   2.180  15.260 -0.4399 -0.2755 -1.7135
   32TCq2    H4  501   3.052   2.251  15.198  0.0104  1.6363  0.4408
   33MPD2     C  502   2.751   0.289  10.219 -0.7721 -0.3639 -0.2668
   33MPD2    C1  503   2.852   0.370  10.255 -0.3805 -0.2031 -0.0672
   33MPD2    C2  504   2.897   0.471  10.166 -0.1833  0.9172  0.9868
   33MPD2    C3  505   2.842   0.486  10.041  0.1043 -0.1300  0.0541
   33MPD2    C4  506   2.736   0.400  10.011 -0.3104 -0.0203  0.4410
   33MPD2    C5  507   2.689   0.313  10.098 -0.3015 -0.3692 -0.4904
   33MPD2     H  508   2.981   0.531  10.197  0.9146  0.6662 -1.4897
   33MPD2    H1  509   2.695   0.406   9.911 -0.3383 -1.9270  0.3316
   33MPD2    H2  510   2.713   0.206  10.277 -1.5948  0.0051 -0.2829
   33MPD2    H3  511   2.601   0.254  10.072 -1.7051  1.6102 -0.1563
   33MPD2     N  512   2.882   0.583   9.948  0.0014 -0.1346  0.0847
   33MPD2    H5  513   2.844   0.572   9.855 -0.4971  1.1746  0.1423
   33MPD2    N1  514   2.914   0.345  10.379  0.4803 -0.3244  0.1142
   33MPD2    H7  515   2.859   0.283  10.437  1.3350 -1.0203  0.1880
   34TCq2    C1  516   2.979   0.674   9.955  0.4101  0.0888  0.2207
   34TCq2    O2  517   3.051   0.704  10.047 -0.2876 -0.7582 -0.7289
   34TCq2    C2  518   3.000   0.744   9.825 -0.0607 -1.0343  0.1712
   34TCq2    C3  519   2.911   0.733   9.724 -0.6097 -0.4618  0.0805
   34TCq2    C4  520   2.883   0.851   9.662  0.0010 -0.3411 -0.1982
   34TCq2    C5  521   2.929   0.977   9.694  1.0167 -0.3669 -0.5312
   34TCq2    C6  522   3.034   0.976   9.778 -0.3545  0.0935 -0.4276
   34TCq2    C7  523   3.071   0.859   9.847 -0.6057 -0.1428  0.5003
   34TCq2    C8  524   3.124   1.090   9.801  0.1285  0.7559  0.1040
   34TCq2    O4  525   3.240   1.075   9.837  0.6888  0.1455 -0.0877
   34TCq2    C9  526   2.768   0.855   9.578  0.7330 -0.8227 -0.0649
   34TCq2    O5  527   2.718   0.967   9.553  0.3380  0.4807  0.7285
   34TCq2    O6  528   2.721   0.738   9.541  0.1931 -0.2959  0.0585
   34TCq2    H2  529   2.863   0.640   9.693 -0.5754 -0.2515 -0.5902
   34TCq2    H3  530   2.893   1.062   9.638  0.4319 -0.3189 -0.0789
   34TCq2    H4  531   3.152   0.861   9.918  2.1489 -2.6121 -2.5779
   35MPD2     C  532   0.092   2.454  11.957  0.1491  0.1089 -0.4660
   35MPD2    C1  533   0.143   2.327  11.966 -0.4939  0.1028 -0.4619
   35MPD2    C2  534   0.111   2.237  11.866 -0.8189  0.6610 -0.1321
   35MPD2    C3  535   0.021   2.278  11.765  0.1038  0.4633 -0.0406
   35MPD2    C4  536   4.693   2.404  11.755 -0.6359 -0.0015 -0.1233
   35MPD2    C5  537   0.009   2.488  11.856  0.1679  0.7739 -1.0681
   35MPD2     H  538   0.131   2.130  11.872 -0.8488  0.6652  0.0390
   35MPD2    H1  539   4.643   2.434  11.664  0.3837  0.1551 -0.6252
   35MPD2    H2  540   0.114   2.532  12.029  0.4357 -0.4688  0.0724
   35MPD2    H3  541   4.699   2.590  11.852 -2.9432 -0.3114 -2.7650
   35MPD2     N  542   4.721   2.179  11.669 -0.6409 -0.3339  0.2239
   35MPD2    H5  543   0.051   2.094  11.677  0.6445  0.5206  0.7089
   35MPD2    N1  544   0.215   2.286  12.080 -0.0403 -0.7379 -0.0471
   35MPD2    H7  545   0.203   2.337  12.167  0.5507 -1.2973  0.3608
   36TCq2    C1  546   4.630   2.190  11.562  0.0389  0.5069  0.0715
   36TCq2    O2  547   4.581   2.294  11.508  0.2244  0.0601  0.2303
   36TCq2    C2  548   4.601   2.055  11.525 -0.0449  0.1593  0.1561
   36TCq2    C3  549   4.521   2.052  11.417  0.3080  0.6037  0.2307
   36TCq2    C4  550   4.443   1.941  11.398  0.5472  0.2038  0.4054
   36TCq2    C5  551   4.451   1.832  11.479  0.3930  0.3984 -0.3954
   36TCq2    C6  552   4.527   1.843  11.596 -0.5944  0.2169 -0.6372
   36TCq2    C7  553   4.604   1.957  11.619  0.0476  0.3995  0.6821
   36TCq2    C8  554   4.561   1.718  11.659  0.1230  0.1542  0.7104
   36TCq2    O4  555   4.498   1.620  11.627 -0.1529 -0.0002  0.2843
   36TCq2    C9  556   4.371   1.928  11.276 -0.7100 -0.5108  0.5409
   36TCq2    O5  557   4.331   1.813  11.245  0.0200 -0.2646 -0.2952
   36TCq2    O6  558   4.390   2.015  11.183  0.0376 -0.2895 -0.2865
   36TCq2    H2  559   4.523   2.136  11.348 -0.0098  1.7256  1.5951
   36TCq2    H3  560   4.386   1.751  11.449 -0.7259  0.7432  1.0841
   36TCq2    H4  561   4.658   1.967  11.712  0.9052 -2.1946  0.4703
   37TMC2    C1  562   2.048   1.443  11.994  0.9088 -0.5480  0.3365
   37TMC2    C2  563   1.982   1.431  11.872  0.1998 -0.2260 -0.8431
   37TMC2    C3  564   2.046   1.466  11.760  0.3773 -0.0126  0.1192
   37TMC2    C4  565   2.176   1.482  12.008  0.5522  0.5969 -0.2784
   37TMC2    C5  566   2.239   1.517  11.888 -0.8736  0.3689 -0.0187
   37TMC2    C6  567   2.176   1.512  11.766  0.2854 -0.3317  0.9085
   37TMC2     C  568   1.985   1.393  12.106 -0.0552 -0.0501  0.2764
   37TMC2     O  569   1.909   1.297  12.103  0.1422 -0.6332  0.1172
   37TMC2     H  570   1.878   1.400  11.873  0.4587 -1.0530  0.2352
   37TMC2    H1  571   2.233   1.494  12.099  1.8985 -0.2638 -0.9955
   37TMC2    H2  572   2.232   1.516  11.673 -2.5139  0.4635 -0.7404
   37TMC2    C7  573   2.362   1.589  11.909 -0.0197  0.4906 -0.2150
   37TMC2    C8  574   1.971   1.456  11.633 -0.3599  0.3893  0.7312
   37TMC2    O1  575   2.431   1.583  12.010  0.7755  0.0073  0.2731
   37TMC2    O2  576   1.869   1.391  11.616  0.1284  0.3467  0.0425
   37TMC2    O5  577   2.048   1.517  11.540  0.1975 -0.0317  0.3454
   37TMC2    H5  578   2.126   1.572  11.562  1.3908 -1.1100 -1.2291
   38MPD2     C  579   1.934   1.389  12.616  0.0381  0.0571  0.2182
   38MPD2    C1  580   1.963   1.513  12.577  0.3058  0.0407 -0.2402
   38MPD2    C2  581   1.968   1.541  12.440 -0.2952  0.0308 -0.3620
   38MPD2    C3  582   1.977   1.443  12.346  0.6325 -0.4533 -0.0215
   38MPD2    C4  583   1.958   1.314  12.393  0.6611  0.3491 -0.2072
   38MPD2    C5  584   1.933   1.290  12.523  0.2089 -0.1922 -0.1400
   38MPD2     H  585   1.992   1.642  12.411  1.4249 -0.6259 -1.2430
   38MPD2    H1  586   1.973   1.236  12.320 -2.0287 -1.0923  0.8152
   38MPD2    H2  587   1.915   1.362  12.720 -0.1905  0.3403  0.2498
   38MPD2    H3  588   1.919   1.188  12.557 -0.6101  0.3565  1.2178
   38MPD2     N  589   2.006   1.477  12.213 -0.2036 -0.8435  0.2032
   38MPD2    H5  590   2.031   1.574  12.195 -2.3952 -0.3333 -0.1948
   38MPD2    N1  591   1.984   1.618  12.668 -0.2261  0.2353 -0.3468
   38MPD2    H7  592   2.021   1.701  12.625 -2.0956  1.3508  0.2216
   39MPD2     C  593   4.563   2.888   1.511 -0.5222 -0.0104 -0.8540
   39MPD2    C1  594   4.485   2.937   1.620  0.0186 -0.7680  0.2301
   39MPD2    C2  595   4.343   2.939   1.600 -1.1477  0.0095 -0.6346
   39MPD2    C3  596   4.288   2.898   1.479  0.4299  0.1954 -0.2781
   39MPD2    C4  597   4.369   2.835   1.386 -0.2257  0.1366  0.9136
   39MPD2    C5  598   4.504   2.839   1.400 -0.2527  0.0759 -0.0778
   39MPD2     H  599   4.280   2.975   1.681  0.9026  1.1891  0.4234
   39MPD2    H1  600   4.330   2.796   1.293 -0.5373  1.6871  0.4025
   39MPD2    H2  601   4.669   2.898   1.526 -0.6695  0.1448  0.0670
   39MPD2    H3  602   4.569   2.827   1.314 -0.2126  0.7877 -0.1419
   39MPD2     N  603   4.157   2.929   1.435 -0.2543 -0.1145  0.0888
   39MPD2    H5  604   4.128   2.880   1.351 -1.1295 -1.0832  0.9487
   39MPD2    N1  605   4.556   2.989   1.731  0.1923 -0.0284 -0.1466
   39MPD2    H7  606   4.657   2.989   1.717  0.4248  0.7016  1.6082
   40TCq2    C1  607   4.506   3.038   1.852  0.1282 -0.4120  0.2765
   40TCq2    O2  608   4.394   3.035   1.893  0.0100  0.3322  0.1502
   40TCq2    C2  609   4.601   3.103   1.940 -0.3095  0.1869 -0.1542
   40TCq2    C3  610   4.561   3.116   2.071 -0.9811  0.2692 -0.2521
   40TCq2    C4  611   4.656   3.177   2.153 -0.3626 -0.0652 -0.4165
   40TCq2    C5  612   0.055   3.209   2.113  0.1120  0.4003  0.4435
   40TCq2    C6  613   0.089   3.194   1.983 -0.0051 -0.3570  0.1386
   40TCq2    C7  614   0.001   3.143   1.896 -0.4013  0.0673  0.2832
   40TCq2    C8  615   0.235   3.199   1.956 -0.2816  0.4264  0.3538
   40TCq2    O4  616   0.307   3.161   2.051 -0.4398 -0.3850 -0.7059
   40TCq2    C9  617   4.617   3.217   2.293  0.5014  0.2574 -0.3029
   40TCq2    O5  618   4.495   3.198   2.335  0.1351  0.2221  0.3229
   40TCq2    O6  619   4.704   3.271   2.366  0.2235  0.3775  0.1743
   40TCq2    H2  620   4.462   3.086   2.103 -1.1315  1.8770  0.7929
   40TCq2    H3  621   0.124   3.248   2.187  0.3054 -0.5586  0.7721
   40TCq2    H4  622   0.027   3.139   1.791 -1.8329  0.1078 -0.0814
   41TMC2    C1  623   0.163   1.793  13.434  0.2571  0.5069 -0.9079
   41TMC2    C2  624   0.267   1.886  13.456  1.0014 -0.2533  0.4251
   41TMC2    C3  625   0.238   2.009  13.406  0.2413  0.2912  0.7108
   41TMC2    C4  626   0.042   1.816  13.368 -0.8324 -0.1376  0.0573
   41TMC2    C5  627   0.036   1.944  13.312  0.3181  0.0840  0.1858
   41TMC2    C6  628   0.134   2.038  13.317  0.1064 -0.8402 -0.2822
   41TMC2     C  629   0.157   1.684  13.529 -0.0869 -0.1722  1.1552
   41TMC2     O  630   0.246   1.599  13.526 -0.2813 -0.6211 -0.4773
   41TMC2     H  631   0.359   1.864  13.507  1.0738 -1.1608 -0.0966
   41TMC2    H1  632   4.691   1.739  13.362  1.3545 -2.2828 -0.2530
   41TMC2    H2  633   0.123   2.122  13.249 -0.0028 -0.6377 -0.0122
   41TMC2    C7  634   4.654   1.961  13.211  0.1806  0.2462  0.4974
   41TMC2    C8  635   0.347   2.103  13.424 -0.1865  0.5882 -0.7632
   41TMC2    O1  636   4.593   2.071  13.211  0.7131 -0.0514 -0.8604
   41TMC2    O2  637   0.400   2.160  13.332 -0.0265  0.6304  1.0025
   41TMC2    O5  638   0.354   2.141  13.549  0.1377  0.5368  0.1602
   41TMC2    H5  639   0.294   2.096  13.612  1.6766 -2.2426 -0.3549
   42MPD2     C  640   0.101   1.500  13.760  0.2925  0.6668  0.0529
   42MPD2    C1  641   0.026   1.614  13.733 -0.2645  0.0938 -0.6881
   42MPD2    C2  642   4.650   1.653  13.812 -0.0367 -0.3879 -0.3035
   42MPD2    C3  643   4.634   1.589  13.930 -0.9032 -0.4773  1.2494
   42MPD2    C4  644   4.718   1.484  13.965  0.6198 -0.4589 -0.6071
   42MPD2    C5  645   0.081   1.428  13.876 -0.1949  0.1183  0.9566
   42MPD2     H  646   4.588   1.735  13.778 -1.2479 -1.7859 -1.4563
   42MPD2    H1  647   4.696   1.423  14.052  1.2573  0.3059  0.0985
   42MPD2    H2  648   0.176   1.468  13.689  0.3274  1.0131 -0.0665
   42MPD2    H3  649   0.130   1.332  13.887 -0.9346 -0.2821  0.7537
   42MPD2     N  650   4.529   1.626  14.016  0.9679 -0.2882 -0.2117
   42MPD2    H5  651   4.519   1.567  14.098 -0.6607  1.9450  1.1976
   42MPD2    N1  652   0.050   1.693  13.619  0.2594 -0.0467 -0.4352
   42MPD2    H7  653   4.711   1.770  13.606 -2.2081 -2.1029 -0.5682
   43MPD2     C  654   0.683   4.722   0.822  0.7153 -0.3217 -0.0009
   43MPD2    C1  655   0.598   4.614   0.834  0.5167 -0.2097  0.0425
   43MPD2    C2  656   0.508   4.616   0.943 -0.4835  0.0284 -0.4133
   43MPD2    C3  657   0.520   4.707   1.047  0.1088  0.3474  0.6166
   43MPD2    C4  658   0.606   0.084   1.028 -0.1877 -0.5768 -0.2126
   43MPD2    C5  659   0.690   0.084   0.927 -0.3298  0.9490  0.1940
   43MPD2     H  660   0.447   4.527   0.954 -1.4896  0.5392 -1.9312
   43MPD2    H1  661   0.623   0.163   1.100 -0.5395  0.7071 -1.5345
   43MPD2    H2  662   0.752   0.009   0.739  0.4860  1.3790  0.0418
   43MPD2    H3  663   0.762   0.165   0.925  1.0799 -0.3018  0.2596
   43MPD2     N  664   0.445   4.700   1.171  0.3465 -0.0833  0.2047
   43MPD2    H5  665   0.461   0.050   1.237 -1.3659 -1.7402  2.4987
   43MPD2    N1  666   0.602   4.509   0.734 -0.4335  0.5793 -0.6931
   43MPD2    H7  667   0.546   4.427   0.756  0.1734  0.4084  0.2392
   44TCq2    C1  668   0.304   0.093   1.625 -0.1748  0.3135  0.1011
   44TCq2    O2  669   0.336   0.198   1.572 -0.1053 -0.6255 -0.4768
   44TCq2    C2  670   0.270   4.705   1.532  0.2693 -0.1435 -0.1318
   44TCq2    C3  671   0.244   4.585   1.590  0.7402  0.5910  0.0489
   44TCq2    C4  672   0.262   4.473   1.520 -0.2433 -0.7025  0.0898
   44TCq2    C5  673   0.291   4.481   1.392  0.7539 -0.0028  0.2380
   44TCq2    C6  674   0.318   4.605   1.340  0.0997  0.5287 -0.3056
   44TCq2    C7  675   0.301   4.724   1.402 -0.2108  0.1805 -0.9379
   44TCq2    C8  676   0.358   4.600   1.200 -0.6857 -0.5807 -0.5365
   44TCq2    O4  677   0.318   4.510   1.126  0.3286 -0.5642 -0.1205
   44TCq2    C9  678   0.229   4.346   1.585  0.3358 -0.0973  0.4108
   44TCq2    O5  679   0.212   4.244   1.512  0.3724  0.2036 -0.7079
   44TCq2    O6  680   0.246   4.342   1.704  0.0809 -0.0739 -0.1082
   44TCq2    H2  681   0.229   4.572   1.697  1.3287  1.1025  0.1949
   44TCq2    H3  682   0.304   4.390   1.334  0.2452  0.7424 -1.0516
   44TCq2    H4  683   0.314   0.093   1.350 -0.2286  1.0428  0.6121
   45TMC2    C1  684   2.017   1.809   9.712  0.3158  0.2857 -0.5556
   45TMC2    C2  685   2.126   1.743   9.751  0.2356 -0.6478 -0.8706
   45TMC2    C3  686   2.198   1.781   9.858  0.2006  0.0210  0.1769
   45TMC2    C4  687   1.974   1.919   9.784 -0.2284 -0.2208  0.6767
   45TMC2    C5  688   2.050   1.960   9.880 -0.0315 -0.2148  0.4164
   45TMC2    C6  689   2.162   1.895   9.922  0.5345  0.1968 -0.0538
   45TMC2     C  690   1.924   1.746   9.618 -0.2971 -0.7083 -0.2639
   45TMC2     O  691   1.954   1.631   9.588  0.8625  0.1642 -0.4296
   45TMC2     H  692   2.154   1.649   9.704  1.3738 -0.5986 -0.2996
   45TMC2    H1  693   1.872   1.955   9.776  0.4699  1.8385  1.1604
   45TMC2    H2  694   2.219   1.931  10.006 -0.1524 -0.2512  0.6033
   45TMC2    C7  695   2.049   2.098   9.923 -0.7818  0.5129 -0.6538
   45TMC2    C8  696   2.328   1.715   9.873  0.4840  0.3839  0.5934
   45TMC2    O1  697   2.133   2.135  10.004 -0.1170  0.2674  0.7471
   45TMC2    O2  698   2.369   1.639   9.787 -1.0414 -0.4841  0.3322
   45TMC2    O5  699   2.393   1.793   9.965  0.4380 -0.1837 -0.1646
   45TMC2    H5  700   2.326   1.855  10.001  0.3885 -0.3382  0.0073
   46MPD2     C  701   1.669   1.639   9.504  0.3163  0.3414 -0.3192
   46MPD2    C1  702   1.705   1.776   9.507  0.0428 -0.3667  0.1754
   46MPD2    C2  703   1.619   1.869   9.443 -0.7737  0.8452 -0.0731
   46MPD2    C3  704   1.498   1.825   9.395 -0.3239 -0.5077  0.0229
   46MPD2    C4  705   1.458   1.690   9.398  0.0183 -1.0879 -0.2552
   46MPD2    C5  706   1.552   1.600   9.445 -0.3090 -0.0075  0.6030
   46MPD2     H  707   1.646   1.973   9.445  2.9768 -0.1330 -0.4648
   46MPD2    H1  708   1.372   1.645   9.349 -0.0297 -0.2684 -0.9373
   46MPD2    H2  709   1.743   1.568   9.541  0.7467  0.0852 -1.6716
   46MPD2    H3  710   1.530   1.494   9.445  0.0613 -0.0894  2.3823
   46MPD2     N  711   1.418   1.924   9.338  0.0126  0.6091 -0.1018
   46MPD2    H5  712   1.459   2.017   9.334  3.0057 -0.6448  1.2273
   46MPD2    N1  713   1.816   1.825   9.583 -0.8352 -0.1540  0.9114
   46MPD2    H7  714   1.831   1.925   9.597  1.0876 -0.2493 -0.5217
   47TMC2    C1  715   3.566   2.269   9.632 -0.4087 -0.1650  0.2101
   47TMC2    C2  716   3.632   2.168   9.566 -0.2024 -0.1067  0.2276
   47TMC2    C3  717   3.575   2.106   9.459 -0.6073  0.1803  0.4728
   47TMC2    C4  718   3.431   2.298   9.605  0.5207 -0.6684  0.9564
   47TMC2    C5  719   3.380   2.232   9.496 -0.0805 -0.0405  0.0259
   47TMC2    C6  720   3.457   2.157   9.420  0.0202  0.0979 -0.7664
   47TMC2     C  721   3.644   2.358   9.716 -0.3565 -0.0590 -0.3229
   47TMC2     O  722   3.590   2.443   9.784 -0.1096 -0.2689 -0.5897
   47TMC2     H  723   3.735   2.139   9.579  0.4613  2.7978  1.2932
   47TMC2    H1  724   3.373   2.369   9.662  1.8400  0.8901  0.3619
   47TMC2    H2  725   3.426   2.123   9.321  0.1708 -1.2046 -0.3728
   47TMC2    C7  726   3.241   2.263   9.453  0.3928  0.3929 -0.2189
   47TMC2    C8  727   3.665   2.036   9.372 -0.2349  0.0554  0.0573
   47TMC2    O1  728   3.228   2.254   9.332  0.0018 -0.2114 -0.0119
   47TMC2    O2  729   3.788   2.046   9.384  0.2919 -0.1342  0.0246
   47TMC2    O5  730   3.603   1.919   9.380  0.5436  0.7692 -0.3789
   47TMC2    H5  731   3.511   1.922   9.344  1.0478  0.0558 -1.7081
   48MPD2     C  732   3.856   2.554   9.790 -0.8951  0.2611 -0.3784
   48MPD2    C1  733   3.880   2.418   9.763  0.4706  1.1683  0.1939
   48MPD2    C2  734   4.010   2.381   9.770  0.2647 -0.8772 -0.0285
   48MPD2    C3  735   4.114   2.472   9.782 -0.0390  0.7549 -0.0341
   48MPD2    C4  736   4.089   2.605   9.801  0.4479 -0.1783 -0.5882
   48MPD2    C5  737   3.957   2.641   9.816 -0.6886  0.6894 -0.2112
   48MPD2     H  738   4.031   2.275   9.768  1.6438 -0.5906 -0.2698
   48MPD2    H1  739   4.164   2.683   9.815  0.7015 -0.6755  0.7593
   48MPD2    H2  740   3.752   2.586   9.784 -0.3106  2.3474  0.9756
   48MPD2    H3  741   3.944   2.748   9.832  0.2755  0.7294  0.3484
   48MPD2     N  742   4.235   2.410   9.786 -0.0449 -0.6193 -0.3564
   48MPD2    H5  743   4.233   2.308   9.787 -2.3363 -0.5691  0.1539
   48MPD2    N1  744   3.780   2.331   9.708  0.4949 -0.1443  0.3297
   48MPD2    H7  745   3.804   2.247   9.657 -0.7561 -2.1971  3.0884
   49MPD2     C  746   2.555   4.686  10.477  0.6901 -0.2771  0.0691
   49MPD2    C1  747   2.422   4.695  10.495  0.1997 -0.9620  0.4040
   49MPD2    C2  748   2.372   4.719  10.623 -0.8605 -0.1245  0.3396
   49MPD2    C3  749   2.461   4.718  10.731 -0.3145  0.3213  0.1580
   49MPD2    C4  750   2.593   4.713  10.700 -0.5847 -0.6016 -0.5493
   49MPD2    C5  751   2.650   4.694  10.573  0.3888  0.3527 -0.0724
   49MPD2     H  752   2.265   0.001  10.639 -0.9207  0.0495 -0.1256
   49MPD2    H1  753   2.668   0.000  10.777 -0.0414 -1.3156 -0.9675
   49MPD2    H2  754   2.592   4.674  10.376 -1.6621  1.0738 -0.9663
   49MPD2    H3  755   2.752   4.681  10.541  0.4424 -0.1667  0.3106
   49MPD2     N  756   2.421   0.005  10.866 -0.6621  0.6738 -0.2847
   49MPD2    H5  757   2.496   4.715  10.933  0.1256 -1.2494 -1.5779
   49MPD2    N1  758   2.325   4.694  10.385  0.0469  0.2566 -0.0095
   49MPD2    H7  759   2.227   4.701  10.412 -0.0073 -0.9295  0.0675
   50TCq2    C1  760   2.354   4.691  10.247 -0.1322  0.5151  0.5261
   50TCq2    O2  761   2.450   0.010  10.190 -0.3985  0.1684 -0.1002
   50TCq2    C2  762   2.235   4.682  10.163  0.6030  0.6899  0.9654
   50TCq2    C3  763   2.221   0.040  10.054 -0.0429 -0.1812  0.4070
   50TCq2    C4  764   2.102   0.055   9.991  0.6074  0.1540  0.4672
   50TCq2    C5  765   1.993   4.708  10.028 -0.3077  0.1555  0.3553
   50TCq2    C6  766   2.007   4.621  10.129  0.0917 -0.2144  0.2333
   50TCq2    C7  767   2.126   4.607  10.199  0.9250  0.0301 -0.4148
   50TCq2    C8  768   1.893   4.532  10.160  0.1012  0.2175 -0.5922
   50TCq2    O4  769   1.801   4.549  10.084  0.3953  0.0638  0.0849
   50TCq2    C9  770   2.087   0.148   9.890  0.0277 -0.5053 -0.2768
   50TCq2    O5  771   2.181   0.230   9.870  0.1452 -0.1810  0.0519
   50TCq2    O6  772   1.976   0.145   9.822 -0.2766 -0.5503 -0.2489
   50TCq2    H2  773   2.300   0.107  10.022  0.4829 -0.5825  0.8697
   50TCq2    H3  774   1.905   4.710   9.965  0.1861 -1.0019 -0.3705
   50TCq2    H4  775   2.140   4.534  10.278 -1.3000 -0.8079 -0.7939
   51MPD2     C  776   1.754   2.501   1.447 -0.3929 -0.1997  1.2036
   51MPD2    C1  777   1.894   2.499   1.460 -0.5381  0.0977 -0.3147
   51MPD2    C2  778   1.958   2.610   1.507  0.4411 -0.4715 -0.4948
   51MPD2    C3  779   1.885   2.716   1.559  0.9658  0.6465  0.0856
   51MPD2    C4  780   1.751   2.729   1.530  0.8601 -0.3637 -0.3198
   51MPD2    C5  781   1.682   2.618   1.475 -0.0326  0.4538 -0.4839
   51MPD2     H  782   2.066   2.603   1.517  0.3512  2.8468  2.8793
   51MPD2    H1  783   1.701   2.820   1.564  3.2764  0.0900  2.0041
   51MPD2    H2  784   1.698   2.425   1.393  1.5547 -1.8248  1.4515
   51MPD2    H3  785   1.576   2.616   1.454 -0.4951  1.9350  1.7132
   51MPD2     N  786   1.955   2.823   1.612  0.3312 -0.2482 -0.0280
   51MPD2    H5  787   1.912   2.914   1.601  0.5861  0.0007  1.0127
   51MPD2    N1  788   1.978   2.397   1.419 -0.2559 -0.2705  0.5719
   51MPD2    H7  789   2.075   2.411   1.444 -0.2435 -0.0942  0.4298
   52TCq2    C1  790   2.069   2.814   1.679 -1.0711  0.5397 -0.6324
   52TCq2    O2  791   2.128   2.715   1.718  0.0149 -0.4542 -0.1996
   52TCq2    C2  792   2.128   2.942   1.704 -0.5225 -0.1942 -0.7157
   52TCq2    C3  793   2.189   2.960   1.824  0.1089 -0.0339 -0.9318
   52TCq2    C4  794   2.212   3.087   1.869  0.5196 -0.0142 -0.3735
   52TCq2    C5  795   2.157   3.191   1.806 -0.7422 -0.8507 -0.0132
   52TCq2    C6  796   2.089   3.171   1.688  0.4010  0.2317 -0.5583
   52TCq2    C7  797   2.085   3.043   1.631 -0.5839 -0.0063  0.0820
   52TCq2    C8  798   2.091   3.288   1.600  0.6846  0.0956 -0.1341
   52TCq2    O4  799   2.111   3.398   1.647  1.0106 -0.2536 -0.2496
   52TCq2    C9  800   2.287   3.105   1.983 -0.1001  0.1680 -0.0784
   52TCq2    O5  801   2.341   3.005   2.037 -0.2738 -0.0322 -0.7749
   52TCq2    O6  802   2.313   3.222   2.019 -0.6056 -0.3922  0.1185
   52TCq2    H2  803   2.232   2.873   1.872 -0.1020 -0.1091 -0.8792
   52TCq2    H3  804   2.186   3.292   1.831 -0.4830 -1.1622  0.9740
   52TCq2    H4  805   2.054   3.038   1.527  0.0427 -1.3822 -0.0372
   53TMC2    C1  806   3.052   1.845  12.026 -0.7891 -0.2613  0.1862
   53TMC2    C2  807   3.166   1.919  12.018 -0.0014 -0.2161 -1.0235
   53TMC2    C3  808   3.264   1.888  12.114  0.4442 -0.3823  0.3112
   53TMC2    C4  809   3.027   1.764  12.134 -0.2636  0.0417  0.1806
   53TMC2    C5  810   3.119   1.759  12.236 -0.2151  0.0616  0.0504
   53TMC2    C6  811   3.243   1.815  12.225 -0.1245  0.1741  0.6578
   53TMC2     C  812   2.964   1.857  11.912 -0.2042 -0.2856  0.8109
   53TMC2     O  813   3.010   1.927  11.823 -0.3136 -1.0304  0.2322
   53TMC2     H  814   3.193   1.976  11.930 -0.7710  0.2371 -0.9684
   53TMC2    H1  815   2.935   1.705  12.133 -1.9301  2.6359 -0.7580
   53TMC2    H2  816   3.308   1.824  12.312 -0.6053 -4.0931  1.4698
   53TMC2    C7  817   3.061   1.763  12.365 -0.2727 -0.1186  0.2828
   53TMC2    C8  818   3.385   1.966  12.098 -0.0139 -0.5372 -1.0528
   53TMC2    O1  819   2.940   1.786  12.356  0.3931  0.3294  0.8767
   53TMC2    O2  820   3.381   2.075  12.048  0.0190 -0.1402 -0.6597
   53TMC2    O5  821   3.497   1.886  12.112 -0.4135  0.0008 -0.1510
   53TMC2    H5  822   3.468   1.796  12.140 -0.4639 -0.2248 -0.9483
   54MPD2     C  823   2.740   1.898  11.717  0.6255 -1.7640 -0.0456
   54MPD2    C1  824   2.729   1.824  11.837  0.1895  0.8846  0.5608
   54MPD2    C2  825   2.609   1.760  11.864 -0.2140 -0.5105 -0.0576
   54MPD2    C3  826   2.509   1.746  11.773  0.2214 -0.6658 -0.2056
   54MPD2    C4  827   2.520   1.815  11.656  0.1613  0.8302  0.9417
   54MPD2    C5  828   2.634   1.889  11.632 -0.8100  0.9721 -0.0297
   54MPD2     H  829   2.610   1.708  11.959 -2.9248 -0.3884  0.0301
   54MPD2    H1  830   2.444   1.797  11.580 -2.1781  1.0129  3.2523
   54MPD2    H2  831   2.827   1.951  11.682 -0.5223  1.0564  1.3595
   54MPD2    H3  832   2.640   1.947  11.541  0.7537  0.8612 -0.0035
   54MPD2     N  833   2.393   1.662  11.793 -0.1014 -0.6060 -0.6174
   54MPD2    H5  834   2.325   1.669  11.717 -1.0357  2.2549  0.5067
   54MPD2    N1  835   2.834   1.804  11.926 -0.3878  0.4400  0.2515
   54MPD2    H7  836   2.804   1.763  12.014  1.3614 -1.3459  0.0245
   55MPD2     C  837   3.451   3.718  17.240  0.6489  0.4006 -1.0546
   55MPD2    C1  838   3.457   3.702  17.378  0.6677  0.1821  0.4010
   55MPD2    C2  839   3.403   3.801  17.456 -0.4276 -0.3205 -0.3761
   55MPD2    C3  840   3.333   3.912  17.409 -0.8474 -0.1020 -0.6770
   55MPD2    C4  841   3.321   3.922  17.274 -0.2413  0.3369 -0.4151
   55MPD2    C5  842   3.381   3.829  17.191  0.4640  0.1736  0.5741
   55MPD2     H  843   3.413   3.798  17.564  1.0837  3.7093 -0.4024
   55MPD2    H1  844   3.264   4.002  17.227  1.9691  1.7186 -0.7686
   55MPD2    H2  845   3.498   3.652  17.169 -0.4989  0.5419 -1.9468
   55MPD2    H3  846   3.364   3.822  17.084  1.2432 -1.0869  0.5321
   55MPD2     N  847   3.275   4.010  17.501 -0.7374 -0.0767 -0.3452
   55MPD2    H5  848   3.287   3.991  17.600  0.4518  1.2224 -0.2432
   55MPD2    N1  849   3.558   3.610  17.430  0.1992 -0.2510 -0.4126
   55MPD2    H7  850   3.625   3.571  17.363 -0.4704 -1.0452 -0.6181
   56TCq2    C1  851   3.549   3.569  17.564 -0.1125  0.1581  0.2160
   56TCq2    O2  852   3.457   3.577  17.645  0.5421 -0.6082 -0.0993
   56TCq2    C2  853   3.666   3.504  17.608 -0.4741 -0.1794  0.1274
   56TCq2    C3  854   3.789   3.528  17.552  0.0910  0.2637  0.1345
   56TCq2    C4  855   3.902   3.488  17.619  0.0123  0.6327 -0.2512
   56TCq2    C5  856   3.896   3.421   0.038 -0.0866 -0.2938 -0.6145
   56TCq2    C6  857   3.775   3.400   0.095  0.0861  0.0054 -0.3326
   56TCq2    C7  858   3.659   3.440   0.037 -0.4871 -0.6451 -0.1471
   56TCq2    C8  859   3.777   3.378   0.236  0.6079 -0.0624  0.1099
   56TCq2    O4  860   3.876   3.320   0.278 -0.5100 -0.2810  0.2063
   56TCq2    C9  861   4.028   3.520  17.567 -0.0515 -0.3153  0.0427
   56TCq2    O5  862   4.039   3.613  17.480  0.0411 -0.8016 -0.2232
   56TCq2    O6  863   4.124   3.502  17.644 -0.0368 -0.2517 -0.1912
   56TCq2    H2  864   3.794   3.592  17.465 -3.0372  1.1934  0.6100
   56TCq2    H3  865   3.986   3.407   0.097 -0.8004 -0.3282  0.4625
   56TCq2    H4  866   3.565   3.422   0.088  2.2234 -1.2584  4.6394
   57TMC2    C1  867   2.864   0.976  13.596  0.1841  0.2081 -0.0429
   57TMC2    C2  868   2.881   1.092  13.669 -0.7135  0.2042 -0.3370
   57TMC2    C3  869   2.946   1.186  13.603  0.1610 -0.5514  0.6152
   57TMC2    C4  870   2.921   0.948  13.479  0.3639  0.1942  0.0991
   57TMC2    C5  871   3.002   1.047  13.425 -0.0878 -0.0747 -0.0577
   57TMC2    C6  872   3.008   1.169  13.481 -0.1426 -0.1979  0.1826
   57TMC2     C  873   2.751   0.905  13.644  0.1693  0.4242 -0.3124
   57TMC2     O  874   2.727   0.910  13.763  0.2554  0.2833  0.3470
   57TMC2     H  875   2.831   1.110  13.763  0.3696 -1.4865  0.5744
   57TMC2    H1  876   2.913   0.847  13.439 -2.2284  0.9054 -1.1145
   57TMC2    H2  877   3.067   1.251  13.441 -1.1524 -0.5686 -2.0404
   57TMC2    C7  878   3.099   1.013  13.323 -0.1738 -0.0520 -0.6826
   57TMC2    C8  879   2.966   1.309  13.677  0.0958  0.0232  0.1817
   57TMC2    O1  880   3.165   1.099  13.270 -0.7425  0.2039  0.3099
   57TMC2    O2  881   2.999   1.306  13.797  0.1814  0.3991  0.4498
   57TMC2    O5  882   2.983   1.416  13.592 -0.3238  0.0847  0.6672
   57TMC2    H5  883   2.948   1.401  13.501 -1.5834 -1.5671  1.4443
   58MPD2     C  884   2.280   0.766  13.553 -0.2654  0.2279  0.6429
   58MPD2    C1  885   2.338   0.794  13.672 -0.2404 -0.9887 -0.2659
   58MPD2    C2  886   2.473   0.818  13.663  0.0657 -0.0211 -0.1402
   58MPD2    C3  887   2.545   0.829  13.543 -0.2375 -0.6458  0.4405
   58MPD2    C4  888   2.483   0.797  13.427 -0.4424  0.8535 -0.0523
   58MPD2    C5  889   2.345   0.764  13.431 -0.1649  0.2265 -0.5920
   58MPD2     H  890   2.519   0.851  13.756 -1.1282 -3.1973  1.5654
   58MPD2    H1  891   2.543   0.778  13.338  0.7937  0.5575  0.8503
   58MPD2    H2  892   2.176   0.734  13.555  0.2013 -1.2753  0.3729
   58MPD2    H3  893   2.298   0.729  13.339 -1.4482 -3.2289  1.3866
   58MPD2     N  894   2.683   0.856  13.539 -0.2439 -0.4542 -0.0712
   58MPD2    H5  895   2.724   0.846  13.446  2.2963 -0.0136  1.0037
   58MPD2    N1  896   2.281   0.809  13.801  0.2629 -0.4962  0.3410
   58MPD2    H7  897   2.338   0.837  13.880 -1.8187 -0.7892  1.9512
   59MPD2     C  898   0.553   0.651  12.919 -0.0828 -0.0273 -0.4669
   59MPD2    C1  899   0.563   0.785  12.920  0.7703  0.0317 -0.1692
   59MPD2    C2  900   0.637   0.845  13.026  0.7264  0.1208  0.9240
   59MPD2    C3  901   0.694   0.771  13.129 -0.8153 -0.0971  0.0565
   59MPD2    C4  902   0.682   0.634  13.121  0.1615 -0.2573 -0.0417
   59MPD2    C5  903   0.618   0.575  13.011 -0.2213 -0.0370 -0.2453
   59MPD2     H  904   0.638   0.954  13.032 -1.1233  0.1570  0.5695
   59MPD2    H1  905   0.726   0.565  13.192  2.3096 -0.4611 -1.5575
   59MPD2    H2  906   0.504   0.600  12.837 -1.8030 -0.4747  0.8480
   59MPD2    H3  907   0.611   0.468  12.997 -4.9707  0.2765 -0.4720
   59MPD2     N  908   0.774   0.820  13.230 -0.1162  0.4545  0.0809
   59MPD2    H5  909   0.816   0.751  13.292 -0.0413 -0.2426 -0.7530
   59MPD2    N1  910   0.525   0.869  12.811 -1.0060 -0.4139 -1.2195
   59MPD2    H7  911   0.531   0.969  12.826  0.2175 -0.9008  1.4471
   60TCq2    C1  912   0.458   0.831  12.694 -0.1379  0.0982 -0.1910
   60TCq2    O2  913   0.400   0.724  12.671  0.0294 -0.2518 -0.0031
   60TCq2    C2  914   0.460   0.937  12.592  0.1525  0.7743 -0.4644
   60TCq2    C3  915   0.365   0.916  12.492  0.2761 -0.1031 -0.5976
   60TCq2    C4  916   0.367   1.006  12.390 -0.5726 -0.3141 -0.5435
   60TCq2    C5  917   0.468   1.101  12.374 -0.5949 -0.8840 -0.5634
   60TCq2    C6  918   0.557   1.109  12.478 -0.4092 -0.4298 -0.0388
   60TCq2    C7  919   0.554   1.030  12.585  0.2071  0.2115  0.2901
   60TCq2    C8  920   0.646   1.218  12.486  0.0804  0.4883  0.1962
   60TCq2    O4  921   0.756   1.197  12.536  0.3763  0.7772  0.9142
   60TCq2    C9  922   0.279   0.992  12.277 -0.1342  0.1923 -0.0361
   60TCq2    O5  923   0.176   0.923  12.287 -0.0973  0.3771 -0.7404
   60TCq2    O6  924   0.313   1.057  12.172 -0.3138 -0.0969 -0.0210
   60TCq2    H2  925   0.293   0.834  12.489 -1.2461  1.2200 -0.4141
   60TCq2    H3  926   0.474   1.169  12.290  2.1062 -0.0202  0.3319
   60TCq2    H4  927   0.627   1.040  12.665  0.3605  1.8131 -0.0330
   61MPD2     C  928   0.176   2.256  14.553  0.7013 -0.4914  0.7246
   61MPD2    C1  929   0.050   2.291  14.527  0.2865  0.1231 -0.7670
   61MPD2    C2  930   0.012   2.384  14.436  0.7974 -0.3637  0.2551
   61MPD2    C3  931   0.107   2.449  14.362  0.1031  0.3862  0.4847
   61MPD2    C4  932   0.237   2.415  14.391 -0.2175  0.2445 -0.5793
   61MPD2    C5  933   0.278   2.325  14.489 -0.2852 -0.6393 -0.0927
   61MPD2     H  934   4.633   2.413  14.425  0.4400 -1.6891  0.1360
   61MPD2    H1  935   0.318   2.456  14.333  0.6849  1.0198  1.2115
   61MPD2    H2  936   0.198   2.182  14.630  1.4185 -0.2306  0.7705
   61MPD2    H3  937   0.381   2.296  14.500  0.2451  0.4946 -1.9798
   61MPD2     N  938   0.093   2.549  14.267 -0.3522  0.1843 -0.0366
   61MPD2    H5  939   0.174   2.607  14.244  0.2193 -0.2312  0.9433
   61MPD2    N1  940   4.667   2.217  14.589  0.2544  0.5464  0.5982
   61MPD2    H7  941   4.574   2.251  14.567 -0.3494 -3.2430 -2.6960
   62TCq2    C1  942   4.676   2.123  14.688 -0.6986 -0.5257  0.3518
   62TCq2    O2  943   0.044   2.054  14.718  0.3254 -0.0067  0.4372
   62TCq2    C2  944   4.541   2.101  14.750  0.7364  0.3996 -0.1060
   62TCq2    C3  945   4.521   1.981  14.818 -0.4908  0.4002 -0.1751
   62TCq2    C4  946   4.432   1.965  14.916  0.2536  0.2598  1.5448
   62TCq2    C5  947   4.360   2.075  14.958  0.3954 -0.7527  0.1642
   62TCq2    C6  948   4.383   2.195  14.899  0.5208  0.0136 -0.6279
   62TCq2    C7  949   4.470   2.212  14.795 -1.0865 -0.4236 -0.7794
   62TCq2    C8  950   4.343   2.322  14.966  0.3759 -0.1347  0.0198
   62TCq2    O4  951   4.420   2.419  14.943  0.3432  0.5493  0.0230
   62TCq2    C9  952   4.415   1.834  14.975  0.2029  0.0722  0.0920
   62TCq2    O5  953   4.349   1.821  15.082 -0.7087 -0.1734  0.1929
   62TCq2    O6  954   4.482   1.736  14.927 -0.0172  0.6566 -0.0527
   62TCq2    H2  955   4.569   1.891  14.782 -1.4791  0.0561 -0.6426
   62TCq2    H3  956   4.290   2.071  15.041  0.8875 -1.7868  0.5193
   62TCq2    H4  957   4.488   2.311  14.753 -3.4910  0.2163 -0.3335
   63TMC2    C1  958   4.169   2.656  10.141 -0.1765  0.5183 -0.5710
   63TMC2    C2  959   4.306   2.637  10.156 -0.5151 -0.5606 -0.9434
   63TMC2    C3  960   4.389   2.737  10.122  0.1062 -0.8823  0.2084
   63TMC2    C4  961   4.114   2.768  10.089 -0.4452 -0.3440 -0.0535
   63TMC2    C5  962   4.205   2.859  10.039 -0.1239 -0.3035  0.2879
   63TMC2    C6  963   4.344   2.848  10.066 -0.6518 -0.1471 -0.3891
   63TMC2     C  964   4.085   2.557  10.206  0.4610 -0.1487  0.1773
   63TMC2     O  965   4.128   2.442  10.209 -0.0559  0.1494 -0.0715
   63TMC2     H  966   4.346   2.548  10.203  0.4201  0.2940 -0.1407
   63TMC2    H1  967   4.009   2.784  10.067 -0.6246  0.0316  1.1286
   63TMC2    H2  968   4.412   2.917  10.017  0.1967 -1.9490 -1.7409
   63TMC2    C7  969   4.145   2.994  10.015 -0.1057 -0.3583 -0.2552
   63TMC2    C8  970   4.521   2.724  10.179 -1.0013 -0.1901  0.1539
   63TMC2    O1  971   4.032   2.998   9.965 -0.0717  0.0618 -0.5960
   63TMC2    O2  972   4.578   2.619  10.154 -0.4890  0.0802  0.0396
   63TMC2    O5  973   4.578   2.843  10.196  0.0528  0.0145  0.2091
   63TMC2    H5  974   4.504   2.904  10.220  0.0237 -0.9396  2.6031
   64MPD2     C  975   3.758   2.449  10.581  0.8633 -0.5412 -0.2331
   64MPD2    C1  976   3.857   2.373  10.521  0.7789 -0.0322  0.9352
   64MPD2    C2  977   3.929   2.441  10.426 -0.1860 -0.1959  0.1678
   64MPD2    C3  978   3.913   2.572  10.386 -0.5636 -0.8733 -0.0906
   64MPD2    C4  979   3.820   2.644  10.457 -0.2695  0.2947 -0.7101
   64MPD2    C5  980   3.748   2.580  10.553 -0.0193  1.0310  1.0420
   64MPD2     H  981   4.007   2.382  10.378 -0.9395  0.2239 -1.5580
   64MPD2    H1  982   3.793   2.748  10.438  2.5701  0.7543 -2.2964
   64MPD2    H2  983   3.687   2.411  10.653 -0.2147 -0.0103 -1.0274
   64MPD2    H3  984   3.673   2.635  10.610 -1.9263 -0.7260  0.2154
   64MPD2     N  985   3.992   2.627  10.281 -0.8412  0.6097 -0.2707
   64MPD2    H5  986   3.988   2.724  10.252  0.7955  0.3096 -1.4655
   64MPD2    N1  987   3.883   2.241  10.544 -0.0224  0.6975 -0.0539
   64MPD2    H7  988   3.953   2.196  10.486  0.8326  2.2551 -0.2113
   65MPD2     C  989   0.395   1.523  15.968  0.3386 -0.2353 -0.8149
   65MPD2    C1  990   0.381   1.544  15.831 -0.4065  0.2900 -1.0370
   65MPD2    C2  991   0.316   1.448  15.755  0.3715  0.0082 -0.4940
   65MPD2    C3  992   0.266   1.335  15.812 -0.1897  0.3383  0.0826
   65MPD2    C4  993   0.280   1.308  15.946 -0.7272 -0.7136  0.2024
   65MPD2    C5  994   0.342   1.402  16.023  0.4828  0.3910 -0.0943
   65MPD2     H  995   0.309   1.475  15.650 -3.2345 -0.6381 -0.4305
   65MPD2    H1  996   0.232   1.219  15.985 -1.3055  0.7033  2.6647
   65MPD2    H2  997   0.440   1.596  16.034 -0.9055 -0.3407  0.1557
   65MPD2    H3  998   0.359   1.402  16.130  1.5560  0.7044 -0.2660
   65MPD2     N  999   0.214   1.226  15.741  0.3573 -0.4947  0.1765
   65MPD2    H5 1000   0.187   1.142  15.791  2.1386 -0.4879  1.1446
   65MPD2    N1 1001   0.405   1.668  15.768 -0.0601  0.2544  0.5458
   65MPD2    H7 1002   0.372   1.677  15.673  1.6955 -2.3573 -0.2769
   66TCq2    C1 1003   0.468   1.780  15.825  0.3119 -0.3398 -0.4149
   66TCq2    O2 1004   0.516   1.806  15.937  0.3575  0.1441  0.3830
   66TCq2    C2 1005   0.474   1.888  15.728  0.1066  0.1532 -0.4559
   66TCq2    C3 1006   0.505   1.838  15.599 -0.0595  0.2763 -0.1288
   66TCq2    C4 1007   0.493   1.921  15.490 -1.0530  0.7024  0.5878
   66TCq2    C5 1008   0.414   2.037  15.504 -0.2359 -0.4091 -0.2914
   66TCq2    C6 1009   0.376   2.070  15.633  0.3743 -0.0070 -0.1044
   66TCq2    C7 1010   0.406   2.001  15.752 -0.1030  0.8132 -0.0708
   66TCq2    C8 1011   0.322   2.212  15.640  0.2392  0.4362 -0.6439
   66TCq2    O4 1012   0.321   2.282  15.539  0.5705  0.1613 -0.7720
   66TCq2    C9 1013   0.521   1.874  15.357  0.1576  0.7213 -0.4701
   66TCq2    O5 1014   0.512   1.964  15.271  0.7611  0.2210 -0.5386
   66TCq2    O6 1015   0.534   1.751  15.340  0.6781 -0.4932  0.5184
   66TCq2    H2 1016   0.548   1.740  15.584 -1.5184 -0.1062 -1.7861
   66TCq2    H3 1017   0.393   2.110  15.426 -0.5718  2.2739  2.3367
   66TCq2    H4 1018   0.385   2.027  15.855  1.0512  1.6609 -0.0478
   67MPD2     C 1019   0.580   0.497  14.184  0.2729  0.3552  0.6101
   67MPD2    C1 1020   0.540   0.627  14.166  0.3174 -0.1321  0.5496
   67MPD2    C2 1021   0.486   0.671  14.046 -0.1931 -0.0809 -0.1702
   67MPD2    C3 1022   0.473   0.577  13.946 -0.0012 -0.0053 -0.0054
   67MPD2    C4 1023   0.525   0.451  13.952  0.5808 -0.1277  0.3806
   67MPD2    C5 1024   0.568   0.409  14.076 -0.1199  0.7304  0.3011
   67MPD2     H 1025   0.439   0.768  14.036  1.5687  0.8327  0.2834
   67MPD2    H1 1026   0.512   0.378  13.874 -3.3982 -1.6059  2.3936
   67MPD2    H2 1027   0.619   0.459  14.278 -0.5539 -1.9738  0.0245
   67MPD2    H3 1028   0.595   0.305  14.090  0.0339  0.6659 -0.4736
   67MPD2     N 1029   0.414   0.602  13.821  0.8355  0.3164 -0.0784
   67MPD2    H5 1030   0.422   0.524  13.756  1.5616  0.2208  0.1274
   67MPD2    N1 1031   0.547   0.721  14.270  0.2320 -0.3624 -0.1704
   67MPD2    H7 1032   0.523   0.817  14.246  1.3736  0.3868  1.6149
   68TCq2    C1 1033   0.610   0.704  14.386  0.1230  0.0812 -0.5036
   68TCq2    O2 1034   0.658   0.609  14.445  0.3767  0.0621 -0.8130
   68TCq2    C2 1035   0.622   0.828  14.459 -0.5479  0.1647  0.4372
   68TCq2    C3 1036   0.519   0.920  14.452 -0.5856 -0.6356  0.1297
   68TCq2    C4 1037   0.538   1.042  14.513  0.4963 -0.4857 -0.7580
   68TCq2    C5 1038   0.657   1.068  14.581  0.6123  0.2279  0.2584
   68TCq2    C6 1039   0.753   0.968  14.580 -0.1506 -0.0520 -0.0429
   68TCq2    C7 1040   0.739   0.843  14.523 -0.3154  0.1533 -0.2657
   68TCq2    C8 1041   0.877   0.988  14.654 -0.7976  0.5301  0.2670
   68TCq2    O4 1042   0.974   0.923  14.623 -0.4940  0.1919  0.2331
   68TCq2    C9 1043   0.442   1.152  14.524  1.0791  0.6932 -0.3420
   68TCq2    O5 1044   0.322   1.120  14.544 -0.9481  0.1689 -0.0411
   68TCq2    O6 1045   0.487   1.265  14.511 -0.2062 -0.1171 -0.8476
   68TCq2    H2 1046   0.428   0.897  14.398 -1.8527  0.1210  1.9263
   68TCq2    H3 1047   0.670   1.163  14.632  0.3951  0.2138  0.3395
   68TCq2    H4 1048   0.815   0.765  14.521  1.1507  1.5264  2.0677
   69TMC2    C1 1049   2.769   2.369  12.757  0.3349 -0.0524  0.4607
   69TMC2    C2 1050   2.643   2.411  12.771 -0.0614  1.0451 -0.1289
   69TMC2    C3 1051   2.571   2.434  12.654  0.5744  0.4365 -0.0415
   69TMC2    C4 1052   2.839   2.355  12.636  0.4592  0.0476  0.7433
   69TMC2    C5 1053   2.771   2.393  12.525  1.0962 -0.2707 -0.5509
   69TMC2    C6 1054   2.636   2.427  12.535 -0.1621  0.6522  0.0244
   69TMC2     C 1055   2.806   2.287  12.869 -0.0813  0.6034 -0.7787
   69TMC2     O 1056   2.764   2.316  12.978 -0.3973 -0.2491  0.7660
   69TMC2     H 1057   2.592   2.399  12.866  1.9514 -6.3654  0.0462
   69TMC2    H1 1058   2.934   2.305  12.620 -0.1470 -1.4776  1.9725
   69TMC2    H2 1059   2.596   2.473  12.445 -1.8865  0.4900  0.7125
   69TMC2    C7 1060   2.837   2.368  12.400 -0.0637  0.0829 -0.5171
   69TMC2    C8 1061   2.443   2.497  12.656  0.1386 -0.2780  0.6903
   69TMC2    O1 1062   2.957   2.376  12.395 -1.2046 -0.3948  0.4223
   69TMC2    O2 1063   2.379   2.526  12.751 -0.5231 -0.5404  0.0041
   69TMC2    O5 1064   2.383   2.435  12.551  0.0733 -0.5296 -0.6200
   69TMC2    H5 1065   2.439   2.398  12.479 -2.0242 -1.5944 -1.7088
   70MPD2     C 1066   3.065   2.019  12.856 -0.1961 -0.1070  0.0970
   70MPD2    C1 1067   2.958   2.091  12.912 -0.2359  0.1247  0.4669
   70MPD2    C2 1068   2.925   2.074  13.043 -0.1752 -0.7575  0.1524
   70MPD2    C3 1069   2.995   1.985  13.120 -0.4490  0.1154  0.2208
   70MPD2    C4 1070   3.107   1.924  13.064 -0.4559  0.1816 -0.3851
   70MPD2    C5 1071   3.138   1.933  12.929  0.6224  0.0090  0.4011
   70MPD2     H 1072   2.840   2.127  13.085  1.7521  2.1666  0.3975
   70MPD2    H1 1073   3.163   1.855  13.127  1.0479  2.4568  0.7551
   70MPD2    H2 1074   3.078   2.016  12.749 -2.3288 -1.4140 -0.1219
   70MPD2    H3 1075   3.218   1.872  12.888 -1.3462 -1.9865 -0.4320
   70MPD2     N 1076   2.971   1.961  13.254  0.8981  0.1172  0.1908
   70MPD2    H5 1077   3.041   1.896  13.289 -0.7033 -3.5321 -3.3910
   70MPD2    N1 1078   2.895   2.186  12.825  0.4073  0.1770 -0.0371
   70MPD2    H7 1079   2.916   2.176  12.727 -0.8305  0.9366 -0.3830
   71TMC2    C1 1080   0.473   2.947   1.491  0.4346  0.1792 -0.2722
   71TMC2    C2 1081   0.586   2.931   1.567  0.4113 -0.3313 -0.6196
   71TMC2    C3 1082   0.577   2.896   1.694 -0.1453  0.0839  0.4839
   71TMC2    C4 1083   0.355   2.906   1.553 -0.1561 -0.0885  0.2735
   71TMC2    C5 1084   0.343   2.879   1.685 -0.3956 -0.5957  0.1165
   71TMC2    C6 1085   0.458   2.882   1.759  0.2009 -0.0762  0.0588
   71TMC2     C 1086   0.476   2.926   1.347  0.5630 -0.1449  0.4485
   71TMC2     O 1087   0.378   2.867   1.303  0.0113  0.0056  0.2307
   71TMC2     H 1088   0.688   2.946   1.533 -0.0760 -0.1762 -2.0123
   71TMC2    H1 1089   0.261   2.926   1.505 -0.7609 -0.9511  1.1075
   71TMC2    H2 1090   0.463   2.869   1.866 -0.6103  1.5082  0.2948
   71TMC2    C7 1091   0.213   2.873   1.747  0.3772 -0.9119 -0.2542
   71TMC2    C8 1092   0.694   2.931   1.775 -0.8148  0.1608  0.0295
   71TMC2    O1 1093   0.122   2.911   1.672  0.4492 -0.1653  0.1293
   71TMC2    O2 1094   0.772   3.019   1.733  0.0718  0.4560 -0.6480
   71TMC2    O5 1095   0.711   2.857   1.885 -0.0076 -0.0364  0.5993
   71TMC2    H5 1096   0.651   2.780   1.885  0.4744 -0.4151  0.6039
   72MPD2     C 1097   0.705   2.858   0.899  0.4121 -0.1510  0.0766
   72MPD2    C1 1098   0.571   2.851   0.937  0.4458  0.4307  0.1316
   72MPD2    C2 1099   0.533   2.884   1.062 -0.5554 -0.5345 -0.5305
   72MPD2    C3 1100   0.629   2.924   1.151 -0.5026 -0.6405  0.9043
   72MPD2    C4 1101   0.756   2.958   1.107  0.0128 -0.1103  0.6241
   72MPD2    C5 1102   0.793   2.924   0.979 -0.4448 -0.7074 -0.2322
   72MPD2     H 1103   0.429   2.869   1.090 -0.8956  0.3092 -1.3567
   72MPD2    H1 1104   0.819   3.028   1.162  0.2276 -0.5130  0.8905
   72MPD2    H2 1105   0.734   2.813   0.805  2.6140  0.7483  0.3381
   72MPD2    H3 1106   0.896   2.936   0.948 -0.7630  0.6770 -0.7253
   72MPD2     N 1107   0.598   2.953   1.287  0.0557 -0.2755  0.2746
   72MPD2    H5 1108   0.677   2.992   1.336 -1.3798  2.0089  0.7590
   72MPD2    N1 1109   0.463   2.822   0.846  0.0942  0.3889  0.6528
   72MPD2    H7 1110   0.379   2.789   0.892 -0.4198 -1.3183 -1.4978
   73TMC2    C1 1111   4.330   3.967  14.283 -0.7051 -0.3130 -0.0477
   73TMC2    C2 1112   4.310   4.025  14.409  0.7120  0.6191 -0.3822
   73TMC2    C3 1113   4.421   4.054  14.488 -0.4116 -0.4130 -0.2275
   73TMC2    C4 1114   4.459   3.945  14.243 -0.5971  0.4982 -0.3404
   73TMC2    C5 1115   4.566   3.982  14.316  0.2236 -0.2583 -0.7304
   73TMC2    C6 1116   4.548   4.031  14.445 -0.5329 -0.1360 -0.3973
   73TMC2     C 1117   4.260   4.033  14.177  0.3783 -0.2769  0.3568
   73TMC2     O 1118   4.325   4.064  14.078 -0.1866 -0.0000 -0.4817
   73TMC2     H 1119   4.214   4.060  14.445 -0.3326 -1.7095 -0.8905
   73TMC2    H1 1120   4.482   3.898  14.148 -1.7356 -0.6025 -0.0637
   73TMC2    H2 1121   4.635   4.066  14.500 -0.3022 -2.2269  0.5768
   73TMC2    C7 1122   4.662   4.064  14.243  0.5289 -0.6027 -0.6633
   73TMC2    C8 1123   4.402   4.133  14.603  0.3340  0.0995  0.3604
   73TMC2    O1 1124   0.042   4.091  14.307  0.5011  0.4726  0.4754
   73TMC2    O2 1125   4.309   4.211  14.613 -0.1668 -0.4667 -0.6972
   73TMC2    O5 1126   4.470   4.082  14.702  0.1872  0.1933  0.2271
   73TMC2    H5 1127   4.505   3.996  14.671  0.6179 -0.7378  3.2330
   74MPD2     C 1128   3.877   4.349  14.037 -0.5252 -0.4290 -0.6437
   74MPD2    C1 1129   4.013   4.354  14.008 -0.1808  0.8146  0.1555
   74MPD2    C2 1130   4.097   4.258  14.065 -0.0236  0.4132 -0.1863
   74MPD2    C3 1131   4.042   4.162  14.148  0.4910  0.0829  0.3091
   74MPD2    C4 1132   3.907   4.157  14.170  0.1981 -0.6786 -0.4245
   74MPD2    C5 1133   3.823   4.253  14.113  0.0357  0.4651 -0.3238
   74MPD2     H 1134   4.203   4.271  14.048  0.3118  0.2492  1.7009
   74MPD2    H1 1135   3.866   4.078  14.232  0.1010 -0.1071  0.2431
   74MPD2    H2 1136   3.807   4.423  13.997  1.3274  0.5697 -2.0179
   74MPD2    H3 1137   3.716   4.255  14.124  0.2383  2.2701  1.2458
   74MPD2     N 1138   4.128   4.059  14.211 -1.0280 -0.0014  0.5490
   74MPD2    H5 1139   4.082   3.998  14.279 -0.2382  0.6179  1.6339
   74MPD2    N1 1140   4.066   4.460  13.932 -0.2185  0.5957 -0.0595
   74MPD2    H7 1141   4.165   4.455  13.909 -0.9018  0.2110 -2.9653
   75TCq2    C1 1142   0.345   0.714  13.788  0.6526  0.5120 -0.0373
   75TCq2    O2 1143   0.321   0.813  13.847 -0.3401  0.1494 -0.1136
   75TCq2    C2 1144   0.299   0.711  13.650  0.3952 -0.0740 -0.4573
   75TCq2    C3 1145   0.367   0.623  13.565 -0.3341 -0.0126  0.2338
   75TCq2    C4 1146   0.314   0.624  13.442 -0.6027 -0.2761 -0.0956
   75TCq2    C5 1147   0.207   0.704  13.391 -0.5379 -0.5394  0.1573
   75TCq2    C6 1148   0.146   0.784  13.487 -0.5335 -0.1547  0.4275
   75TCq2    C7 1149   0.194   0.794  13.617 -0.4130  1.0730 -0.3817
   75TCq2    C8 1150   0.028   0.858  13.443 -0.0271 -0.0220 -0.1250
   75TCq2    O4 1151   0.009   0.850  13.323 -0.6452 -0.2045 -0.0030
   75TCq2    C9 1152   0.361   0.522  13.349 -0.4098 -0.0763 -0.2153
   75TCq2    O5 1153   0.334   0.531  13.228 -1.1727  0.4477  0.0281
   75TCq2    O6 1154   0.428   0.428  13.405 -0.2783 -0.4857 -0.0850
   75TCq2    H2 1155   0.456   0.563  13.579 -2.3293 -2.8730  0.7547
   75TCq2    H3 1156   0.167   0.676  13.295 -0.2001 -3.7986  0.9588
   75TCq2    H4 1157   0.146   0.849  13.697  2.0622 -0.3396  2.0541
   76MPD2     C 1158   3.872   2.171  11.951  0.0218  0.4050 -0.8438
   76MPD2    C1 1159   3.743   2.131  11.931  0.6600  0.0055  0.1321
   76MPD2    C2 1160   3.711   2.000  11.914 -0.3791 -0.2968  0.0921
   76MPD2    C3 1161   3.817   1.906  11.908 -0.3772  0.8926 -0.2747
   76MPD2    C4 1162   3.949   1.952  11.926 -0.6692 -0.0090 -0.2011
   76MPD2    C5 1163   3.972   2.081  11.950  0.5626 -0.5555 -0.0224
   76MPD2     H 1164   3.607   1.972  11.904  0.1068 -1.9106 -0.4771
   76MPD2    H1 1165   4.031   1.881  11.921 -0.6693  0.2234 -3.1895
   76MPD2    H2 1166   3.906   2.272  11.973 -0.5472  0.5309 -0.5468
   76MPD2    H3 1167   4.070   2.114  11.983  1.0928 -1.0826 -1.0479
   76MPD2     N 1168   3.791   1.771  11.876 -0.1872 -0.3142  0.1379
   76MPD2    H5 1169   3.880   1.725  11.862  0.6603  1.0249  1.2521
   76MPD2    N1 1170   3.633   2.218  11.924  0.2323  0.1615 -0.0592
   76MPD2    H7 1171   3.540   2.179  11.939  0.5542 -0.5380  0.1298
   77TCq2    C1 1172   3.676   1.709  11.830  0.5163  0.5620 -0.2263
   77TCq2    O2 1173   3.571   1.757  11.791  0.3137  0.5070 -0.2722
   77TCq2    C2 1174   3.685   1.567  11.835  0.0668  0.2176  0.1320
   77TCq2    C3 1175   3.574   1.494  11.815  0.3262 -0.4562  0.0745
   77TCq2    C4 1176   3.575   1.361  11.787 -0.4062  0.8375 -0.3925
   77TCq2    C5 1177   3.697   1.297  11.790 -0.3401 -0.0980 -0.0614
   77TCq2    C6 1178   3.811   1.375  11.828 -0.3071 -0.6502 -0.0144
   77TCq2    C7 1179   3.808   1.511  11.853  0.1303 -0.8891  0.2584
   77TCq2    C8 1180   3.938   1.306  11.831 -0.5123  0.0543  0.3137
   77TCq2    O4 1181   3.937   1.192  11.786  0.6153  0.2747  0.1571
   77TCq2    C9 1182   3.461   1.305  11.737 -0.3802 -0.2188 -0.1005
   77TCq2    O5 1183   3.357   1.377  11.727 -0.0748  0.1610  0.1509
   77TCq2    O6 1184   3.478   1.194  11.679 -0.1502 -0.1472 -0.4106
   77TCq2    H2 1185   3.482   1.551  11.812  1.7214  1.8427  1.7404
   77TCq2    H3 1186   3.702   1.191  11.769  0.1773 -0.0695 -0.0717
   77TCq2    H4 1187   3.905   1.560  11.853 -0.8460  0.9925 -0.9823
   78MPD1     C 1188   4.493   2.133   1.538 -0.4426  0.0461  0.0856
   78MPD1    C1 1189   4.563   2.173   1.425 -0.1802  0.3337  0.0118
   78MPD1    C2 1190   4.684   2.225   1.447 -0.4060  0.0449 -0.3348
   78MPD1    C3 1191   0.010   2.262   1.572 -0.2395 -0.0702 -0.4594
   78MPD1    C4 1192   4.652   2.237   1.684  0.0018 -0.3189  0.3479
   78MPD1    C5 1193   4.535   2.163   1.665 -0.1466  0.2623  0.6318
   78MPD1     H 1194   0.018   2.251   1.359 -1.7917 -1.1908 -1.6177
   78MPD1    H1 1195   4.686   2.270   1.781  0.3978  2.0298 -0.5967
   78MPD1    H2 1196   4.404   2.074   1.524 -0.0840 -1.1302  2.9194
   78MPD1    H3 1197   4.481   2.152   1.759  1.4199  1.0122  1.6236
   78MPD1     N 1198   0.126   2.349   1.593  0.0880  0.1676  0.2665
   78MPD1    H5 1199   0.145   2.365   1.691 -1.1082  0.7026  0.4117
   78MPD1    N1 1200   4.522   2.129   1.295 -0.5408  0.0914 -0.8477
   78MPD1    H6 1201   4.421   2.111   1.290 -0.3343 -1.3436 -0.0186
   78MPD1    H7 1202   4.544   2.199   1.225 -2.6820  0.3528 -1.2673
   79TCq2    C1 1203   0.188   2.428   1.503  0.3828  0.7688  0.6258
   79TCq2    O2 1204   0.154   2.446   1.389  0.5701 -0.2051 -0.0382
   79TCq2    C2 1205   0.303   2.496   1.561 -0.6892 -0.4920  0.6285
   79TCq2    C3 1206   0.319   2.501   1.699 -0.0791  0.4013  0.0238
   79TCq2    C4 1207   0.439   2.555   1.744 -0.4373 -0.2473  0.2987
   79TCq2    C5 1208   0.540   2.583   1.658 -0.0662  0.0515 -0.0746
   79TCq2    C6 1209   0.523   2.579   1.522  0.4605  0.1246 -0.2367
   79TCq2    C7 1210   0.398   2.546   1.471  0.4194 -0.2905 -0.0901
   79TCq2    C8 1211   0.632   2.605   1.433  0.1902 -0.5654  0.3408
   79TCq2    O4 1212   0.736   2.630   1.494 -0.1723  0.4066  0.0936
   79TCq2    C9 1213   0.472   2.573   1.887  0.0193 -0.3769  0.0464
   79TCq2    O5 1214   0.375   2.537   1.964 -0.4238 -0.1135 -0.0567
   79TCq2    O6 1215   0.571   2.643   1.925 -0.3103  0.3640 -0.2128
   79TCq2    H2 1216   0.241   2.477   1.770  1.1218 -0.2276  1.1337
   79TCq2    H3 1217   0.637   2.606   1.701 -0.3218  0.1261  0.4672
   79TCq2    H4 1218   0.374   2.554   1.366 -0.0985  2.1517  0.2140
   80MPD2     C 1219   2.845   1.391  12.591 -0.3966  0.1803 -0.3689
   80MPD2    C1 1220   2.748   1.457  12.522 -0.3377 -0.3399 -0.2501
   80MPD2    C2 1221   2.638   1.509  12.596  0.3289  0.3687 -0.4524
   80MPD2    C3 1222   2.618   1.479  12.730 -0.5323  0.2651 -1.1209
   80MPD2    C4 1223   2.724   1.414  12.789  0.0285 -0.0089  0.1659
   80MPD2    C5 1224   2.836   1.375  12.724 -0.7447 -0.4878 -0.2349
   80MPD2     H 1225   2.563   1.570  12.547  0.7743  0.9007 -0.4722
   80MPD2    H1 1226   2.725   1.390  12.895 -1.2693 -1.9383 -0.2722
   80MPD2    H2 1227   2.929   1.337  12.548  1.9551  1.6519  2.4074
   80MPD2    H3 1228   2.910   1.325  12.785 -1.8447 -1.0028  0.6878
   80MPD2     N 1229   2.511   1.520  12.806  0.5684  0.0327  0.2304
   80MPD2    H5 1230   2.510   1.496  12.905  1.3005 -0.4547  0.1225
   80MPD2    N1 1231   2.749   1.468  12.377 -0.4720  0.0096  0.6070
   80MPD2    H7 1232   2.673   1.520  12.336 -0.9735 -0.0086  1.5208
   81TCq2    C1 1233   2.835   1.397  12.290  0.1067 -0.1399 -0.5362
   81TCq2    O2 1234   2.944   1.352  12.313  0.9833  0.1065  0.5548
   81TCq2    C2 1235   2.791   1.407  12.153 -0.2877 -0.1811  0.2898
   81TCq2    C3 1236   2.890   1.385  12.064 -0.0286  0.2735 -0.1744
   81TCq2    C4 1237   2.855   1.357  11.936 -0.4610  0.0028 -0.9407
   81TCq2    C5 1238   2.726   1.343  11.897 -0.0519 -0.0719 -0.1807
   81TCq2    C6 1239   2.629   1.359  11.989 -0.2132  0.7456  0.3397
   81TCq2    C7 1240   2.663   1.398  12.122 -0.1199  0.1933  0.6381
   81TCq2    C8 1241   2.500   1.293  11.954 -0.1337 -0.3165 -0.2353
   81TCq2    O4 1242   2.477   1.271  11.834 -0.0678 -0.0164 -0.2057
   81TCq2    C9 1243   2.963   1.359  11.843  0.5446 -0.2993  0.4132
   81TCq2    O5 1244   2.932   1.403  11.725 -0.5508 -0.2767 -0.3506
   81TCq2    O6 1245   3.076   1.327  11.887 -0.4781  0.7140  0.1195
   81TCq2    H2 1246   2.995   1.388  12.088  0.0737 -0.1868 -0.5664
   81TCq2    H3 1247   2.714   1.302  11.798  0.6753  1.0131 -0.7209
   81TCq2    H4 1248   2.591   1.403  12.203  0.0856 -0.8802  0.8868
   82MPD2     C 1249   1.236   1.342  10.680  0.5744 -0.0793 -0.7819
   82MPD2    C1 1250   1.117   1.274  10.666  0.1042 -0.1100  0.3795
   82MPD2    C2 1251   1.099   1.155  10.739 -0.0158 -0.7126  0.1251
   82MPD2    C3 1252   1.189   1.129  10.846  0.4431  0.7369 -0.0495
   82MPD2    C4 1253   1.307   1.202  10.857  0.3652  0.1074 -0.0158
   82MPD2    C5 1254   1.333   1.296  10.771  0.1630  0.5396 -0.3517
   82MPD2     H 1255   1.014   1.091  10.719  0.2096  0.2171 -3.7736
   82MPD2    H1 1256   1.386   1.185  10.928 -0.4121  1.3476  1.1520
   82MPD2    H2 1257   1.257   1.427  10.615  1.8188  0.4581  0.3241
   82MPD2    H3 1258   1.412   1.370  10.779  0.2648  0.4953 -0.8845
   82MPD2     N 1259   1.156   1.031  10.950 -0.4104  0.2397  0.5718
   82MPD2    H5 1260   1.220   1.024  11.028 -0.3440  1.2731  0.6157
   82MPD2    N1 1261   1.031   1.315  10.562  0.5332 -0.0406 -0.4638
   82MPD2    H7 1262   1.056   1.396  10.506  1.1371 -0.3221 -0.6001
   83TCq2    C1 1263   1.044   0.953  10.953  0.5933 -0.2612  0.3364
   83TCq2    O2 1264   0.975   0.919  10.859  0.0605 -0.7554  0.8189
   83TCq2    C2 1265   1.019   0.899  11.082 -0.1049 -0.6320 -0.2634
   83TCq2    C3 1266   1.054   0.963  11.197  0.2992 -0.2097  0.1858
   83TCq2    C4 1267   1.043   0.895  11.313 -0.7340  0.3990  0.1923
   83TCq2    C5 1268   0.992   0.768  11.320 -0.2620 -0.5945  0.1943
   83TCq2    C6 1269   0.968   0.699  11.202  0.2613  0.1479  0.1180
   83TCq2    C7 1270   0.981   0.763  11.079 -0.1192 -0.3639  1.0842
   83TCq2    C8 1271   0.938   0.554  11.215  0.4783 -0.1293  0.6779
   83TCq2    O4 1272   0.912   0.509  11.327 -1.0494 -0.0591 -0.0511
   83TCq2    C9 1273   1.051   0.966  11.440  0.0473  1.0720 -0.4766
   83TCq2    O5 1274   0.991   0.910  11.531 -0.6335  0.4011 -0.0904
   83TCq2    O6 1275   1.076   1.088  11.435  0.2476 -0.3937 -0.1592
   83TCq2    H2 1276   1.080   1.068  11.205  1.0727 -0.3106 -1.0731
   83TCq2    H3 1277   0.972   0.724  11.417  1.7271 -2.4546 -0.2190
   83TCq2    H4 1278   0.973   0.718  10.981 -1.0695 -1.3325  1.6083
   84TCq2    C1 1279   2.288   0.018  10.906  0.1743 -0.0347 -0.4330
   84TCq2    O2 1280   2.191   0.051  10.841 -0.4623  0.1136 -0.5032
   84TCq2    C2 1281   2.271   4.710  11.048 -0.2890  0.1260 -0.5234
   84TCq2    C3 1282   2.370   4.650  11.123  0.0750  0.2625  0.1404
   84TCq2    C4 1283   2.344   4.624  11.256 -0.8420 -0.5115 -0.1461
   84TCq2    C5 1284   2.229   4.668  11.316 -0.2383  0.3918  0.0996
   84TCq2    C6 1285   2.128   0.012  11.242 -0.1471 -0.1625 -0.0838
   84TCq2    C7 1286   2.152   0.028  11.104 -0.5029  0.1958  0.1817
   84TCq2    C8 1287   2.012   0.077  11.304 -0.1776 -0.3805 -0.4082
   84TCq2    O4 1288   1.930   0.134  11.232  0.1615 -0.1436  0.2088
   84TCq2    C9 1289   2.453   4.573  11.346  0.2410  0.3153 -0.3534
   84TCq2    O5 1290   2.571   4.566  11.296 -0.0389 -0.9570  0.0769
   84TCq2    O6 1291   2.430   4.587  11.471 -0.0653 -0.4295 -0.7425
   84TCq2    H2 1292   2.455   4.603  11.076 -1.1683 -3.0288  1.1720
   84TCq2    H3 1293   2.233   4.663  11.424 -4.8306  2.1495  0.3668
   84TCq2    H4 1294   2.065   0.071  11.057  0.3404  1.0749 -0.5795
   85MPD2     C 1295   2.523   2.237  16.215  0.0880  0.0869  0.4175
   85MPD2    C1 1296   2.424   2.265  16.122  0.5632  0.0979 -0.0769
   85MPD2    C2 1297   2.427   2.377  16.046 -0.0976  0.7060 -0.4437
   85MPD2    C3 1298   2.527   2.474  16.062 -0.5616  0.3665 -0.2657
   85MPD2    C4 1299   2.627   2.452  16.155  0.0237  0.5277  0.1010
   85MPD2    C5 1300   2.614   2.340  16.237  0.4317  0.2687 -0.4503
   85MPD2     H 1301   2.350   2.399  15.973 -1.7863  0.5564  1.2866
   85MPD2    H1 1302   2.707   2.521  16.179  1.9098 -2.1555  1.6461
   85MPD2    H2 1303   2.527   2.147  16.274  1.6141  1.4316  2.3709
   85MPD2    H3 1304   2.694   2.316  16.306  0.8634  0.4585 -0.8849
   85MPD2     N 1305   2.530   2.574  15.970  1.0678  0.0758 -0.3749
   85MPD2    H5 1306   2.462   2.566  15.895  1.2291  0.3171 -0.5469
   85MPD2    N1 1307   2.325   2.169  16.094  0.6768 -0.0815  0.1407
   85MPD2    H7 1308   2.281   2.172  16.003  0.5819  0.0798  0.1908
   86TCq2    C1 1309   2.626   2.671  15.973  0.6039  0.1696 -0.5112
   86TCq2    O2 1310   2.735   2.686  16.022 -0.1126 -0.4240 -0.2744
   86TCq2    C2 1311   2.610   2.766  15.864 -0.5293 -0.2672  0.0784
   86TCq2    C3 1312   2.495   2.840  15.868  0.0557 -0.3871 -0.1998
   86TCq2    C4 1313   2.496   2.946  15.774 -0.6633 -1.2382 -0.6022
   86TCq2    C5 1314   2.591   2.971  15.680  0.8239  0.2987 -0.2521
   86TCq2    C6 1315   2.707   2.904  15.692 -0.9615 -0.4685 -0.5351
   86TCq2    C7 1316   2.721   2.809  15.793  0.0211 -0.3401  0.0993
   86TCq2    C8 1317   2.806   2.904  15.581 -0.2864  0.0179  0.1421
   86TCq2    O4 1318   2.902   2.838  15.616  0.1697  0.2626 -0.2507
   86TCq2    C9 1319   2.388   3.034  15.775 -0.1951 -0.5989 -0.1751
   86TCq2    O5 1320   2.295   3.002  15.851  0.2247 -0.7977 -0.1244
   86TCq2    O6 1321   2.404   3.150  15.724 -0.8480 -0.3045  0.5616
   86TCq2    H2 1322   2.430   2.834  15.955 -0.4353  2.4657 -0.3867
   86TCq2    H3 1323   2.586   3.049  15.604  1.2332  1.6946  1.1562
   86TCq2    H4 1324   2.810   2.748  15.789 -1.1739 -2.0158 -1.2538
   87MPD2     C 1325   4.627   1.330   1.564 -0.5605  0.0370 -0.0380
   87MPD2    C1 1326   4.606   1.298   1.430 -0.1512  0.8017  0.0046
   87MPD2    C2 1327   4.541   1.393   1.356  0.2586 -0.6390 -0.4658
   87MPD2    C3 1328   4.509   1.521   1.409  0.1607  0.5737  0.1418
   87MPD2    C4 1329   4.528   1.554   1.542  0.5078  0.9441 -0.6765
   87MPD2    C5 1330   4.590   1.458   1.616  0.1983  0.0423 -0.6232
   87MPD2     H 1331   4.521   1.372   1.252  2.8958 -1.3133 -0.8504
   87MPD2    H1 1332   4.504   1.649   1.588  0.6612  1.2771 -1.2806
   87MPD2    H2 1333   4.666   1.257   1.634 -0.0777 -0.6487 -1.0078
   87MPD2    H3 1334   4.623   1.480   1.717  0.1335 -2.5991 -0.0082
   87MPD2     N 1335   4.450   1.623   1.327  0.9387 -0.8554  0.5217
   87MPD2    H5 1336   4.438   1.712   1.374 -1.9870 -1.8984  1.7454
   87MPD2    N1 1337   4.655   1.173   1.380 -0.2135 -0.2491 -0.3024
   87MPD2    H7 1338   4.719   1.114   1.431 -0.8138 -1.1703 -0.6093
   88TCq2    C1 1339   4.650   1.128   1.247 -0.4513 -0.2479 -0.0760
   88TCq2    O2 1340   4.583   1.176   1.154  0.3444  0.4344 -0.3584
   88TCq2    C2 1341   0.001   1.007   1.238  0.5151  0.5761 -0.5118
   88TCq2    C3 1342   0.025   0.939   1.357 -0.5549 -0.0727  0.1941
   88TCq2    C4 1343   0.064   0.807   1.336  0.3562 -0.4035  0.9143
   88TCq2    C5 1344   0.064   0.731   1.220  0.0130 -0.7268 -0.0910
   88TCq2    C6 1345   0.032   0.809   1.112 -0.1328  0.0460  0.0777
   88TCq2    C7 1346   0.006   0.940   1.118  0.7273  0.2791 -0.1992
   88TCq2    C8 1347   0.071   0.757   0.983 -0.0892  0.3321 -0.3164
   88TCq2    O4 1348   0.102   0.841   0.897  0.3459 -0.0092  0.1521
   88TCq2    C9 1349   0.078   0.726   1.460 -0.5523 -0.4864  0.0444
   88TCq2    O5 1350   0.114   0.791   1.564 -0.1770  0.2971  0.2305
   88TCq2    O6 1351   0.076   0.600   1.451 -0.4353  0.2798  0.0741
   88TCq2    H2 1352   0.027   0.975   1.459 -2.4455  0.7970 -0.0819
   88TCq2    H3 1353   0.105   0.630   1.222  1.2041 -0.2126  0.9782
   88TCq2    H4 1354   4.685   0.991   1.033  1.7676  1.6124  0.0466
   89MPD2     C 1355   0.498   3.251   1.840  0.4582 -0.2669  0.4356
   89MPD2    C1 1356   0.381   3.304   1.783  0.0575 -0.2325  0.4251
   89MPD2    C2 1357   0.386   3.394   1.677  0.2220 -0.1140 -0.3257
   89MPD2    C3 1358   0.505   3.429   1.618 -0.3429  0.0552 -1.3746
   89MPD2    C4 1359   0.620   3.375   1.676  0.5447  0.9192  0.9163
   89MPD2    C5 1360   0.615   3.291   1.788  0.6688  0.5023 -0.0491
   89MPD2     H 1361   0.292   3.430   1.636  0.2746 -0.3770 -0.6744
   89MPD2    H1 1362   0.716   3.407   1.636  1.8468  0.2644  3.5465
   89MPD2    H2 1363   0.490   3.183   1.923 -0.1077  0.1522  0.7298
   89MPD2    H3 1364   0.707   3.259   1.836 -2.2963 -3.8401  2.7091
   89MPD2     N 1365   0.509   3.528   1.513  0.7914 -0.3599  0.3079
   89MPD2    H5 1366   0.423   3.567   1.476  1.0204  0.4980  0.6854
   89MPD2    N1 1367   0.257   3.261   1.827  0.2200  0.4528 -0.7731
   89MPD2    H7 1368   0.175   3.299   1.782 -1.2505 -1.6453  0.1101
   90TCq2    C1 1369   0.622   3.562   1.439  0.4047 -1.1854  0.9181
   90TCq2    O2 1370   0.741   3.523   1.441  0.0961  0.7187  0.0942
   90TCq2    C2 1371   0.584   3.667   1.345  0.1890 -0.2984 -0.1995
   90TCq2    C3 1372   0.478   3.752   1.368  1.2418  0.3113  0.1575
   90TCq2    C4 1373   0.467   3.860   1.273 -0.7036 -0.3988 -0.0484
   90TCq2    C5 1374   0.555   3.873   1.164  0.1641 -0.8128  0.9265
   90TCq2    C6 1375   0.653   3.783   1.147 -0.7489  0.9777  0.2145
   90TCq2    C7 1376   0.664   3.679   1.238  0.0540 -0.3402 -0.2663
   90TCq2    C8 1377   0.761   3.813   1.052  0.2638  0.0987 -0.6782
   90TCq2    O4 1378   0.814   3.705   1.018  0.2577 -0.1879 -0.2621
   90TCq2    C9 1379   0.352   3.945   1.296 -0.1618 -0.1867  0.1021
   90TCq2    O5 1380   0.351   4.054   1.223  0.4726  0.5207  0.0818
   90TCq2    O6 1381   0.271   3.908   1.384 -0.1851  0.3053 -0.7122
   90TCq2    H2 1382   0.409   3.756   1.451  1.5218 -3.9684  0.6116
   90TCq2    H3 1383   0.548   3.957   1.096 -4.8320 -2.2150 -0.2861
   90TCq2    H4 1384   0.751   3.614   1.231  1.7782  1.8553  0.6123
   91TMC2    C1 1385   2.435   3.252  16.646  0.7550 -0.6395 -0.3641
   91TMC2    C2 1386   2.465   3.201  16.768 -0.8119 -0.1078  0.1234
   91TMC2    C3 1387   2.363   3.178  16.856 -0.6411  0.7690  0.0785
   91TMC2    C4 1388   2.303   3.285  16.610  0.0663 -0.0802  0.0065
   91TMC2    C5 1389   2.208   3.261  16.710  0.4086 -1.3082  0.2149
   91TMC2    C6 1390   2.232   3.210  16.828  0.0048  0.3734  0.0529
   91TMC2     C 1391   2.541   3.263  16.542 -0.5997 -0.0850  0.6978
   91TMC2     O 1392   2.504   3.262  16.425  0.2156  0.1752  0.0059
   91TMC2     H 1393   2.562   3.158  16.785 -0.9538  0.6279  2.7735
   91TMC2    H1 1394   2.284   3.340  16.519 -2.5299 -4.0407 -1.8712
   91TMC2    H2 1395   2.151   3.192  16.898  1.8931  1.3014  2.4615
   91TMC2    C7 1396   2.063   3.268  16.676  0.0668  0.0889  0.0384
   91TMC2    C8 1397   2.375   3.057  16.932 -0.1642 -0.0673 -0.2446
   91TMC2    O1 1398   1.981   3.273  16.766 -0.1250 -0.3244 -1.3033
   91TMC2    O2 1399   2.299   2.963  16.924 -0.1740 -0.0731 -0.0482
   91TMC2    O5 1400   2.495   3.052  16.990  0.0698 -0.3967 -0.0303
   91TMC2    H5 1401   2.539   3.140  16.987  1.3139 -1.0357 -0.8485
   92MPD2     C 1402   2.793   3.292  16.377 -0.0367 -0.8337  0.0277
   92MPD2    C1 1403   2.791   3.289  16.517 -0.8919  0.0719 -0.6760
   92MPD2    C2 1404   2.905   3.297  16.591 -0.1480 -0.9110  0.3615
   92MPD2    C3 1405   3.029   3.304  16.522  1.0471 -0.0041  0.7191
   92MPD2    C4 1406   3.037   3.296  16.384  0.9407 -0.3693  0.7222
   92MPD2    C5 1407   2.914   3.292  16.316 -0.8440  0.1780 -0.0663
   92MPD2     H 1408   2.899   3.322  16.696  1.9783 -1.7007  0.6823
   92MPD2    H1 1409   3.131   3.306  16.331 -0.0831 -0.5586 -1.1142
   92MPD2    H2 1410   2.707   3.287  16.310  1.8319  0.5968 -2.4513
   92MPD2    H3 1411   2.912   3.292  16.208  1.7798 -2.5543 -0.1055
   92MPD2     N 1412   3.143   3.329  16.607 -0.2923  0.7824  0.1145
   92MPD2    H5 1413   3.129   3.312  16.706 -1.5276 -0.7625 -0.3023
   92MPD2    N1 1414   2.669   3.283  16.590 -0.0170 -0.3434 -0.3954
   92MPD2    H7 1415   2.682   3.307  16.688 -0.4618 -2.2085  0.1309
   93MPD2     C 1416   3.539   3.354  13.545 -0.0926  0.4873  0.2921
   93MPD2    C1 1417   3.468   3.461  13.603 -0.1760 -0.3783 -0.3545
   93MPD2    C2 1418   3.331   3.475  13.583  0.2912  0.8578 -0.3665
   93MPD2    C3 1419   3.272   3.383  13.499 -0.2347  0.1612  0.3062
   93MPD2    C4 1420   3.346   3.285  13.440  1.1571 -0.8646  0.0179
   93MPD2    C5 1421   3.481   3.272  13.460  0.2112 -0.2513  0.2665
   93MPD2     H 1422   3.269   3.553  13.627 -2.0352  0.1254 -2.3100
   93MPD2    H1 1423   3.301   3.220  13.366  1.8695  0.4678 -1.5815
   93MPD2    H2 1424   3.645   3.340  13.565 -0.5151 -1.1858  1.3491
   93MPD2    H3 1425   3.528   3.185  13.416  0.3260  0.0400 -0.1892
   93MPD2     N 1426   3.142   3.394  13.454  0.3560  0.3186  0.0456
   93MPD2    H5 1427   3.128   3.331  13.375  0.2059 -0.2288  0.5115
   93MPD2    N1 1428   3.530   3.548  13.693  0.3390 -0.0336  0.5947
   93MPD2    H7 1429   3.458   3.615  13.717 -0.1031 -0.2030 -0.2511
   94TCq2    C1 1430   3.659   3.563  13.732  0.4660  0.2895  0.4797
   94TCq2    O2 1431   3.756   3.497  13.705 -0.1580 -0.8456  0.1568
   94TCq2    C2 1432   3.682   3.685  13.807 -0.0882 -0.5303 -1.1162
   94TCq2    C3 1433   3.577   3.765  13.839  0.1778  0.4003 -0.4812
   94TCq2    C4 1434   3.605   3.886  13.896  0.1200  0.2568  0.0800
   94TCq2    C5 1435   3.736   3.929  13.915 -0.0618 -0.2634  0.2913
   94TCq2    C6 1436   3.841   3.843  13.883 -0.1298 -0.2763  0.1567
   94TCq2    C7 1437   3.813   3.714  13.835  0.3479 -0.2010 -0.5972
   94TCq2    C8 1438   3.971   3.898  13.855  0.8401  0.1178  0.2663
   94TCq2    O4 1439   4.072   3.824  13.855 -0.0888  0.3504  0.4692
   94TCq2    C9 1440   3.497   3.967  13.938  0.0932 -0.0528 -0.4565
   94TCq2    O5 1441   3.382   3.930  13.908  0.0784  0.4866  0.3037
   94TCq2    O6 1442   3.536   4.077  13.978  0.0405 -0.4487 -0.0040
   94TCq2    H2 1443   3.481   3.716  13.837 -0.5091  1.6764  1.1164
   94TCq2    H3 1444   3.747   4.022  13.969 -0.1693  0.5245 -1.0629
   94TCq2    H4 1445   3.892   3.640  13.827  1.7489  1.1822  0.1839
   95TMC2    C1 1446   4.156   0.290  15.902 -0.2849 -0.4314  0.4673
   95TMC2    C2 1447   4.254   0.210  15.861 -0.1288  1.3065  0.0926
   95TMC2    C3 1448   4.216   0.087  15.808  0.0489  0.6212  0.2876
   95TMC2    C4 1449   4.018   0.257  15.904  0.0453  0.2479 -0.0156
   95TMC2    C5 1450   3.996   0.135  15.852 -0.0523  0.4289 -0.1680
   95TMC2    C6 1451   4.089   0.043  15.813  0.1815  0.4991 -0.1721
   95TMC2     C 1452   4.185   0.428  15.950 -0.5550 -0.6098 -0.3049
   95TMC2     O 1453   4.106   0.461  16.038  0.0303 -0.0874  0.0668
   95TMC2     H 1454   4.361   0.232  15.860  0.3630 -1.1313 -1.0261
   95TMC2    H1 1455   3.936   0.323  15.927 -0.6650 -1.0435  1.1940
   95TMC2    H2 1456   4.056   4.672  15.776 -0.6832  0.3484  1.0062
   95TMC2    C7 1457   3.858   0.092  15.837 -0.2038  0.6198 -0.6267
   95TMC2    C8 1458   4.319   4.706  15.813  0.2587  0.1463  0.5338
   95TMC2    O1 1459   3.838   4.697  15.865  0.2838 -0.2869  0.3789
   95TMC2    O2 1460   4.397   4.694  15.902 -0.1637  0.1513  0.5336
   95TMC2    O5 1461   4.263   4.599  15.747 -0.0732 -0.3064  0.4615
   95TMC2    H5 1462   4.201   4.618  15.673  0.0206  1.6660  0.8935
   96MPD2     C 1463   4.472   0.863  15.965  0.6174 -0.5432  0.8391
   96MPD2    C1 1464   4.512   0.783  15.860 -0.3032 -0.0861 -0.3747
   96MPD2    C2 1465   4.460   0.652  15.836 -0.1305 -0.8115 -0.1615
   96MPD2    C3 1466   4.360   0.607  15.920 -0.8223 -0.2610 -0.5150
   96MPD2    C4 1467   4.319   0.691  16.026  0.3714  0.4837 -0.2478
   96MPD2    C5 1468   4.376   0.816  16.047 -0.8998 -0.3585  0.6952
   96MPD2     H 1469   4.496   0.594  15.752  3.1888 -0.5900  1.1081
   96MPD2    H1 1470   4.244   0.653  16.094  1.6393 -1.7869 -0.1297
   96MPD2    H2 1471   4.503   0.966  15.979  1.9403 -0.8700  0.2722
   96MPD2    H3 1472   4.342   0.880  16.127 -2.1031 -1.4400  1.0398
   96MPD2     N 1473   4.292   0.485  15.889  0.1044 -0.8727 -0.1807
   96MPD2    H5 1474   4.339   0.425  15.822 -2.0942 -1.7453 -0.9274
   96MPD2    N1 1475   4.613   0.850  15.781  0.2298  0.1727 -1.1043
   96MPD2    H7 1476   4.627   0.950  15.794  0.8285 -0.0019 -0.4015
   97MPD2     C 1477   2.011   2.812   0.962  0.4984 -0.4901  0.1214
   97MPD2    C1 1478   1.878   2.852   0.943  0.2192  0.6052 -0.8284
   97MPD2    C2 1479   1.823   2.867   0.816 -0.0075 -0.1295  0.2854
   97MPD2    C3 1480   1.893   2.827   0.704  0.3178 -0.0642 -0.5794
   97MPD2    C4 1481   2.020   2.772   0.725  0.5505 -0.0431  0.8397
   97MPD2    C5 1482   2.077   2.762   0.851  0.3708  0.1308  0.3324
   97MPD2     H 1483   1.730   2.920   0.799 -0.5195 -0.1172  3.0722
   97MPD2    H1 1484   2.072   2.731   0.640 -4.5606  0.1731 -2.4211
   97MPD2    H2 1485   2.046   2.789   1.062  1.1728  0.6340  0.1414
   97MPD2    H3 1486   2.176   2.720   0.854  1.0011  1.7507  2.3640
   97MPD2     N 1487   1.839   2.833   0.574 -0.6555 -0.5941  0.3920
   97MPD2    H5 1488   1.910   2.835   0.502 -0.8215  0.1402  0.2466
   97MPD2    N1 1489   1.812   2.893   1.060  0.0155 -0.0034 -0.0221
   97MPD2    H7 1490   1.868   2.911   1.143  0.4717  1.8065 -0.7212
   98TCq2    C1 1491   1.707   2.856   0.541  0.1037 -0.8514 -0.6118
   98TCq2    O2 1492   1.606   2.855   0.615  0.0583 -0.1116 -0.0943
   98TCq2    C2 1493   1.686   2.868   0.396 -0.0173  0.3994  0.0143
   98TCq2    C3 1494   1.557   2.905   0.375  0.4091 -0.2937 -0.4166
   98TCq2    C4 1495   1.524   3.004   0.293  0.5288 -0.3317 -0.2571
   98TCq2    C5 1496   1.616   3.070   0.217  0.3379  0.2997  0.1826
   98TCq2    C6 1497   1.747   3.032   0.231  0.2128  0.2505  0.3275
   98TCq2    C7 1498   1.779   2.940   0.326  0.9492 -0.4468  0.2214
   98TCq2    C8 1499   1.848   3.141   0.213 -0.2865  0.9363  0.1642
   98TCq2    O4 1500   1.970   3.116   0.228  0.0204  0.5756  0.2376
   98TCq2    C9 1501   1.386   3.039   0.268  0.3829 -0.2479 -0.3476
   98TCq2    O5 1502   1.295   2.970   0.321 -0.0462 -0.2073 -0.2679
   98TCq2    O6 1503   1.362   3.125   0.177 -0.2486 -0.0015  0.0337
   98TCq2    H2 1504   1.467   2.856   0.410  0.2104  0.4984  0.1738
   98TCq2    H3 1505   1.578   3.136   0.141  1.5696 -2.4909 -2.8526
   98TCq2    H4 1506   1.880   2.943   0.365  0.8478  0.1282  0.4397
   99MPD2     C 1507   0.301   0.307   2.088  0.1847 -0.0061  0.0151
   99MPD2    C1 1508   0.235   0.187   2.100  0.6178  0.4790 -0.0805
   99MPD2    C2 1509   0.218   0.109   1.988  0.1632 -0.2499  0.0224
   99MPD2    C3 1510   0.266   0.151   1.865  0.1782 -0.0030 -0.1224
   99MPD2    C4 1511   0.335   0.272   1.857 -0.1259  1.0088 -0.0974
   99MPD2    C5 1512   0.342   0.348   1.967 -0.2991 -0.4810 -0.2777
   99MPD2     H 1513   0.155   0.021   2.001  1.0845 -0.6929  1.4803
   99MPD2    H1 1514   0.378   0.317   1.768  2.0763 -1.2820 -0.2010
   99MPD2    H2 1515   0.328   0.363   2.177  1.3848  0.0502 -0.3734
   99MPD2    H3 1516   0.396   0.442   1.967 -0.7137 -0.2469  3.0829
   99MPD2     N 1517   0.251   0.068   1.753  0.4735 -0.1504 -0.4927
   99MPD2    H5 1518   0.197   4.709   1.771 -0.2706  0.2637 -0.7872
   99MPD2    N1 1519   0.169   0.140   2.215  0.3336 -0.4680  0.1482
   99MPD2    H7 1520   0.131   0.046   2.206  0.3880 -0.8451  3.6976
  100TCq2    C1 1521   0.150   0.209   2.328  0.0734  0.0634  0.3006
  100TCq2    O2 1522   0.204   0.317   2.361  0.2981 -0.0195 -0.5291
  100TCq2    C2 1523   0.063   0.137   2.420  0.8546 -0.3031  0.2974
  100TCq2    C3 1524   0.076   0.177   2.550 -0.3158 -0.3706 -0.2797
  100TCq2    C4 1525   4.721   0.117   2.645 -0.5357 -0.1902  0.3580
  100TCq2    C5 1526   4.635   0.013   2.605  0.5584 -0.0927 -0.0599
  100TCq2    C6 1527   4.624   4.702   2.472  0.3214 -0.4191  0.5945
  100TCq2    C7 1528   4.695   0.045   2.372 -0.0836  0.3264  0.1643
  100TCq2    C8 1529   4.543   4.593   2.437 -0.4186 -0.0371 -0.3134
  100TCq2    O4 1530   4.524   4.510   2.530 -0.0799 -0.5539 -0.0106
  100TCq2    C9 1531   0.001   0.158   2.787  0.3257 -0.3724 -0.3980
  100TCq2    O5 1532   0.100   0.228   2.816 -0.4028 -0.0527  0.3119
  100TCq2    O6 1533   4.633   0.121   2.872  0.6065  0.1985  0.2270
  100TCq2    H2 1534   0.136   0.258   2.589  0.3113 -1.0035  0.0676
  100TCq2    H3 1535   4.565   4.694   2.675  1.5543  0.4005  1.2417
  100TCq2    H4 1536   4.693   0.016   2.268  2.5083 -0.9764  0.4743
  101MPD2     C 1537   1.639   1.125  13.302 -0.0870 -0.1680 -0.0471
  101MPD2    C1 1538   1.538   1.202  13.348  0.1036  0.1625  0.0264
  101MPD2    C2 1539   1.432   1.147  13.414  0.0409  0.6692 -0.6758
  101MPD2    C3 1540   1.407   1.010  13.396  0.3593 -0.3563  0.5119
  101MPD2    C4 1541   1.500   0.931  13.333 -0.0436  0.9565 -0.3957
  101MPD2    C5 1542   1.617   0.992  13.290  0.0829  0.0274 -0.1030
  101MPD2     H 1543   1.370   1.213  13.473  1.6033  0.1759  1.5345
  101MPD2    H1 1544   1.489   0.824  13.324 -2.8208  1.1513  0.9088
  101MPD2    H2 1545   1.735   1.166  13.272 -1.3411  0.1244 -3.5407
  101MPD2    H3 1546   1.689   0.928  13.242  0.6612  1.4110 -1.0889
  101MPD2     N 1547   1.286   0.952  13.444  0.1059 -0.4631 -0.3399
  101MPD2    H5 1548   1.217   1.017  13.481 -1.0977 -1.2599 -1.1885
  101MPD2    N1 1549   1.549   1.335  13.307 -0.1252 -0.1910  0.2077
  101MPD2    H7 1550   1.638   1.367  13.272 -0.4234  2.5288  1.9449
  102TCq2    C1 1551   1.773   1.757  13.162  0.2984  0.1663 -0.1682
  102TCq2    O2 1552   1.824   1.793  13.057 -0.9723 -0.4843 -0.5114
  102TCq2    C2 1553   1.639   1.695  13.156 -0.4210 -0.4088  0.0648
  102TCq2    C3 1554   1.565   1.719  13.043 -0.1458  0.0728  0.5786
  102TCq2    C4 1555   1.446   1.660  13.030  0.5048 -0.4476  0.7512
  102TCq2    C5 1556   1.400   1.578  13.133  0.5055  0.2633  0.2393
  102TCq2    C6 1557   1.477   1.555  13.248  0.5852  0.0784  0.2353
  102TCq2    C7 1558   1.604   1.609  13.256 -0.9387  0.3486  0.0117
  102TCq2    C8 1559   1.447   1.432  13.317  0.2974 -0.1341 -0.2936
  102TCq2    O4 1560   1.332   1.431  13.356 -0.0933 -0.2415 -0.3483
  102TCq2    C9 1561   1.376   1.681  12.905  1.6038  0.0697  1.1383
  102TCq2    O5 1562   1.448   1.707  12.800 -0.1217 -0.1907 -0.7239
  102TCq2    O6 1563   1.262   1.628  12.894  0.3005 -0.1565  0.6951
  102TCq2    H2 1564   1.598   1.779  12.959  3.2036  0.5673  2.2445
  102TCq2    H3 1565   1.313   1.518  13.107  0.1177  1.5844 -1.5273
  102TCq2    H4 1566   1.668   1.593  13.342 -0.0464 -0.9946 -0.8938
  103TMC2    C1 1567   4.531   1.461  12.353  0.7207  0.0505  0.6228
  103TMC2    C2 1568   4.656   1.418  12.313 -0.6413  0.1676 -0.0035
  103TMC2    C3 1569   0.035   1.448  12.403 -0.7585 -0.0608  0.5301
  103TMC2    C4 1570   4.502   1.521  12.475 -0.3287 -0.2964  0.0554
  103TMC2    C5 1571   4.614   1.545  12.552  0.3050  0.8425  0.0046
  103TMC2    C6 1572   0.014   1.509  12.516  0.3299  0.9079  0.7352
  103TMC2     C 1573   4.421   1.428  12.258  0.6057  0.6513 -0.0965
  103TMC2     O 1574   4.319   1.495  12.275 -0.2641 -0.1033 -0.1182
  103TMC2     H 1575   4.676   1.367  12.219  0.0118 -0.0796  0.2657
  103TMC2    H1 1576   4.398   1.537  12.501 -0.1046  1.8661 -0.4178
  103TMC2    H2 1577   0.099   1.553  12.569  0.7258 -0.0269  0.8817
  103TMC2    C7 1578   4.599   1.609  12.672 -0.2462 -0.0147 -0.5189
  103TMC2    C8 1579   0.171   1.420  12.375  0.3388  0.1726 -0.0512
  103TMC2    O1 1580   4.708   1.619  12.732 -0.4262  0.1488 -0.1340
  103TMC2    O2 1581   0.214   1.394  12.262  0.3873  0.0089 -0.4103
  103TMC2    O5 1582   0.237   1.379  12.484  0.1119  0.1590 -0.1900
  103TMC2    H5 1583   0.183   1.366  12.565  1.4330 -1.1239  0.5043
  104MPD2     C 1584   4.411   1.204  11.975  0.2641 -0.2412 -0.1592
  104MPD2    C1 1585   4.363   1.299  12.057 -0.0376 -0.7781 -0.2992
  104MPD2    C2 1586   4.231   1.349  12.038  0.2496 -1.0415  1.0349
  104MPD2    C3 1587   4.161   1.304  11.927  0.8427 -0.1682 -0.3868
  104MPD2    C4 1588   4.216   1.208  11.850  0.9165  0.1422  0.1344
  104MPD2    C5 1589   4.339   1.157  11.874  0.4647 -0.0945  0.6615
  104MPD2     H 1590   4.185   1.425  12.099  1.8013 -0.2692  1.2459
  104MPD2    H1 1591   4.166   1.188  11.756  0.2867  2.7903 -0.0812
  104MPD2    H2 1592   4.504   1.151  11.995 -0.6285 -1.6365  0.2984
  104MPD2    H3 1593   4.372   1.077  11.809  2.3326  1.2943 -0.0920
  104MPD2     N 1594   4.037   1.362  11.903 -0.9833  0.3704  0.6565
  104MPD2    H5 1595   4.010   1.430  11.973 -0.5278  0.3335  0.8706
  104MPD2    N1 1596   4.445   1.329  12.169  0.2904  0.0826 -0.4423
  104MPD2    H7 1597   4.527   1.270  12.176  0.5274 -0.1006 -4.7061
  105MPD2     C 1598   1.271   0.517  17.687 -0.0455 -0.1737  0.5142
  105MPD2    C1 1599   1.248   0.655  17.684  0.1492 -0.6197 -0.6119
  105MPD2    C2 1600   1.156   0.713   0.071  0.5972  0.5109  1.0777
  105MPD2    C3 1601   1.074   0.617   0.138  0.7157 -0.0408 -0.4545
  105MPD2    C4 1602   1.091   0.480   0.119 -1.3974 -0.0882  0.2215
  105MPD2    C5 1603   1.199   0.430   0.051 -0.1148  0.2189 -0.2649
  105MPD2     H 1604   1.146   0.821   0.074  0.3955  0.5598 -1.3793
  105MPD2    H1 1605   1.028   0.399   0.157  2.1717 -2.3682  1.2797
  105MPD2    H2 1606   1.335   0.473  17.612 -1.1145 -1.7713  0.5442
  105MPD2    H3 1607   1.205   0.323   0.033  1.7596  0.2701  0.0206
  105MPD2     N 1608   0.961   0.672   0.211 -0.3391  0.5964 -0.0738
  105MPD2    H5 1609   0.964   0.772   0.227  0.0849  0.6443 -0.4512
  105MPD2    N1 1610   1.303   0.740  17.588 -0.7646 -0.0274 -0.5183
  105MPD2    H7 1611   1.265   0.833  17.589 -3.3466 -1.1504  2.5987
  106TCq2    C1 1612   0.867   0.597   0.270 -0.4988  0.4000 -0.1321
  106TCq2    O2 1613   0.847   0.479   0.256  0.4521  0.2809 -0.8424
  106TCq2    C2 1614   0.757   0.664   0.338  0.2642  0.3123 -0.0829
  106TCq2    C3 1615   0.772   0.798   0.376  0.3507 -0.8426 -0.4530
  106TCq2    C4 1616   0.668   0.854   0.445 -0.3097  0.0240  0.7655
  106TCq2    C5 1617   0.558   0.779   0.472  0.2387  0.2174 -0.2784
  106TCq2    C6 1618   0.548   0.645   0.443  0.0533 -0.1692 -0.3466
  106TCq2    C7 1619   0.649   0.592   0.368 -0.7492 -0.2828 -1.0458
  106TCq2    C8 1620   0.440   0.561   0.482  0.1328 -0.1632 -0.9463
  106TCq2    O4 1621   0.422   0.465   0.412  0.4959  0.8943 -0.5223
  106TCq2    C9 1622   0.665   1.005   0.467  0.4628 -0.4592  0.6041
  106TCq2    O5 1623   0.740   1.073   0.396 -0.5486  0.9339 -0.5364
  106TCq2    O6 1624   0.602   1.048   0.567 -0.0025 -0.2380  0.0426
  106TCq2    H2 1625   0.845   0.871   0.343  1.1216 -1.1425  0.5727
  106TCq2    H3 1626   0.471   0.826   0.517  0.6471  2.4761 -1.8583
  106TCq2    H4 1627   0.637   0.488   0.338 -0.9143 -0.2601 -1.0571
  107TMC2    C1 1628   1.415   0.745  11.711 -0.4085 -0.3590 -0.3995
  107TMC2    C2 1629   1.403   0.782  11.577 -0.7311 -1.1611 -0.1855
  107TMC2    C3 1630   1.480   0.722  11.489 -0.5997 -0.1378  0.3330
  107TMC2    C4 1631   1.490   0.637  11.752 -0.3542  0.2912  0.7267
  107TMC2    C5 1632   1.565   0.579  11.655 -0.2533 -0.4766 -0.2317
  107TMC2    C6 1633   1.566   0.622  11.526  0.2991 -0.7510  0.1168
  107TMC2     C 1634   1.333   0.818  11.810 -0.7693  0.5862  0.1048
  107TMC2     O 1635   1.223   0.841  11.768 -0.4402  0.3532 -0.0941
  107TMC2     H 1636   1.347   0.872  11.554  1.6430  0.0477 -1.2292
  107TMC2    H1 1637   1.474   0.598  11.851  2.6112 -0.5140  0.8788
  107TMC2    H2 1638   1.639   0.585  11.456 -1.0947 -1.4947 -0.9582
  107TMC2    C7 1639   1.647   0.464  11.696 -0.2666 -0.1538  0.1122
  107TMC2    C8 1640   1.475   0.761  11.352 -0.1682 -0.4086  0.7553
  107TMC2    O1 1641   1.656   0.457  11.816 -0.6103 -0.3887  0.0935
  107TMC2    O2 1642   1.369   0.801  11.300  0.0918 -0.1074 -0.5969
  107TMC2    O5 1643   1.587   0.839  11.354 -0.5817  0.1355  0.0635
  107TMC2    H5 1644   1.642   0.813  11.431  2.2848  0.7900 -1.7424
  108MPD2     C 1645   1.356   0.822  12.174  0.1564 -0.5483 -0.1505
  108MPD2    C1 1646   1.292   0.801  12.056  0.1417  0.0797 -0.2973
  108MPD2    C2 1647   1.155   0.781  12.054  0.7594  0.1344 -1.0074
  108MPD2    C3 1648   1.085   0.783  12.173  0.5507  0.1099 -0.2366
  108MPD2    C4 1649   1.158   0.802  12.287 -0.4172  0.4117  0.4631
  108MPD2    C5 1650   1.289   0.830  12.293 -0.1398  0.3190 -0.2009
  108MPD2     H 1651   1.103   0.765  11.960 -0.2513  1.1104 -0.6172
  108MPD2    H1 1652   1.113   0.817  12.385  1.5309  1.9154  1.1274
  108MPD2    H2 1653   1.457   0.862  12.175  1.0402 -2.7803 -0.2967
  108MPD2    H3 1654   1.339   0.861  12.385 -2.2147  3.5393 -0.1576
  108MPD2     N 1655   0.943   0.756  12.182 -0.3489  0.3415  0.2869
  108MPD2    H5 1656   0.902   0.757  12.275 -0.7650 -3.0664  0.1243
  108MPD2    N1 1657   1.375   0.811  11.937 -0.1928 -0.0975 -0.4902
  108MPD2    H7 1658   1.473   0.810  11.964 -0.0335  0.5983 -1.0695
  109MPD2     C 1659   1.710   2.124   1.756 -0.1757 -0.1837 -0.2977
  109MPD2    C1 1660   1.639   2.237   1.722 -0.5027 -0.0098 -0.2219
  109MPD2    C2 1661   1.668   2.355   1.784  0.3004  0.2542 -0.4052
  109MPD2    C3 1662   1.753   2.355   1.889  0.2008 -0.3026  0.1450
  109MPD2    C4 1663   1.832   2.235   1.914  0.0614  0.0994 -0.7744
  109MPD2    C5 1664   1.807   2.123   1.849  0.3281  1.1237 -0.1595
  109MPD2     H 1665   1.614   2.449   1.771 -0.3401  0.0306  0.5982
  109MPD2    H1 1666   1.912   2.235   1.987  0.7004 -2.3381 -1.4745
  109MPD2    H2 1667   1.699   2.033   1.699  0.1018 -0.5354  0.2183
  109MPD2    H3 1668   1.866   2.033   1.865  0.1560  0.7743 -1.4786
  109MPD2     N 1669   1.781   2.481   1.947 -0.8148 -0.2632  0.4800
  109MPD2    H5 1670   1.703   2.545   1.939 -0.2116  0.5654  1.3818
  109MPD2    N1 1671   1.533   2.231   1.630  0.1308  0.1751  0.2364
  109MPD2    H7 1672   1.504   2.141   1.593 -0.1327  1.7150 -3.3323
  110TCq2    C1 1673   1.901   2.511   2.013  0.3997 -0.5451  0.3194
  110TCq2    O2 1674   1.993   2.439   2.049  0.0410  0.2107 -0.0584
  110TCq2    C2 1675   1.883   2.635   2.084 -0.4648  0.2439 -0.0461
  110TCq2    C3 1676   1.984   2.675   2.178  0.0125 -0.2389 -0.5889
  110TCq2    C4 1677   2.000   2.808   2.201 -0.1417  0.6538  0.0246
  110TCq2    C5 1678   1.935   2.902   2.136 -0.2080  0.2791 -0.6883
  110TCq2    C6 1679   1.837   2.860   2.052 -0.9210  0.2027  0.7314
  110TCq2    C7 1680   1.801   2.729   2.027 -0.9994 -0.0319  0.2105
  110TCq2    C8 1681   1.786   2.952   1.959  0.2065  0.2789  0.7823
  110TCq2    O4 1682   1.742   2.896   1.858  0.0818  0.5933  0.4155
  110TCq2    C9 1683   2.102   2.851   2.288 -0.2802  0.0599 -0.4878
  110TCq2    O5 1684   2.190   2.765   2.324 -0.3427  0.3293 -0.3025
  110TCq2    O6 1685   2.122   2.974   2.309  0.2648  0.1784  0.5002
  110TCq2    H2 1686   2.051   2.612   2.236 -0.8538 -0.8348 -0.2322
  110TCq2    H3 1687   1.956   3.007   2.149 -1.2225  0.5158 -0.9292
  110TCq2    H4 1688   1.720   2.710   1.958  0.7997 -1.1838 -1.5811
  111TMC2    C1 1689   2.052   2.207  11.894  0.6771  0.4311  0.0689
  111TMC2    C2 1690   2.142   2.165  11.801  0.4670 -0.3256  0.0245
  111TMC2    C3 1691   2.266   2.118  11.838  0.0434 -0.0373 -0.2404
  111TMC2    C4 1692   2.069   2.181  12.029  0.0207  0.0919 -0.5596
  111TMC2    C5 1693   2.193   2.127  12.058  0.3106 -0.6096 -0.0653
  111TMC2    C6 1694   2.294   2.106  11.967 -0.3323  0.9782 -0.1451
  111TMC2     C 1695   1.939   2.284  11.844  0.7467 -0.1529 -0.6749
  111TMC2     O 1696   1.938   2.292  11.720  0.4598 -0.1754  0.3035
  111TMC2     H 1697   2.122   2.167  11.694  1.2196 -0.6294 -0.1267
  111TMC2    H1 1698   1.999   2.224  12.100  0.4033 -1.9791  1.0666
  111TMC2    H2 1699   2.392   2.075  12.001 -0.4531 -1.1636 -1.7602
  111TMC2    C7 1700   2.220   2.109  12.200 -0.0852 -0.2186 -0.2676
  111TMC2    C8 1701   2.379   2.131  11.755  0.0122 -0.6080 -0.7647
  111TMC2    O1 1702   2.331   2.129  12.239 -0.1710 -0.1010  0.2695
  111TMC2    O2 1703   2.469   2.208  11.791 -0.5338 -0.8327  0.2258
  111TMC2    O5 1704   2.334   2.113  11.636  0.3644 -0.1291  0.7482
  111TMC2    H5 1705   2.279   2.032  11.646 -0.1874  0.1232 -0.2395
  112MPD2     C 1706   1.593   2.661  11.890  0.4871  0.1372  0.3657
  112MPD2    C1 1707   1.658   2.621  11.775 -0.5499 -0.1185 -0.2616
  112MPD2    C2 1708   1.767   2.531  11.795  0.2123  0.1655 -0.1265
  112MPD2    C3 1709   1.792   2.474  11.915  0.7075 -0.0123  0.5702
  112MPD2    C4 1710   1.711   2.507  12.021  0.3261  0.0192  0.2254
  112MPD2    C5 1711   1.608   2.603  12.013  0.4092 -0.0887  0.0638
  112MPD2     H 1712   1.821   2.498  11.707 -0.4165 -0.1583 -0.3983
  112MPD2    H1 1713   1.725   2.456  12.115 -1.2812 -0.8364 -0.0027
  112MPD2    H2 1714   1.513   2.733  11.881  0.1128 -0.2047  0.9823
  112MPD2    H3 1715   1.547   2.639  12.095  1.5163 -0.0819  0.8819
  112MPD2     N 1716   1.880   2.365  11.937 -0.3286  0.1186  0.2999
  112MPD2    H5 1717   1.896   2.332  12.032  0.4193  2.0226  0.8468
  112MPD2    N1 1718   1.625   2.660  11.637  0.4145 -0.4209  0.1634
  112MPD2    H7 1719   1.700   2.659  11.569 -0.3726  0.2103 -0.7070
  113MPD2     C 1720   4.616   4.656   1.949  1.0557 -0.3382 -0.0137
  113MPD2    C1 1721   4.611   0.011   1.838 -0.3791 -0.6112  0.2439
  113MPD2    C2 1722   4.608   4.677   1.713 -0.3399 -0.3174 -0.0664
  113MPD2    C3 1723   4.621   4.538   1.695  0.1683  0.2229  0.2050
  113MPD2    C4 1724   4.628   4.460   1.809  0.3080  0.1718  0.0572
  113MPD2    C5 1725   4.638   4.516   1.933 -0.7925  0.1427 -0.8319
  113MPD2     H 1726   4.582   0.020   1.633  2.0952 -1.2994 -1.6712
  113MPD2    H1 1727   4.643   4.353   1.794  1.5648  0.4452 -0.6302
  113MPD2    H2 1728   4.606   4.702   2.047 -0.5559 -0.5155 -0.1073
  113MPD2    H3 1729   4.648   4.456   2.023  0.5696  0.6953 -0.6099
  113MPD2     N 1730   4.617   4.479   1.569 -0.1886  0.0955 -0.7756
  113MPD2    H5 1731   4.628   4.378   1.569  0.8321  0.1999  0.5817
  113MPD2    N1 1732   4.609   0.154   1.842 -0.6631 -0.1960 -0.6512
  113MPD2    H7 1733   4.618   0.208   1.756 -4.4041  0.0454 -0.8690
  114TCq2    C1 1734   4.596   4.549   1.447 -0.4706 -0.5687 -0.1119
  114TCq2    O2 1735   4.586   4.668   1.415 -0.0651 -0.0704  0.0227
  114TCq2    C2 1736   4.560   4.455   1.346  0.3507  0.2567 -0.3329
  114TCq2    C3 1737   4.605   4.328   1.354  0.4310 -0.4071  0.1181
  114TCq2    C4 1738   4.554   4.232   1.274  0.1030 -0.9295  1.1346
  114TCq2    C5 1739   4.455   4.268   1.183 -0.4372  0.0389  0.5895
  114TCq2    C6 1740   4.405   4.397   1.179 -0.6775  0.3786  0.0131
  114TCq2    C7 1741   4.462   4.494   1.258  0.1863  0.6551 -0.0268
  114TCq2    C8 1742   4.296   4.441   1.089 -0.3204  0.3787  0.3459
  114TCq2    O4 1743   4.319   4.543   1.022 -0.1511  0.4949 -0.3786
  114TCq2    C9 1744   4.593   4.096   1.269 -0.8654  0.3538 -0.5292
  114TCq2    O5 1745   4.538   4.017   1.192 -0.2764  0.3065  0.3208
  114TCq2    O6 1746   4.685   4.056   1.341 -0.0831  0.0362 -0.3724
  114TCq2    H2 1747   4.697   4.310   1.408 -1.8509 -2.4882  3.3450
  114TCq2    H3 1748   4.409   4.194   1.120  2.2294 -1.4786  0.4419
  114TCq2    H4 1749   4.431   4.598   1.255 -1.5963  0.1229 -0.1712
  115TMC2    C1 1750   0.489   2.970   0.232 -0.5629 -0.5642  0.2416
  115TMC2    C2 1751   0.552   3.014   0.344 -1.0563  0.1502  0.3925
  115TMC2    C3 1752   0.524   3.145   0.374  0.3021 -0.0260 -0.5878
  115TMC2    C4 1753   0.399   3.047   0.158 -0.2427 -0.1922 -0.1303
  115TMC2    C5 1754   0.391   3.180   0.180 -0.5929 -0.4276 -0.5616
  115TMC2    C6 1755   0.454   3.231   0.289 -0.2456  0.3792  1.3760
  115TMC2     C 1756   0.486   2.827   0.207 -0.0308 -0.2835 -0.1241
  115TMC2     O 1757   0.394   2.783   0.142 -0.4030  0.2746  0.3673
  115TMC2     H 1758   0.625   2.969   0.410  0.3555  0.0334 -1.2545
  115TMC2    H1 1759   0.332   3.003   0.084  0.3807  0.6144 -1.1820
  115TMC2    H2 1760   0.457   3.339   0.296 -1.1427  0.6228 -1.9623
  115TMC2    C7 1761   0.364   3.276   0.068  0.5589  0.4943  0.8922
  115TMC2    C8 1762   0.633   3.200   0.453 -0.0659 -0.8641 -0.1311
  115TMC2    O1 1763   0.420   3.256  17.661  0.1391 -0.4931 -0.3026
  115TMC2    O2 1764   0.749   3.157   0.453  0.5942 -0.4243  0.6909
  115TMC2    O5 1765   0.600   3.320   0.510  0.5251 -0.0036 -0.0483
  115TMC2    H5 1766   0.504   3.340   0.508  0.3178 -0.6362  2.6733
  116MPD2     C 1767   0.761   2.413   0.130 -0.0579  0.3714  0.0526
  116MPD2    C1 1768   0.624   2.424   0.105  0.4489  0.1915  0.4781
  116MPD2    C2 1769   0.567   2.542   0.155  0.4358 -0.5187  1.1134
  116MPD2    C3 1770   0.640   2.639   0.221  0.3622 -0.2693  0.0177
  116MPD2    C4 1771   0.775   2.619   0.249  0.3213 -0.2756 -0.4483
  116MPD2    C5 1772   0.835   2.507   0.195  0.4253  0.0951 -0.8032
  116MPD2     H 1773   0.465   2.560   0.122  0.0982 -2.0158  1.3073
  116MPD2    H1 1774   0.829   2.692   0.307 -0.0445 -1.4725  1.4131
  116MPD2    H2 1775   0.819   2.326   0.099  1.5957  2.0384 -1.5698
  116MPD2    H3 1776   0.941   2.496   0.211  0.5103  0.0985 -1.3497
  116MPD2     N 1777   0.596   2.766   0.259  0.0890  0.1385  0.2870
  116MPD2    H5 1778   0.667   2.818   0.308 -0.1502  0.9546 -0.2443
  116MPD2    N1 1779   0.546   2.325   0.033 -0.0458 -0.0402  0.3004
  116MPD2    H7 1780   0.601   2.248  17.696  0.2811  1.3958 -2.2129
  117TMC2    C1 1781   3.457   4.411  14.110  0.6777  0.4475  0.5533
  117TMC2    C2 1782   3.447   4.282  14.166  0.0665 -0.3496 -0.4832
  117TMC2    C3 1783   3.508   4.274  14.281  0.5483  0.9358  0.3552
  117TMC2    C4 1784   3.524   4.518  14.173 -0.3275  0.5047  0.3146
  117TMC2    C5 1785   3.595   4.494  14.285  0.0088  0.3682 -0.1365
  117TMC2    C6 1786   3.588   4.372  14.343  0.3072  0.7104 -0.3219
  117TMC2     C 1787   3.388   4.434  13.981  0.4703 -0.3463  0.2087
  117TMC2     O 1788   3.387   4.549  13.936 -0.0273  0.4012  0.4324
  117TMC2     H 1789   3.388   4.199  14.128 -2.3041  2.2410 -2.4394
  117TMC2    H1 1790   3.524   4.611  14.119 -0.5895  0.4212  0.1705
  117TMC2    H2 1791   3.667   4.348  14.414 -0.4362 -1.5846 -0.2549
  117TMC2    C7 1792   3.711   4.581  14.298  0.0991 -0.4066  0.4741
  117TMC2    C8 1793   3.505   4.141  14.341 -0.6521 -0.2870  0.4435
  117TMC2    O1 1794   3.748   4.633  14.192 -0.5164 -0.0082 -0.1969
  117TMC2    O2 1795   3.534   4.121  14.458 -0.4012  0.4086  0.3190
  117TMC2    O5 1796   3.546   4.057  14.242  0.0835 -0.6189  0.0887
  117TMC2    H5 1797   3.541   4.088  14.149  0.7116 -1.0599 -0.0971
  118MPD2     C 1798   3.926   4.654  14.583  0.3865 -0.0520  0.6459
  118MPD2    C1 1799   3.893   4.643  14.447 -0.8725 -0.1579  0.5833
  118MPD2    C2 1800   3.976   4.710  14.358 -0.1032  0.0258  0.4043
  118MPD2    C3 1801   4.092   0.054  14.395 -1.2252 -0.1133 -0.2274
  118MPD2    C4 1802   4.115   0.067  14.530  0.3021 -0.4140  0.2710
  118MPD2    C5 1803   4.028   0.013  14.616  0.3498  0.1448 -0.0883
  118MPD2     H 1804   3.954   4.690  14.254  1.2584  0.8069 -0.0278
  118MPD2    H1 1805   4.205   0.114  14.567 -0.3862  0.5175  0.7700
  118MPD2    H2 1806   3.860   4.608  14.655  0.2216  0.5070  0.8494
  118MPD2    H3 1807   4.037   0.028  14.724  2.4232  1.5736 -0.4522
  118MPD2     N 1808   4.187   0.097  14.299 -0.3285  0.0922  0.3254
  118MPD2    H5 1809   4.276   0.129  14.334  0.1978 -3.2471  2.0543
  118MPD2    N1 1810   3.773   4.578  14.424  0.1288  0.0177 -0.2849
  118MPD2    H7 1811   3.732   4.532  14.505 -1.9911 -2.3067 -2.6546
  119MPD2     C 1812   2.486   1.151  13.986 -0.8200 -0.6649  0.3222
  119MPD2    C1 1813   2.364   1.107  14.038 -0.6125  0.1490 -0.4683
  119MPD2    C2 1814   2.255   1.117  13.950 -0.5586  0.5891 -0.2734
  119MPD2    C3 1815   2.273   1.170  13.826 -0.4732 -0.2063  0.0462
  119MPD2    C4 1816   2.391   1.218  13.786  0.2100  0.0415  0.5422
  119MPD2    C5 1817   2.495   1.212  13.866 -0.3966  0.2268  0.1755
  119MPD2     H 1818   2.161   1.080  13.987 -0.4423  1.2595  0.6889
  119MPD2    H1 1819   2.404   1.244  13.681  0.6137 -2.7778 -0.1048
  119MPD2    H2 1820   2.577   1.128  14.039 -0.6101 -0.7993 -0.0902
  119MPD2    H3 1821   2.589   1.258  13.835  0.5786 -2.5005 -0.8843
  119MPD2     N 1822   2.169   1.165  13.727  0.1853  0.1808 -0.4381
  119MPD2    H5 1823   2.198   1.190  13.633 -3.0975 -2.3299 -2.1023
  119MPD2    N1 1824   2.368   1.042  14.157 -0.7510  0.2902  0.8173
  119MPD2    H7 1825   2.452   1.058  14.212  0.7533 -0.7091 -1.1892
  120TCq2    C1 1826   2.038   1.115  13.742 -0.1257 -0.2481 -0.4916
  120TCq2    O2 1827   1.966   1.096  13.840  0.4181  0.1248  0.1250
  120TCq2    C2 1828   1.983   1.063  13.617 -0.0662  0.2571  0.3859
  120TCq2    C3 1829   2.070   1.060  13.505 -0.3365  0.0839 -0.1284
  120TCq2    C4 1830   2.051   0.973  13.402  0.6328  0.0547  0.7912
  120TCq2    C5 1831   1.941   0.885  13.409 -0.2803  0.0397 -0.0521
  120TCq2    C6 1832   1.853   0.889  13.519  0.0195  0.1469  0.0164
  120TCq2    C7 1833   1.876   0.973  13.627 -0.0593  0.1341  0.2459
  120TCq2    C8 1834   1.755   0.784  13.520  0.1899 -0.5558  0.1555
  120TCq2    O4 1835   1.757   0.705  13.429 -0.5833 -0.2492 -0.2700
  120TCq2    C9 1836   2.141   0.970  13.285  0.3713  0.5733  0.2247
  120TCq2    O5 1837   2.230   1.061  13.277 -0.6437 -0.0351 -0.0748
  120TCq2    O6 1838   2.119   0.883  13.198 -0.0750  0.1584 -0.1652
  120TCq2    H2 1839   2.152   1.131  13.498 -1.9302  2.0958  1.4703
  120TCq2    H3 1840   1.921   0.812  13.331  2.1327 -3.1736  2.3163
  120TCq2    H4 1841   1.818   0.963  13.717  1.8832 -3.9632  1.0465
  121TMC2    C1 1842   3.505   2.742  13.817  0.2082  0.5143  1.3257
  121TMC2    C2 1843   3.521   2.708  13.949 -1.3942 -0.1484  0.0873
  121TMC2    C3 1844   3.411   2.643  14.004  0.6350 -0.5544  0.1331
  121TMC2    C4 1845   3.399   2.714  13.740  0.3941 -0.3112  0.9589
  121TMC2    C5 1846   3.287   2.660  13.799  0.5938 -0.1588  0.2894
  121TMC2    C6 1847   3.290   2.623  13.933 -0.1015  0.0836  0.2855
  121TMC2     C 1848   3.610   2.825  13.766 -0.2308  0.1214 -0.3388
  121TMC2     O 1849   3.682   2.876  13.850 -0.7342  0.2905  0.3472
  121TMC2     H 1850   3.615   2.720  14.001 -2.0129  0.8610  0.9828
  121TMC2    H1 1851   3.400   2.747  13.637  1.8225 -3.0824  0.0619
  121TMC2    H2 1852   3.203   2.586  13.985  0.7043 -1.8391  0.2764
  121TMC2    C7 1853   3.172   2.662  13.715  1.0332  0.4076  0.3691
  121TMC2    C8 1854   3.426   2.597  14.139 -0.6362  0.3304  0.0478
  121TMC2    O1 1855   3.179   2.710  13.601 -0.1988 -0.0130  0.5436
  121TMC2    O2 1856   3.509   2.639  14.215  0.1980 -0.0816 -0.6183
  121TMC2    O5 1857   3.382   2.472  14.130  0.5534  0.2642 -0.1613
  121TMC2    H5 1858   3.344   2.444  14.043  0.7760 -2.6694  0.6705
  122MPD2     C 1859   3.760   3.030  13.629  0.7332 -0.8396  0.6779
  122MPD2    C1 1860   3.705   2.924  13.562  0.1252  0.8041  0.3781
  122MPD2    C2 1861   3.729   2.906  13.424 -0.1582  0.7975 -0.1965
  122MPD2    C3 1862   3.781   3.015  13.359  0.5296 -0.5010 -0.4312
  122MPD2    C4 1863   3.820   3.131  13.424  0.1210  0.4904  0.0518
  122MPD2    C5 1864   3.823   3.130  13.559  0.1955  0.4077  0.1920
  122MPD2     H 1865   3.694   2.820  13.368 -0.7383  0.0283  1.3418
  122MPD2    H1 1866   3.869   3.219  13.384 -0.2422  1.2889  1.3552
  122MPD2    H2 1867   3.746   3.044  13.735 -1.8095 -4.2689  0.8126
  122MPD2    H3 1868   3.845   3.225  13.607  0.0824  1.2223 -1.3962
  122MPD2     N 1869   3.788   3.015  13.219 -0.1580 -0.3363 -0.0818
  122MPD2    H5 1870   3.794   3.109  13.180 -3.2951 -0.0141  0.2606
  122MPD2    N1 1871   3.625   2.826  13.631  0.3413  0.6606 -0.5542
  122MPD2    H7 1872   3.583   2.750  13.579  0.2363  0.0054  0.4815
  123MPD2     C 1873   1.876   1.939   9.211 -0.1329  0.3139 -0.2702
  123MPD2    C1 1874   1.866   1.802   9.206  0.1920 -0.4796  0.1832
  123MPD2    C2 1875   1.963   1.724   9.268  0.5643 -0.1500  0.6462
  123MPD2    C3 1876   2.077   1.781   9.318 -0.9077 -0.2562 -0.1323
  123MPD2    C4 1877   2.082   1.923   9.317  0.1812 -0.3870 -0.0146
  123MPD2    C5 1878   1.979   2.002   9.276  0.5456  1.0032  0.3333
  123MPD2     H 1879   1.953   1.616   9.273 -2.4148  0.1670  1.6555
  123MPD2    H1 1880   2.167   1.971   9.365 -0.4366  0.2655  0.4182
  123MPD2    H2 1881   1.806   2.008   9.166  1.4140  1.3789 -1.0388
  123MPD2    H3 1882   1.978   2.110   9.279 -1.2707  1.0513 -1.3674
  123MPD2     N 1883   2.185   1.708   9.362  0.2569 -0.1461  0.5328
  123MPD2    H5 1884   2.179   1.608   9.346 -0.2364 -0.1761  0.8759
  123MPD2    N1 1885   1.748   1.744   9.146  0.1688  0.1108 -0.5756
  123MPD2    H7 1886   1.684   1.814   9.110 -0.6706 -0.1205  0.4772
  124TCq2    C1 1887   2.305   1.752   9.422  0.2506 -0.1342 -0.6303
  124TCq2    O2 1888   2.342   1.864   9.462  0.2092 -0.0090 -0.2168
  124TCq2    C2 1889   2.401   1.649   9.407  0.5917  0.5668  0.2688
  124TCq2    C3 1890   2.394   1.552   9.309  0.5000  0.2131 -0.9165
  124TCq2    C4 1891   2.486   1.453   9.301  0.0257 -0.0739  0.4723
  124TCq2    C5 1892   2.587   1.450   9.385 -0.4938  0.5320  1.3196
  124TCq2    C6 1893   2.587   1.538   9.493  0.4287  0.5449 -0.3938
  124TCq2    C7 1894   2.494   1.644   9.507  0.7777 -0.2086  0.2909
  124TCq2    C8 1895   2.664   1.492   9.611  0.0406  0.2500 -0.1406
  124TCq2    O4 1896   2.735   1.391   9.603 -0.0275 -0.4431 -0.1525
  124TCq2    C9 1897   2.462   1.348   9.202  0.6448  0.2502 -0.9016
  124TCq2    O5 1898   2.390   1.381   9.103 -0.1611 -0.2870  0.4495
  124TCq2    O6 1899   2.522   1.237   9.213  0.2144  0.0868  0.2699
  124TCq2    H2 1900   2.316   1.555   9.234 -0.4312 -0.6645  0.0176
  124TCq2    H3 1901   2.666   1.378   9.366  0.0429  0.8421  2.3522
  124TCq2    H4 1902   2.506   1.719   9.585  1.0033 -0.3025  0.3466
  125TMC2    C1 1903   2.520   1.918   9.163 -0.5162 -0.1503 -0.6504
  125TMC2    C2 1904   2.397   1.939   9.107  0.0287 -0.3894  0.0402
  125TMC2    C3 1905   2.341   2.064   9.124 -0.4783  0.5345  0.4467
  125TMC2    C4 1906   2.596   2.015   9.216 -0.1898 -0.4174  0.2588
  125TMC2    C5 1907   2.540   2.143   9.234 -0.2368  0.0600  0.1793
  125TMC2    C6 1908   2.415   2.173   9.181  0.1595 -0.4489  0.0162
  125TMC2     C 1909   2.589   1.798   9.125  0.3312 -0.1753  0.2983
  125TMC2     O 1910   2.533   1.749   9.031 -0.2710 -0.6304  0.2488
  125TMC2     H 1911   2.341   1.861   9.058 -0.7578 -1.1785  2.1689
  125TMC2    H1 1912   2.695   1.992   9.252  0.0882  0.0956 -0.1829
  125TMC2    H2 1913   2.369   2.270   9.197 -1.1197 -0.9145 -0.7969
  125TMC2    C7 1914   2.595   2.247   9.315  0.3864 -0.4737  0.1877
  125TMC2    C8 1915   2.234   2.102   9.041 -0.4534  0.3921  0.1431
  125TMC2    O1 1916   2.522   2.337   9.357 -0.7405 -0.5529  0.3059
  125TMC2    O2 1917   2.177   2.206   9.078  0.0722  0.6885  0.1245
  125TMC2    O5 1918   2.286   2.094   8.914 -0.2653 -0.6129 -0.0967
  125TMC2    H5 1919   2.367   2.039   8.907  0.2742  0.3327 -1.1584
  126MPD1     C 1920   2.918   1.401   9.167 -0.3695  0.5790  0.6338
  126MPD1    C1 1921   2.939   1.481   9.281 -0.2830  0.2168  0.0896
  126MPD1    C2 1922   2.864   1.599   9.288  0.0737  0.3064  0.6099
  126MPD1    C3 1923   2.777   1.641   9.192  0.4294 -0.2097  0.6011
  126MPD1    C4 1924   2.754   1.549   9.095 -0.2701 -0.0474 -0.7458
  126MPD1    C5 1925   2.825   1.438   9.075  0.3255 -0.1528 -0.1983
  126MPD1     H 1926   2.897   1.662   9.370 -2.3782 -0.4783  2.2307
  126MPD1    H1 1927   2.671   1.570   9.030 -0.0307 -0.2734 -1.1222
  126MPD1    H2 1928   2.967   1.306   9.151 -0.5966  0.6966 -0.8349
  126MPD1    H3 1929   2.794   1.374   8.993 -0.2037  0.6531 -0.6236
  126MPD1     N 1930   2.696   1.755   9.211  0.2770 -0.4866  0.0091
  126MPD1    H5 1931   2.727   1.813   9.289 -0.3931  0.3759 -0.3586
  126MPD1    N1 1932   3.050   1.463   9.368  0.3410  0.4809 -0.5446
  126MPD1    H6 1933   3.072   1.363   9.376 -0.8068  0.2782  0.0632
  126MPD1    H7 1934   3.046   1.504   9.461 -0.6367  0.3749 -0.5443
  127MPD2     C 1935   4.363   1.663   9.441  0.7845 -0.1565  0.1579
  127MPD2    C1 1936   4.253   1.716   9.511  0.9606 -0.5884 -0.4544
  127MPD2    C2 1937   4.275   1.835   9.591 -0.0416 -0.2688 -0.0280
  127MPD2    C3 1938   4.407   1.884   9.606 -0.0789  0.6207 -0.3802
  127MPD2    C4 1939   4.518   1.825   9.540  0.4512  0.1270 -0.3383
  127MPD2    C5 1940   4.487   1.722   9.453 -0.9829 -0.8250 -0.3151
  127MPD2     H 1941   4.194   1.873   9.653  0.8428 -1.1956  1.6817
  127MPD2    H1 1942   4.622   1.854   9.534  0.9682 -1.4693  0.8064
  127MPD2    H2 1943   4.350   1.581   9.372  1.6382  1.3635 -1.7978
  127MPD2    H3 1944   4.569   1.682   9.395  0.0274 -1.6444  1.6717
  127MPD2     N 1945   4.428   2.004   9.676 -0.0257 -0.5793  0.3030
  127MPD2    H5 1946   4.350   2.064   9.700  1.3632  0.6454  1.7251
  127MPD2    N1 1947   4.125   1.649   9.494 -0.0134 -0.1678  1.4863
  127MPD2    H7 1948   4.121   1.559   9.446  1.0522  1.0283 -0.8694
  128TCq2    C1 1949   4.001   1.693   9.532 -0.0344  0.1101  0.6726
  128TCq2    O2 1950   3.973   1.797   9.592  0.6297  0.2699 -0.1793
  128TCq2    C2 1951   3.892   1.597   9.493  0.5601 -0.1601  0.5069
  128TCq2    C3 1952   3.919   1.475   9.430  0.0896  0.0927  0.2818
  128TCq2    C4 1953   3.817   1.385   9.413 -0.4169 -0.3123  0.1280
  128TCq2    C5 1954   3.692   1.415   9.468 -0.3280  0.2856 -0.1477
  128TCq2    C6 1955   3.668   1.540   9.525  0.3965 -0.2049 -0.0552
  128TCq2    C7 1956   3.766   1.639   9.540  0.4711 -0.1433  0.4686
  128TCq2    C8 1957   3.534   1.573   9.570 -0.0965  0.0870  0.7547
  128TCq2    O4 1958   3.494   1.687   9.571  1.1251  0.1505 -0.2733
  128TCq2    C9 1959   3.836   1.256   9.353  0.5225 -0.3057  0.0351
  128TCq2    O5 1960   3.743   1.177   9.352  0.4909  0.2169  0.2129
  128TCq2    O6 1961   3.948   1.230   9.310  0.4511  0.0018 -0.0254
  128TCq2    H2 1962   4.019   1.455   9.395  0.1819  0.2495  0.4536
  128TCq2    H3 1963   3.613   1.341   9.457  0.0236  0.1004 -1.4180
  128TCq2    H4 1964   3.750   1.739   9.578 -0.5047 -0.0378 -0.2313
  129MPD2     C 1965   2.335   2.109   2.135 -0.1648  0.4681 -0.3667
  129MPD2    C1 1966   2.231   2.196   2.098 -0.0222 -0.5059 -0.6296
  129MPD2    C2 1967   2.210   2.214   1.963  0.1505 -0.5814 -0.5231
  129MPD2    C3 1968   2.284   2.144   1.868  1.1276 -0.3080  0.2995
  129MPD2    C4 1969   2.370   2.046   1.911  0.2069 -0.2214  0.1471
  129MPD2    C5 1970   2.403   2.039   2.045  0.4961 -0.3051  0.6323
  129MPD2     H 1971   2.136   2.290   1.941  1.2376  0.2332 -1.3509
  129MPD2    H1 1972   2.419   1.982   1.839  0.2603 -0.5482  0.4744
  129MPD2    H2 1973   2.349   2.072   2.236 -0.4630  0.6043 -0.2765
  129MPD2    H3 1974   2.467   1.963   2.090  1.2167  1.3276  2.3815
  129MPD2     N 1975   2.258   2.169   1.727 -0.5253  0.3293 -0.0353
  129MPD2    H5 1976   2.205   2.252   1.705  0.2551  0.5573 -1.0630
  129MPD2    N1 1977   2.137   2.256   2.184  0.0036 -0.0406  0.2487
  129MPD2    H7 1978   2.069   2.312   2.132 -1.6924 -0.5053  1.9900
  130TCq2    C1 1979   2.147   2.260   2.320 -0.6508  0.1117  0.4270
  130TCq2    O2 1980   2.246   2.244   2.386 -0.4766  0.0479 -0.1811
  130TCq2    C2 1981   2.035   2.341   2.367  0.0012  0.3073  0.1859
  130TCq2    C3 1982   2.051   2.432   2.468  0.6155 -0.2766 -0.6435
  130TCq2    C4 1983   1.944   2.504   2.507 -0.8770  1.0163  0.4186
  130TCq2    C5 1984   1.823   2.507   2.441  0.1813  0.5521 -0.3092
  130TCq2    C6 1985   1.803   2.403   2.356 -0.2190  0.9045  0.1512
  130TCq2    C7 1986   1.906   2.322   2.317 -0.0562  0.5219 -0.3997
  130TCq2    C8 1987   1.680   2.391   2.288 -0.0061 -0.0905  0.3856
  130TCq2    O4 1988   1.637   2.280   2.255 -0.1825  0.4423 -0.1770
  130TCq2    C9 1989   1.951   2.589   2.618 -0.2973  0.2067 -0.0478
  130TCq2    O5 1990   2.068   2.618   2.658 -0.2342 -0.2674 -0.2132
  130TCq2    O6 1991   1.840   2.630   2.670 -0.6630  0.0122  1.0349
  130TCq2    H2 1992   2.151   2.448   2.509  0.8949  2.2526 -2.2863
  130TCq2    H3 1993   1.746   2.574   2.476 -0.6013 -0.1855 -0.6206
  130TCq2    H4 1994   1.875   2.247   2.245 -3.5542  1.0108  0.6203
  131MPD2     C 1995   1.485   1.109   9.490  0.0411  0.4336 -0.1130
  131MPD2    C1 1996   1.588   1.194   9.465  1.1972  0.5945  0.2627
  131MPD2    C2 1997   1.619   1.228   9.342  0.4526  0.1144  0.3726
  131MPD2    C3 1998   1.533   1.200   9.240 -0.1309 -0.3616  0.0115
  131MPD2    C4 1999   1.433   1.113   9.255 -0.2524 -0.1734 -0.1934
  131MPD2    C5 2000   1.401   1.073   9.385 -0.2316  0.1503 -0.0944
  131MPD2     H 2001   1.699   1.299   9.323 -0.0635 -0.0180 -2.3588
  131MPD2    H1 2002   1.368   1.080   9.176  1.1966 -1.8641 -0.6830
  131MPD2    H2 2003   1.465   1.068   9.588 -1.4864  1.2571 -0.0839
  131MPD2    H3 2004   1.318   1.004   9.394  1.8182 -2.3390 -0.3034
  131MPD2     N 2005   1.545   1.282   9.121  0.9105  0.0540  0.8474
  131MPD2    H5 2006   1.621   1.349   9.115 -0.0755  1.1158  0.1920
  131MPD2    N1 2007   1.653   1.243   9.578  0.6658  0.5347 -0.1901
  131MPD2    H7 2008   1.609   1.232   9.669 -0.7454  1.8487 -0.7151
  132TCq2    C1 2009   2.095   1.387   9.926  1.2291 -0.5450  0.3948
  132TCq2    O2 2010   2.178   1.314   9.869  0.8516  0.0064  0.2800
  132TCq2    C2 2011   1.960   1.371   9.889  0.4206  0.0651  0.0061
  132TCq2    C3 2012   1.858   1.414   9.966 -0.8791 -0.6712 -0.2531
  132TCq2    C4 2013   1.728   1.420   9.914  0.8774 -0.5119 -0.0685
  132TCq2    C5 2014   1.701   1.388   9.792  0.4286 -0.4088 -0.1110
  132TCq2    C6 2015   1.807   1.348   9.708  0.1382 -0.6958  0.2411
  132TCq2    C7 2016   1.935   1.326   9.762  0.4566  0.2871  0.8855
  132TCq2    C8 2017   1.780   1.293   9.582  0.0458  0.2104 -0.1610
  132TCq2    O4 2018   1.870   1.276   9.504  0.9908 -0.7862 -0.1817
  132TCq2    C9 2019   1.616   1.442  10.003 -0.7608  0.3784  0.0510
  132TCq2    O5 2020   1.527   1.510   9.948  0.0671  0.2189  0.1267
  132TCq2    O6 2021   1.620   1.423  10.129 -0.5551  0.0343 -0.0932
  132TCq2    H2 2022   1.875   1.433  10.071 -0.3896  1.3437 -0.7133
  132TCq2    H3 2023   1.599   1.400   9.757  0.6350 -0.5059 -0.7460
  132TCq2    H4 2024   2.017   1.295   9.698 -1.3670  0.0256 -1.3376
  133MPD2     C 2025   1.395   2.867   9.395  0.6319  0.2014 -0.2190
  133MPD2    C1 2026   1.465   2.752   9.429 -0.6820  0.5983 -0.9340
  133MPD2    C2 2027   1.411   2.631   9.398 -0.1912  0.3263  0.6081
  133MPD2    C3 2028   1.289   2.622   9.344 -0.2521 -0.1420 -0.2915
  133MPD2    C4 2029   1.209   2.733   9.324  0.1559  0.3049 -0.2866
  133MPD2    C5 2030   1.266   2.855   9.341 -0.0022  0.3917  0.1105
  133MPD2     H 2031   1.462   2.540   9.426 -2.1565 -1.2825 -1.0796
  133MPD2    H1 2032   1.117   2.734   9.268 -0.5280 -0.2992  0.8301
  133MPD2    H2 2033   1.435   2.967   9.406 -0.8494  0.5731  1.8967
  133MPD2    H3 2034   1.205   2.933   9.298  0.3199 -0.2862 -1.5826
  133MPD2     N 2035   1.239   2.495   9.309  0.0426  0.2822  0.3901
  133MPD2    H5 2036   1.142   2.488   9.283 -0.0891  0.1416  0.9111
  133MPD2    N1 2037   1.588   2.763   9.494  0.1353 -0.0751 -0.0388
  133MPD2    H7 2038   1.618   2.859   9.507 -0.6302  0.1533  0.0481
  134TCq2    C1 2039   1.676   2.669   9.526 -0.0206  0.6498 -0.6079
  134TCq2    O2 2040   1.689   2.560   9.469  0.5580 -0.5896  0.5676
  134TCq2    C2 2041   1.797   2.724   9.586 -0.1938 -0.9445 -0.3433
  134TCq2    C3 2042   1.796   2.847   9.637  0.3260  0.1616 -0.3935
  134TCq2    C4 2043   1.901   2.902   9.699  0.2511 -0.6833 -1.0841
  134TCq2    C5 2044   2.015   2.831   9.706 -0.5992 -0.2769 -0.2178
  134TCq2    C6 2045   2.024   2.705   9.654 -0.4487  0.5367  0.3883
  134TCq2    C7 2046   1.917   2.656   9.591  0.4862 -0.4147 -0.6195
  134TCq2    C8 2047   2.146   2.626   9.665  0.3552 -0.4449 -0.6422
  134TCq2    O4 2048   2.166   2.547   9.573 -0.0302 -0.1581 -0.2372
  134TCq2    C9 2049   1.897   3.037   9.759 -0.1277 -0.1768 -0.7913
  134TCq2    O5 2050   2.010   3.090   9.792  0.3009 -0.0422  0.2288
  134TCq2    O6 2051   1.782   3.067   9.806  0.0754 -0.0423  0.5985
  134TCq2    H2 2052   1.707   2.909   9.641 -0.5211 -1.0833  0.0953
  134TCq2    H3 2053   2.099   2.888   9.743 -1.6175  0.6121  0.7356
  134TCq2    H4 2054   1.934   2.561   9.540  1.6748 -1.3947  1.6185
  135MPD2     C 2055   3.476   2.698   9.540  0.2726 -0.1378 -0.5039
  135MPD2    C1 2056   3.439   2.622   9.429  0.2855  0.2154 -0.3244
  135MPD2    C2 2057   3.530   2.556   9.354  0.2660  0.4401 -0.9895
  135MPD2    C3 2058   3.667   2.565   9.387  0.4313  0.3629  0.2823
  135MPD2    C4 2059   3.702   2.645   9.497  0.5488 -0.7218 -0.5749
  135MPD2    C5 2060   3.613   2.707   9.571 -0.4184  0.1051  0.0946
  135MPD2     H 2061   3.499   2.511   9.261 -0.2026 -0.1361 -0.5497
  135MPD2    H1 2062   3.804   2.672   9.519  0.2156 -0.7507  0.9964
  135MPD2    H2 2063   3.404   2.760   9.592  0.2457 -0.8606  0.2999
  135MPD2    H3 2064   3.652   2.766   9.653 -1.7001  1.0110  0.0604
  135MPD2     N 2065   3.771   2.485   9.334  0.1185  0.4285 -0.2710
  135MPD2    H5 2066   3.865   2.508   9.364 -1.1916  4.1981  1.0044
  135MPD2    N1 2067   3.302   2.617   9.380  0.2057  0.4717 -0.3443
  135MPD2    H7 2068   3.287   2.578   9.287  2.5398 -0.1425 -0.4644
  136TCq2    C1 2069   3.192   2.648   9.454 -0.4509 -1.1368 -0.3089
  136TCq2    O2 2070   3.184   2.704   9.563 -0.6543  0.0239 -0.1507
  136TCq2    C2 2071   3.066   2.612   9.384  0.0863  0.0404  0.7597
  136TCq2    C3 2072   3.078   2.540   9.263  0.5580  0.5401 -0.2968
  136TCq2    C4 2073   2.962   2.512   9.198 -0.2129  0.1311  0.8433
  136TCq2    C5 2074   2.843   2.572   9.234  0.0119  0.6671 -0.1761
  136TCq2    C6 2075   2.841   2.648   9.345  0.3239 -0.4042 -0.1239
  136TCq2    C7 2076   2.949   2.653   9.429  0.3874  0.0809 -0.2132
  136TCq2    C8 2077   2.719   2.715   9.380 -0.2613  0.1715  0.7491
  136TCq2    O4 2078   2.640   2.730   9.289  0.0406 -0.4449  0.1877
  136TCq2    C9 2079   2.962   2.417   9.081  0.1203  0.3049 -0.0167
  136TCq2    O5 2080   3.040   2.312   9.091  0.4364 -0.4787  0.4623
  136TCq2    O6 2081   2.870   2.433   8.998 -0.4861 -0.2422 -0.2631
  136TCq2    H2 2082   3.162   2.478   9.231  1.2757  0.8209  1.0288
  136TCq2    H3 2083   2.749   2.547   9.185  0.0773 -3.4762  1.7768
  136TCq2    H4 2084   2.951   2.712   9.520 -1.7887 -0.6929  0.3377
  137MPD2     C 2085   3.637   1.884   9.798 -0.2335  0.3799  0.3866
  137MPD2    C1 2086   3.518   1.943   9.821 -0.0051 -0.7488  0.2792
  137MPD2    C2 2087   3.518   2.056   9.903 -0.6901 -0.4383  0.4997
  137MPD2    C3 2088   3.639   2.093   9.968  0.0805 -0.1361  0.0860
  137MPD2    C4 2089   3.758   2.029   9.936  0.2993  0.2203 -0.2598
  137MPD2    C5 2090   3.760   1.926   9.846 -0.4602  0.1929 -0.6968
  137MPD2     H 2091   3.429   2.118   9.918 -0.1350 -0.1069  2.4164
  137MPD2    H1 2092   3.855   2.054   9.977  1.2399  0.0076 -2.3101
  137MPD2    H2 2093   3.651   1.800   9.731 -0.8978 -0.3031  1.0966
  137MPD2    H3 2094   3.854   1.879   9.821 -1.1328 -1.7172  0.3447
  137MPD2     N 2095   3.642   2.196  10.053 -0.3438 -0.2395 -0.1497
  137MPD2    H5 2096   3.551   2.234  10.075 -0.3132 -0.6276  0.6502
  137MPD2    N1 2097   3.412   1.896   9.737  0.0032  0.0655 -0.1185
  137MPD2    H7 2098   3.436   1.835   9.659 -0.4280  1.4893 -1.3569
  138TCq2    C1 2099   3.279   1.936   9.765  0.1025 -0.3389  0.1464
  138TCq2    O2 2100   3.241   2.008   9.854  0.2624 -0.0982 -0.0004
  138TCq2    C2 2101   3.192   1.922   9.648 -0.2923 -0.0937 -0.0215
  138TCq2    C3 2102   3.246   1.898   9.524  0.4471 -0.4854 -0.5402
  138TCq2    C4 2103   3.170   1.899   9.412  0.4570 -0.5582 -0.5715
  138TCq2    C5 2104   3.028   1.898   9.430 -0.1610  0.5760  0.0934
  138TCq2    C6 2105   2.976   1.916   9.553 -0.0048 -0.0523  0.0965
  138TCq2    C7 2106   3.058   1.939   9.664 -0.4240  0.1384  0.1250
  138TCq2    C8 2107   2.834   1.920   9.564  0.5322  0.0592  0.3068
  138TCq2    O4 2108   2.765   1.889   9.466 -0.8052 -0.0941  0.2557
  138TCq2    C9 2109   3.230   1.876   9.284  0.4188 -0.0063 -0.1540
  138TCq2    O5 2110   3.157   1.833   9.193 -0.3305  0.5423  0.4388
  138TCq2    O6 2111   3.357   1.879   9.284  0.3475  0.3721  0.0931
  138TCq2    H2 2112   3.350   1.874   9.506  0.7243 -0.5455  1.1349
  138TCq2    H3 2113   2.967   1.888   9.342  0.0863  1.2647 -0.1532
  138TCq2    H4 2114   3.014   1.943   9.762  2.7574 -0.1120  1.5694
  139TMC2    C1 2115   3.597   0.590  13.215  0.0326  0.5989  0.4068
  139TMC2    C2 2116   3.634   0.641  13.096  0.1463 -0.3263 -0.5607
  139TMC2    C3 2117   3.610   0.767  13.063 -0.3013  0.2740  0.3351
  139TMC2    C4 2118   3.519   0.666  13.300  0.4586 -0.1346  0.0334
  139TMC2    C5 2119   3.500   0.798  13.266 -0.5245  0.2593 -0.0926
  139TMC2    C6 2120   3.538   0.849  13.144  0.6330 -0.4747 -0.8079
  139TMC2     C 2121   3.597   0.444  13.220  0.4031 -0.2912 -0.0440
  139TMC2     O 2122   3.675   0.383  13.148 -0.3602  0.1101  0.5370
  139TMC2     H 2123   3.668   0.569  13.022 -0.7251 -0.6507 -0.6442
  139TMC2    H1 2124   3.502   0.619  13.396  1.4071  2.9795  1.7369
  139TMC2    H2 2125   3.512   0.953  13.126  1.8655 -0.2118 -1.0347
  139TMC2    C7 2126   3.478   0.897  13.368 -0.2595  0.3280  0.7801
  139TMC2    C8 2127   3.604   0.787  12.918 -0.1298 -0.4063  0.1787
  139TMC2    O1 2128   3.533   1.007  13.356  0.6158  0.1983  0.6629
  139TMC2    O2 2129   3.591   0.693  12.843  0.4617  0.2609  0.2482
  139TMC2    O5 2130   3.561   0.913  12.893  0.2631  0.1963  0.1614
  139TMC2    H5 2131   3.599   0.971  12.963 -0.4998  0.8232  0.0505
  140MPD2     C 2132   3.338   0.235  13.381 -0.6503  0.0581  0.5965
  140MPD2    C1 2133   3.460   0.258  13.322 -0.1407 -0.5130  0.7598
  140MPD2    C2 2134   3.537   0.151  13.270 -0.3739  0.5607 -0.4340
  140MPD2    C3 2135   3.508   0.015  13.302  0.2869  0.3346  0.7313
  140MPD2    C4 2136   3.393   4.719  13.377 -0.0195 -0.4210 -0.1736
  140MPD2    C5 2137   3.317   0.102  13.419  0.3730 -0.2303  0.8749
  140MPD2     H 2138   3.625   0.166  13.208 -0.5589 -0.0405 -0.8382
  140MPD2    H1 2139   3.350   4.621  13.398  0.7398 -0.5239  0.9240
  140MPD2    H2 2140   3.276   0.317  13.417 -0.3061  0.8861 -0.7051
  140MPD2    H3 2141   3.225   0.086  13.475 -0.4072 -0.3015 -0.4281
  140MPD2     N 2142   3.577   4.635  13.239  0.2730  0.0516 -0.2182
  140MPD2    H5 2143   3.653   4.664  13.179  0.4243 -1.4999 -0.7827
  140MPD2    N1 2144   3.488   0.399  13.291 -0.5874  0.0937 -0.7679
  140MPD2    H7 2145   3.430   0.470  13.335 -0.5285 -0.4498  0.2015
  141TCq2    C1 2146   4.458   1.743  14.002 -1.2979  0.9517 -0.0581
  141TCq2    O2 2147   4.476   1.847  13.936  1.0340 -0.4351  0.5206
  141TCq2    C2 2148   4.325   1.736  14.066 -0.2359 -0.2209  0.4083
  141TCq2    C3 2149   4.250   1.618  14.063 -0.3504 -0.3549 -0.0249
  141TCq2    C4 2150   4.118   1.629  14.092 -0.4526  0.8224  0.4699
  141TCq2    C5 2151   4.059   1.749  14.126  0.7472  0.1577 -0.1812
  141TCq2    C6 2152   4.126   1.864  14.115  0.6126  0.2512 -0.1973
  141TCq2    C7 2153   4.263   1.855  14.084  1.1167 -0.4746 -0.8696
  141TCq2    C8 2154   4.059   1.991  14.148  0.2909 -0.5596  0.2226
  141TCq2    O4 2155   3.941   1.987  14.178  0.2329 -0.0996  0.0688
  141TCq2    C9 2156   4.038   1.516  14.071  0.9356 -0.0028  0.6012
  141TCq2    O5 2157   4.087   1.420  14.011  0.1065  0.5014  0.3174
  141TCq2    O6 2158   3.922   1.508  14.125  0.0404 -0.1148  0.3135
  141TCq2    H2 2159   4.290   1.524  14.027  0.9334 -0.3963  1.4869
  141TCq2    H3 2160   3.951   1.755  14.130  0.7683  0.8152 -0.6640
  141TCq2    H4 2161   4.328   1.942  14.082  1.4261 -0.7165 -1.2134
  142MPD2     C 2162   2.582   0.432  10.545 -0.1250  0.1553  0.2484
  142MPD2    C1 2163   2.536   0.469  10.422  0.5049 -1.0637  0.3645
  142MPD2    C2 2164   2.606   0.571  10.354  0.2327 -0.7624  0.6496
  142MPD2    C3 2165   2.707   0.638  10.416  0.2968  0.5406 -0.4599
  142MPD2    C4 2166   2.755   0.600  10.538 -0.2358  0.7030  0.4417
  142MPD2    C5 2167   2.685   0.502  10.602 -0.3148 -0.0765  0.6055
  142MPD2     H 2168   2.574   0.602  10.255  1.7014  0.0626  0.4379
  142MPD2    H1 2169   2.838   0.652  10.586  0.4452  1.6045 -1.7111
  142MPD2    H2 2170   2.536   0.350  10.599  0.2749 -1.1225 -1.3501
  142MPD2    H3 2171   2.717   0.472  10.702  0.1981 -2.3410 -0.2377
  142MPD2     N 2172   2.776   0.744  10.356 -0.5975 -0.6267  0.3905
  142MPD2    H5 2173   2.855   0.788  10.403 -1.3026  0.7139  0.3085
  142MPD2    N1 2174   2.405   0.425  10.373 -0.6468  0.1603 -0.3072
  142MPD2    H7 2175   2.341   0.379  10.437  0.6292  0.5883  1.2790
  143TCq2    C1 2176   2.737   0.811  10.244  0.1483 -0.1114  0.0999
  143TCq2    O2 2177   2.639   0.805  10.175  0.5186  0.3294  0.0116
  143TCq2    C2 2178   2.844   0.904  10.212  0.3412 -0.1725  0.1703
  143TCq2    C3 2179   2.958   0.921  10.284  0.3923  0.8085 -0.1204
  143TCq2    C4 2180   3.019   1.047  10.275 -0.3222  0.0306 -0.0178
  143TCq2    C5 2181   2.981   1.135  10.184  0.2057 -0.0209 -0.0760
  143TCq2    C6 2182   2.874   1.104  10.104  0.0835  0.2280 -0.5423
  143TCq2    C7 2183   2.802   0.991  10.113 -0.1309 -0.0119 -0.5848
  143TCq2    C8 2184   2.824   1.203  10.020 -0.8307  0.0287 -0.2812
  143TCq2    O4 2185   2.795   1.161   9.909 -0.1636  0.0271  0.0281
  143TCq2    C9 2186   3.133   1.072  10.360  0.0465  0.8833 -0.1566
  143TCq2    O5 2187   3.188   1.187  10.364  1.2216  0.0992 -0.1482
  143TCq2    O6 2188   3.199   0.972  10.386  0.9339  0.1076  0.2626
  143TCq2    H2 2189   2.995   0.851  10.358 -0.4340 -0.3697 -0.8301
  143TCq2    H3 2190   3.037   1.227  10.170  1.0076 -0.0958  2.7661
  143TCq2    H4 2191   2.708   0.982  10.060 -0.1009 -0.1029 -0.6230
  144MPD2     C 2192   4.101   4.220   0.603 -0.3322  0.0309 -0.2070
  144MPD2    C1 2193   4.086   4.084   0.573 -0.3562  0.0291  0.1191
  144MPD2    C2 2194   4.157   3.984   0.635 -0.7611  0.1697  0.0177
  144MPD2    C3 2195   4.240   4.024   0.740  0.2180  0.2729  0.3850
  144MPD2    C4 2196   4.236   4.152   0.787  0.5541  0.5546 -0.4602
  144MPD2    C5 2197   4.169   4.246   0.717  0.2956 -0.5628 -0.6669
  144MPD2     H 2198   4.153   3.885   0.591 -1.4455  0.6765 -1.0787
  144MPD2    H1 2199   4.294   4.173   0.877  0.8725  0.0981 -0.5600
  144MPD2    H2 2200   4.055   4.302   0.550  1.2592  1.9488  1.4010
  144MPD2    H3 2201   4.162   4.348   0.753  0.0919 -0.8042 -0.0353
  144MPD2     N 2202   4.313   3.935   0.822  0.0909 -0.2185  0.8178
  144MPD2    H5 2203   4.371   3.970   0.898  1.8039 -0.7105 -0.2504
  144MPD2    N1 2204   4.007   4.039   0.461  0.4087 -0.0765  0.6520
  144MPD2    H7 2205   4.011   3.939   0.448 -1.4993  0.2992 -2.6796
  145TCq2    C1 2206   4.318   3.800   0.810  0.5624 -0.6514 -0.2978
  145TCq2    O2 2207   4.270   3.724   0.726  0.2806 -0.4119  0.1006
  145TCq2    C2 2208   4.412   3.732   0.905  0.3853 -0.3432  0.0156
  145TCq2    C3 2209   4.477   3.623   0.863 -0.3028 -0.0027 -0.4690
  145TCq2    C4 2210   4.530   3.539   0.956  0.3853  0.7709  0.2448
  145TCq2    C5 2211   4.521   3.568   1.088 -0.3421  0.0059 -0.8622
  145TCq2    C6 2212   4.459   3.680   1.123 -0.0624  0.0355  0.6532
  145TCq2    C7 2213   4.402   3.769   1.032 -0.2523 -0.3889 -0.9633
  145TCq2    C8 2214   4.433   3.687   1.260  0.8242  0.1827 -0.0547
  145TCq2    O4 2215   4.454   3.582   1.320 -0.3370  0.2785 -0.4578
  145TCq2    C9 2216   4.594   3.420   0.907 -0.1413 -0.4272 -0.5157
  145TCq2    O5 2217   4.577   3.327   0.990 -0.4148  0.3973 -0.3829
  145TCq2    O6 2218   4.661   3.424   0.799  0.0179  0.1473 -0.2088
  145TCq2    H2 2219   4.486   3.587   0.761  0.4959  1.3781 -0.8895
  145TCq2    H3 2220   4.563   3.495   1.156  1.0145  2.6049  1.1228
  145TCq2    H4 2221   4.341   3.854   1.061 -0.7684 -0.2530 -2.4821
  146TMC2    C1 2222   0.941   3.260  12.869 -0.2352  0.2859  1.0679
  146TMC2    C2 2223   0.951   3.355  12.771  0.1229  0.2563 -0.2917
  146TMC2    C3 2224   0.910   3.330  12.650 -0.8170  0.7409  0.2182
  146TMC2    C4 2225   0.919   3.133  12.832  0.3773 -0.0061  0.3507
  146TMC2    C5 2226   0.899   3.104  12.702 -0.0881  0.5910  0.1478
  146TMC2    C6 2227   0.888   3.201  12.607  0.6088 -0.3505  0.2173
  146TMC2     C 2228   0.964   3.303  13.010  0.1541 -0.1336 -0.3368
  146TMC2     O 2229   0.956   3.424  13.034 -0.1201  0.1939 -0.3330
  146TMC2     H 2230   0.987   3.455  12.791  0.4173  0.5533 -2.2828
  146TMC2    H1 2231   0.902   3.049  12.899  0.1712 -0.4189 -0.2245
  146TMC2    H2 2232   0.869   3.182  12.502 -0.3943 -0.2148  0.3767
  146TMC2    C7 2233   0.913   2.963  12.652 -0.3634  0.4655 -0.2160
  146TMC2    C8 2234   0.969   3.421  12.549 -0.4087 -0.3871 -0.1235
  146TMC2    O1 2235   0.857   2.938  12.549 -0.5270  0.2743  0.4319
  146TMC2    O2 2236   1.090   3.440  12.551  0.0289  0.3471  0.3972
  146TMC2    O5 2237   0.899   3.404  12.441  0.7275  0.2767  0.0043
  146TMC2    H5 2238   0.810   3.371  12.467  1.4828 -1.6848  0.0751
  147MPD2     C 2239   1.116   2.496  12.660 -0.7522 -0.6585  0.6034
  147MPD2    C1 2240   1.162   2.565  12.768  0.7867 -0.2554  0.8672
  147MPD2    C2 2241   1.107   2.693  12.796  0.5043 -0.3690  0.1950
  147MPD2    C3 2242   1.016   2.746  12.705  0.3335  0.4107 -0.0466
  147MPD2    C4 2243   0.969   2.676  12.596 -0.0893 -0.3917  0.0488
  147MPD2    C5 2244   1.016   2.547  12.581  0.3398  0.8850 -0.6684
  147MPD2     H 2245   1.130   2.748  12.886  0.2406 -2.3482  1.4519
  147MPD2    H1 2246   0.908   2.726  12.522  0.4978  1.1713  0.6070
  147MPD2    H2 2247   1.153   2.397  12.635 -2.3588 -1.3314  0.9137
  147MPD2    H3 2248   0.976   2.485  12.501  2.7951 -1.4886 -0.0569
  147MPD2     N 2249   0.987   2.880  12.733  0.3810  0.7581 -0.2210
  147MPD2    H5 2250   1.026   2.911  12.821 -0.0342 -1.2792  0.6890
  147MPD2    N1 2251   1.271   2.517  12.841  0.1493  0.7025 -0.6444
  147MPD2    H7 2252   1.316   2.431  12.811  2.0174  1.8883 -1.2477
  148MPD2     C 2253   1.299   2.131  10.493  0.0697  0.8989 -0.0328
  148MPD2    C1 2254   1.364   2.036  10.418  0.2436 -0.1670  0.1066
  148MPD2    C2 2255   1.295   1.964  10.324 -0.8712  0.7568 -0.0057
  148MPD2    C3 2256   1.161   1.991  10.295  0.2204 -0.1067  0.1318
  148MPD2    C4 2257   1.097   2.095  10.361 -0.2477 -0.3467 -0.3491
  148MPD2    C5 2258   1.165   2.156  10.464  0.2821 -0.1691  0.1715
  148MPD2     H 2259   1.347   1.878  10.283  0.0644  1.3744 -0.1114
  148MPD2    H1 2260   0.999   2.135  10.340  0.4691  1.0410 -1.0044
  148MPD2    H2 2261   1.338   2.207  10.560  2.1387 -1.6020  1.6279
  148MPD2    H3 2262   1.112   2.223  10.530  0.2446 -0.1608  0.1325
  148MPD2     N 2263   1.093   1.915  10.198  0.1077  0.4814  0.2188
  148MPD2    H5 2264   0.993   1.933  10.199 -0.1683 -1.0432  1.3648
  148MPD2    N1 2265   1.497   2.005  10.450  0.2467  0.5218  0.1112
  148MPD2    H7 2266   1.537   1.938  10.385  1.6209  0.9869  0.4713
  149TCq2    C1 2267   1.572   2.030  10.565  0.2724  0.0156  0.2510
  149TCq2    O2 2268   1.550   2.099  10.666 -0.3791  0.2418 -0.0881
  149TCq2    C2 2269   1.698   1.969  10.557 -0.0985 -0.7239  0.0056
  149TCq2    C3 2270   1.790   2.001  10.651  0.2940 -0.2423 -0.1099
  149TCq2    C4 2271   1.916   1.935  10.651 -0.1883  0.4542 -0.5163
  149TCq2    C5 2272   1.931   1.827  10.573  0.5130  0.3449 -0.8802
  149TCq2    C6 2273   1.834   1.799  10.476 -0.1239 -0.1860 -0.0947
  149TCq2    C7 2274   1.721   1.878  10.462 -0.2360 -0.0553  0.0117
  149TCq2    C8 2275   1.828   1.667  10.414 -0.6182 -0.8190  0.0206
  149TCq2    O4 2276   1.722   1.629  10.374  0.6122  0.6389 -0.0738
  149TCq2    C9 2277   1.988   1.932  10.767 -0.2870 -0.9086  0.0984
  149TCq2    O5 2278   2.108   1.898  10.744  0.4656 -0.3439 -1.0482
  149TCq2    O6 2279   1.941   2.003  10.862 -0.4119  0.5838  0.6295
  149TCq2    H2 2280   1.772   2.082  10.721  0.5922 -1.3807  1.2760
  149TCq2    H3 2281   2.010   1.757  10.596  1.8759  1.7720 -1.3015
  149TCq2    H4 2282   1.653   1.856  10.381 -0.5376 -0.4871  0.3810
  150MPD2     C 2283   2.816   0.887  12.054  0.1107 -0.5698 -0.0191
  150MPD2    C1 2284   2.845   0.962  11.944  0.0985  0.1075 -0.7090
  150MPD2    C2 2285   2.963   1.037  11.943 -0.4490 -0.0902 -0.5224
  150MPD2    C3 2286   3.044   1.040  12.053 -0.6021  0.0465 -0.0885
  150MPD2    C4 2287   3.019   0.964  12.163  1.4911 -0.5852 -0.0114
  150MPD2    C5 2288   2.912   0.881  12.158 -0.0136  0.1721  0.2501
  150MPD2     H 2289   2.996   1.097  11.860 -0.6731  2.5683  1.3051
  150MPD2    H1 2290   3.088   0.965  12.247  0.4665  0.0606  0.8164
  150MPD2    H2 2291   2.726   0.828  12.068  1.0284 -1.5853  1.6037
  150MPD2    H3 2292   2.894   0.823  12.247 -0.2320  0.4444  0.3826
  150MPD2     N 2293   3.162   1.117  12.052 -0.3819 -0.6670 -0.2912
  150MPD2    H5 2294   3.158   1.193  11.985 -0.0803 -0.7632 -0.4195
  150MPD2    N1 2295   2.742   0.960  11.844 -0.5545  0.0444 -0.5030
  150MPD2    H7 2296   2.665   0.896  11.860 -0.8925  0.6397  0.2190
  151TCq2    C1 2297   3.277   1.086  12.117  0.3315 -0.6094 -0.2518
  151TCq2    O2 2298   3.303   0.975  12.161  0.1979 -0.1918  0.3490
  151TCq2    C2 2299   3.377   1.188  12.111  0.1405  1.1017 -0.2476
  151TCq2    C3 2300   3.339   1.320  12.091  0.7149  0.5557  0.4242
  151TCq2    C4 2301   3.437   1.414  12.123 -0.4534 -0.1792 -0.1635
  151TCq2    C5 2302   3.571   1.385  12.129  0.2038 -0.0842  0.1800
  151TCq2    C6 2303   3.599   1.251  12.148  0.1301 -0.3927 -0.1753
  151TCq2    C7 2304   3.502   1.153  12.153 -0.0359  0.0573 -0.1239
  151TCq2    C8 2305   3.736   1.219  12.182 -0.5503  0.2733  0.4953
  151TCq2    O4 2306   3.818   1.307  12.165 -0.8937  0.0600 -0.0893
  151TCq2    C9 2307   3.400   1.554  12.124  0.6199  0.2782  0.2963
  151TCq2    O5 2308   3.480   1.638  12.174 -0.1308 -0.3129 -1.1681
  151TCq2    O6 2309   3.310   1.587  12.041  0.0428 -0.3351  0.9942
  151TCq2    H2 2310   3.235   1.349  12.103 -0.0118 -1.7570 -0.2751
  151TCq2    H3 2311   3.641   1.465  12.151  0.5642 -0.9290  2.0574
  151TCq2    H4 2312   3.519   1.046  12.151 -1.2498 -0.1547  1.0210
  152MPD2     C 2313   2.849   0.525  12.858 -0.2185 -0.9256  0.2960
  152MPD2    C1 2314   2.841   0.631  12.772  0.6836 -0.0094 -0.5931
  152MPD2    C2 2315   2.713   0.679  12.734  0.3458 -0.0269 -0.3957
  152MPD2    C3 2316   2.597   0.620  12.784  0.4510  0.3476  0.4093
  152MPD2    C4 2317   2.608   0.515  12.873 -0.4283  0.2452 -0.3620
  152MPD2    C5 2318   2.734   0.466  12.900  0.4295  0.0823 -0.9513
  152MPD2     H 2319   2.696   0.752  12.655 -0.1449 -2.0339 -2.1497
  152MPD2    H1 2320   2.529   0.452  12.912 -2.0323  1.5402 -1.5508
  152MPD2    H2 2321   2.942   0.478  12.888  1.1607  1.7645  0.2220
  152MPD2    H3 2322   2.741   0.381  12.967  1.1407 -0.5854 -1.8738
  152MPD2     N 2323   2.481   0.651  12.718 -1.0060  0.3864  0.0275
  152MPD2    H5 2324   2.484   0.729  12.654  1.1931  0.2282 -0.0395
  152MPD2    N1 2325   2.968   0.683  12.727  0.3836  0.1649  0.3471
  152MPD2    H7 2326   3.053   0.635  12.755  0.4165 -0.7888 -1.4046
  153TCq2    C1 2327   2.985   0.806  12.668  1.3315 -0.9060 -0.1686
  153TCq2    O2 2328   2.906   0.897  12.659  0.1192 -0.2145  0.1502
  153TCq2    C2 2329   3.119   0.826  12.625 -0.1691  0.5258  0.1393
  153TCq2    C3 2330   3.196   0.714  12.592  0.7181 -0.3027  0.1211
  153TCq2    C4 2331   3.329   0.727  12.563 -0.1331  0.0232  0.2085
  153TCq2    C5 2332   3.386   0.856  12.569 -0.3020  0.0378  0.3092
  153TCq2    C6 2333   3.304   0.965  12.604  0.2741  0.4117 -0.0972
  153TCq2    C7 2334   3.170   0.956  12.620 -0.0132 -0.3756  0.5313
  153TCq2    C8 2335   3.353   1.100  12.584 -0.3994  0.0441 -0.4601
  153TCq2    O4 2336   3.277   1.181  12.536 -0.3740  0.4683 -0.8045
  153TCq2    C9 2337   3.413   0.619  12.529  0.0107  0.1897 -0.4728
  153TCq2    O5 2338   3.523   0.649  12.475  0.5541  0.0415  0.0109
  153TCq2    O6 2339   3.383   0.512  12.582  0.2317 -0.0069  0.7141
  153TCq2    H2 2340   3.147   0.621  12.567 -1.2869  0.4931  1.0891
  153TCq2    H3 2341   3.489   0.863  12.539 -0.2332 -0.9144  0.3288
  153TCq2    H4 2342   3.113   1.044  12.647 -0.8786 -0.7799  0.0030
  154MPD2     C 2343   4.717   0.356   0.281  0.9874 -1.0080  0.7111
  154MPD2    C1 2344   0.040   0.479   0.328  0.1678 -0.0327  0.1945
  154MPD2    C2 2345   4.701   0.546   0.426  0.4813  0.3394  0.1199
  154MPD2    C3 2346   4.605   0.477   0.497  0.3272 -0.9360  0.3261
  154MPD2    C4 2347   4.561   0.354   0.463  0.1647 -0.4232  0.8862
  154MPD2    C5 2348   4.610   0.296   0.351  0.6523  0.1946 -0.0679
  154MPD2     H 2349   4.717   0.648   0.457 -0.8631  1.3843 -2.5966
  154MPD2    H1 2350   4.485   0.299   0.517 -0.1077 -2.5500 -1.6352
  154MPD2    H2 2351   0.044   0.305   0.200 -0.0442 -0.4936 -0.2741
  154MPD2    H3 2352   4.593   0.193   0.324  0.5610  0.3057 -0.4360
  154MPD2     N 2353   4.561   0.544   0.618  0.4069 -0.1554 -0.5443
  154MPD2    H5 2354   4.589   0.641   0.618  0.8606 -0.2823 -2.0049
  154MPD2    N1 2355   0.138   0.546   0.254 -0.1503  0.2695  0.4734
  154MPD2    H7 2356   0.183   0.485   0.186 -0.4036  1.1869 -0.5099
  155TCq2    C1 2357   0.186   0.673   0.261  0.4651  0.0545 -0.3312
  155TCq2    O2 2358   0.139   0.770   0.317 -0.2022 -0.2804 -0.0746
  155TCq2    C2 2359   0.302   0.691   0.178  0.2224 -0.3630  0.7262
  155TCq2    C3 2360   0.356   0.820   0.192  0.1441  0.2320 -0.1925
  155TCq2    C4 2361   0.476   0.846   0.137 -0.3378 -0.5114 -0.8748
  155TCq2    C5 2362   0.545   0.754   0.066 -0.2892 -0.3414  0.2758
  155TCq2    C6 2363   0.493   0.624   0.060  0.1056 -1.2180 -0.7551
  155TCq2    C7 2364   0.371   0.590   0.115 -0.4597 -0.2377  0.2900
  155TCq2    C8 2365   0.552   0.534  17.669  0.5265  0.2409 -0.0163
  155TCq2    O4 2366   0.475   0.446  17.631  0.0251  0.4320 -0.0028
  155TCq2    C9 2367   0.522   0.980   0.144 -0.4936  0.1714  0.6322
  155TCq2    O5 2368   0.476   1.056   0.236  0.2662 -0.7241 -0.2464
  155TCq2    O6 2369   0.627   1.000   0.081  0.3364  0.0120  0.1736
  155TCq2    H2 2370   0.302   0.900   0.241 -0.0119 -0.0098  0.0309
  155TCq2    H3 2371   0.639   0.783   0.019 -0.4200  0.1213  0.2990
  155TCq2    H4 2372   0.345   0.485   0.114  3.8978 -1.3101  0.3565
  156MPD2     C 2373   3.512   3.323  12.367  0.4087  0.2605 -0.1113
  156MPD2    C1 2374   3.423   3.266  12.274 -0.0173  0.6419 -0.9613
  156MPD2    C2 2375   3.289   3.248  12.308 -0.3263  0.1718 -0.0387
  156MPD2    C3 2376   3.242   3.280  12.433 -0.1516  0.7874 -0.3638
  156MPD2    C4 2377   3.334   3.336  12.523  0.0763 -0.2091  0.9493
  156MPD2    C5 2378   3.463   3.358  12.493  0.2763 -0.3505  0.3284
  156MPD2     H 2379   3.218   3.204  12.239 -1.5334 -0.1814  1.4407
  156MPD2    H1 2380   3.302   3.369  12.621  1.4517 -0.5872  1.5140
  156MPD2    H2 2381   3.615   3.331  12.334  0.0231 -0.6331 -1.5422
  156MPD2    H3 2382   3.527   3.407  12.567 -0.7526 -1.3526  1.8775
  156MPD2     N 2383   3.111   3.256  12.476 -0.8739 -0.9204 -0.9685
  156MPD2    H5 2384   3.046   3.216  12.409 -3.0516  0.0743  0.5640
  156MPD2    N1 2385   3.466   3.229  12.146  0.2134  0.3342  0.2590
  156MPD2    H7 2386   3.567   3.226  12.137  0.2025 -1.6880  0.7997
  157TCq2    C1 2387   3.378   3.189  12.044 -0.6461 -0.1723 -0.1282
  157TCq2    O2 2388   3.258   3.218  12.028 -0.2742  0.1964  0.1309
  157TCq2    C2 2389   3.456   3.137  11.934 -0.1212 -0.1732  0.8451
  157TCq2    C3 2390   3.586   3.102  11.959  0.1015  0.3810  0.1865
  157TCq2    C4 2391   3.678   3.128  11.862 -0.3401 -0.4176 -0.1880
  157TCq2    C5 2392   3.645   3.191  11.747  0.4492  0.8796  0.1111
  157TCq2    C6 2393   3.511   3.212  11.724 -0.0820 -0.1835  0.3411
  157TCq2    C7 2394   3.412   3.185  11.819  0.5409  0.2510  0.4914
  157TCq2    C8 2395   3.464   3.306  11.625  0.6249  0.1686  0.9322
  157TCq2    O4 2396   3.362   3.373  11.638  0.3594 -0.5302  0.2930
  157TCq2    C9 2397   3.810   3.086  11.881 -0.5789 -0.2418  0.6110
  157TCq2    O5 2398   3.833   3.020  11.983  0.7518 -0.4158 -0.7418
  157TCq2    O6 2399   3.903   3.131  11.805 -0.2145 -0.4302  0.1810
  157TCq2    H2 2400   3.624   3.059  12.050  0.0845 -0.3529 -0.1592
  157TCq2    H3 2401   3.721   3.216  11.674  0.7928  0.9236  0.4819
  157TCq2    H4 2402   3.308   3.202  11.793  1.0578  0.8992 -1.2239
  158TMC2    C1 2403   4.459   1.309  13.750 -0.4246  0.7324  0.5611
  158TMC2    C2 2404   4.564   1.316  13.661 -0.3337 -0.2867  0.4385
  158TMC2    C3 2405   4.555   1.404  13.563  0.1632 -0.4708 -0.1822
  158TMC2    C4 2406   4.356   1.405  13.746 -0.0865  0.2799  0.2371
  158TMC2    C5 2407   4.370   1.515  13.659 -0.2237  0.0600 -0.1632
  158TMC2    C6 2408   4.461   1.504  13.557 -0.7461 -0.2417 -0.2482
  158TMC2     C 2409   4.483   1.225  13.867  0.3554  0.4031  0.9322
  158TMC2     O 2410   4.585   1.162  13.865  0.3733 -0.0184  0.2339
  158TMC2     H 2411   4.652   1.253  13.668 -0.6085 -1.0256 -2.8639
  158TMC2    H1 2412   4.275   1.414  13.818 -0.3321  1.4147 -0.1775
  158TMC2    H2 2413   4.461   1.581  13.481  0.3131  1.5485  1.5516
  158TMC2    C7 2414   4.273   1.622  13.651 -0.0284  0.1441  0.6668
  158TMC2    C8 2415   4.665   1.409  13.472 -0.0394  0.3607 -0.8136
  158TMC2    O1 2416   4.311   1.728  13.598 -0.0062 -0.2656 -0.1704
  158TMC2    O2 2417   4.669   1.500  13.393  0.0910 -0.4634 -0.3965
  158TMC2    O5 2418   4.691   1.277  13.441  0.3569 -0.2852 -0.5231
  158TMC2    H5 2419   0.029   1.238  13.506  1.3175 -0.1874 -1.3916
  159MPD2     C 2420   4.461   1.117  14.357  0.1007  0.2969 -0.2806
  159MPD2    C1 2421   4.343   1.180  14.330  0.5958  0.2583 -0.4789
  159MPD2    C2 2422   4.326   1.218  14.195 -0.1039  0.0134 -0.3886
  159MPD2    C3 2423   4.424   1.199  14.102 -0.7006 -0.5805 -0.6963
  159MPD2    C4 2424   4.538   1.134  14.140  0.2873  0.0030  0.2689
  159MPD2    C5 2425   4.557   1.086  14.266  0.3205  0.2559  0.5144
  159MPD2     H 2426   4.234   1.265  14.164  0.3233  0.3377 -1.1619
  159MPD2    H1 2427   4.612   1.101  14.069 -0.1885  0.5987 -0.5119
  159MPD2    H2 2428   4.467   1.088  14.461  1.0931  0.3327 -0.3334
  159MPD2    H3 2429   4.648   1.037  14.300 -0.5098 -0.8771  1.0988
  159MPD2     N 2430   4.395   1.245  13.968  0.2610 -0.3892 -0.0747
  159MPD2    H5 2431   4.312   1.301  13.953 -0.2720 -1.8010 -2.3276
  159MPD2    N1 2432   4.249   1.184  14.432 -0.6246  0.5019  0.5871
  159MPD2    H7 2433   4.275   1.139  14.519 -0.8224  0.7459  0.7726
  160TMC2    C1 2434   2.520   3.913   0.977 -0.1339 -0.5184 -0.5641
  160TMC2    C2 2435   2.469   3.787   0.986  0.1667 -0.1012  0.3553
  160TMC2    C3 2436   2.555   3.680   1.008 -0.5218 -0.2338  0.5872
  160TMC2    C4 2437   2.659   3.935   0.993 -0.0717  0.7708  0.0561
  160TMC2    C5 2438   2.743   3.821   1.004 -0.5527 -0.4833  0.0872
  160TMC2    C6 2439   2.691   3.693   0.998  0.2920 -0.1512  0.1527
  160TMC2     C 2440   2.431   4.010   0.928  0.8785 -0.0776  0.5155
  160TMC2     O 2441   2.309   3.992   0.937 -0.5175  0.0711  0.1270
  160TMC2     H 2442   2.362   3.768   0.988  0.3514 -1.2718 -0.8092
  160TMC2    H1 2443   2.696   4.037   0.993 -0.4944  0.9250 -0.6226
  160TMC2    H2 2444   2.752   3.604   1.007 -0.1459 -0.5873 -1.1093
  160TMC2    C7 2445   2.883   3.832   1.035 -0.1788  0.3149 -0.0612
  160TMC2    C8 2446   2.490   3.549   1.011 -0.4145  0.1063  0.6697
  160TMC2    O1 2447   2.937   3.734   1.089  0.7281 -0.2980  0.1983
  160TMC2    O2 2448   2.373   3.528   0.987 -0.1269  0.6069  0.1972
  160TMC2    O5 2449   2.573   3.470   1.074  0.6594  0.1245  0.0826
  160TMC2    H5 2450   2.631   3.525   1.130 -0.7712 -0.8493  2.5031
  161MPD2     C 2451   2.322   4.266   0.843 -0.5333  0.0221 -0.1134
  161MPD2    C1 2452   2.455   4.231   0.818  0.1262 -0.1108 -0.2607
  161MPD2    C2 2453   2.527   4.315   0.741 -0.5876 -0.7150 -0.1878
  161MPD2    C3 2454   2.474   4.426   0.676  0.1459 -0.4992 -0.6854
  161MPD2    C4 2455   2.338   4.452   0.693 -0.1774  0.0178 -0.0624
  161MPD2    C5 2456   2.267   4.372   0.770  0.3871  0.4010 -0.0787
  161MPD2     H 2457   2.630   4.284   0.724 -0.4036  0.8182 -1.9008
  161MPD2    H1 2458   2.298   4.539   0.642  2.4435  0.5683 -1.1933
  161MPD2    H2 2459   2.251   4.205   0.898  0.3711  2.1774  3.4618
  161MPD2    H3 2460   2.167   4.410   0.788  0.8077  1.3602  0.2459
  161MPD2     N 2461   2.547   4.514   0.589  0.6683  0.1359 -0.2423
  161MPD2    H5 2462   2.488   4.584   0.546 -0.2082  0.8552  2.1267
  161MPD2    N1 2463   2.502   4.108   0.866 -0.2263  0.4207  0.2597
  161MPD2    H7 2464   2.603   4.098   0.863 -0.1740  0.4948  2.1821
  162TMC2    C1 2465   1.030   1.994   0.661 -0.5426  0.8533 -0.0629
  162TMC2    C2 2466   0.960   1.931   0.565  0.1452 -0.1355  0.3651
  162TMC2    C3 2467   0.831   1.905   0.595 -0.2035 -0.1563 -0.2648
  162TMC2    C4 2468   0.979   2.049   0.775 -0.1045 -0.3082  0.0901
  162TMC2    C5 2469   0.846   2.014   0.797 -0.4525 -1.2878  0.1815
  162TMC2    C6 2470   0.771   1.950   0.707  0.1723 -0.2278  0.2971
  162TMC2     C 2471   1.170   1.961   0.657 -1.1247  0.6595  0.5000
  162TMC2     O 2472   1.213   1.896   0.562  0.0146  0.2346  0.1517
  162TMC2     H 2473   0.998   1.888   0.474  0.7837  0.2304  0.4618
  162TMC2    H1 2474   1.043   2.081   0.856  1.8183 -0.5655 -1.3236
  162TMC2    H2 2475   0.666   1.936   0.729 -0.8476  0.5003 -4.1384
  162TMC2    C7 2476   0.762   2.078   0.901 -0.1254 -0.1199 -0.8299
  162TMC2    C8 2477   0.752   1.838   0.494  0.0110  0.1499 -0.3914
  162TMC2    O1 2478   0.648   2.093   0.878 -0.7631 -0.8910  0.0429
  162TMC2    O2 2479   0.788   1.839   0.378 -0.0792 -0.3043  0.2376
  162TMC2    O5 2480   0.622   1.825   0.535  0.5401 -0.5596  0.1497
  162TMC2    H5 2481   0.624   1.769   0.615  0.7763  2.0255  1.9595
  163MPD2     C 2482   1.647   1.941   0.821 -0.0816 -0.1678  0.0884
  163MPD2    C1 2483   1.600   1.903   0.699  0.3618 -0.4295 -0.0726
  163MPD2    C2 2484   1.468   1.928   0.676 -0.5582  0.1886  0.5345
  163MPD2    C3 2485   1.387   1.973   0.777 -0.5846 -0.1279  0.3047
  163MPD2    C4 2486   1.436   2.014   0.895  0.3176 -0.4147  0.0073
  163MPD2    C5 2487   1.568   1.996   0.918  0.1157  0.0414 -0.2258
  163MPD2     H 2488   1.432   1.909   0.575 -0.3921  1.3980  0.2448
  163MPD2    H1 2489   1.368   2.050   0.972  1.6448  1.8687  0.1142
  163MPD2    H2 2490   1.752   1.924   0.839 -0.0353  0.8624  0.7919
  163MPD2    H3 2491   1.615   2.048   1.001 -0.0211 -3.8338  2.2681
  163MPD2     N 2492   1.244   1.992   0.763 -0.1503 -0.5243 -0.0693
  163MPD2    H5 2493   1.199   2.048   0.834  1.6755 -1.2403  1.6533
  163MPD2    N1 2494   1.691   1.843   0.612 -0.6665 -0.3749 -0.3777
  163MPD2    H7 2495   1.783   1.824   0.652 -0.7811  2.6610  1.2905
  164TCq2    C1 2496   1.922   1.720  11.155 -0.1429  0.2696 -0.1958
  164TCq2    O2 2497   1.811   1.718  11.108 -0.3377 -0.0316 -0.0853
  164TCq2    C2 2498   1.937   1.790  11.289  0.2016  0.0805 -0.2399
  164TCq2    C3 2499   2.056   1.783  11.355 -0.0871  0.9763  1.1465
  164TCq2    C4 2500   2.058   1.834  11.480  0.6382  0.6216  0.5903
  164TCq2    C5 2501   1.953   1.899  11.536  0.4908  0.1954  0.0163
  164TCq2    C6 2502   1.831   1.907  11.461  0.4000  0.4299  0.2802
  164TCq2    C7 2503   1.823   1.840  11.347 -0.3738 -0.4589 -0.1242
  164TCq2    C8 2504   1.726   2.003  11.498  0.1708  0.1374  0.2435
  164TCq2    O4 2505   1.681   2.053  11.391  0.5815  0.2274 -0.4236
  164TCq2    C9 2506   2.179   1.809  11.560  0.1660 -0.2186 -0.0111
  164TCq2    O5 2507   2.210   1.895  11.646  0.7983  0.1702 -0.4237
  164TCq2    O6 2508   2.236   1.699  11.534 -0.0439  0.3242  0.1110
  164TCq2    H2 2509   2.139   1.721  11.323 -1.0364  1.5534 -2.4161
  164TCq2    H3 2510   1.961   1.945  11.634  3.0646  1.2187 -0.6779
  164TCq2    H4 2511   1.729   1.845  11.292 -1.1941 -1.4669  1.1853
  165MPD2     C 2512   1.970   3.339   1.263 -0.0288 -0.2757  0.5158
  165MPD2    C1 2513   2.047   3.354   1.371  0.6713 -0.2397  0.0433
  165MPD2    C2 2514   2.126   3.475   1.377  0.4182  0.4369  0.2654
  165MPD2    C3 2515   2.098   3.581   1.292 -0.3853 -0.0582 -0.3783
  165MPD2    C4 2516   2.004   3.570   1.188 -0.1326  0.2781  0.5763
  165MPD2    C5 2517   1.951   3.445   1.174 -0.1379 -0.1512  0.4861
  165MPD2     H 2518   2.198   3.488   1.457  1.1148 -2.0057  0.0463
  165MPD2    H1 2519   1.986   3.644   1.111 -0.6344  0.5871  0.9925
  165MPD2    H2 2520   1.919   3.246   1.244 -0.6266 -0.1549  1.5364
  165MPD2    H3 2521   1.886   3.431   1.088  1.8939 -2.6798 -0.6375
  165MPD2     N 2522   2.167   3.703   1.301 -0.3968  0.4527  0.1026
  165MPD2    H5 2523   2.140   3.780   1.240  1.1421  1.2716  0.4601
  165MPD2    N1 2524   2.055   3.257   1.470 -0.1887 -0.2643  0.2266
  165MPD2    H7 2525   2.011   3.169   1.445  1.1333 -1.1779  1.1158
  166TCq2    C1 2526   2.293   3.720   1.356  0.2325 -0.1401 -0.2591
  166TCq2    O2 2527   2.369   3.641   1.411 -0.0482 -1.3557 -0.5268
  166TCq2    C2 2528   2.330   3.857   1.345  0.1230  0.8737 -0.0073
  166TCq2    C3 2529   2.226   3.952   1.338  0.0661  0.1870 -1.2839
  166TCq2    C4 2530   2.255   4.080   1.321  0.0367 -0.3803  0.3008
  166TCq2    C5 2531   2.381   4.123   1.295  0.2617 -0.0983  0.5758
  166TCq2    C6 2532   2.483   4.029   1.299 -0.2037  0.3614 -0.0456
  166TCq2    C7 2533   2.462   3.894   1.323 -0.1904 -0.7514 -0.7143
  166TCq2    C8 2534   2.626   4.070   1.307 -0.0979 -0.3076 -0.7603
  166TCq2    O4 2535   2.714   3.992   1.337  0.3016 -0.3608  0.0370
  166TCq2    C9 2536   2.152   4.180   1.355 -0.7057 -0.1487 -0.1871
  166TCq2    O5 2537   2.195   4.302   1.370  0.3393 -0.0218  0.0843
  166TCq2    O6 2538   2.035   4.136   1.334 -0.1521  0.4327  0.1727
  166TCq2    H2 2539   2.125   3.932   1.373 -0.0209  1.3093 -0.8996
  166TCq2    H3 2540   2.413   4.226   1.290  3.2695 -1.0867 -0.7938
  166TCq2    H4 2541   2.543   3.823   1.321  1.5468  1.1626  1.3404
  167TMC2    C1 2542   1.027   1.774  13.109 -0.5353  0.0067  1.0616
  167TMC2    C2 2543   1.012   1.829  13.231  0.7487  0.5375 -0.4482
  167TMC2    C3 2544   0.994   1.746  13.336  0.3425 -0.0408 -0.6796
  167TMC2    C4 2545   1.029   1.642  13.080 -0.5749  0.4133  0.6040
  167TMC2    C5 2546   1.017   1.564  13.186 -0.7804 -0.5429  0.1163
  167TMC2    C6 2547   1.003   1.609  13.317  0.1272  0.0106  0.0784
  167TMC2     C 2548   1.033   1.875  13.001 -0.3358 -0.6681 -0.2804
  167TMC2     O 2549   1.007   1.994  13.028  0.0430 -0.0495  0.4327
  167TMC2     H 2550   1.020   1.936  13.245  1.1973  0.0890  2.5316
  167TMC2    H1 2551   1.022   1.614  12.976  1.1093 -2.8154  1.3595
  167TMC2    H2 2552   0.977   1.537  13.394 -0.9398  0.2678 -0.0426
  167TMC2    C7 2553   1.048   1.425  13.171  0.1337  0.0928 -0.2595
  167TMC2    C8 2554   0.968   1.803  13.465  0.2795  0.4342  0.5695
  167TMC2    O1 2555   1.003   1.348  13.252 -0.5910 -0.0158 -1.1576
  167TMC2    O2 2556   0.950   1.922  13.471 -0.3556  0.0794 -0.7882
  167TMC2    O5 2557   0.999   1.707  13.559 -0.0165 -0.7065 -0.0762
  167TMC2    H5 2558   0.982   1.729  13.653  1.4710  0.5657 -0.1156
  168MPD2     C 2559   0.967   1.984  12.722  0.2495  0.1188  0.3341
  168MPD2    C1 2560   1.066   1.888  12.750  0.4189 -0.3061  0.0395
  168MPD2    C2 2561   1.141   1.838  12.647 -0.0981 -0.0993  0.2229
  168MPD2    C3 2562   1.105   1.865  12.518 -0.8835  0.1525  1.2744
  168MPD2    C4 2563   0.997   1.946  12.487 -0.3505  0.0989  0.7772
  168MPD2    C5 2564   0.927   2.011  12.590 -0.5226 -0.2494  0.1959
  168MPD2     H 2565   1.205   1.758  12.682 -0.6638 -0.0823  1.2733
  168MPD2    H1 2566   0.959   1.961  12.386  2.0057  1.4093  0.0909
  168MPD2    H2 2567   0.913   2.032  12.803  0.0588 -1.5061  1.1548
  168MPD2    H3 2568   0.850   2.085  12.574  0.0670  0.5688  1.1681
  168MPD2     N 2569   1.179   1.797  12.418 -0.3161 -0.1715 -0.6004
  168MPD2    H5 2570   1.241   1.722  12.447  2.6302  2.6707  0.3937
  168MPD2    N1 2571   1.084   1.832  12.881  0.7212  0.6882  1.1544
  168MPD2    H7 2572   1.133   1.744  12.880  0.9500  0.8365  0.1267
  169MPD1     C 2573   3.558   4.385   9.432 -0.3509  0.1714 -0.3853
  169MPD1    C1 2574   3.533   4.505   9.499 -0.8595 -0.1160 -0.0910
  169MPD1    C2 2575   3.646   4.579   9.526  0.4240 -0.2254  0.1078
  169MPD1    C3 2576   3.775   4.555   9.481 -0.0830  0.7758  0.2461
  169MPD1    C4 2577   3.791   4.445   9.397 -0.2948 -0.3486  0.6945
  169MPD1    C5 2578   3.683   4.364   9.372  0.6720  0.4443 -0.6592
  169MPD1     H 2579   3.633   4.675   9.575  0.2454  0.0043 -0.3902
  169MPD1    H1 2580   3.889   4.423   9.358 -0.6063  1.7054 -1.2187
  169MPD1    H2 2581   3.476   4.317   9.409 -0.0302 -0.0558 -0.8598
  169MPD1    H3 2582   3.693   4.274   9.313  1.0565 -0.9338  1.5299
  169MPD1     N 2583   3.876   4.652   9.510  0.0343  0.1789 -0.2370
  169MPD1    H5 2584   3.856   4.721   9.582  0.2314 -1.1629  1.1013
  169MPD1    N1 2585   3.407   4.540   9.552  0.4840 -0.0800  0.3771
  169MPD1    H6 2586   3.334   4.508   9.490 -0.4250  0.4949  1.1510
  169MPD1    H7 2587   3.390   4.640   9.544 -0.2608 -0.3866 -1.7754
  170MPD1     C 2588   0.767   4.380  13.329 -0.5673  0.4530  0.0306
  170MPD1    C1 2589   0.805   4.266  13.390 -0.5980 -0.2507 -0.0904
  170MPD1    C2 2590   0.944   4.257  13.417 -0.1438 -0.2051  0.5408
  170MPD1    C3 2591   1.042   4.351  13.381 -0.5013 -0.3795  0.1317
  170MPD1    C4 2592   0.994   4.467  13.334  0.3300  0.4791 -0.1316
  170MPD1    C5 2593   0.860   4.484  13.306 -1.0878 -0.4024 -0.0633
  170MPD1     H 2594   0.984   4.165  13.458  0.2111  0.1039  0.8879
  170MPD1    H1 2595   1.055   4.551  13.300  2.1928 -1.3225 -1.2172
  170MPD1    H2 2596   0.667   4.389  13.290 -1.0566 -0.7442  0.9940
  170MPD1    H3 2597   0.827   4.569  13.246 -0.1700 -1.4987 -2.1160
  170MPD1     N 2598   1.175   4.333  13.413  0.0423  0.4506  0.4309
  170MPD1    H5 2599   1.200   4.250  13.465  0.9925 -0.1715 -1.0382
  170MPD1    N1 2600   0.713   4.160  13.404 -0.2601 -0.2263  0.0252
  170MPD1    H6 2601   0.620   4.188  13.432 -0.5594  0.7245 -1.9505
  170MPD1    H7 2602   0.743   4.081  13.462  0.1842 -0.6131 -0.7284
  171MPD1     C 2603   0.976   0.457  15.428 -0.2052 -0.2133  0.1672
  171MPD1    C1 2604   1.051   0.345  15.396 -0.1307 -0.6325 -0.1453
  171MPD1    C2 2605   1.010   0.224  15.441 -0.9689 -0.2531  0.7119
  171MPD1    C3 2606   0.884   0.203  15.500 -0.2184 -0.0452 -0.1350
  171MPD1    C4 2607   0.810   0.312  15.536  0.1095  0.3327  0.8479
  171MPD1    C5 2608   0.857   0.433  15.494 -0.8438 -0.3344  0.3715
  171MPD1     H 2609   1.070   0.137  15.418  1.2376  1.5733 -0.4770
  171MPD1    H1 2610   0.721   0.302  15.596 -0.5956  0.2946 -0.2063
  171MPD1    H2 2611   1.012   0.558  15.412  0.3010 -0.4342 -0.0687
  171MPD1    H3 2612   0.799   0.521  15.518  2.5955  2.1092 -0.3695
  171MPD1     N 2613   0.842   0.071  15.538  0.4328  0.6470 -0.2541
  171MPD1    H5 2614   0.744   0.055  15.561  1.0908 -1.2422  1.2667
  171MPD1    N1 2615   1.189   0.381  15.359  0.6864  0.0520 -0.4035
  171MPD1    H6 2616   1.242   0.301  15.327 -0.7617 -1.6603  1.5039
  171MPD1    H7 2617   1.193   0.456  15.290  3.2330  0.5169  0.2774
  172MPD1     C 2618   4.294   3.516   0.362 -0.2144 -0.4697  0.3369
  172MPD1    C1 2619   4.235   3.619   0.295 -0.1272 -0.1525  0.7908
  172MPD1    C2 2620   4.288   3.749   0.311  1.1545 -0.6251  0.3313
  172MPD1    C3 2621   4.388   3.768   0.414  0.1334  0.4697  0.1391
  172MPD1    C4 2622   4.439   3.658   0.475 -0.9727  0.0544  0.2937
  172MPD1    C5 2623   4.400   3.532   0.447 -0.1138 -0.1049 -0.5332
  172MPD1     H 2624   4.246   3.835   0.260  1.1160 -1.6059 -1.2831
  172MPD1    H1 2625   4.522   3.670   0.543 -1.3743  2.9981  0.2635
  172MPD1    H2 2626   4.251   3.416   0.356 -0.8182 -0.2163  0.4654
  172MPD1    H3 2627   4.449   3.453   0.504  1.1046 -0.2408 -1.7833
  172MPD1     N 2628   4.441   3.899   0.448 -0.0777 -0.1867  0.8589
  172MPD1    H5 2629   4.511   3.897   0.521 -0.4621  0.6089  1.2407
  172MPD1    N1 2630   4.121   3.610   0.220 -0.0567  0.1233 -0.0273
  172MPD1    H6 2631   4.108   3.698   0.170  0.6588 -0.4695 -1.2854
  172MPD1    H7 2632   4.119   3.535   0.151  0.6505 -0.6582  0.8083
  173MPD1     C 2633   1.378   4.188  14.660 -0.0371 -0.1170  0.2678
  173MPD1    C1 2634   1.423   4.076  14.594 -0.2593 -0.4550  0.1512
  173MPD1    C2 2635   1.359   3.952  14.617 -0.2423 -0.6260  0.3572
  173MPD1    C3 2636   1.247   3.940  14.696  0.2198 -0.1418  0.2485
  173MPD1    C4 2637   1.202   4.054  14.766  0.2699  0.7067  0.2541
  173MPD1    C5 2638   1.273   4.175  14.752  0.0479  0.0534  0.0884
  173MPD1     H 2639   1.402   3.863  14.573  0.4888 -0.0923 -0.0124
  173MPD1    H1 2640   1.110   4.062  14.822  0.0344 -1.8625  0.2032
  173MPD1    H2 2641   1.428   4.283  14.644  0.9655 -1.0036 -1.9101
  173MPD1    H3 2642   1.241   4.266  14.801 -0.2012 -0.2068  0.4076
  173MPD1     N 2643   1.182   3.816  14.697 -0.7563  0.4671 -0.2440
  173MPD1    H5 2644   1.226   3.746  14.639  0.1224  0.0437  0.9156
  173MPD1    N1 2645   1.533   4.079  14.503  0.6304 -0.4305 -0.3243
  173MPD1    H6 2646   1.586   3.993  14.490  1.2018  0.2973 -2.8179
  173MPD1    H7 2647   1.595   4.160  14.507 -1.3713  1.0484  0.6915
  174MPD1     C 2648   1.118   3.349  14.013 -0.2386 -0.1019  0.2815
  174MPD1    C1 2649   1.007   3.311  14.087  0.2279 -0.2419 -0.4703
  174MPD1    C2 2650   1.012   3.329  14.223 -0.7493 -0.5632 -0.4407
  174MPD1    C3 2651   1.116   3.407  14.279  0.3777 -0.8837  0.2768
  174MPD1    C4 2652   1.219   3.450  14.201 -0.4406  0.0042 -0.2204
  174MPD1    C5 2653   1.220   3.417  14.071  0.4351  0.1706  0.2155
  174MPD1     H 2654   0.928   3.293  14.281 -0.6574 -1.1453 -0.6677
  174MPD1    H1 2655   1.305   3.499  14.246  0.3191  0.3609 -2.0478
  174MPD1    H2 2656   1.117   3.343  13.905 -2.3133 -1.2630  0.3697
  174MPD1    H3 2657   1.305   3.448  14.011  0.5869 -2.4211 -0.9255
  174MPD1     N 2658   1.115   3.432  14.421 -0.2394  0.1460  0.1489
  174MPD1    H5 2659   1.174   3.503  14.463  1.1319  0.4406 -2.2707
  174MPD1    N1 2660   0.910   3.238  14.018  0.6048 -0.5712 -0.1132
  174MPD1    H6 2661   0.824   3.206  14.062 -1.2712  2.9426 -1.2206
  174MPD1    H7 2662   0.896   3.283  13.927 -1.2345  0.9230  0.9179
  175MPD1     C 2663   4.097   3.712  16.162  0.4888  0.1696 -0.2372
  175MPD1    C1 2664   4.013   3.784  16.245 -0.1635 -0.6596 -0.3371
  175MPD1    C2 2665   4.027   3.923  16.237 -0.0997 -0.0615 -0.7708
  175MPD1    C3 2666   4.108   3.979  16.132 -0.0588  0.7446  0.1037
  175MPD1    C4 2667   4.181   3.899  16.051  0.0291 -0.3069 -0.4578
  175MPD1    C5 2668   4.182   3.761  16.069  0.0066 -0.3004  0.3061
  175MPD1     H 2669   3.971   3.985  16.306  1.3840  0.0672  0.3205
  175MPD1    H1 2670   4.239   3.946  15.972 -1.1346  0.9085 -0.5928
  175MPD1    H2 2671   4.104   3.604  16.165 -0.3564  0.1383  0.4108
  175MPD1    H3 2672   4.233   3.696  15.999  1.5370  2.6952 -1.4097
  175MPD1     N 2673   4.123   4.118  16.120  0.1010 -0.6663  0.6456
  175MPD1    H5 2674   4.178   4.134  16.036  0.1014 -2.5674  0.2788
  175MPD1    N1 2675   3.929   3.724  16.345 -0.0807 -0.3146 -0.4565
  175MPD1    H6 2676   3.845   3.782  16.344 -0.4087 -0.8095 -1.2030
  175MPD1    H7 2677   3.903   3.628  16.326 -0.0529 -0.5787  0.8167
  176MPD1     C 2678   1.084   1.618  16.587 -0.2209 -0.0709 -0.0164
  176MPD1    C1 2679   1.165   1.563  16.683 -0.1812  0.0444  0.0750
  176MPD1    C2 2680   1.216   1.656  16.779  0.3763  0.3308 -0.7878
  176MPD1    C3 2681   1.195   1.793  16.771 -0.0851  0.2372  0.4904
  176MPD1    C4 2682   1.102   1.836  16.683 -0.3251 -0.4875  0.0602
  176MPD1    C5 2683   1.050   1.752  16.592  0.2860  0.0277  0.8029
  176MPD1     H 2684   1.298   1.624  16.843  0.1311 -1.2102 -1.2463
  176MPD1    H1 2685   1.069   1.939  16.679 -0.8397 -0.6508  0.1498
  176MPD1    H2 2686   1.042   1.561  16.505 -0.7516 -1.1220  0.9766
  176MPD1    H3 2687   0.991   1.789  16.509 -0.1495 -1.4541  0.4499
  176MPD1     N 2688   1.271   1.873  16.858  0.5175  0.1389  0.1698
  176MPD1    H5 2689   1.325   1.834  16.935 -1.6769 -1.0873  1.1193
  176MPD1    N1 2690   1.209   1.426  16.678 -0.7570 -0.1153  0.3650
  176MPD1    H6 2691   1.239   1.392  16.769 -0.9309 -1.7843 -0.1979
  176MPD1    H7 2692   1.142   1.354  16.650 -0.5072 -1.4230  3.2140
  177MPD1     C 2693   0.428   2.705  10.176  0.4989  0.6904 -0.2814
  177MPD1    C1 2694   0.304   2.733  10.228 -0.1902  0.3675 -0.4847
  177MPD1    C2 2695   0.193   2.656  10.184  0.0201  0.7295  0.3113
  177MPD1    C3 2696   0.208   2.550  10.090  0.2562  1.0722 -0.3318
  177MPD1    C4 2697   0.333   2.531  10.037  0.0293  0.9748 -0.2535
  177MPD1    C5 2698   0.443   2.605  10.073  0.0522  1.1641  0.1505
  177MPD1     H 2699   0.096   2.695  10.211 -0.6046 -0.9825  0.5294
  177MPD1    H1 2700   0.355   2.447   9.971  1.5458  2.3316 -1.4963
  177MPD1    H2 2701   0.516   2.752  10.217  1.5950 -0.9222 -0.8079
  177MPD1    H3 2702   0.544   2.596  10.035  0.7968  0.7460  2.2274
  177MPD1     N 2703   0.085   2.494  10.040  0.4867  0.0532 -0.4948
  177MPD1    H5 2704   4.721   2.538  10.065  0.3233 -0.2308 -0.5615
  177MPD1    N1 2705   0.282   2.853  10.306  0.4104 -0.4487 -0.5131
  177MPD1    H6 2706   0.219   2.842  10.385  0.8926  0.2386 -0.0344
  177MPD1    H7 2707   0.368   2.904  10.325  1.1049 -1.0926 -1.9484
  178MPD1     C 2708   1.916   3.138  17.182 -0.0618 -0.3235 -0.2309
  178MPD1    C1 2709   1.807   3.047  17.205  0.1400 -0.0852 -0.2455
  178MPD1    C2 2710   1.840   2.914  17.194  0.0837  0.2883 -0.3139
  178MPD1    C3 2711   1.969   2.862  17.185  0.4544  0.3474 -0.8394
  178MPD1    C4 2712   2.069   2.956  17.171  0.5733  0.3751  0.1401
  178MPD1    C5 2713   2.040   3.086  17.164 -0.2824 -0.0883 -0.0939
  178MPD1     H 2714   1.759   2.843  17.209 -1.0245  0.7001 -4.6099
  178MPD1    H1 2715   2.176   2.939  17.176  0.2850 -1.0182  1.4168
  178MPD1    H2 2716   1.895   3.244  17.192  3.4024  0.4091 -0.7192
  178MPD1    H3 2717   2.126   3.149  17.142  0.7505 -1.6838 -0.6553
  178MPD1     N 2718   2.007   2.729  17.173 -0.2991 -0.8874 -0.9919
  178MPD1    H5 2719   2.105   2.718  17.149 -0.0466  2.1567 -1.4187
  178MPD1    N1 2720   1.678   3.096  17.219 -0.5833 -0.3498  0.0683
  178MPD1    H6 2721   1.659   3.179  17.274  2.2264 -0.2532  0.8895
  178MPD1    H7 2722   1.608   3.033  17.257 -0.8155  0.4497  0.9480
  179MPD1     C 2723   1.915   1.354  15.433  1.0313 -0.1554  0.3651
  179MPD1    C1 2724   1.967   1.358  15.560 -0.1918  0.1318 -0.2379
  179MPD1    C2 2725   1.908   1.275  15.653  0.9404 -0.6681  1.0537
  179MPD1    C3 2726   1.793   1.209  15.627 -0.5290  0.0010  0.5664
  179MPD1    C4 2727   1.729   1.228  15.506 -0.1478  0.2508  0.4679
  179MPD1    C5 2728   1.791   1.300  15.408  0.1215  1.0725 -0.2527
  179MPD1     H 2729   1.955   1.270  15.751  0.2892 -0.4779  1.3719
  179MPD1    H1 2730   1.629   1.188  15.491 -1.1162  2.7753  0.1656
  179MPD1    H2 2731   1.969   1.405  15.355  1.2287 -0.5440  0.2492
  179MPD1    H3 2732   1.741   1.323  15.314  2.1441  1.3002 -1.2673
  179MPD1     N 2733   1.722   1.127  15.719 -0.1301  0.5579  0.5029
  179MPD1    H5 2734   1.634   1.092  15.682  0.5491 -1.0994  0.4885
  179MPD1    N1 2735   2.091   1.421  15.579 -0.4177  0.1040 -0.0525
  179MPD1    H6 2736   2.097   1.506  15.525  2.6062  0.1854  0.4415
  179MPD1    H7 2737   2.102   1.451  15.676 -0.8697 -0.3816  0.1552
  180MPD1     C 2738   1.626   2.355  15.763 -0.0818 -0.6555  0.0673
  180MPD1    C1 2739   1.511   2.307  15.707  0.4426  0.0516 -0.3362
  180MPD1    C2 2740   1.483   2.313  15.573 -0.0716 -0.7894  0.7953
  180MPD1    C3 2741   1.586   2.343  15.492 -0.3217 -0.1408  0.9398
  180MPD1    C4 2742   1.702   2.392  15.541 -0.4275  0.4942  0.0431
  180MPD1    C5 2743   1.722   2.402  15.679 -0.1370 -0.5485 -0.2418
  180MPD1     H 2744   1.385   2.284  15.538  0.5308 -0.6992 -0.9619
  180MPD1    H1 2745   1.784   2.420  15.476  1.8614  0.3952  2.8834
  180MPD1    H2 2746   1.640   2.361  15.870  0.4529 -1.8712  0.0722
  180MPD1    H3 2747   1.815   2.440  15.722  0.5847 -1.0017 -1.3945
  180MPD1     N 2748   1.561   2.341  15.351  0.5385  0.4017 -0.4870
  180MPD1    H5 2749   1.468   2.313  15.320  0.6646  0.8356 -1.2365
  180MPD1    N1 2750   1.400   2.290  15.791 -0.2181  0.1372  0.0306
  180MPD1    H6 2751   1.332   2.224  15.754  0.2913 -0.8611  0.8806
  180MPD1    H7 2752   1.425   2.247  15.880  1.5011  1.0223 -0.0200
  181MPD1     C 2753   2.959   4.200   9.987  0.5090  0.4199 -0.3881
  181MPD1    C1 2754   3.079   4.235  10.046  0.2007 -0.0088 -0.2689
  181MPD1    C2 2755   3.200   4.209   9.983  0.1195  0.4419  0.2047
  181MPD1    C3 2756   3.198   4.161   9.854 -0.6570  0.1332  0.8063
  181MPD1    C4 2757   3.081   4.141   9.785 -0.0373 -0.0245 -0.0568
  181MPD1    C5 2758   2.964   4.156   9.854  0.6181  0.0322  0.6754
  181MPD1     H 2759   3.296   4.228  10.030 -0.7366  2.1761  1.2586
  181MPD1    H1 2760   3.071   4.092   9.688  1.0608 -0.5390  0.0825
  181MPD1    H2 2761   2.863   4.211  10.035  0.2240 -2.6528 -0.2471
  181MPD1    H3 2762   2.874   4.130   9.799 -1.0521  3.5001  1.7892
  181MPD1     N 2763   3.315   4.128   9.775 -0.4392 -0.7005  0.6138
  181MPD1    H5 2764   3.311   4.071   9.691  3.4761  3.5853 -2.4510
  181MPD1    N1 2765   3.079   4.283  10.177  0.1989  0.4286 -0.1073
  181MPD1    H6 2766   3.158   4.345  10.194  0.5012  0.0442 -0.1131
  181MPD1    H7 2767   2.995   4.333  10.207 -0.2536 -0.5974  0.3588
  182MPD1     C 2768   3.983   2.168   0.535  0.3763 -0.5556  0.0198
  182MPD1    C1 2769   4.028   2.244   0.427  0.2036 -0.3189 -0.0592
  182MPD1    C2 2770   3.973   2.365   0.402 -0.5714 -0.1904 -0.4375
  182MPD1    C3 2771   3.879   2.428   0.489  0.7546  0.5521 -1.1416
  182MPD1    C4 2772   3.838   2.353   0.593  0.5356 -0.6549  0.4216
  182MPD1    C5 2773   3.889   2.224   0.615 -0.5473 -0.0718 -0.0742
  182MPD1     H 2774   4.009   2.413   0.312  0.7873 -0.0107  0.1922
  182MPD1    H1 2775   3.770   2.399   0.665  3.9268  2.7571  1.4786
  182MPD1    H2 2776   4.016   2.068   0.561  0.9448 -0.6135 -0.9182
  182MPD1    H3 2777   3.851   2.163   0.697 -1.0181 -1.7562 -1.5269
  182MPD1     N 2778   3.817   2.553   0.466  0.6416 -0.6872  0.4114
  182MPD1    H5 2779   3.754   2.588   0.538  0.5730 -0.2554  0.1430
  182MPD1    N1 2780   4.107   2.182   0.334 -0.1409 -0.0391 -0.4422
  182MPD1    H6 2781   4.156   2.100   0.371  1.1830 -0.4303 -3.0753
  182MPD1    H7 2782   4.176   2.237   0.284 -0.2177 -0.0081 -0.5132
  183MPD1     C 2783   3.523   3.953   9.186 -0.1377  0.0051  0.3897
  183MPD1    C1 2784   3.508   3.829   9.232 -0.3107  0.7866  0.4347
  183MPD1    C2 2785   3.630   3.775   9.266  0.6199  0.4185  0.0558
  183MPD1    C3 2786   3.748   3.845   9.272  0.1201 -0.2990  0.6093
  183MPD1    C4 2787   3.756   3.972   9.224 -0.4745  0.3310  0.7169
  183MPD1    C5 2788   3.634   4.031   9.185  0.5191 -0.2204  0.4617
  183MPD1     H 2789   3.630   3.671   9.296 -1.3978 -0.3193 -2.5029
  183MPD1    H1 2790   3.844   4.034   9.231 -0.7482  0.7982 -0.0055
  183MPD1    H2 2791   3.434   3.995   9.139  0.7498  1.1672 -0.2617
  183MPD1    H3 2792   3.645   4.131   9.145  1.1362 -0.0068  1.1524
  183MPD1     N 2793   3.872   3.775   9.310  0.3764  0.7738 -0.4577
  183MPD1    H5 2794   3.873   3.675   9.325  1.2592  1.1193  1.8518
  183MPD1    N1 2795   3.395   3.746   9.233 -0.3166 -0.3826 -0.1357
  183MPD1    H6 2796   3.410   3.662   9.288  0.8188 -0.2733 -0.2746
  183MPD1    H7 2797   3.302   3.787   9.227 -0.4746 -0.6280  0.6823
  184MPD1     C 2798   4.630   1.217   9.164 -0.6891 -0.8716 -0.2135
  184MPD1    C1 2799   0.025   1.239   9.228 -0.2904  0.0988  0.0963
  184MPD1    C2 2800   0.019   1.307   9.344 -0.4939  0.4993  0.6946
  184MPD1    C3 2801   4.624   1.341   9.404 -0.3975 -0.0719 -0.6025
  184MPD1    C4 2802   4.502   1.304   9.342 -0.3939  0.2406 -0.7747
  184MPD1    C5 2803   4.507   1.251   9.214  0.0907  0.0845 -0.1940
  184MPD1     H 2804   0.111   1.317   9.400  1.4167  0.4395 -2.4315
  184MPD1    H1 2805   4.405   1.326   9.386  0.2814  0.6731  0.5071
  184MPD1    H2 2806   4.639   1.185   9.061  2.8168 -3.5600  0.9422
  184MPD1    H3 2807   4.417   1.230   9.157 -0.2085 -0.5472  0.5067
  184MPD1     N 2808   4.622   1.391   9.539  0.0737  0.1327 -0.1566
  184MPD1    H5 2809   4.534   1.424   9.577  0.0704  1.1202 -1.0271
  184MPD1    N1 2810   0.146   1.218   9.164 -0.6428  0.0059 -0.5831
  184MPD1    H6 2811   0.136   1.131   9.113 -2.3591  0.4066 -0.9450
  184MPD1    H7 2812   0.212   1.194   9.238  0.0231  0.4976 -1.0245
  185MPD1     C 2813   0.170   1.351  10.576 -0.3695  0.5248 -0.2938
  185MPD1    C1 2814   0.223   1.288  10.468 -0.7596  0.0092 -0.3120
  185MPD1    C2 2815   0.181   1.348  10.352  0.2335 -0.7103  0.2145
  185MPD1    C3 2816   0.101   1.463  10.336  0.1332  0.3035  0.0587
  185MPD1    C4 2817   0.071   1.534  10.451  0.0803  0.4279  0.1358
  185MPD1    C5 2818   0.100   1.469  10.572 -0.2843 -0.0071  0.2599
  185MPD1     H 2819   0.209   1.294  10.263 -0.0739 -0.3255 -0.1143
  185MPD1    H1 2820   0.014   1.626  10.445  2.1442  1.6141 -1.5095
  185MPD1    H2 2821   0.188   1.312  10.676 -1.4795 -0.4785 -0.4864
  185MPD1    H3 2822   0.071   1.514  10.666  0.5320  1.8776 -0.3896
  185MPD1     N 2823   0.057   1.517  10.210 -0.1484 -0.0007 -0.0133
  185MPD1    H5 2824   0.007   1.605  10.214  0.9793  0.7537 -2.6177
  185MPD1    N1 2825   0.270   1.158  10.483 -0.2336  0.2743  0.4101
  185MPD1    H6 2826   0.311   1.136  10.574  0.4009 -0.4481 -0.0481
  185MPD1    H7 2827   0.340   1.135  10.413  1.9035  3.5248  1.5037
  186MPD1     C 2828   1.689   0.643  15.577  0.1018  0.3623 -0.2109
  186MPD1    C1 2829   1.759   0.753  15.544  0.4343  0.1859  0.9184
  186MPD1    C2 2830   1.846   0.802  15.640  0.5744  0.0213  0.3229
  186MPD1    C3 2831   1.883   0.720  15.749  0.7035 -0.5346  0.2341
  186MPD1    C4 2832   1.811   0.606  15.776 -0.1675  0.1033  0.1190
  186MPD1    C5 2833   1.710   0.573  15.695  0.6115  0.2764  0.3010
  186MPD1     H 2834   1.892   0.900  15.636 -1.0538  0.7463 -0.8743
  186MPD1    H1 2835   1.837   0.535  15.853 -1.2447 -1.1417 -0.6647
  186MPD1    H2 2836   1.616   0.603  15.508 -1.5357 -0.6556  2.1161
  186MPD1    H3 2837   1.653   0.483  15.714  1.1880 -0.6515 -2.3140
  186MPD1     N 2838   1.968   0.759  15.851  0.0588 -0.1715  0.5407
  186MPD1    H5 2839   1.971   0.700  15.934 -1.0380 -1.8967 -0.6405
  186MPD1    N1 2840   1.726   0.831  15.436 -0.3975  0.5438  0.8952
  186MPD1    H6 2841   1.672   0.784  15.364 -0.0161 -0.5257  1.3069
  186MPD1    H7 2842   1.803   0.877  15.387  0.5712 -1.0981  0.8988
  187MPD1     C 2843   0.480   3.966   0.106 -0.2786  0.7082 -0.2682
  187MPD1    C1 2844   0.431   3.846   0.071 -0.1391  0.0655  0.6174
  187MPD1    C2 2845   0.502   3.769  17.680 -0.3363  0.5430 -0.0822
  187MPD1    C3 2846   0.618   3.819  17.625  0.2967 -0.1066 -0.6977
  187MPD1    C4 2847   0.664   3.938  17.662 -0.2684 -0.0525 -0.3109
  187MPD1    C5 2848   0.593   4.019   0.047 -0.0663 -0.3229 -0.4733
  187MPD1     H 2849   0.463   3.668  17.669 -0.3899  0.1743  3.3323
  187MPD1    H1 2850   0.755   3.982  17.622  0.1122 -0.8445 -0.3268
  187MPD1    H2 2851   0.421   4.017   0.181  0.3097  0.8402  0.1044
  187MPD1    H3 2852   0.642   4.108   0.086 -0.9972  0.1252 -0.3274
  187MPD1     N 2853   0.695   3.744  17.533  0.3545 -0.4780 -0.2038
  187MPD1    H5 2854   0.782   3.782  17.498 -1.1311  1.9979 -1.2084
  187MPD1    N1 2855   0.316   3.792   0.136 -0.6694  0.5479 -0.5976
  187MPD1    H6 2856   0.268   3.875   0.171  0.3664  0.7049  0.4555
  187MPD1    H7 2857   0.254   3.743   0.071 -2.2155  0.8040  0.6716
  188MPD1     C 2858   0.956   2.925  10.696  0.2578  0.7793  0.1131
  188MPD1    C1 2859   1.051   2.854  10.768  0.2764  1.0323  0.6101
  188MPD1    C2 2860   1.169   2.821  10.707 -0.3097  0.1805 -1.5107
  188MPD1    C3 2861   1.206   2.886  10.588 -0.7780  0.5469 -0.5686
  188MPD1    C4 2862   1.121   2.976  10.534 -0.4877 -0.2836 -0.2283
  188MPD1    C5 2863   0.993   2.990  10.581  0.6252  0.3560 -0.1805
  188MPD1     H 2864   1.245   2.758  10.752 -2.3195  0.1569  1.8675
  188MPD1    H1 2865   1.143   3.029  10.443  1.8646  0.0351  0.5433
  188MPD1    H2 2866   0.860   2.955  10.735 -0.1179  1.0360 -1.0216
  188MPD1    H3 2867   0.928   3.049  10.517 -2.2642  0.5490  2.9333
  188MPD1     N 2868   1.323   2.859  10.515 -0.2603 -0.3139  0.0788
  188MPD1    H5 2869   1.338   2.915  10.431 -0.6994  1.0238  0.8895
  188MPD1    N1 2870   1.003   2.790  10.889 -0.1939  0.3431 -0.4719
  188MPD1    H6 2871   0.949   2.855  10.944 -1.3985  0.4439 -1.7631
  188MPD1    H7 2872   1.075   2.754  10.952 -0.5855 -0.3280 -0.4028
  189MPD1     C 2873   3.025   3.095   0.189 -0.3263 -0.4986 -0.1014
  189MPD1    C1 2874   2.905   3.053   0.240  1.0622  0.5532 -0.5289
  189MPD1    C2 2875   2.803   3.152   0.281 -0.2055  0.1092 -0.1345
  189MPD1    C3 2876   2.819   3.281   0.242 -0.1826  0.0939  0.0645
  189MPD1    C4 2877   2.938   3.320   0.174  0.1075 -0.0086 -0.1873
  189MPD1    C5 2878   3.035   3.224   0.152 -0.0490  0.4271 -0.4630
  189MPD1     H 2879   2.711   3.108   0.318 -0.0258 -2.2643 -2.5028
  189MPD1    H1 2880   2.956   3.419   0.133  0.9842  0.2530  0.8058
  189MPD1    H2 2881   3.089   3.014   0.157  0.1398 -0.3195  0.3826
  189MPD1    H3 2882   3.124   3.248   0.096 -0.6175 -0.0809 -1.5797
  189MPD1     N 2883   2.713   3.369   0.272 -0.0114 -0.5292 -0.2382
  189MPD1    H5 2884   2.641   3.336   0.335  0.1282 -0.7701 -0.2037
  189MPD1    N1 2885   2.891   2.908   0.252 -0.2357  0.6310 -0.2518
  189MPD1    H6 2886   2.952   2.876   0.177 -1.8148  0.7030 -1.5558
  189MPD1    H7 2887   2.794   2.883   0.235 -0.7380  1.9043  0.6690
  190MPD1     C 2888   1.255   1.899  15.433  0.4530 -0.1211  0.0621
  190MPD1    C1 2889   1.303   1.900  15.565 -0.0393 -0.1435 -0.0365
  190MPD1    C2 2890   1.441   1.916  15.586 -0.4504  0.0755 -0.6080
  190MPD1    C3 2891   1.525   1.962  15.487 -0.1814 -0.3604 -0.4761
  190MPD1    C4 2892   1.475   1.967  15.359 -0.0734 -0.7242 -0.0285
  190MPD1    C5 2893   1.343   1.941  15.334  0.1636 -0.2543 -0.6318
  190MPD1     H 2894   1.468   1.895  15.689  0.9070  0.5297 -0.8752
  190MPD1    H1 2895   1.522   2.016  15.274 -0.6912  0.0051  0.0557
  190MPD1    H2 2896   1.155   1.872  15.403 -0.6098  2.4063  1.3567
  190MPD1    H3 2897   1.303   1.945  15.233 -2.0168 -0.7269  0.2141
  190MPD1     N 2898   1.660   1.981  15.526 -0.3228 -0.1929 -0.2576
  190MPD1    H5 2899   1.674   1.962  15.625  1.4708  0.1274 -0.4504
  190MPD1    N1 2900   1.220   1.857  15.672 -0.2536 -0.1404  0.7125
  190MPD1    H6 2901   1.247   1.882  15.767  1.0991 -1.7929  0.7808
  190MPD1    H7 2902   1.122   1.877  15.653 -0.1814  0.4094  0.9382
  191MPD1     C 2903   1.075   4.364  13.009  0.5296 -0.2567 -0.2514
  191MPD1    C1 2904   1.145   4.439  12.913  0.0203  0.0209 -0.0019
  191MPD1    C2 2905   1.072   4.517  12.827 -0.1670  0.3072 -0.1057
  191MPD1    C3 2906   0.937   4.514  12.838  0.0151  0.0903 -0.5914
  191MPD1    C4 2907   0.869   4.431  12.925 -0.2631  0.4539 -0.0982
  191MPD1    C5 2908   0.945   4.362  13.012  1.1024 -0.2996 -0.2819
  191MPD1     H 2909   1.114   4.564  12.739  0.4295  1.2128  0.6606
  191MPD1    H1 2910   0.760   4.431  12.928 -0.2411 -0.5560  0.9549
  191MPD1    H2 2911   1.122   4.300  13.083  1.2977  2.2029  1.3937
  191MPD1    H3 2912   0.886   4.302  13.079  0.7554 -0.9620 -1.1749
  191MPD1     N 2913   0.858   4.600  12.751 -0.1638 -0.2300 -0.0451
  191MPD1    H5 2914   0.912   4.663  12.693 -0.8477 -0.4755 -0.9421
  191MPD1    N1 2915   1.284   4.450  12.920 -0.1362 -0.4513 -0.4973
  191MPD1    H6 2916   1.334   4.373  12.964 -2.1528 -2.0669 -1.0298
  191MPD1    H7 2917   1.318   4.451  12.824 -1.5139 -2.2912 -1.0247
  192MPD1     C 2918   4.665   0.331  12.323  0.1052 -0.5590 -1.0302
  192MPD1    C1 2919   4.670   0.228  12.408  0.1630 -0.3085  0.0326
  192MPD1    C2 2920   0.072   0.177  12.441  1.1554 -0.5166 -0.2675
  192MPD1    C3 2921   0.192   0.237  12.400  0.9372  0.2541  1.2842
  192MPD1    C4 2922   0.180   0.356  12.326 -0.5100  0.8888 -0.1485
  192MPD1    C5 2923   0.058   0.398  12.286 -0.9256 -0.0464  0.1166
  192MPD1     H 2924   0.080   0.078  12.485  1.5290 -1.3732 -2.2468
  192MPD1    H1 2925   0.268   0.413  12.298  0.7556 -1.2471 -0.4846
  192MPD1    H2 2926   4.574   0.379  12.290 -0.5142 -1.7132 -0.9745
  192MPD1    H3 2927   0.058   0.483  12.219 -0.3143 -0.3490 -0.2633
  192MPD1     N 2928   0.323   0.190  12.434 -0.0454  0.3940  0.4116
  192MPD1    H5 2929   0.388   0.267  12.419 -0.1766  0.3779 -0.2681
  192MPD1    N1 2930   4.549   0.156  12.441  0.1216  0.3143 -0.1902
  192MPD1    H6 2931   4.465   0.213  12.438 -0.8813 -1.1802 -0.4485
  192MPD1    H7 2932   4.556   0.089  12.517 -1.8009 -0.9488 -1.1166
  193MPD1     C 2933   0.151   4.328  16.537 -0.1627 -0.5175 -0.3638
  193MPD1    C1 2934   0.218   4.319  16.415  0.4912  0.1526 -0.7717
  193MPD1    C2 2935   0.352   4.356  16.400  0.3086 -0.2041 -0.3530
  193MPD1    C3 2936   0.408   4.424  16.508 -1.0434  0.6316 -0.5845
  193MPD1    C4 2937   0.340   4.434  16.629 -0.4008 -0.0106 -0.1283
  193MPD1    C5 2938   0.213   4.380  16.645  1.2410  0.8540 -0.0975
  193MPD1     H 2939   0.401   4.332  16.306 -0.4006 -0.9263 -0.5437
  193MPD1    H1 2940   0.385   4.483  16.714 -0.5198 -0.7589  0.3752
  193MPD1    H2 2941   0.049   4.294  16.554 -1.3589  2.5966 -1.4202
  193MPD1    H3 2942   0.158   4.383  16.738 -1.1485 -0.9813 -1.4675
  193MPD1     N 2943   0.539   4.474  16.509  0.5622  0.4282  0.2695
  193MPD1    H5 2944   0.567   4.538  16.583  2.2161 -0.0686  0.0540
  193MPD1    N1 2945   0.159   4.253  16.305  0.2411 -0.2916  0.1507
  193MPD1    H6 2946   0.185   4.293  16.215 -1.0359  0.3775  0.0710
  193MPD1    H7 2947   0.058   4.264  16.316  0.2353 -0.1233 -0.0553
  194MPD1     C 2948   3.017   1.802  17.352  0.8647  0.1915 -0.2863
  194MPD1    C1 2949   3.022   1.751  17.224  0.0329 -0.4053  0.5733
  194MPD1    C2 2950   3.142   1.697  17.182 -0.0442 -0.3972  0.1946
  194MPD1    C3 2951   3.261   1.704  17.253 -0.2944  0.3617 -0.4576
  194MPD1    C4 2952   3.255   1.764  17.374 -0.1617  0.2702 -0.1180
  194MPD1    C5 2953   3.139   1.809  17.421 -0.7547 -0.8531  0.0154
  194MPD1     H 2954   3.132   1.632  17.096 -0.7886 -1.9143  1.4389
  194MPD1    H1 2955   3.343   1.751  17.436 -0.6516  1.2135  0.7871
  194MPD1    H2 2956   2.928   1.829  17.406 -0.3914 -1.4358 -1.5649
  194MPD1    H3 2957   3.136   1.847  17.523 -4.1761  2.6041 -1.3500
  194MPD1     N 2958   3.380   1.634  17.219  0.2768  0.3588 -0.5985
  194MPD1    H5 2959   3.449   1.622  17.293  0.1286  1.7757 -0.2179
  194MPD1    N1 2960   2.906   1.726  17.153 -0.4213 -0.6287  0.2387
  194MPD1    H6 2961   2.928   1.730  17.054  1.3037  0.1197  0.6443
  194MPD1    H7 2962   2.836   1.800  17.162 -1.0187 -1.3022  1.1895
  195MPD1     C 2963   2.038   2.463   1.086  0.6203 -0.0608 -0.0471
  195MPD1    C1 2964   2.076   2.347   1.029 -0.7730  1.7156  0.2884
  195MPD1    C2 2965   2.006   2.295   0.921 -0.7790  0.1445  0.1065
  195MPD1    C3 2966   1.884   2.353   0.898 -0.1569 -0.1894 -0.5102
  195MPD1    C4 2967   1.841   2.473   0.959  0.0222  0.1623  0.6112
  195MPD1    C5 2968   1.919   2.524   1.060  0.5980  0.5793  1.1481
  195MPD1     H 2969   2.036   2.204   0.871 -2.3416 -0.7005  0.7103
  195MPD1    H1 2970   1.745   2.523   0.951 -0.3401 -0.5161  0.6739
  195MPD1    H2 2971   2.095   2.512   1.164 -0.2970 -1.5788  1.5730
  195MPD1    H3 2972   1.896   2.617   1.112  0.5886  0.4887  1.3045
  195MPD1     N 2973   1.799   2.308   0.791  0.4106 -0.7023  0.2866
  195MPD1    H5 2974   1.717   2.366   0.776  0.4896 -0.9038 -0.9471
  195MPD1    N1 2975   2.204   2.303   1.066  0.3013  0.2319 -0.0193
  195MPD1    H6 2976   2.212   2.201   1.065 -1.0703  0.1157  0.5514
  195MPD1    H7 2977   2.222   2.340   1.159  2.0739 -1.4149  0.2828
  196MPD1     C 2978   4.591   2.143   0.348  0.0466  0.5800 -0.6983
  196MPD1    C1 2979   4.638   2.152   0.477  0.1223  0.4528 -0.0822
  196MPD1    C2 2980   4.723   2.261   0.510 -0.1285  0.3174 -0.0196
  196MPD1    C3 2981   0.036   2.351   0.413  0.3183 -0.0610 -0.0075
  196MPD1    C4 2982   4.717   2.331   0.286  0.3185  0.5678 -0.6352
  196MPD1    C5 2983   4.630   2.228   0.255 -0.2904  0.8176 -0.5273
  196MPD1     H 2984   0.037   2.276   0.611 -0.5492 -0.9124  0.3204
  196MPD1    H1 2985   0.027   2.388   0.200  1.5907  0.2259 -0.3513
  196MPD1    H2 2986   4.532   2.060   0.309 -1.2622  1.0547  0.2585
  196MPD1    H3 2987   4.592   2.199   0.158  0.8346  0.7325 -0.9428
  196MPD1     N 2988   0.115   2.470   0.429 -0.4640  0.2294 -0.4459
  196MPD1    H5 2989   0.139   2.527   0.348  0.4448 -0.7312 -0.8563
  196MPD1    N1 2990   4.621   2.046   0.562  0.1074 -0.2819 -0.1134
  196MPD1    H6 2991   4.624   2.065   0.662  1.1449 -1.1775  0.0298
  196MPD1    H7 2992   4.537   1.992   0.540 -0.7387  0.8174  0.4215
  197MPD1     C 2993   3.941   4.388  17.238  0.3113  0.4216 -0.3587
  197MPD1    C1 2994   4.045   4.440  17.318 -0.3182 -0.6111  0.2331
  197MPD1    C2 2995   4.149   4.495  17.252 -0.7273  0.0130  0.1019
  197MPD1    C3 2996   4.142   4.524  17.116  0.3537  0.1051  0.0024
  197MPD1    C4 2997   4.038   4.474  17.041 -0.4093 -0.1110  0.3638
  197MPD1    C5 2998   3.936   4.400  17.102 -0.8554 -0.1507  0.2998
  197MPD1     H 2999   4.242   4.510  17.307 -0.4833 -2.4419  0.3455
  197MPD1    H1 3000   4.024   4.488  16.935  0.1862  1.7124  0.5409
  197MPD1    H2 3001   3.859   4.333  17.283  0.2132  1.0626  0.2295
  197MPD1    H3 3002   3.852   4.365  17.043  0.0692  0.1759 -1.2232
  197MPD1     N 3003   4.237   4.603  17.054  0.3118  0.7975  0.4738
  197MPD1    H5 3004   4.227   4.621  16.954  0.7108  2.7968  0.8107
  197MPD1    N1 3005   4.051   4.430  17.460 -0.5955 -0.3306  0.5588
  197MPD1    H6 3006   3.955   4.440  17.494 -0.8944 -1.3631  0.0192
  197MPD1    H7 3007   4.107   4.509  17.492 -0.8845 -0.1589  0.6452
  198MPD1     C 3008   1.656   4.387  15.784  0.0499  0.1913  0.3531
  198MPD1    C1 3009   1.700   4.320  15.668  0.7097 -0.2208 -0.5546
  198MPD1    C2 3010   1.750   4.196  15.678  0.6773 -0.3139 -0.0996
  198MPD1    C3 3011   1.729   4.120  15.793 -0.8040 -0.6318 -0.2999
  198MPD1    C4 3012   1.673   4.180  15.904 -0.0161  0.0361 -0.3978
  198MPD1    C5 3013   1.632   4.312  15.901  0.3613  0.2376 -0.6734
  198MPD1     H 3014   1.787   4.148  15.588  0.1061 -0.3283 -0.3257
  198MPD1    H1 3015   1.650   4.124  15.994 -2.6221 -0.1773 -1.1992
  198MPD1    H2 3016   1.617   4.488  15.777 -1.6980 -0.5407 -0.5529
  198MPD1    H3 3017   1.590   4.356  15.990 -0.4496  0.7874 -1.3340
  198MPD1     N 3018   1.768   3.986  15.778 -0.5426  0.3829  0.3735
  198MPD1    H5 3019   1.810   3.944  15.695 -1.8562  1.7860 -0.9968
  198MPD1    N1 3020   1.704   4.385  15.543  0.6358 -0.6224  0.3509
  198MPD1    H6 3021   1.623   4.443  15.522 -0.3276 -2.4795 -0.9868
  198MPD1    H7 3022   1.743   4.330  15.467  1.1607 -0.5969  0.6022
  199MPD1     C 3023   3.231   0.028  10.775 -0.0586 -0.1365  0.3311
  199MPD1    C1 3024   3.129   4.693  10.696 -1.0317 -0.2025 -0.2192
  199MPD1    C2 3025   3.116   4.715  10.562  0.0119  0.7044  1.6225
  199MPD1    C3 3026   3.208   0.076  10.503  0.4496 -0.5876 -0.0347
  199MPD1    C4 3027   3.305   0.145  10.582 -0.0482  0.3866 -0.6881
  199MPD1    C5 3028   3.311   0.121  10.717  0.3685  0.1716 -0.3832
  199MPD1     H 3029   3.043   4.667  10.499  1.4539  0.3795  0.1989
  199MPD1    H1 3030   3.377   0.213  10.538  0.7873  0.3557  0.6685
  199MPD1    H2 3031   3.236   0.021  10.883 -0.2287 -5.3085 -0.0068
  199MPD1    H3 3032   3.389   0.169  10.775  0.0288 -0.3394  0.4944
  199MPD1     N 3033   3.205   0.107  10.368  0.3118 -0.0423 -0.2978
  199MPD1    H5 3034   3.272   0.178  10.342  1.8353 -1.3658 -0.0394
  199MPD1    N1 3035   3.054   4.587  10.746  0.0631  0.5316  0.0271
  199MPD1    H6 3036   2.975   4.559  10.688 -0.1485 -0.1235  0.6287
  199MPD1    H7 3037   3.013   4.608  10.837  0.8194  1.9244  0.0353
  200MPD1     C 3038   2.111   4.429  14.677  0.3466 -0.2798 -0.1779
  200MPD1    C1 3039   2.168   4.306  14.678 -0.1018 -0.0630 -0.4491
  200MPD1    C2 3040   2.306   4.306  14.651  0.5448  0.1467  0.5483
  200MPD1    C3 3041   2.379   4.420  14.625  0.2876 -0.9171 -0.4850
  200MPD1    C4 3042   2.310   4.539  14.623 -0.2191 -0.0729 -1.4532
  200MPD1    C5 3043   2.176   4.542  14.653  0.0711 -0.8425 -0.3614
  200MPD1     H 3044   2.357   4.211  14.646  0.7149  0.3370 -1.3264
  200MPD1    H1 3045   2.349   4.632  14.585  2.0786 -0.3804  0.1799
  200MPD1    H2 3046   2.004   4.437  14.696  0.0754 -1.0201 -1.3665
  200MPD1    H3 3047   2.127   4.639  14.654 -1.1786 -1.5226  2.8942
  200MPD1     N 3048   2.516   4.408  14.600 -0.3917 -0.2641  0.1107
  200MPD1    H5 3049   2.551   4.315  14.582 -0.4294 -0.1566 -0.5467
  200MPD1    N1 3050   2.094   4.196  14.727  0.5826  0.0745  0.1286
  200MPD1    H6 3051   1.996   4.204  14.699  0.6780  1.6853  0.2375
  200MPD1    H7 3052   2.131   4.111  14.686 -1.0102  1.0934 -3.4047
  201MPD1     C 3053   4.049   3.686  13.147  0.1633 -0.0433 -0.4360
  201MPD1    C1 3054   4.131   3.693  13.264 -1.3208 -0.8415  0.3080
  201MPD1    C2 3055   4.254   3.624  13.267  0.8545  0.5504 -0.7043
  201MPD1    C3 3056   4.294   3.541  13.164  0.1892  0.6895  0.0760
  201MPD1    C4 3057   4.206   3.529  13.057  0.8536  0.1485 -0.0964
  201MPD1    C5 3058   4.086   3.594  13.054  0.3330  0.0041  0.0279
  201MPD1     H 3059   4.310   3.627  13.360 -1.0322 -2.5481  0.5591
  201MPD1    H1 3060   4.245   3.468  12.977  0.0013 -0.4421 -0.0623
  201MPD1    H2 3061   3.967   3.755  13.131 -0.2712 -0.2325  0.9698
  201MPD1    H3 3062   4.031   3.590  12.961 -1.0930  0.5791  0.8529
  201MPD1     N 3063   4.425   3.487  13.173 -0.5998 -0.0309 -0.0963
  201MPD1    H5 3064   4.487   3.526  13.243 -2.1050 -0.9567  1.7551
  201MPD1    N1 3065   4.102   3.792  13.365  0.2088 -0.3806 -0.4157
  201MPD1    H6 3066   4.004   3.785  13.392  0.7432  1.8254  2.1255
  201MPD1    H7 3067   4.158   3.781  13.449 -1.0809 -0.2085  0.4724
  202MPD1     C 3068   0.966   3.783   9.643  0.1983  0.4381  0.5900
  202MPD1    C1 3069   0.846   3.849   9.681  0.3743  0.6041  0.1332
  202MPD1    C2 3070   0.754   3.761   9.734  0.6964  0.2692  0.2943
  202MPD1    C3 3071   0.791   3.630   9.763  0.9408 -0.3274  0.6144
  202MPD1    C4 3072   0.915   3.576   9.740  0.5662  0.3544 -0.3039
  202MPD1    C5 3073   0.999   3.652   9.676 -0.6564  0.2831 -0.2279
  202MPD1     H 3074   0.653   3.798   9.748 -0.1070 -1.2185 -1.5492
  202MPD1    H1 3075   0.940   3.472   9.757  0.4850  0.0756 -1.8865
  202MPD1    H2 3076   1.050   3.838   9.603  0.1869  0.3588  0.4552
  202MPD1    H3 3077   1.094   3.605   9.649  0.7619  3.1148 -0.1663
  202MPD1     N 3078   0.701   3.544   9.820 -0.0829  0.2891  0.0173
  202MPD1    H5 3079   0.740   3.450   9.828  1.0000  0.6379 -1.0829
  202MPD1    N1 3080   0.799   3.959   9.609  0.5040 -0.3824 -0.6139
  202MPD1    H6 3081   0.718   4.004   9.650 -0.4797 -1.7356 -1.0687
  202MPD1    H7 3082   0.864   4.035   9.589  1.3975 -0.2123  3.0048
  203MPD1     C 3083   3.653   4.596  12.121  0.2364  0.7482  0.5464
  203MPD1    C1 3084   3.651   4.511  12.016 -0.5597  0.2539  0.6375
  203MPD1    C2 3085   3.667   4.378  12.043 -0.2338 -0.1367 -0.0004
  203MPD1    C3 3086   3.688   4.324  12.169 -0.1094 -0.0137 -0.8305
  203MPD1    C4 3087   3.707   4.409  12.273 -0.0995 -0.4280  0.1549
  203MPD1    C5 3088   3.688   4.543  12.246 -0.2197  0.5440  0.3202
  203MPD1     H 3089   3.655   4.311  11.958 -0.4049 -0.6317  0.4142
  203MPD1    H1 3090   3.751   4.381  12.368  1.9543 -0.0824 -0.6917
  203MPD1    H2 3091   3.652   4.704  12.108  0.5261  0.8249  1.1716
  203MPD1    H3 3092   3.686   4.615  12.328  3.1293  0.2553  0.6746
  203MPD1     N 3093   3.712   4.189  12.180  0.4803 -0.2432  0.3508
  203MPD1    H5 3094   3.700   4.125  12.103  0.3884  2.0825 -1.5436
  203MPD1    N1 3095   3.617   4.565  11.895  0.3200 -0.1341  0.5432
  203MPD1    H6 3096   3.635   4.499  11.819 -0.8199 -0.8766  0.9194
  203MPD1    H7 3097   3.657   4.657  11.881 -1.0139  0.3622  0.0908
  204MPD1     C 3098   3.695   0.356   0.055  0.1670 -0.2917 -0.1566
  204MPD1    C1 3099   3.734   0.346  17.619  0.4147  0.7852  0.1164
  204MPD1    C2 3100   3.662   0.259  17.545 -0.0695  0.2146  0.2877
  204MPD1    C3 3101   3.564   0.178  17.598  0.6542  0.1114 -0.4114
  204MPD1    C4 3102   3.539   0.183   0.037  0.9931  0.4258 -0.1288
  204MPD1    C5 3103   3.611   0.268   0.113  0.9510 -0.7077  0.0218
  204MPD1     H 3104   3.667   0.263  17.436 -0.5309  3.2322  0.3655
  204MPD1    H1 3105   3.458   0.130   0.087 -0.7119  1.1586 -2.0966
  204MPD1    H2 3106   3.738   0.434   0.116 -1.4062  1.8113 -1.7237
  204MPD1    H3 3107   3.601   0.278   0.220 -2.2675 -1.0439 -0.2278
  204MPD1     N 3108   3.484   0.102  17.516 -0.5267  0.2360 -0.1444
  204MPD1    H5 3109   3.484   0.115  17.415  0.0340 -1.8687 -0.4244
  204MPD1    N1 3110   3.796   0.462  17.570  0.3083 -0.0440 -0.3949
  204MPD1    H6 3111   3.875   0.489  17.628 -0.8982  0.5739  0.9561
  204MPD1    H7 3112   3.844   0.436  17.484  2.9068 -0.3545  1.1700
  205MPD1     C 3113   1.571   4.207   0.162 -0.1368 -0.5559  0.5001
  205MPD1    C1 3114   1.630   4.285   0.061  0.0158 -0.1379 -0.3764
  205MPD1    C2 3115   1.755   4.244   0.010 -0.1286  0.4860  0.5828
  205MPD1    C3 3116   1.820   4.137   0.065  0.1306  0.3262  0.5660
  205MPD1    C4 3117   1.760   4.056   0.159  0.7876  0.2346 -0.6125
  205MPD1    C5 3118   1.640   4.096   0.210  0.4421 -0.0840  0.3851
  205MPD1     H 3119   1.787   4.306  17.626 -1.1211 -0.8226 -0.7683
  205MPD1    H1 3120   1.810   3.962   0.181  0.1678  0.0059 -0.1760
  205MPD1    H2 3121   1.466   4.220   0.183  0.8086  3.2547  2.8780
  205MPD1    H3 3122   1.588   4.027   0.276 -0.3752 -2.0495 -2.3555
  205MPD1     N 3123   1.952   4.107   0.025  0.1989 -0.6032 -0.1616
  205MPD1    H5 3124   1.998   4.025   0.063  0.9233 -0.2574 -0.2830
  205MPD1    N1 3125   1.557   4.386  17.695 -0.4959  0.3838  0.0692
  205MPD1    H6 3126   1.486   4.430   0.055 -0.1306 -0.5155  1.1865
  205MPD1    H7 3127   1.593   4.444  17.620  0.1728 -2.9521 -2.1739
  206MPD1     C 3128   3.269   2.237  16.762  0.0893 -0.3739 -0.0521
  206MPD1    C1 3129   3.394   2.184  16.722  1.0037 -0.2578 -0.0082
  206MPD1    C2 3130   3.406   2.101  16.612 -0.6665  0.1152 -0.3657
  206MPD1    C3 3131   3.287   2.077  16.539  0.1299 -0.0887 -0.1037
  206MPD1    C4 3132   3.169   2.119  16.583 -0.3816  0.6647  1.0310
  206MPD1    C5 3133   3.157   2.213  16.683 -0.1630  0.4822  0.3112
  206MPD1     H 3134   3.498   2.046  16.590 -1.9194 -1.5768 -1.4313
  206MPD1    H1 3135   3.075   2.103  16.530  0.4266 -0.8784  0.0674
  206MPD1    H2 3136   3.263   2.298  16.851  0.0355  1.6933 -1.4779
  206MPD1    H3 3137   3.062   2.254  16.716  0.2307  2.8279 -1.5284
  206MPD1     N 3138   3.283   2.019  16.416 -1.1819 -0.8618 -0.4011
  206MPD1    H5 3139   3.188   1.998  16.386 -1.6733  1.0807 -0.1951
  206MPD1    N1 3140   3.499   2.213  16.809 -0.4867  0.1393 -0.3112
  206MPD1    H6 3141   3.493   2.296  16.868 -1.0951  0.0487 -0.2482
  206MPD1    H7 3142   3.591   2.210  16.764 -1.0944 -0.9110 -1.4863
  207MPD1     C 3143   1.744   0.938   9.831  0.6635  0.8265 -0.0915
  207MPD1    C1 3144   1.709   0.806   9.819  0.2327  0.4529  0.5787
  207MPD1    C2 3145   1.772   0.713   9.901  0.3292 -0.2129  0.0333
  207MPD1    C3 3146   1.853   0.759  10.005 -0.1533  0.0871  0.0924
  207MPD1    C4 3147   1.886   0.892  10.013 -0.1174 -0.3051  0.1518
  207MPD1    C5 3148   1.833   0.979   9.921 -0.1749  0.0367 -0.0256
  207MPD1     H 3149   1.753   0.606   9.894  1.3386 -0.4932  1.4987
  207MPD1    H1 3150   1.956   0.927  10.088  0.8937 -0.7381 -0.5925
  207MPD1    H2 3151   1.718   1.009   9.753 -2.0507  0.6719  0.6758
  207MPD1    H3 3152   1.864   1.083   9.928 -3.3478  1.1567 -2.5359
  207MPD1     N 3153   1.922   0.663  10.085 -0.1909 -0.2236  0.2328
  207MPD1    H5 3154   1.986   0.708  10.150  0.0276 -0.7150  0.3505
  207MPD1    N1 3155   1.628   0.770   9.708 -0.6048  0.3459 -0.2218
  207MPD1    H6 3156   1.547   0.831   9.698 -1.2039 -0.6790 -1.6593
  207MPD1    H7 3157   1.594   0.675   9.724  1.5065 -0.1752  1.1908
  208MPD1     C 3158   2.909   3.821  16.743 -0.2022 -0.4421  0.0334
  208MPD1    C1 3159   2.891   3.884  16.866 -0.2558  0.7048  0.2695
  208MPD1    C2 3160   2.950   3.833  16.981  0.0858  0.1284 -0.4676
  208MPD1    C3 3161   3.042   3.726  16.983  0.6309 -0.0007  0.0884
  208MPD1    C4 3162   3.071   3.677  16.856  0.2945  1.0490  0.0726
  208MPD1    C5 3163   3.005   3.726  16.741  0.5388 -0.0317 -1.0471
  208MPD1     H 3164   2.921   3.879  17.074 -0.8420 -0.9513 -0.2153
  208MPD1    H1 3165   3.136   3.591  16.842  0.3989  1.0920  0.2851
  208MPD1    H2 3166   2.873   3.850  16.645 -2.3849 -0.2292  0.8955
  208MPD1    H3 3167   3.041   3.689  16.645 -1.7950  0.4865 -2.1298
  208MPD1     N 3168   3.082   3.660  17.100 -0.2731  0.0782  0.1358
  208MPD1    H5 3169   3.036   3.685  17.188  1.4719  1.1499  0.7398
  208MPD1    N1 3170   2.767   3.957  16.882  0.4480  0.7790 -0.2735
  208MPD1    H6 3171   2.749   4.017  16.962 -1.7114  0.2201 -0.3329
  208MPD1    H7 3172   2.729   3.990  16.793 -1.5259 -1.0074 -0.0844
  209MPD1     C 3173   1.641   3.584  11.016  0.1363  0.1763  0.1031
  209MPD1    C1 3174   1.711   3.552  10.902 -0.8446 -0.7294 -0.0976
  209MPD1    C2 3175   1.792   3.651  10.845 -1.5021  0.1753  0.4174
  209MPD1    C3 3176   1.786   3.782  10.884  0.1267 -0.8295  0.0949
  209MPD1    C4 3177   1.712   3.811  10.999  0.5505  0.0549  1.1632
  209MPD1    C5 3178   1.639   3.711  11.064  0.2698 -0.1748 -0.3791
  209MPD1     H 3179   1.863   3.630  10.766 -1.0822  1.1570  0.5307
  209MPD1    H1 3180   1.705   3.914  11.035  2.7221  0.9095 -0.8448
  209MPD1    H2 3181   1.588   3.512  11.078  2.3712 -1.3011  0.3415
  209MPD1    H3 3182   1.593   3.731  11.160 -0.6939 -0.5826 -0.7565
  209MPD1     N 3183   1.855   3.871  10.805 -0.4457 -0.0227  1.1100
  209MPD1    H5 3184   1.911   3.835  10.728 -0.9528 -1.5141  1.4456
  209MPD1    N1 3185   1.721   3.418  10.859 -0.1827 -0.3197  0.6535
  209MPD1    H6 3186   1.754   3.415  10.763 -0.0376  3.9891  0.5647
  209MPD1    H7 3187   1.634   3.366  10.869 -0.3773 -0.2277 -0.4904
  210MPD1     C 3188   2.757   3.970  10.394  0.5635 -0.1334 -0.0203
  210MPD1    C1 3189   2.693   3.901  10.493 -0.1199 -0.2635 -0.1057
  210MPD1    C2 3190   2.563   3.936  10.524 -1.0093 -0.4090 -0.5282
  210MPD1    C3 3191   2.505   4.051  10.471  0.5927 -0.6164 -0.5087
  210MPD1    C4 3192   2.583   4.127  10.381  0.3686 -0.0901  0.4134
  210MPD1    C5 3193   2.702   4.080  10.341 -0.0758 -0.1496 -0.0089
  210MPD1     H 3194   2.500   3.860  10.568 -2.1363  0.9475  0.1778
  210MPD1    H1 3195   2.542   4.215  10.332  1.0184 -0.3480 -0.5780
  210MPD1    H2 3196   2.858   3.939  10.367  0.0141 -1.8428 -0.1394
  210MPD1    H3 3197   2.762   4.138  10.272 -1.5067  0.0783 -1.0739
  210MPD1     N 3198   2.372   4.093  10.498  0.2227  0.9146  0.0942
  210MPD1    H5 3199   2.323   4.163  10.443 -0.6313 -0.8654 -1.3870
  210MPD1    N1 3200   2.740   3.783  10.544 -0.3211 -0.6430 -0.4948
  210MPD1    H6 3201   2.699   3.763  10.635 -0.9746  1.1485 -0.3876
  210MPD1    H7 3202   2.838   3.788  10.570 -0.0837 -2.2323 -1.0611
  211MPD1     C 3203   3.179   2.947  17.319 -0.5708 -0.0093 -0.3770
  211MPD1    C1 3204   3.084   3.024  17.263  0.4768  0.1536  0.0925
  211MPD1    C2 3205   3.116   3.105  17.156  0.0810 -0.4444  0.8365
  211MPD1    C3 3206   3.249   3.121  17.117  0.3888  0.4605  0.8858
  211MPD1    C4 3207   3.344   3.045  17.179  0.0483  0.3405  0.4770
  211MPD1    C5 3208   3.311   2.964  17.281  0.5691 -0.2390 -0.0225
  211MPD1     H 3209   3.041   3.148  17.091 -0.6541  0.1748  2.1008
  211MPD1    H1 3210   3.447   3.036  17.144 -0.4944  1.2150 -1.3413
  211MPD1    H2 3211   3.154   2.866  17.386 -1.8762  1.4876  0.9539
  211MPD1    H3 3212   3.392   2.901  17.317 -1.5084 -0.8665  3.6049
  211MPD1     N 3213   3.291   3.209  17.016  0.0058 -0.4145 -0.1575
  211MPD1    H5 3214   3.228   3.253  16.950 -1.0876 -2.0968 -0.2401
  211MPD1    N1 3215   2.944   3.009  17.287  0.5035 -0.3485 -0.0235
  211MPD1    H6 3216   2.928   2.984  17.385  0.1032 -2.4375 -0.6296
  211MPD1    H7 3217   2.901   3.098  17.264 -1.9409 -1.6078 -0.3375
  212MPD1     C 3218   3.212   1.495  16.283  0.3275  0.8760  0.5738
  212MPD1    C1 3219   3.187   1.543  16.410 -0.2829 -0.3133 -0.1009
  212MPD1    C2 3220   3.091   1.473  16.470  0.7027  0.2181  0.2825
  212MPD1    C3 3221   3.018   1.369  16.416  0.0045 -0.0061  0.3867
  212MPD1    C4 3222   3.049   1.326  16.288  0.4893 -0.0922 -1.0348
  212MPD1    C5 3223   3.151   1.387  16.233  0.7109  0.3441  0.4673
  212MPD1     H 3224   3.065   1.495  16.573  3.0386  0.5574  0.8029
  212MPD1    H1 3225   3.006   1.233  16.251 -2.0741  0.8852 -0.5075
  212MPD1    H2 3226   3.283   1.553  16.226 -0.8422  0.5911 -1.1954
  212MPD1    H3 3227   3.179   1.362  16.131  1.3324  1.3973  0.3758
  212MPD1     N 3228   2.924   1.290  16.487  0.0275 -0.1316  0.6359
  212MPD1    H5 3229   2.897   1.207  16.435 -1.2281  0.2076  0.7539
  212MPD1    N1 3230   3.236   1.659  16.453  0.0403  0.0956  0.1555
  212MPD1    H6 3231   3.246   1.656  16.554  0.4810 -1.1963  0.0769
  212MPD1    H7 3232   3.324   1.670  16.403 -0.2290  0.0908 -0.3270
  213MPD1     C 3233   1.704   3.206  15.684  0.1248  0.4070 -0.3340
  213MPD1    C1 3234   1.594   3.291  15.669 -0.0738 -0.0535 -0.0328
  213MPD1    C2 3235   1.495   3.237  15.590  0.1484  0.1387  0.1300
  213MPD1    C3 3236   1.485   3.095  15.556  0.5988  0.0689  0.2370
  213MPD1    C4 3237   1.580   3.012  15.609  0.2585  0.1994  0.1096
  213MPD1    C5 3238   1.697   3.070  15.664 -0.3572 -0.1566  0.0133
  213MPD1     H 3239   1.420   3.308  15.557  1.1662  1.3934  0.5186
  213MPD1    H1 3240   1.583   2.904  15.600  2.8684  0.2779  0.0252
  213MPD1    H2 3241   1.792   3.241  15.737  0.8169  0.5121 -1.5591
  213MPD1    H3 3242   1.778   3.006  15.699 -1.2974 -1.3846 -0.0393
  213MPD1     N 3243   1.379   3.053  15.473 -0.4124 -0.6235 -0.5888
  213MPD1    H5 3244   1.308   3.123  15.452  1.2614  1.5311  0.9924
  213MPD1    N1 3245   1.605   3.428  15.672 -0.5825 -0.1148  0.0291
  213MPD1    H6 3246   1.654   3.463  15.754  0.2665 -0.9782 -0.1017
  213MPD1    H7 3247   1.513   3.470  15.678 -0.1825  0.8645 -0.4420
  214MPD1     C 3248   0.588   2.388  15.073 -0.2156 -0.6130  0.4020
  214MPD1    C1 3249   0.672   2.375  15.189  0.3809  0.1573  0.8852
  214MPD1    C2 3250   0.773   2.472  15.205  0.4519 -0.6892 -0.1381
  214MPD1    C3 3251   0.803   2.575  15.117  0.4347 -0.0375 -0.2972
  214MPD1    C4 3252   0.729   2.575  14.996  0.1296 -0.0929 -0.7414
  214MPD1    C5 3253   0.625   2.482  14.979  0.5612  0.1798 -0.1518
  214MPD1     H 3254   0.819   2.466  15.303  2.2709 -1.5796 -1.0421
  214MPD1    H1 3255   0.750   2.649  14.919  0.7094  1.0344  0.5026
  214MPD1    H2 3256   0.502   2.322  15.062  0.4113 -1.2062 -0.9915
  214MPD1    H3 3257   0.567   2.487  14.887 -1.0457  1.9730  0.9409
  214MPD1     N 3258   0.888   2.689  15.135  0.1285 -0.0742  0.5613
  214MPD1    H5 3259   0.908   2.742  15.051  2.3127  1.1026  1.8381
  214MPD1    N1 3260   0.633   2.284  15.290  0.0040 -0.3114  0.5360
  214MPD1    H6 3261   0.591   2.205  15.242  0.3717 -0.8676  1.1392
  214MPD1    H7 3262   0.705   2.238  15.344  1.1022 -1.4693 -1.9048
  215MPD1     C 3263   1.073   3.628  10.170 -0.2500 -0.6282 -0.5070
  215MPD1    C1 3264   1.059   3.754  10.122 -0.1639  0.2883  0.4598
  215MPD1    C2 3265   1.099   3.857  10.206 -0.0259 -0.2547 -0.2515
  215MPD1    C3 3266   1.133   3.846  10.336 -0.0641  0.7253 -0.0061
  215MPD1    C4 3267   1.133   3.715  10.386 -0.4003 -0.0920  0.4100
  215MPD1    C5 3268   1.107   3.606  10.306  0.1593  0.2712  0.4265
  215MPD1     H 3269   1.076   3.957  10.173  3.3314  0.0131 -1.7943
  215MPD1    H1 3270   1.153   3.691  10.490 -1.0623  2.7870  1.2019
  215MPD1    H2 3271   1.059   3.540  10.108 -2.0478 -0.1375 -0.7739
  215MPD1    H3 3272   1.114   3.503  10.339  0.5474  0.6152  1.4050
  215MPD1     N 3273   1.153   3.961  10.419  0.3934 -0.6538 -0.0845
  215MPD1    H5 3274   1.139   4.053  10.380 -1.2677 -0.0231  1.9791
  215MPD1    N1 3275   1.018   3.784   9.989 -0.3215 -0.3593  0.9840
  215MPD1    H6 3276   0.954   3.721   9.941 -0.4049  1.1686 -0.8802
  215MPD1    H7 3277   1.002   3.882   9.969 -0.3724 -0.6025 -0.1908
  216MPD1     C 3278   3.269   0.918  16.108 -0.7447  0.0600 -0.2242
  216MPD1    C1 3279   3.273   0.783  16.124 -0.3466  0.2816 -0.3546
  216MPD1    C2 3280   3.224   0.729  16.239 -0.1527  0.6526 -0.1349
  216MPD1    C3 3281   3.172   0.810  16.333 -0.3587 -0.2339 -0.3596
  216MPD1    C4 3282   3.169   0.945  16.326  0.1771 -0.3506  0.2807
  216MPD1    C5 3283   3.216   0.996  16.204 -0.2015 -0.4502  0.5273
  216MPD1     H 3284   3.211   0.622  16.246  1.3912  0.4550 -0.2412
  216MPD1    H1 3285   3.130   1.008  16.404  2.5805  0.9386  0.4451
  216MPD1    H2 3286   3.303   0.971  16.020  0.7491  0.7170  0.7478
  216MPD1    H3 3287   3.210   1.103  16.185 -1.2132 -0.3916  1.1843
  216MPD1     N 3288   3.111   0.744  16.442  0.1680 -0.1120  0.0614
  216MPD1    H5 3289   3.111   0.642  16.440  0.0733 -0.1568  2.1700
  216MPD1    N1 3290   3.308   0.697  16.020  0.5042 -0.2099  0.3239
  216MPD1    H6 3291   3.351   0.608  16.046 -0.3912 -0.6078  0.4385
  216MPD1    H7 3292   3.364   0.735  15.944 -0.3161 -2.0853 -1.2142
  217MPD1     C 3293   4.049   1.698   8.593 -0.1162  1.1179 -0.3760
  217MPD1    C1 3294   3.971   1.810   8.576 -0.3197  0.0193  0.4028
  217MPD1    C2 3295   3.978   1.902   8.684  0.1910 -0.6410  0.0905
  217MPD1    C3 3296   4.039   1.877   8.804 -0.2155 -0.1383 -0.5416
  217MPD1    C4 3297   4.107   1.760   8.823  0.2464  0.9023  0.3313
  217MPD1    C5 3298   4.110   1.675   8.715 -0.1210  0.0844 -0.4997
  217MPD1     H 3299   3.948   2.005   8.668  2.5671  0.4795  3.0400
  217MPD1    H1 3300   4.145   1.735   8.921 -1.1559  0.9707  0.8920
  217MPD1    H2 3301   4.062   1.623   8.516 -2.2932  0.2547  0.1013
  217MPD1    H3 3302   4.159   1.579   8.730 -0.6439  0.0157  0.7925
  217MPD1     N 3303   4.031   1.968   8.918 -0.1301  0.4384  0.1321
  217MPD1    H5 3304   4.069   1.938   9.007  0.8382 -0.2076 -0.4938
  217MPD1    N1 3305   3.917   1.844   8.453  0.0346 -0.0394  0.0374
  217MPD1    H6 3306   3.900   1.763   8.393 -0.2390 -0.4105  0.6144
  217MPD1    H7 3307   3.832   1.901   8.449  1.2768  1.6992 -1.9243
  218MPD1     C 3308   0.097   4.274  12.584  0.4218  0.6656  0.1542
  218MPD1    C1 3309   0.168   4.387  12.611 -0.4111  0.3915  0.1231
  218MPD1    C2 3310   0.295   4.364  12.655  0.6484 -0.3767 -0.1802
  218MPD1    C3 3311   0.354   4.234  12.662  0.1644 -0.2780 -0.7845
  218MPD1    C4 3312   0.279   4.127  12.628 -0.2921  0.1223  1.2121
  218MPD1    C5 3313   0.150   4.154  12.590  0.3668 -0.0896  0.1925
  218MPD1     H 3314   0.345   4.456  12.685 -0.1572  0.3223 -0.9482
  218MPD1    H1 3315   0.318   4.027  12.607  2.2421  0.9781  1.8474
  218MPD1    H2 3316   0.001   4.282  12.533  0.1545 -0.4142  0.4870
  218MPD1    H3 3317   0.092   4.071  12.552  0.1014 -0.2047  0.8500
  218MPD1     N 3318   0.489   4.223  12.688  0.7023  0.2474  0.2802
  218MPD1    H5 3319   0.541   4.309  12.678 -0.4270  1.0295  1.0885
  218MPD1    N1 3320   0.105   4.509  12.638  0.5473 -0.8259 -0.2227
  218MPD1    H6 3321   0.027   4.517  12.572  0.7971  0.2165 -0.4044
  218MPD1    H7 3322   0.171   4.584  12.620  1.3972 -1.1453  1.5932
  219MPD1     C 3323   1.116   4.699  12.331 -0.3824 -0.5998 -0.2030
  219MPD1    C1 3324   1.189   4.626  12.416  0.2743  0.0070 -0.2030
  219MPD1    C2 3325   1.133   4.509  12.460 -0.1349 -0.1688  0.0367
  219MPD1    C3 3326   1.004   4.480  12.443  0.1893  0.3051  0.3262
  219MPD1    C4 3327   0.928   4.558  12.363  0.6319  0.0805 -0.1292
  219MPD1    C5 3328   0.986   4.667  12.296 -0.3651  0.5181  0.2103
  219MPD1     H 3329   1.207   4.447  12.510  0.8244  1.6694  0.8996
  219MPD1    H1 3330   0.825   4.532  12.339  0.9149 -1.0731 -0.0739
  219MPD1    H2 3331   1.162   0.057  12.278  1.4122 -1.4318  0.0444
  219MPD1    H3 3332   0.928   0.002  12.226  0.0073 -0.2765 -0.7613
  219MPD1     N 3333   0.936   4.362  12.503 -0.7807 -0.3435  0.4722
  219MPD1    H5 3334   0.838   4.360  12.478 -0.7387  2.5228  0.0503
  219MPD1    N1 3335   1.324   4.668  12.429  0.1737  0.7538 -0.0404
  219MPD1    H6 3336   1.329   0.044  12.417  0.2328  0.4955 -2.1384
  219MPD1    H7 3337   1.359   4.653  12.523  0.9470 -0.2420 -0.4894
  220MPD1     C 3338   0.224   0.445   9.446  0.3119  0.3103  0.6723
  220MPD1    C1 3339   0.172   0.333   9.497  0.2519  0.4724 -0.4958
  220MPD1    C2 3340   0.251   0.239   9.553 -0.1358  0.0331 -0.3576
  220MPD1    C3 3341   0.389   0.262   9.544 -0.1733  0.1548 -0.5982
  220MPD1    C4 3342   0.439   0.382   9.496  0.2986  0.2751  1.1539
  220MPD1    C5 3343   0.359   0.477   9.438  0.2721 -0.5020  0.1934
  220MPD1     H 3344   0.209   0.150   9.598 -0.2285  0.3941  0.2866
  220MPD1    H1 3345   0.543   0.412   9.498 -0.0717  1.6233  0.6240
  220MPD1    H2 3346   0.153   0.517   9.409  0.2321  0.2737  0.7546
  220MPD1    H3 3347   0.394   0.578   9.415  0.7247 -0.3534  1.5466
  220MPD1     N 3348   0.472   0.160   9.601 -0.0307 -0.5633  0.6153
  220MPD1    H5 3349   0.427   0.073   9.629 -0.1813 -0.6166  0.2090
  220MPD1    N1 3350   0.030   0.323   9.512  0.0478 -0.3339 -0.2842
  220MPD1    H6 3351   4.699   0.360   9.436  1.2463 -0.2521 -1.1323
  220MPD1    H7 3352   0.004   0.225   9.525  1.7293 -0.7462  0.1001
  221MPD1     C 3353   2.617   2.573  16.611 -0.3283  0.2039  0.7673
  221MPD1    C1 3354   2.705   2.598  16.716 -0.2447  0.8888  0.2033
  221MPD1    C2 3355   2.833   2.560  16.689 -0.4487 -0.2339  0.2204
  221MPD1    C3 3356   2.883   2.523  16.564  0.1731 -0.4788  0.6278
  221MPD1    C4 3357   2.795   2.512  16.461 -0.9416 -0.2763 -0.2744
  221MPD1    C5 3358   2.664   2.547  16.484 -0.4518 -0.1124  0.5787
  221MPD1     H 3359   2.907   2.577  16.767 -1.0128  1.8250  0.3019
  221MPD1    H1 3360   2.828   2.489  16.361  0.9321 -2.4333  0.8156
  221MPD1    H2 3361   2.514   2.603  16.630 -0.1818  0.3767  1.2875
  221MPD1    H3 3362   2.604   2.563  16.396 -0.3392  3.0490  1.0661
  221MPD1     N 3363   3.023   2.508  16.531  0.4805 -0.7317 -0.0803
  221MPD1    H5 3364   3.041   2.483  16.434  0.3871  1.4295 -0.6658
  221MPD1    N1 3365   2.672   2.671  16.829  0.1799 -0.4074  0.0308
  221MPD1    H6 3366   2.732   2.637  16.904 -1.0672 -1.7757  0.4087
  221MPD1    H7 3367   2.580   2.648  16.866 -0.4888 -1.2678 -2.1782
  222MPD1     C 3368   3.213   1.333  16.771 -0.0909  0.1820 -0.3843
  222MPD1    C1 3369   3.169   1.200  16.773  0.3661  0.0838 -0.1974
  222MPD1    C2 3370   3.073   1.165  16.868  0.2286  0.3600 -0.2802
  222MPD1    C3 3371   3.018   1.268  16.946 -1.1397  0.1525 -0.2181
  222MPD1    C4 3372   3.047   1.401  16.917 -0.0723 -0.2222  0.6634
  222MPD1    C5 3373   3.140   1.435  16.833  0.1194 -0.0874  0.0183
  222MPD1     H 3374   3.059   1.060  16.892  0.8000  0.4509  0.4580
  222MPD1    H1 3375   2.998   1.484  16.965 -2.4865 -0.4304 -1.4274
  222MPD1    H2 3376   3.303   1.356  16.716  1.0263  3.2128  2.6896
  222MPD1    H3 3377   3.163   1.539  16.811 -2.8932  0.4853 -0.3710
  222MPD1     N 3378   2.921   1.240  17.047  0.1009  0.8487 -0.2019
  222MPD1    H5 3379   2.877   1.318  17.095  2.3394  0.6823  2.1472
  222MPD1    N1 3380   3.236   1.100  16.702  0.2066 -0.5594  0.1240
  222MPD1    H6 3381   3.170   1.034  16.661 -0.2438  0.4537 -0.8118
  222MPD1    H7 3382   3.274   1.148  16.620 -1.0639  0.0325 -0.1360
  223MPD1     C 3383   2.378   0.508  16.986 -0.7397  0.3417 -0.4152
  223MPD1    C1 3384   2.455   0.595  16.910 -0.1688  0.2682  0.4021
  223MPD1    C2 3385   2.512   0.707  16.968  0.1844 -0.4381  0.5251
  223MPD1    C3 3386   2.472   0.743  17.095 -0.5100  0.0654 -0.6602
  223MPD1    C4 3387   2.392   0.663  17.170  0.9465  0.5303 -0.0629
  223MPD1    C5 3388   2.342   0.545  17.109 -0.3919 -0.4141 -0.8282
  223MPD1     H 3389   2.592   0.767  16.927  2.1774 -3.0082  0.6605
  223MPD1    H1 3390   2.377   0.683  17.275 -2.2950 -0.4363 -0.3285
  223MPD1    H2 3391   2.346   0.414  16.943 -1.1021  0.5060 -0.4985
  223MPD1    H3 3392   2.288   0.472  17.168  0.3200 -0.4282 -0.2006
  223MPD1     N 3393   2.533   0.857  17.156 -0.3633 -0.3888 -0.0718
  223MPD1    H5 3394   2.610   0.897  17.103  0.1458 -1.6332 -0.2896
  223MPD1    N1 3395   2.499   0.549  16.785 -0.5071  0.5892 -0.0586
  223MPD1    H6 3396   2.420   0.499  16.744 -2.3732  2.6721  0.9962
  223MPD1    H7 3397   2.524   0.630  16.729 -2.3312  0.6924 -0.7288
  224MPD1     C 3398   3.796   2.531   8.894 -0.2057 -0.7686  0.1447
  224MPD1    C1 3399   3.689   2.593   8.953 -0.1381  0.1814  0.6985
  224MPD1    C2 3400   3.711   2.673   9.063 -0.0294 -0.1533  0.3016
  224MPD1    C3 3401   3.839   2.694   9.115  0.5090  0.3455  0.3302
  224MPD1    C4 3402   3.945   2.619   9.066  0.1754 -0.3071 -0.0317
  224MPD1    C5 3403   3.923   2.536   8.957 -0.4187 -0.6039 -0.5053
  224MPD1     H 3404   3.627   2.718   9.114 -1.0664 -0.9808 -0.6955
  224MPD1    H1 3405   4.047   2.634   9.098  0.2476 -0.8741 -0.0048
  224MPD1    H2 3406   3.788   2.472   8.804 -2.1786  0.6984 -0.6492
  224MPD1    H3 3407   4.001   2.477   8.910 -0.5897 -1.2504  0.0225
  224MPD1     N 3408   3.863   2.782   9.223  0.2327  0.1583 -0.1312
  224MPD1    H5 3409   3.954   2.775   9.267  0.8983 -1.0654 -1.7052
  224MPD1    N1 3410   3.565   2.570   8.890 -0.1896 -0.2495  0.0133
  224MPD1    H6 3411   3.552   2.472   8.865 -2.8982  0.3885 -1.0397
  224MPD1    H7 3412   3.484   2.601   8.943 -0.3483  1.1240 -1.0523
  225MPD1     C 3413   4.571   3.915  12.621 -0.0034 -0.2246  0.1830
  225MPD1    C1 3414   4.522   4.043  12.609 -0.0449  0.4991 -0.4569
  225MPD1    C2 3415   4.525   4.099  12.482  0.5698  0.0267 -0.6967
  225MPD1    C3 3416   4.572   4.030  12.371 -0.1540  0.7916 -0.3865
  225MPD1    C4 3417   4.617   3.902  12.385 -0.1783  0.1766  0.1226
  225MPD1    C5 3418   4.622   3.849  12.515 -0.3470 -0.8215 -0.1654
  225MPD1     H 3419   4.499   4.204  12.478  2.3429  0.5487  1.2759
  225MPD1    H1 3420   4.669   3.853  12.303 -2.1553 -2.7816  0.6506
  225MPD1    H2 3421   4.594   3.868  12.716 -0.0982 -2.8516 -1.0964
  225MPD1    H3 3422   4.661   3.750  12.534 -1.5652 -1.2317  0.1516
  225MPD1     N 3423   4.595   4.092  12.243  0.2202  0.6939 -0.2903
  225MPD1    H5 3424   4.606   4.027  12.167 -0.7750 -1.3789  1.3258
  225MPD1    N1 3425   4.505   4.127  12.726 -0.1834 -0.0889  0.2090
  225MPD1    H6 3426   4.433   4.195  12.706 -1.0499 -1.4574 -1.3258
  225MPD1    H7 3427   4.475   4.074  12.808  1.3869 -1.8113 -0.3062
  226MPD1     C 3428   4.507   1.902   8.802 -0.0549  0.7152  0.4106
  226MPD1    C1 3429   4.615   1.946   8.877  0.0878  0.9496  0.9627
  226MPD1    C2 3430   4.612   2.077   8.912  0.2291 -0.7142 -0.3645
  226MPD1    C3 3431   4.498   2.157   8.897  0.5181 -0.4814 -0.3093
  226MPD1    C4 3432   4.380   2.102   8.846  0.1464 -0.2291  0.2857
  226MPD1    C5 3433   4.393   1.976   8.792 -0.7893  0.3585  0.6802
  226MPD1     H 3434   4.697   2.133   8.949  1.1312 -3.4980  1.8249
  226MPD1    H1 3435   4.280   2.142   8.854  1.1655  2.3890 -0.1344
  226MPD1    H2 3436   4.501   1.800   8.765  2.9309  0.7564 -0.1911
  226MPD1    H3 3437   4.305   1.936   8.743  0.1070 -1.7855  0.7943
  226MPD1     N 3438   4.507   2.288   8.945  0.4606 -0.2179 -0.3191
  226MPD1    H5 3439   4.592   2.326   8.986 -0.3107 -0.9363  1.9522
  226MPD1    N1 3440   0.020   1.889   8.872 -0.4026 -0.7331  0.5941
  226MPD1    H6 3441   4.723   1.792   8.849  0.8922 -0.6308 -1.0129
  226MPD1    H7 3442   0.081   1.898   8.953 -2.2808 -0.6087  1.9910
  227MPD1     C 3443   0.258   2.940   9.524 -0.1451  0.2613 -0.1785
  227MPD1    C1 3444   0.143   3.010   9.528  0.3518  0.3103  0.1707
  227MPD1    C2 3445   0.037   2.958   9.446  0.4741  0.5328 -0.7683
  227MPD1    C3 3446   0.055   2.846   9.365  0.7932  0.1049 -0.4071
  227MPD1    C4 3447   0.177   2.777   9.362  0.6016 -0.3794 -0.0302
  227MPD1    C5 3448   0.277   2.825   9.441  0.1414 -0.1441  0.3004
  227MPD1     H 3449   4.662   3.000   9.453  0.3302 -0.0095  0.3671
  227MPD1    H1 3450   0.209   2.684   9.316  0.8374 -0.0057 -0.6129
  227MPD1    H2 3451   0.345   2.988   9.565 -1.3085  1.3408  1.0032
  227MPD1    H3 3452   0.376   2.782   9.435  0.1411  0.3265 -3.1321
  227MPD1     N 3453   4.675   2.785   9.291 -0.4449 -0.5859  0.0230
  227MPD1    H5 3454   4.581   2.821   9.302 -0.7617 -1.4100  0.0210
  227MPD1    N1 3455   0.147   3.138   9.595 -0.7794  0.3841 -0.6250
  227MPD1    H6 3456   0.221   3.135   9.665 -1.7966 -0.6838  0.4117
  227MPD1    H7 3457   0.057   3.156   9.640  0.7969  1.5467  2.0663
  228MPD1     C 3458   2.055   2.364  12.498 -0.2344  0.4715 -0.9976
  228MPD1    C1 3459   1.927   2.371  12.449 -0.0160  0.4296  0.1084
  228MPD1    C2 3460   1.824   2.358  12.540  0.8351 -0.2533  0.3629
  228MPD1    C3 3461   1.846   2.315  12.668 -0.3471  0.2336 -0.3360
  228MPD1    C4 3462   1.973   2.306  12.713 -0.2172  0.0418 -0.7739
  228MPD1    C5 3463   2.080   2.325  12.630  0.0687 -0.6115  0.1950
  228MPD1     H 3464   1.720   2.369  12.509  0.7559  2.6055  1.6911
  228MPD1    H1 3465   1.990   2.277  12.816  3.2434 -0.5973 -1.5444
  228MPD1    H2 3466   2.141   2.379  12.434  0.2480 -0.8693 -0.6716
  228MPD1    H3 3467   2.182   2.300  12.658 -0.1027  0.6912  1.9863
  228MPD1     N 3468   1.739   2.319  12.752  0.6316 -0.7948  0.4219
  228MPD1    H5 3469   1.653   2.357  12.712  0.2270 -0.6288  1.4431
  228MPD1    N1 3470   1.905   2.414  12.323 -0.6685  0.4344 -0.6870
  228MPD1    H6 3471   1.992   2.401  12.271 -1.6447 -4.0753 -1.1996
  228MPD1    H7 3472   1.868   2.508  12.315 -2.8380 -0.4052 -0.4727
  229MPD1     C 3473   1.453   1.432  14.188  0.1592  0.1679 -0.5025
  229MPD1    C1 3474   1.518   1.495  14.294 -0.2353 -0.5119 -0.0171
  229MPD1    C2 3475   1.583   1.411  14.378 -0.2904 -0.1111  0.1245
  229MPD1    C3 3476   1.623   1.284  14.336  0.0021  0.3823  0.4737
  229MPD1    C4 3477   1.579   1.235  14.218  0.1770  0.7981  0.1734
  229MPD1    C5 3478   1.483   1.306  14.145  0.2618  0.8789  0.2086
  229MPD1     H 3479   1.618   1.443  14.475  2.5243 -1.2548 -0.5026
  229MPD1    H1 3480   1.610   1.138  14.183 -0.3962  0.3475  0.9131
  229MPD1    H2 3481   1.371   1.481  14.137  0.7939  1.7643  0.0195
  229MPD1    H3 3482   1.428   1.266  14.061 -0.3534  2.3785 -0.1052
  229MPD1     N 3483   1.708   1.199  14.410  0.3312 -0.3617 -0.1959
  229MPD1    H5 3484   1.723   1.110  14.363 -1.4815 -0.4720 -0.5626
  229MPD1    N1 3485   1.473   1.621  14.332  0.0580 -0.4382 -0.3286
  229MPD1    H6 3486   1.440   1.681  14.256  0.3332  0.6391  0.4098
  229MPD1    H7 3487   1.540   1.674  14.388  0.3816 -0.8175 -0.3614
  230MPD1     C 3488   2.118   0.919  15.397 -0.5693  0.0029 -0.0392
  230MPD1    C1 3489   2.197   0.874  15.296  0.0025  0.1507  0.1808
  230MPD1    C2 3490   2.150   0.862  15.167  0.0799 -0.0352  0.2184
  230MPD1    C3 3491   2.026   0.921  15.133 -0.1569  0.7813 -0.6064
  230MPD1    C4 3492   1.963   0.991  15.232  0.1845 -0.3116 -0.0693
  230MPD1    C5 3493   2.001   0.979  15.362 -0.4418 -0.0177  0.3526
  230MPD1     H 3494   2.207   0.815  15.087  2.2583 -0.5476  2.0838
  230MPD1    H1 3495   1.866   1.037  15.221  1.2462  1.7662 -0.7605
  230MPD1    H2 3496   2.137   0.894  15.501  0.3691 -2.1633 -0.7276
  230MPD1    H3 3497   1.937   1.020  15.440  0.3166  1.7926  0.0336
  230MPD1     N 3498   1.983   0.915  14.994 -0.7292 -0.0122 -0.3953
  230MPD1    H5 3499   2.049   0.865  14.935 -1.9189 -0.8377 -1.0354
  230MPD1    N1 3500   2.321   0.816  15.316  0.1824 -0.2329  0.0045
  230MPD1    H6 3501   2.373   0.866  15.388  0.7465 -2.5464  1.2195
  230MPD1    H7 3502   2.386   0.819  15.238 -0.2972 -1.3097 -0.4266
  231MPD1     C 3503   4.445   2.300  15.529 -0.5379  0.2144  0.4004
  231MPD1    C1 3504   4.412   2.339  15.401  0.5279  1.3017  0.1338
  231MPD1    C2 3505   4.486   2.429  15.332  1.2515  0.6562 -0.0261
  231MPD1    C3 3506   4.594   2.489  15.396  0.0541 -0.1454 -0.0388
  231MPD1    C4 3507   4.614   2.467  15.537 -0.8094  0.0868  0.5107
  231MPD1    C5 3508   4.534   2.379  15.601 -0.4474 -0.0987  0.4240
  231MPD1     H 3509   4.461   2.455  15.230 -0.9641  1.3640  0.6897
  231MPD1    H1 3510   4.682   2.526  15.598  3.6061 -2.2871 -2.0727
  231MPD1    H2 3511   4.392   2.223  15.583  2.8207 -1.1295  1.7911
  231MPD1    H3 3512   4.549   2.360  15.707 -2.0270  0.0833  0.6787
  231MPD1     N 3513   4.657   2.593  15.319  0.8047  0.0448 -0.3533
  231MPD1    H5 3514   4.617   2.617  15.228  0.2172 -1.4717 -0.4948
  231MPD1    N1 3515   4.295   2.290  15.344 -0.0864  0.2122  0.1127
  231MPD1    H6 3516   4.262   2.347  15.266 -0.7491 -1.5735 -0.9116
  231MPD1    H7 3517   4.216   2.278  15.408 -0.9009 -1.2979 -1.1791
  232MPD1     C 3518   2.379   1.067   0.124 -0.0848 -0.8189  0.2179
  232MPD1    C1 3519   2.320   1.062   0.248 -0.2725 -0.0432 -0.6468
  232MPD1    C2 3520   2.210   0.975   0.263 -0.2349  0.7409 -0.3627
  232MPD1    C3 3521   2.161   0.901   0.157 -0.0321  0.6889 -0.1953
  232MPD1    C4 3522   2.226   0.905   0.031 -0.0509 -0.6350 -0.0352
  232MPD1    C5 3523   2.334   0.989   0.024  0.3441  0.0347  0.2006
  232MPD1     H 3524   2.163   0.960   0.359 -2.0741  0.3957 -1.3314
  232MPD1    H1 3525   2.188   0.858  17.640 -1.0574  0.0013  0.0581
  232MPD1    H2 3526   2.465   1.132   0.110 -1.2507  0.6154 -0.3316
  232MPD1    H3 3527   2.377   1.010  17.626 -0.3959 -0.9985 -0.3512
  232MPD1     N 3528   2.043   0.820   0.183 -0.4813  0.8218  0.2034
  232MPD1    H5 3529   2.013   0.834   0.279 -2.1634 -1.8272  0.0476
  232MPD1    N1 3530   2.384   1.112   0.362  0.0301  0.6398  0.7821
  232MPD1    H6 3531   2.317   1.122   0.439 -1.2786  2.6090 -0.6258
  232MPD1    H7 3532   2.416   1.207   0.349 -0.6628  0.8660  0.7423
  233MPD1     C 3533   2.972   3.825   1.498 -0.5530 -0.9079 -0.0534
  233MPD1    C1 3534   2.984   3.721   1.596  0.3551 -0.2175  0.1568
  233MPD1    C2 3535   3.071   3.618   1.578  0.3852  0.4348 -0.4036
  233MPD1    C3 3536   3.144   3.598   1.455 -0.5085  0.4605 -0.2306
  233MPD1    C4 3537   3.118   3.695   1.358  0.8127 -0.2134 -0.2969
  233MPD1    C5 3538   3.044   3.811   1.384  0.1015 -0.2902  0.1106
  233MPD1     H 3539   3.077   3.543   1.656  0.7098  1.0746  0.1772
  233MPD1    H1 3540   3.160   3.680   1.259  1.0116 -0.3894 -0.1871
  233MPD1    H2 3541   2.904   3.910   1.498 -1.4422 -1.6222 -0.3543
  233MPD1    H3 3542   3.030   3.878   1.300 -1.9137 -1.7967 -0.7517
  233MPD1     N 3543   3.226   3.486   1.424  0.8962  0.8139 -0.1105
  233MPD1    H5 3544   3.272   3.469   1.335  1.0506 -0.5434  0.2217
  233MPD1    N1 3545   2.911   3.727   1.716  0.0078 -0.4563  0.2818
  233MPD1    H6 3546   2.957   3.679   1.794  1.2462 -1.6079 -1.1639
  233MPD1    H7 3547   2.888   3.822   1.746  0.8857 -0.3970  0.7674
  234MPD1     C 3548   0.889   2.683   9.770 -0.3629  0.3437 -1.1781
  234MPD1    C1 3549   0.806   2.755   9.854  0.7022  0.3457 -0.4047
  234MPD1    C2 3550   0.666   2.755   9.841 -0.9727  0.2851  0.3550
  234MPD1    C3 3551   0.605   2.668   9.747 -0.0990  1.2887 -0.3027
  234MPD1    C4 3552   0.688   2.578   9.686  0.5598  0.2915  0.0806
  234MPD1    C5 3553   0.822   2.592   9.691  0.0358  0.9666 -1.3218
  234MPD1     H 3554   0.604   2.825   9.894  0.0471  1.2109  0.3245
  234MPD1    H1 3555   0.668   2.505   9.609  2.4487 -1.3804  1.1566
  234MPD1    H2 3556   0.997   2.686   9.769 -0.3385 -0.1702 -0.0499
  234MPD1    H3 3557   0.877   2.527   9.624  0.2254  0.2001 -0.4128
  234MPD1     N 3558   0.459   2.671   9.741 -0.3577  0.0731 -0.4657
  234MPD1    H5 3559   0.415   2.750   9.787  0.9384 -0.4528  1.6881
  234MPD1    N1 3560   0.869   2.845   9.939 -0.1094  0.9514  0.1016
  234MPD1    H6 3561   0.962   2.819   9.971  0.3691  1.0352 -1.2084
  234MPD1    H7 3562   0.814   2.862  10.022 -2.4314  0.2594 -1.3003
  235MPD1     C 3563   1.060   2.171   8.943 -0.0593  0.4388  0.2949
  235MPD1    C1 3564   1.195   2.187   8.941 -0.1710 -0.4391  0.0064
  235MPD1    C2 3565   1.272   2.070   8.956  1.0775 -0.5232 -0.6824
  235MPD1    C3 3566   1.214   1.945   8.964  0.1952  0.1018  0.3879
  235MPD1    C4 3567   1.071   1.938   8.963 -0.0256 -0.2157  0.6461
  235MPD1    C5 3568   0.999   2.053   8.971  0.2384  0.4771 -0.2470
  235MPD1     H 3569   1.377   2.069   8.929  0.6698  2.0050 -2.4220
  235MPD1    H1 3570   1.022   1.841   8.964 -1.0516  0.2774 -0.9704
  235MPD1    H2 3571   0.997   2.259   8.940  0.9019  1.1219 -0.1130
  235MPD1    H3 3572   0.896   2.040   8.940  0.4390  0.7362 -1.0268
  235MPD1     N 3573   1.301   1.833   8.980 -0.1344 -0.4004 -0.6166
  235MPD1    H5 3574   1.396   1.868   8.993  0.3940 -2.8315  1.8837
  235MPD1    N1 3575   1.251   2.310   8.903 -0.0490  0.5979 -0.3687
  235MPD1    H6 3576   1.191   2.387   8.930  0.7770  1.4708 -0.9991
  235MPD1    H7 3577   1.345   2.335   8.934  0.0998 -0.3835 -0.0260
  236MPD1     C 3578   0.385   1.626   9.684  0.1290  0.5711 -0.2144
  236MPD1    C1 3579   0.449   1.507   9.706 -0.8298 -0.1658 -0.4171
  236MPD1    C2 3580   0.574   1.510   9.762  0.5355 -0.6265 -0.3703
  236MPD1    C3 3581   0.632   1.626   9.813 -0.0369 -0.1326 -0.9535
  236MPD1    C4 3582   0.565   1.746   9.790  0.5032  0.2919  0.4863
  236MPD1    C5 3583   0.443   1.739   9.725  0.2373  0.2417  0.2088
  236MPD1     H 3584   0.615   1.412   9.786  1.9188  0.4717  1.7639
  236MPD1    H1 3585   0.619   1.840   9.804 -1.4204  1.3708  0.5707
  236MPD1    H2 3586   0.289   1.619   9.634 -0.4645  0.2234  0.9749
  236MPD1    H3 3587   0.387   1.831   9.719 -0.6689 -0.4049 -1.3586
  236MPD1     N 3588   0.764   1.630   9.870 -0.3926 -0.2748 -0.4593
  236MPD1    H5 3589   0.781   1.708   9.933 -0.8904  0.3645 -1.1053
  236MPD1    N1 3590   0.401   1.399   9.630  0.3744 -0.6259  0.1028
  236MPD1    H6 3591   0.300   1.399   9.623  0.2381 -0.2068  1.9592
  236MPD1    H7 3592   0.433   1.313   9.674 -0.7465 -0.6281  0.9261
  237MPD1     C 3593   0.466   0.045  15.698 -0.0153 -0.9032 -0.0617
  237MPD1    C1 3594   0.504   4.718  15.577 -0.6450  0.0798  0.5991
  237MPD1    C2 3595   0.495   4.580  15.554 -0.5301 -0.1091  0.4656
  237MPD1    C3 3596   0.424   4.504  15.646  0.1345  0.1688 -0.0832
  237MPD1    C4 3597   0.375   4.563  15.759  0.7344  0.3747  0.5698
  237MPD1    C5 3598   0.399   4.692  15.789  0.0177 -0.4598  0.0809
  237MPD1     H 3599   0.529   4.529  15.465 -0.2236 -2.2695  1.8001
  237MPD1    H1 3600   0.332   4.502  15.837  0.7401 -0.2163  0.1153
  237MPD1    H2 3601   0.481   0.151  15.713  0.8918 -0.9102 -0.8862
  237MPD1    H3 3602   0.367   4.722  15.888  0.4733 -0.9897  0.3927
  237MPD1     N 3603   0.413   4.363  15.634 -0.6632  0.3691  0.4328
  237MPD1    H5 3604   0.369   4.312  15.710 -0.0485 -1.3120 -0.3375
  237MPD1    N1 3605   0.565   0.082  15.486  0.0301  0.4921  0.2640
  237MPD1    H6 3606   0.537   0.062  15.391  0.8423  0.1075  0.1025
  237MPD1    H7 3607   0.538   0.179  15.505  3.5968  1.8482 -1.4717
  238MPD1     C 3608   2.329   2.373  15.631  0.0356 -0.1975  0.4393
  238MPD1    C1 3609   2.342   2.371  15.488  0.1498 -0.3955  0.4362
  238MPD1    C2 3610   2.251   2.453  15.421 -0.3027  0.4220 -0.0588
  238MPD1    C3 3611   2.138   2.504  15.484 -0.1433  0.6142  0.3046
  238MPD1    C4 3612   2.121   2.485  15.618 -0.0722 -0.1268 -0.6046
  238MPD1    C5 3613   2.219   2.422  15.694 -0.5318 -0.0705  0.5315
  238MPD1     H 3614   2.266   2.454  15.314 -0.2584  1.5663 -0.0481
  238MPD1    H1 3615   2.027   2.513  15.663 -0.9544 -2.6745 -0.8612
  238MPD1    H2 3616   2.411   2.338  15.692  1.9284  0.7322 -1.5558
  238MPD1    H3 3617   2.208   2.426  15.802 -1.7735  1.7377  0.3382
  238MPD1     N 3618   2.045   2.591  15.412 -0.3168 -0.0774  0.1543
  238MPD1    H5 3619   1.979   2.640  15.471 -1.8347  1.1731 -2.5998
  238MPD1    N1 3620   2.462   2.336  15.424 -0.1986  0.3746  0.3184
  238MPD1    H6 3621   2.447   2.313  15.326 -0.0458 -1.2637  0.6956
  238MPD1    H7 3622   2.510   2.425  15.417  0.5398 -0.0553 -0.0059
  239MPD1     C 3623   2.587   3.582  14.318 -0.0880  0.3699  0.1496
  239MPD1    C1 3624   2.523   3.663  14.407  0.1019  0.2719 -0.2140
  239MPD1    C2 3625   2.450   3.774  14.362 -0.4193  0.4869 -0.5098
  239MPD1    C3 3626   2.432   3.804  14.225 -0.7822 -0.0936 -0.0210
  239MPD1    C4 3627   2.506   3.725  14.137  0.3689 -0.0078 -0.2127
  239MPD1    C5 3628   2.587   3.625  14.187  0.4073  0.2276 -0.1531
  239MPD1     H 3629   2.406   3.833  14.441  0.0924 -0.4840  0.5008
  239MPD1    H1 3630   2.498   3.735  14.030  2.3005 -2.0370 -0.5426
  239MPD1    H2 3631   2.638   3.491  14.346 -1.4020 -0.1381  0.8981
  239MPD1    H3 3632   2.637   3.553  14.123  0.9733  1.1044 -0.6959
  239MPD1     N 3633   2.330   3.887  14.170 -0.2782 -0.7221 -0.2473
  239MPD1    H5 3634   2.315   3.885  14.070  1.4274 -0.9722 -0.4885
  239MPD1    N1 3635   2.523   3.641  14.546 -0.3321  0.7818 -0.5097
  239MPD1    H6 3636   2.544   3.543  14.560 -0.7391  0.8888  0.7848
  239MPD1    H7 3637   2.432   3.657  14.587 -0.7725  0.9792 -1.5646
  240MPD1     C 3638   1.453   3.691  13.914  0.2170  0.2543 -0.2029
  240MPD1    C1 3639   1.526   3.572  13.905 -0.0487  0.2675  0.6338
  240MPD1    C2 3640   1.585   3.520  14.021  0.3111  0.5146 -0.2910
  240MPD1    C3 3641   1.562   3.578  14.146 -0.3915 -0.7751  0.3331
  240MPD1    C4 3642   1.493   3.696  14.148  0.3004 -0.4113  0.0522
  240MPD1    C5 3643   1.439   3.750  14.032 -0.3302  0.2008 -0.2960
  240MPD1     H 3644   1.646   3.432  14.014  1.1492  1.0064  0.9090
  240MPD1    H1 3645   1.482   3.751  14.241 -1.2864 -1.1640  0.3073
  240MPD1    H2 3646   1.420   3.740  13.823  0.1229  0.1439 -0.2284
  240MPD1    H3 3647   1.410   3.854  14.034 -1.7825 -0.2107 -0.0520
  240MPD1     N 3648   1.603   3.497  14.254  0.4596 -0.2464 -0.1570
  240MPD1    H5 3649   1.638   3.405  14.228  2.0192 -0.0637  1.2747
  240MPD1    N1 3650   1.564   3.521  13.778  0.3411 -0.1769 -0.3649
  240MPD1    H6 3651   1.583   3.422  13.787 -1.1796 -0.5038 -0.7901
  240MPD1    H7 3652   1.485   3.539  13.716  0.3245 -1.9801 -0.8721
  241MPD1     C 3653   1.782   3.319  15.306  0.6368 -0.2551  0.1875
  241MPD1    C1 3654   1.859   3.396  15.225 -0.6342  0.0970  0.2110
  241MPD1    C2 3655   1.830   3.394  15.094 -0.0302  0.3966 -0.4820
  241MPD1    C3 3656   1.722   3.326  15.044  0.6929  0.0471  0.2390
  241MPD1    C4 3657   1.639   3.253  15.130  0.6766 -0.1252  0.0431
  241MPD1    C5 3658   1.671   3.248  15.264 -0.2963  0.4804  0.1524
  241MPD1     H 3659   1.896   3.439  15.021  1.2467 -0.8713 -0.0980
  241MPD1    H1 3660   1.558   3.195  15.091  1.7838  0.3037 -2.8722
  241MPD1    H2 3661   1.811   3.313  15.410  0.3871  1.7828  0.3728
  241MPD1    H3 3662   1.606   3.196  15.333  1.9542 -2.3307  0.1416
  241MPD1     N 3663   1.695   3.311  14.908 -0.0646  0.2576  0.1621
  241MPD1    H5 3664   1.646   3.229  14.875  0.1582  1.3641 -2.8596
  241MPD1    N1 3665   1.978   3.435  15.285  0.1520  0.9110 -0.0567
  241MPD1    H6 3666   2.023   3.503  15.225 -0.4430  1.9465  0.6730
  241MPD1    H7 3667   1.955   3.471  15.378 -2.1292  0.1666 -0.3129
  242MPD1     C 3668   1.276   1.189  15.853  0.4708  0.3879  0.3194
  242MPD1    C1 3669   1.392   1.249  15.882  0.0299  0.6695 -0.3371
  242MPD1    C2 3670   1.445   1.332  15.780 -1.0601  0.4033  0.1009
  242MPD1    C3 3671   1.391   1.350  15.658  0.1534 -0.2646 -0.1815
  242MPD1    C4 3672   1.266   1.291  15.645 -0.0747  0.4195 -0.5413
  242MPD1    C5 3673   1.217   1.206  15.733  0.2532 -0.3434  0.3800
  242MPD1     H 3674   1.540   1.383  15.795 -0.9645  0.8897 -2.2326
  242MPD1    H1 3675   1.205   1.315  15.559 -1.0732  1.2944  0.4059
  242MPD1    H2 3676   1.221   1.133  15.928  0.7510  0.9030  0.9080
  242MPD1    H3 3677   1.124   1.160  15.701  0.9210 -3.3370  2.8224
  242MPD1     N 3678   1.443   1.417  15.547  0.1015 -0.5339  0.6391
  242MPD1    H5 3679   1.399   1.407  15.456 -0.6933 -0.4628  1.0112
  242MPD1    N1 3680   1.441   1.254  16.014  0.2039  0.2535  0.3352
  242MPD1    H6 3681   1.537   1.287  16.024  0.6413 -0.1739 -2.6170
  242MPD1    H7 3682   1.429   1.170  16.070  1.3603 -0.9626 -1.2351
  243MPD1     C 3683   4.051   0.126  16.811 -0.0918 -0.6126  0.3894
  243MPD1    C1 3684   4.003   0.097  16.684  0.6101 -0.1902  0.7692
  243MPD1    C2 3685   3.862   0.083  16.669 -0.6237  0.2177 -0.0414
  243MPD1    C3 3686   3.785   0.085  16.782  0.0513  0.5552  0.8057
  243MPD1    C4 3687   3.846   0.092  16.907  0.0846 -0.3675 -0.8981
  243MPD1    C5 3688   3.975   0.122  16.921 -0.7581 -0.3980 -0.0806
  243MPD1     H 3689   3.816   0.066  16.572 -0.3605 -0.6390 -0.0121
  243MPD1    H1 3690   3.788   0.075  16.997  1.2002  1.4383  0.1464
  243MPD1    H2 3691   4.159   0.134  16.822 -0.2235  0.3481  0.9544
  243MPD1    H3 3692   4.023   0.123  17.018  1.2051  0.8549 -1.0661
  243MPD1     N 3693   3.644   0.076  16.772  0.5021 -0.2717 -0.2446
  243MPD1    H5 3694   3.609   0.037  16.685 -1.3462  2.3703 -0.6799
  243MPD1    N1 3695   4.098   0.113  16.576  0.1463  0.1919  0.4034
  243MPD1    H6 3696   4.073   0.053  16.498 -0.1579 -0.3561  0.9190
  243MPD1    H7 3697   4.194   0.082  16.592  0.5633  0.1606 -2.2374
  244MPD1     C 3698   2.816   0.214  17.361 -0.0082  0.0790  0.5638
  244MPD1    C1 3699   2.948   0.214  17.399  0.1062 -0.5418  0.0884
  244MPD1    C2 3700   3.043   0.206  17.295  0.4212  0.0479 -0.4347
  244MPD1    C3 3701   3.013   0.222  17.161 -0.0370  0.2728 -0.2589
  244MPD1    C4 3702   2.885   0.234  17.128 -0.5015  0.6198  0.0464
  244MPD1    C5 3703   2.786   0.226  17.224  0.8842  1.0719  0.4553
  244MPD1     H 3704   3.145   0.194  17.332 -0.1123 -0.6595  0.7824
  244MPD1    H1 3705   2.847   0.235  17.026  0.0902  2.5200 -0.1520
  244MPD1    H2 3706   2.740   0.191  17.435  0.1048  0.8581  0.9123
  244MPD1    H3 3707   2.683   0.237  17.190  0.8188 -1.9150 -0.3767
  244MPD1     N 3708   3.115   0.239  17.063 -0.9284  0.1024  0.4577
  244MPD1    H5 3709   3.209   0.222  17.097 -1.0161 -0.1817  0.5584
  244MPD1    N1 3710   2.985   0.199  17.530 -0.0689 -0.4935  0.4614
  244MPD1    H6 3711   3.079   0.234  17.543  0.1571 -0.0259 -2.3696
  244MPD1    H7 3712   2.924   0.260  17.583  0.9981  2.0311 -1.2229
  245MPD1     C 3713   4.578   0.791  12.745 -0.1996 -0.2562 -0.1951
  245MPD1    C1 3714   4.519   0.862  12.841 -0.8602  0.0907 -0.0947
  245MPD1    C2 3715   4.604   0.919  12.941 -0.9052 -0.2365  0.1560
  245MPD1    C3 3716   0.017   0.913  12.933 -0.6793  0.3075  0.1852
  245MPD1    C4 3717   0.070   0.833  12.834 -0.0663  0.6376  0.8846
  245MPD1    C5 3718   4.709   0.765  12.754  0.3832 -0.0665 -0.4979
  245MPD1     H 3719   4.563   0.969  13.028 -0.2089 -0.8680  0.8392
  245MPD1    H1 3720   0.175   0.827  12.810  0.4079  3.2847  2.3742
  245MPD1    H2 3721   4.529   0.717  12.683 -1.9315  0.3784  0.4168
  245MPD1    H3 3722   0.024   0.710  12.669 -2.0154  0.6687 -2.1048
  245MPD1     N 3723   0.101   0.982  13.021 -0.5029  0.0479  0.2254
  245MPD1    H5 3724   0.052   1.053  13.074  0.1722  1.0719 -0.5314
  245MPD1    N1 3725   4.380   0.844  12.856  0.1860 -0.2213 -0.4457
  245MPD1    H6 3726   4.343   0.929  12.898  0.9512 -0.0463 -0.1347
  245MPD1    H7 3727   4.339   0.848  12.763 -0.4849 -0.3370 -0.1589
  246MPD1     C 3728   2.545   2.454   9.920 -0.2724  0.4234 -0.7783
  246MPD1    C1 3729   2.489   2.550  10.009  0.1687  0.5138  0.2920
  246MPD1    C2 3730   2.379   2.620   9.957 -0.1139  0.1549 -0.6692
  246MPD1    C3 3731   2.316   2.580   9.839  0.1875 -0.0699 -0.0908
  246MPD1    C4 3732   2.375   2.484   9.761 -0.3894 -0.7254  0.7579
  246MPD1    C5 3733   2.480   2.425   9.809  0.1078  0.0906 -0.3273
  246MPD1     H 3734   2.343   2.708  10.009 -2.2201 -0.0025 -1.8706
  246MPD1    H1 3735   2.326   2.430   9.681  0.9005 -1.6642  0.6038
  246MPD1    H2 3736   2.639   2.404   9.939 -0.2691  0.1124 -1.6267
  246MPD1    H3 3737   2.511   2.341   9.749  0.9039  0.7118 -0.7819
  246MPD1     N 3738   2.201   2.646   9.789 -0.1085 -0.3734 -0.6440
  246MPD1    H5 3739   2.156   2.717   9.846  1.2079 -0.0772  0.0303
  246MPD1    N1 3740   2.555   2.587  10.123 -0.8814 -0.4139 -0.1129
  246MPD1    H6 3741   2.563   2.510  10.189 -0.3150 -1.0719 -0.9582
  246MPD1    H7 3742   2.502   2.658  10.173  2.2972  2.1565 -0.4031
  247MPD1     C 3743   3.347   0.149  15.758 -0.7274  0.0492 -0.5369
  247MPD1    C1 3744   3.426   0.038  15.787  0.0721  0.2254 -0.0322
  247MPD1    C2 3745   3.560   0.052  15.801  0.9006 -0.6835 -0.7409
  247MPD1    C3 3746   3.617   0.172  15.810  0.5702  0.1083 -0.3263
  247MPD1    C4 3747   3.537   0.284  15.778  0.5032 -0.2188 -0.0959
  247MPD1    C5 3748   3.404   0.269  15.753 -0.2560  0.5294  0.0690
  247MPD1     H 3749   3.618   4.685  15.801 -1.5611 -2.2456  0.3276
  247MPD1    H1 3750   3.593   0.376  15.770  2.1054 -1.1184  0.7655
  247MPD1    H2 3751   3.239   0.140  15.752 -0.7359  0.2320 -0.6652
  247MPD1    H3 3752   3.345   0.357  15.730  0.1035  0.8399  0.3188
  247MPD1     N 3753   3.762   0.192  15.821  0.1008  0.2097 -0.3800
  247MPD1    H5 3754   3.800   0.285  15.809 -0.5734  0.3655 -1.3315
  247MPD1    N1 3755   3.373   4.632  15.777  0.5937 -0.7420  0.7331
  247MPD1    H6 3756   3.273   4.625  15.798  0.5070  2.5877  1.5276
  247MPD1    H7 3757   3.422   4.560  15.828  0.0894 -0.2506  1.9234
  248MPD1     C 3758   0.857   0.509  17.261 -1.1736  0.0099 -0.2358
  248MPD1    C1 3759   0.919   0.592  17.354 -0.1950 -0.7031  0.0002
  248MPD1    C2 3760   0.873   0.586  17.484 -0.0909 -0.9206 -0.8562
  248MPD1    C3 3761   0.747   0.531  17.512  0.0368  0.5556  0.4063
  248MPD1    C4 3762   0.680   0.459  17.412 -0.8176 -0.2026  0.6252
  248MPD1    C5 3763   0.737   0.454  17.282 -0.1836 -0.0658  0.3184
  248MPD1     H 3764   0.932   0.629  17.564  0.6781 -2.0849 -0.8070
  248MPD1    H1 3765   0.579   0.422  17.425 -1.1900  1.1438  1.5610
  248MPD1    H2 3766   0.903   0.489  17.164  0.1732 -1.5433  0.7097
  248MPD1    H3 3767   0.670   0.409  17.209 -0.4742  1.8891 -0.6039
  248MPD1     N 3768   0.682   0.572  17.639  0.8270  0.5763 -0.9335
  248MPD1    H5 3769   0.728   0.638   0.003 -0.6129  0.4295  0.2636
  248MPD1    N1 3770   1.043   0.646  17.329  0.2453  0.3286  0.0390
  248MPD1    H6 3771   1.047   0.675  17.232 -2.8880  2.1728  0.4607
  248MPD1    H7 3772   1.047   0.727  17.390 -1.5534 -0.5029  1.2587
  249MPD1     C 3773   1.753   4.056  10.194 -0.9630  0.2761 -0.0520
  249MPD1    C1 3774   1.877   4.065  10.248  0.4534 -0.8187  0.3907
  249MPD1    C2 3775   1.939   4.185  10.255 -0.0217 -0.1911 -0.0622
  249MPD1    C3 3776   1.870   4.303  10.224  0.4896 -0.4965 -0.3574
  249MPD1    C4 3777   1.746   4.285  10.161  0.0104 -0.1966 -0.2590
  249MPD1    C5 3778   1.689   4.168  10.158  0.0507 -0.3173  0.0339
  249MPD1     H 3779   2.045   4.189  10.277  0.4846 -0.3462 -2.4337
  249MPD1    H1 3780   1.677   4.361  10.128  1.2834  2.0566  2.3045
  249MPD1    H2 3781   1.703   3.963  10.171  1.1838 -0.5432 -1.4865
  249MPD1    H3 3782   1.587   4.155  10.124  0.1736  3.2325 -1.6868
  249MPD1     N 3783   1.935   4.424  10.229  0.0362 -0.2171 -0.3822
  249MPD1    H5 3784   2.019   4.425  10.285 -0.0034 -1.1057 -0.2990
  249MPD1    N1 3785   1.943   3.944  10.270  0.3177 -0.0314 -0.4771
  249MPD1    H6 3786   1.889   3.875  10.321  2.9126  0.5582  3.0566
  249MPD1    H7 3787   2.028   3.970  10.321  1.1434 -1.2977 -1.1851
  250MPD2     C 3788   3.138   4.284  13.232 -0.0549 -0.2101 -0.0825
  250MPD2    C1 3789   3.057   4.383  13.180 -0.5272 -1.0419 -0.2074
  250MPD2    C2 3790   2.932   4.342  13.140  0.0344 -0.2293  0.3818
  250MPD2    C3 3791   2.891   4.209  13.147 -0.5513 -0.9572  0.0100
  250MPD2    C4 3792   2.969   4.120  13.207  0.1622  0.1907  0.4120
  250MPD2    C5 3793   3.088   4.158  13.253 -0.5363  0.3271  0.1456
  250MPD2     H 3794   2.869   4.411  13.085  0.5245 -1.3061 -1.5408
  250MPD2    H1 3795   2.936   4.018  13.222 -1.1857  0.6275  0.3554
  250MPD2    H2 3796   3.239   4.306  13.265 -0.4126  1.8554 -0.3186
  250MPD2    H3 3797   3.140   4.080  13.307  1.2257  0.7254 -0.9990
  250MPD2     N 3798   2.773   4.156  13.098  0.1143 -0.1437  0.7773
  250MPD2    H5 3799   2.774   4.054  13.096  1.8559 -0.1168 -0.0750
  250MPD2    N1 3800   3.122   4.505  13.143  0.5584 -0.1989 -0.4439
  250MPD2    H7 3801   3.220   4.521  13.163  0.4405  0.8801 -0.7275
  251TMC3    C1 3802   3.149   0.003  13.094 -0.2592 -0.0541 -0.2531
  251TMC3    C2 3803   3.118   0.130  13.122 -0.1921  0.8046 -0.2375
  251TMC3    C3 3804   3.191   0.236  13.079 -0.3118  0.2000  0.0557
  251TMC3    C4 3805   3.260   4.702  13.024 -0.1422 -0.0025 -0.1117
  251TMC3    C5 3806   3.338   0.084  12.980  0.2642  0.6473 -0.2932
  251TMC3    C6 3807   3.306   0.213  13.011 -0.5341  0.0863 -0.3461
  251TMC3     C 3808   3.056   4.619  13.100 -0.4264  0.3305 -0.0538
  251TMC3     O 3809   2.940   4.648  13.125  0.1516 -0.2635 -0.1203
  251TMC3     H 3810   3.025   0.160  13.170 -1.0736  2.0191 -2.7168
  251TMC3    H1 3811   3.288   4.598  13.011  0.2964  0.3765 -2.1770
  251TMC3    H2 3812   3.370   0.294  12.977 -0.2233 -0.0147 -0.0084
  251TMC3    C7 3813   3.460   0.044  12.913 -0.6179 -0.8053  0.4159
  251TMC3    C8 3814   3.159   0.372  13.127  0.1259  0.0644 -0.4033
  251TMC3    O1 3815   3.481   4.653  12.889 -0.0208 -0.0936  0.4413
  251TMC3    O2 3816   3.102   0.391  13.232 -0.4701 -0.3279 -0.2671
  252TMC3    C1 3817   4.088   0.034   9.524 -0.5594  0.0540  0.6339
  252TMC3    C2 3818   4.179   0.089   9.443 -0.0768 -0.0146  0.2225
  252TMC3    C3 3819   4.242   0.202   9.484 -0.3738 -0.1940  0.0445
  252TMC3    C4 3820   4.043   0.094   9.637 -0.1880  0.6444  0.4717
  252TMC3    C5 3821   4.108   0.207   9.678  0.3760  0.3472 -0.3280
  252TMC3    C6 3822   4.206   0.266   9.600 -0.1205 -0.2307  0.4326
  252TMC3     C 3823   4.006   4.656   9.462 -0.2456 -0.1075 -0.4487
  252TMC3     O 3824   4.050   4.582   9.373 -0.3873 -0.1242  0.9737
  252TMC3     H 3825   4.197   0.045   9.345 -1.1308  0.1797 -0.0606
  252TMC3    H1 3826   3.970   0.045   9.700  1.5058 -1.5714  0.7014
  252TMC3    H2 3827   4.247   0.355   9.647  0.9861 -0.1286 -0.7418
  252TMC3    C7 3828   4.062   0.263   9.803  0.3395 -0.7424  0.4173
  252TMC3    C8 3829   4.340   0.256   9.390 -0.1496 -0.3919  0.7132
  252TMC3    O1 3830   4.149   0.318   9.872  0.1037  0.3021  0.0812
  252TMC3    O2 3831   4.367   0.196   9.292 -0.4219 -0.2537  0.2621
  253MPD2     C 3832   3.948   4.117  15.817  0.6203 -0.8038 -0.6020
  253MPD2    C1 3833   3.975   4.008  15.729 -0.7846  0.2435 -0.2990
  253MPD2    C2 3834   3.923   3.883  15.763  1.1758 -0.6727 -0.5770
  253MPD2    C3 3835   3.853   3.864  15.877 -0.5671 -0.8828  0.7860
  253MPD2    C4 3836   3.818   3.973  15.960  0.0627  0.0654  0.9598
  253MPD2    C5 3837   3.870   4.100  15.927 -1.0621 -0.1264  0.0831
  253MPD2     H 3838   3.948   3.796  15.702 -0.0519  0.3347 -2.4938
  253MPD2    H1 3839   3.769   3.940  16.050  0.3292 -0.4913  0.9076
  253MPD2    H2 3840   3.999   4.209  15.792 -0.7767  0.4645  1.1351
  253MPD2    H3 3841   3.850   4.182  15.996  2.3470  1.9779 -1.4898
  253MPD2     N 3842   3.812   3.739  15.928 -0.5509  0.1828  0.4320
  253MPD2    H5 3843   3.763   3.727  16.016  1.0973  1.6619  1.5434
  253MPD2    N1 3844   4.064   4.016  15.624 -0.0448 -0.1651 -0.1650
  253MPD2    H7 3845   4.069   3.933  15.564 -0.5525  0.1433 -0.6295
  254TMC3    C1 3846   3.746   3.520  15.928 -0.5332  0.1708  0.0525
  254TMC3    C2 3847   3.611   3.522  15.901  0.3362 -0.5203  0.3941
  254TMC3    C3 3848   3.517   3.473  15.999 -0.5025  0.1377 -0.6826
  254TMC3    C4 3849   3.788   3.493  16.054 -0.1497 -1.2081 -0.7614
  254TMC3    C5 3850   3.699   3.437  16.145  0.0378 -0.0523 -0.1120
  254TMC3    C6 3851   3.568   3.421  16.117 -0.0339  0.5802  0.0291
  254TMC3     C 3852   3.827   3.620  15.859 -0.0696 -0.0527  0.4818
  254TMC3     O 3853   3.830   3.611  15.733 -0.1709  0.3437  0.2922
  254TMC3     H 3854   3.577   3.571  15.810 -0.6439 -0.6571  0.6904
  254TMC3    H1 3855   3.892   3.496  16.085 -0.1125  0.1055 -1.0187
  254TMC3    H2 3856   3.496   3.404  16.197  0.7966 -0.5072  0.5529
  254TMC3    C7 3857   3.739   3.413  16.281 -0.2667  0.5245 -0.4098
  254TMC3    C8 3858   3.426   3.580  16.036 -0.0538 -0.0979 -0.7198
  254TMC3    O1 3859   3.847   3.455  16.315 -0.0141 -0.6350  0.2752
  254TMC3    O2 3860   3.473   3.692  16.029 -0.4542 -0.4389  0.9421
  255MPD2     C 3861   2.938   2.546  10.575  0.8154 -0.2963 -0.6657
  255MPD2    C1 3862   2.960   2.625  10.464  0.3533  0.3961 -0.5895
  255MPD2    C2 3863   3.084   2.632  10.408  0.1739  0.0872 -0.0219
  255MPD2    C3 3864   3.179   2.532  10.445 -0.5363  0.2921  0.5845
  255MPD2    C4 3865   3.152   2.450  10.554 -0.0768  0.2050  0.6097
  255MPD2    C5 3866   3.028   2.460  10.612 -0.8493 -0.3006 -0.5797
  255MPD2     H 3867   3.110   2.700  10.328  1.0374  1.9741  1.8662
  255MPD2    H1 3868   3.214   2.370  10.592  2.3296  1.7816  0.0380
  255MPD2    H2 3869   2.844   2.541  10.628  0.7582 -0.3850 -0.7744
  255MPD2    H3 3870   2.997   2.393  10.691 -2.2235  1.6945  0.5575
  255MPD2     N 3871   3.297   2.523  10.363 -0.2284 -0.9390  0.8763
  255MPD2    H5 3872   3.297   2.575  10.275 -1.7687 -3.1154 -0.4176
  255MPD2    N1 3873   2.856   2.718  10.438  0.4604 -0.3238  0.3893
  255MPD2    H7 3874   2.765   2.692  10.477  0.7245 -0.8289  0.6746
  256TMC3    C1 3875   2.748   2.898  10.321 -0.1275 -0.9144  0.3211
  256TMC3    C2 3876   2.744   2.959  10.200 -0.1494 -0.1055  0.0203
  256TMC3    C3 3877   2.622   2.964  10.135 -0.4406  0.4582  0.0030
  256TMC3    C4 3878   2.631   2.872  10.390  0.5405 -0.1893 -0.4423
  256TMC3    C5 3879   2.509   2.891  10.326 -0.5997 -0.2869  0.6896
  256TMC3    C6 3880   2.501   2.936  10.193  0.6201  0.1609 -0.0836
  256TMC3     C 3881   2.869   2.829  10.358 -0.1565 -0.6832  0.5254
  256TMC3     O 3882   2.970   2.868  10.306  0.2150  0.8556  0.3241
  256TMC3     H 3883   2.836   2.973  10.144 -0.8721 -2.2725 -1.6950
  256TMC3    H1 3884   2.628   2.824  10.487  2.4262 -0.7776 -0.6723
  256TMC3    H2 3885   2.407   2.948  10.140 -0.2293 -1.3582  1.0578
  256TMC3    C7 3886   2.399   2.814  10.369  0.5944 -0.3559 -0.1159
  256TMC3    C8 3887   2.641   2.937   9.999  0.4223 -0.5498 -0.0812
  256TMC3    O1 3888   2.349   2.757  10.271  1.2336  0.2583 -0.3840
  256TMC3    O2 3889   2.752   2.922   9.956 -0.0831  0.3002 -0.2828
  257MPD2     C 3890   2.029   0.100  13.135 -0.1542 -0.7451  1.1347
  257MPD2    C1 3891   1.906   0.084  13.078  0.1141  0.2049  0.1965
  257MPD2    C2 3892   1.820   4.712  13.136  0.4909 -0.0076 -0.9085
  257MPD2    C3 3893   1.850   4.641  13.256  0.5075  0.1659 -0.0394
  257MPD2    C4 3894   1.977   4.670  13.306  0.7368  0.7243  0.1930
  257MPD2    C5 3895   2.060   0.039  13.252 -0.0746 -0.2193  0.2975
  257MPD2     H 3896   1.719   4.705  13.099 -0.8376  2.0131  2.4045
  257MPD2    H1 3897   2.014   4.627  13.398  0.5338  1.7560  0.7523
  257MPD2    H2 3898   2.107   0.171  13.111  0.4832 -1.4303  1.1607
  257MPD2    H3 3899   2.157   0.056  13.298 -0.6097  2.0925  0.6041
  257MPD2     N 3900   1.750   4.556  13.315  0.4707 -0.4937  0.4344
  257MPD2    H5 3901   1.663   4.552  13.263  0.9151 -1.0236 -0.2617
  257MPD2    N1 3902   1.869   0.171  12.975  0.4945  0.7120  0.2778
  257MPD2    H7 3903   1.943   0.237  12.954 -0.2879  1.6491  0.4795
  258TMC3    C1 3904   1.636   4.426  13.471 -0.6271  0.4095 -0.0992
  258TMC3    C2 3905   1.514   4.459  13.424  0.4765  0.0666  0.8880
  258TMC3    C3 3906   1.404   4.381  13.455  0.0535  0.2943  0.6881
  258TMC3    C4 3907   1.659   4.321  13.554 -0.1321 -1.0079  0.0507
  258TMC3    C5 3908   1.542   4.249  13.583 -0.7870 -0.2719  0.0599
  258TMC3    C6 3909   1.420   4.269  13.532 -0.1546 -0.4878 -0.4065
  258TMC3     C 3910   1.762   4.493  13.432  0.1457  0.1422 -0.0844
  258TMC3     O 3911   1.864   4.469  13.494 -0.2714  0.3328  0.8260
  258TMC3     H 3912   1.516   4.547  13.361 -1.3463 -0.2255  0.4244
  258TMC3    H1 3913   1.748   4.293  13.609 -0.0808 -0.5569  0.2014
  258TMC3    H2 3914   1.348   4.191  13.551  0.6140 -1.2052 -0.4404
  258TMC3    C7 3915   1.555   4.134  13.670  0.2547 -1.2056 -0.4869
  258TMC3    C8 3916   1.279   4.416  13.391 -0.7056 -0.2780 -0.3034
  258TMC3    O1 3917   1.573   4.029  13.618  0.0692 -0.0354 -0.6407
  258TMC3    O2 3918   1.281   4.521  13.327  0.0547  0.4207 -0.0563
  259MPD2     C 3919   0.331   1.122   1.153 -0.1981 -0.3594  0.3866
  259MPD2    C1 3920   0.459   1.113   1.204  0.6476 -0.4571 -0.2013
  259MPD2    C2 3921   0.556   1.059   1.120  0.1649 -0.0344  0.7061
  259MPD2    C3 3922   0.529   1.013   0.992  0.4209 -0.3091  0.3890
  259MPD2    C4 3923   0.397   1.025   0.947 -1.2341  0.0923  0.3271
  259MPD2    C5 3924   0.300   1.074   1.027 -0.2217 -0.0754  0.7986
  259MPD2     H 3925   0.656   1.044   1.160  0.8292  2.3493 -0.0386
  259MPD2    H1 3926   0.369   0.996   0.846  0.7298  0.7788 -0.4121
  259MPD2    H2 3927   0.254   1.166   1.216 -1.5744 -1.6899 -0.3632
  259MPD2    H3 3928   0.200   1.088   0.988 -0.0386  1.1516  0.7868
  259MPD2     N 3929   0.634   0.955   0.921 -0.1031 -0.1118 -0.0103
  259MPD2    H5 3930   0.725   0.952   0.964 -0.2095 -2.0402  0.1010
  259MPD2    N1 3931   0.483   1.155   1.334 -0.0601  0.0560 -0.2172
  259MPD2    H7 3932   0.403   1.183   1.390  0.0816 -2.0469  1.0538
  260TMC3    C1 3933   0.728   0.815   0.770 -0.3463  0.0974 -0.2967
  260TMC3    C2 3934   0.845   0.891   0.753  0.6836  0.0098  1.3574
  260TMC3    C3 3935   0.962   0.833   0.709 -0.6086  0.5088  0.1461
  260TMC3    C4 3936   0.728   0.682   0.761 -0.3334  0.3398 -0.2018
  260TMC3    C5 3937   0.843   0.627   0.709 -0.0807 -0.7590  0.6096
  260TMC3    C6 3938   0.964   0.696   0.686 -0.0102  0.0202  0.0538
  260TMC3     C 3939   0.609   0.875   0.815 -1.0344  0.3282  0.4144
  260TMC3     O 3940   0.503   0.812   0.801  0.6474  0.3713  0.8118
  260TMC3     H 3941   0.823   0.997   0.760 -0.4370 -0.0227 -1.8858
  260TMC3    H1 3942   0.632   0.631   0.763  0.3706 -0.9117  1.0146
  260TMC3    H2 3943   1.047   0.644   0.640 -0.2805  0.2808 -0.7226
  260TMC3    C7 3944   0.841   0.494   0.657 -0.5491  0.1568 -0.3041
  260TMC3    C8 3945   1.054   0.931   0.659  0.3141  0.1793  0.0228
  260TMC3    O1 3946   0.929   0.468   0.578  0.9931 -0.1306  0.2995
  260TMC3    O2 3947   1.008   1.043   0.648 -0.0626 -0.2856 -0.1035
  261MPD2     C 3948   2.141   4.280  12.574  0.7679 -0.3737  0.4040
  261MPD2    C1 3949   2.265   4.312  12.620 -0.4992  0.0402  0.3355
  261MPD2    C2 3950   2.325   4.424  12.566  0.0598 -0.1940  0.1465
  261MPD2    C3 3951   2.264   4.503  12.468  0.4191 -0.1168 -0.2073
  261MPD2    C4 3952   2.133   4.472  12.434  0.2402  0.7537  0.0481
  261MPD2    C5 3953   2.079   4.361  12.486  0.1583  0.5392  0.1943
  261MPD2     H 3954   2.422   4.451  12.606  0.5566 -2.7452  0.6582
  261MPD2    H1 3955   2.064   4.533  12.376  1.4430  1.8013 -0.2920
  261MPD2    H2 3956   2.091   4.188  12.601 -1.7373  0.4775 -1.2561
  261MPD2    H3 3957   1.980   4.335  12.449 -0.6224  4.5194 -0.5691
  261MPD2     N 3958   2.340   4.606  12.410  0.0936  0.3067  0.0150
  261MPD2    H5 3959   2.430   4.632  12.447 -0.2078  0.9984  0.2481
  261MPD2    N1 3960   2.330   4.239  12.716  0.2115  0.3105  0.4583
  261MPD2    H7 3961   2.425   4.267  12.738  0.4001 -2.0055  2.5261
  262TMC3    C1 3962   2.417   0.058  12.267  0.4094 -0.1749  1.0478
  262TMC3    C2 3963   2.379   0.152  12.181 -0.3440 -0.5321 -0.0147
  262TMC3    C3 3964   2.472   0.192  12.096 -0.6366  0.1371 -0.3425
  262TMC3    C4 3965   2.535   4.716  12.258 -0.0702 -0.0771 -0.1431
  262TMC3    C5 3966   2.621   0.035  12.166 -0.1355 -0.0872 -0.4663
  262TMC3    C6 3967   2.599   0.141  12.086 -0.0488 -0.3719 -0.8316
  262TMC3     C 3968   2.304   4.698  12.310 -0.7221  0.2055  0.7756
  262TMC3     O 3969   2.203   4.697  12.238 -0.0359 -0.2631 -0.6928
  262TMC3     H 3970   2.275   0.185  12.174  0.1368  0.9622 -0.1496
  262TMC3    H1 3971   2.557   4.632  12.323  1.4955 -0.0943 -0.7143
  262TMC3    H2 3972   2.662   0.191  12.014  1.1777 -1.0102 -0.2089
  262TMC3    C7 3973   2.741   4.675  12.137  0.1425  0.1750 -0.3092
  262TMC3    C8 3974   2.436   0.284  11.982  0.2819 -0.1687 -0.7044
  262TMC3    O1 3975   2.771   4.588  12.213 -0.1871 -0.2570 -0.4046
  262TMC3    O2 3976   2.528   0.334  11.921 -0.1472 -0.5468 -0.4609
  263MPD2     C 3977   3.608   4.065  11.225 -0.0450  0.5106  0.4626
  263MPD2    C1 3978   3.713   4.042  11.135  0.3853  0.4267  0.3627
  263MPD2    C2 3979   3.715   4.119  11.016 -0.4098  0.4384  0.0548
  263MPD2    C3 3980   3.600   4.194  10.988 -0.6661 -0.4361  0.3758
  263MPD2    C4 3981   3.502   4.220  11.081  0.2455  0.0754  0.0874
  263MPD2    C5 3982   3.506   4.155  11.199  0.7128 -0.4016  0.3110
  263MPD2     H 3983   3.801   4.116  10.950  0.1379 -0.8527  0.8228
  263MPD2    H1 3984   3.444   4.311  11.075  0.3268  0.1661  0.6087
  263MPD2    H2 3985   3.607   4.017  11.323  0.5329  0.8904  0.6561
  263MPD2    H3 3986   3.437   4.187  11.276 -1.0551 -0.4204 -1.2545
  263MPD2     N 3987   3.592   4.271  10.870 -0.4006  0.2016  0.6714
  263MPD2    H5 3988   3.524   4.346  10.876 -0.6786 -0.1247  1.5628
  263MPD2    N1 3989   3.821   3.952  11.177  0.3787  0.2631  0.0785
  263MPD2    H7 3990   3.804   3.898  11.261  1.3448 -0.2302 -0.0438
  264TMC3    C1 3991   3.656   4.363  10.659  0.4037 -0.1724  0.8819
  264TMC3    C2 3992   3.642   4.486  10.714  0.3539  0.8750 -0.1791
  264TMC3    C3 3993   3.679   4.594  10.639  0.0622 -0.1178  0.2736
  264TMC3    C4 3994   3.719   4.341  10.540 -0.4089  0.4797 -0.7893
  264TMC3    C5 3995   3.758   4.450  10.466  0.4530 -0.0717 -0.2313
  264TMC3    C6 3996   3.723   4.577  10.509 -0.2042 -0.8348 -0.4875
  264TMC3     C 3997   3.650   4.244  10.746  0.2743  0.5513  0.5114
  264TMC3     O 3998   3.719   4.147  10.722 -0.5574  0.3441  0.5156
  264TMC3     H 3999   3.615   4.495  10.819 -0.5932  2.1393 -0.5319
  264TMC3    H1 4000   3.749   4.241  10.511  1.2012  0.8452 -0.3848
  264TMC3    H2 4001   3.756   4.653  10.439  2.1788  1.0304  2.6532
  264TMC3    C7 4002   3.867   4.436  10.378  0.2147  0.2931  0.7041
  264TMC3    C8 4003   3.774   4.693  10.689 -0.9807 -0.1754  0.4877
  264TMC3    O1 4004   3.895   4.328  10.327 -0.3616  0.2430  0.1261
  264TMC3    O2 4005   3.867   4.705  10.613 -0.9202 -0.2174  0.1808
  265MPD2     C 4006   1.012   3.956  15.530  0.2849 -0.1841  0.1012
  265MPD2    C1 4007   1.036   4.081  15.472  0.0261 -0.4063  0.7314
  265MPD2    C2 4008   1.119   4.091  15.366 -0.6274  0.0291  0.0900
  265MPD2    C3 4009   1.174   3.976  15.311  0.2421  0.5222 -0.5517
  265MPD2    C4 4010   1.135   3.849  15.356  0.0300 -0.3980 -0.1655
  265MPD2    C5 4011   1.059   3.847  15.468  0.2612 -0.0651  0.0786
  265MPD2     H 4012   1.157   4.186  15.329  1.0770 -0.2598  1.0931
  265MPD2    H1 4013   1.180   3.761  15.312 -0.2551 -1.1456  1.0678
  265MPD2    H2 4014   0.961   3.953  15.626  2.1731 -1.6090  1.0758
  265MPD2    H3 4015   1.032   3.752  15.512 -1.7821  0.4000 -0.1430
  265MPD2     N 4016   1.277   3.975  15.214 -0.3259  0.3365  0.4014
  265MPD2    H5 4017   1.323   3.886  15.200 -0.7671 -0.1192  1.8431
  265MPD2    N1 4018   0.979   4.201  15.523 -0.4797  0.8107 -0.1283
  265MPD2    H7 4019   1.022   4.283  15.480  1.2661 -0.6316 -1.1223
  266TMC3    C1 4020   0.842   4.341  15.647  0.2986  0.3613  0.2596
  266TMC3    C2 4021   0.775   4.367  15.764  0.3143  0.6292 -0.8752
  266TMC3    C3 4022   0.749   4.497  15.802  0.0433  0.2972 -0.5906
  266TMC3    C4 4023   0.880   4.449  15.573 -0.0810  0.4547 -0.3977
  266TMC3    C5 4024   0.845   4.577  15.613  0.1429 -0.0345  0.5665
  266TMC3    C6 4025   0.783   4.612  15.728 -0.4883  0.0576 -0.3634
  266TMC3     C 4026   0.902   4.210  15.634  1.2455 -0.1264 -0.8425
  266TMC3     O 4027   0.854   4.129  15.705  0.2096 -0.2316 -1.0038
  266TMC3     H 4028   0.725   4.288  15.820 -1.6711  2.7777  0.4012
  266TMC3    H1 4029   0.937   4.439  15.481  0.5613 -0.5698  0.1201
  266TMC3    H2 4030   0.763   4.713  15.759 -0.0206 -0.0488  0.2752
  266TMC3    C7 4031   0.915   4.680  15.539  0.5683  0.0246 -0.3270
  266TMC3    C8 4032   0.674   4.512  15.922  0.6256  0.5820  0.1874
  266TMC3    O1 4033   1.029   4.660  15.495  0.2845  0.4261  0.1315
  266TMC3    O2 4034   0.608   4.415  15.966  0.0444 -0.1067 -0.2310
  267MPD2     C 4035   2.809   0.598  17.494 -0.4184  0.0871 -0.3172
  267MPD2    C1 4036   2.927   0.643  17.444 -0.3073  0.6771  0.4908
  267MPD2    C2 4037   2.942   0.647  17.303 -0.0047  0.0221 -0.0502
  267MPD2    C3 4038   2.836   0.618  17.218  0.0327 -0.0260  0.1805
  267MPD2    C4 4039   2.716   0.580  17.275 -0.3345  0.2119  0.4442
  267MPD2    C5 4040   2.702   0.564  17.413 -0.6601 -0.4613 -0.2989
  267MPD2     H 4041   3.036   0.676  17.257 -1.7406  2.9021 -1.7100
  267MPD2    H1 4042   2.629   0.552  17.217  0.2464  0.9392 -0.7944
  267MPD2    H2 4043   2.800   0.572  17.598 -1.3394  0.9560 -0.1788
  267MPD2    H3 4044   2.613   0.517  17.453 -0.2680 -2.5365 -1.8680
  267MPD2     N 4045   2.836   0.628  17.078 -0.2604 -0.1716 -0.0657
  267MPD2    H5 4046   2.751   0.602  17.028  0.0607  0.9509 -1.1928
  267MPD2    N1 4047   3.034   0.664  17.533 -0.3141  0.5640  0.3695
  267MPD2    H7 4048   3.015   0.662  17.632 -0.1349 -1.4272  0.3821
  268TMC3    C1 4049   3.258   0.714  17.613  0.4631  0.6667 -0.2836
  268TMC3    C2 4050   3.373   0.789  17.599 -0.6935 -0.4569  0.4025
  268TMC3    C3 4051   3.484   0.748  17.677  0.0175  0.4838  0.1997
  268TMC3    C4 4052   3.248   0.614   0.010 -0.3765 -0.3199  0.4333
  268TMC3    C5 4053   3.360   0.587   0.085 -0.5725  0.3383 -0.2987
  268TMC3    C6 4054   3.481   0.649   0.072 -0.4018 -0.2748 -0.2618
  268TMC3     C 4055   3.160   0.719  17.501  0.6241 -0.8000  0.5533
  268TMC3     O 4056   3.202   0.760  17.395  0.4215 -0.3835 -0.0318
  268TMC3     H 4057   3.376   0.872  17.529 -0.6160 -2.5633 -2.0965
  268TMC3    H1 4058   3.159   0.555   0.023 -0.5842 -0.0662  0.1739
  268TMC3    H2 4059   3.570   0.605   0.116  0.4399  1.7979  0.1042
  268TMC3    C7 4060   3.353   0.482   0.190 -0.1791  0.4130  0.1404
  268TMC3    C8 4061   3.610   0.817  17.674  0.0213 -0.2260  0.0899
  268TMC3    O1 4062   3.421   0.493   0.289  0.2138 -0.0754 -0.2406
  268TMC3    O2 4063   3.691   0.797   0.064  0.4911 -0.2358  0.1175
  269MPD2     C 4064   3.722   4.168  15.563 -0.0309  0.4331 -0.7216
  269MPD2    C1 4065   3.615   4.229  15.629  0.5780 -0.4056 -0.3656
  269MPD2    C2 4066   3.600   4.371  15.608 -0.5381 -0.2740  0.5556
  269MPD2    C3 4067   3.691   4.449  15.543 -0.5484 -0.0659 -0.2491
  269MPD2    C4 4068   3.803   4.388  15.488 -0.0746 -0.4020  0.4109
  269MPD2    C5 4069   3.817   4.250  15.506 -0.4880  0.1823  0.5685
  269MPD2     H 4070   3.518   4.415  15.663 -1.3873 -0.1290 -0.8360
  269MPD2    H1 4071   3.868   4.444  15.422 -0.4795  0.3126  0.6188
  269MPD2    H2 4072   3.736   4.061  15.553  2.0633  0.6530 -0.0039
  269MPD2    H3 4073   3.906   4.201  15.468  0.6228  1.5986  1.3554
  269MPD2     N 4074   3.661   4.585  15.534  0.2128  0.4071 -0.4655
  269MPD2    H5 4075   3.571   4.600  15.578  1.1870  1.1566  1.2641
  269MPD2    N1 4076   3.516   4.142  15.684 -0.0172  0.0911 -0.2627
  269MPD2    H7 4077   3.543   4.045  15.677 -3.0472 -0.8629  1.2147
  270TMC3    C1 4078   3.327   4.059  15.771 -0.8099  0.7332  0.2449
  270TMC3    C2 4079   3.193   4.058  15.725 -0.7045  0.4216 -0.7432
  270TMC3    C3 4080   3.142   3.946  15.673 -0.1212 -0.5799 -0.0386
  270TMC3    C4 4081   3.396   3.941  15.780 -0.1252 -0.9062 -0.0599
  270TMC3    C5 4082   3.333   3.829  15.729 -0.0980  0.3427 -0.2447
  270TMC3    C6 4083   3.209   3.830  15.672  0.1180 -0.2958 -0.4541
  270TMC3     C 4084   3.399   4.178  15.742 -0.3979 -0.2549  0.2970
  270TMC3     O 4085   3.352   4.291  15.752  0.4506 -0.4503 -0.3079
  270TMC3     H 4086   3.157   4.160  15.720  0.8656  1.2092  3.5968
  270TMC3    H1 4087   3.496   3.946  15.820 -1.0243 -0.5892  2.1347
  270TMC3    H2 4088   3.157   3.744  15.632  0.8843  0.4301 -3.0114
  270TMC3    C7 4089   3.422   3.751  15.652 -0.2038  0.5109 -0.1680
  270TMC3    C8 4090   3.030   3.957  15.582 -0.1167  0.4243 -0.4808
  270TMC3    O1 4091   3.521   3.810  15.615 -1.0161 -0.1857 -0.2932
  270TMC3    O2 4092   2.922   3.988  15.627  0.0793  0.2275  0.1160
  271MPD2     C 4093   2.446   4.101  13.834 -0.4787  0.5493 -0.2058
  271MPD2    C1 4094   2.452   4.160  13.960 -0.4613 -0.2572  0.0888
  271MPD2    C2 4095   2.384   4.275  13.985 -0.0203  0.5972 -0.0079
  271MPD2    C3 4096   2.295   4.332  13.892 -0.0308 -0.6141  0.3667
  271MPD2    C4 4097   2.282   4.264  13.774  0.2560 -0.0292 -0.2257
  271MPD2    C5 4098   2.367   4.163  13.741 -0.1736 -0.1219 -0.4229
  271MPD2     H 4099   2.402   4.316  14.083 -0.0992  1.5471 -0.3832
  271MPD2    H1 4100   2.234   4.309  13.687 -0.9850 -0.7526  0.0836
  271MPD2    H2 4101   2.501   4.014  13.800  1.0512  1.1312  0.7873
  271MPD2    H3 4102   2.371   4.119  13.642 -0.6498  1.5061 -1.1635
  271MPD2     N 4103   2.225   4.454  13.910  0.0995 -0.6390  0.6216
  271MPD2    H5 4104   2.156   4.484  13.842 -2.1701 -0.6978  2.9260
  271MPD2    N1 4105   2.542   4.112  14.064  0.1720  0.1033  0.3309
  271MPD2    H7 4106   2.537   4.177  14.142  0.4562  2.9751 -2.0894
  272TMC3    C1 4107   2.716   4.004  14.175  0.2939 -0.4084  0.1110
  272TMC3    C2 4108   2.828   3.924  14.165  0.2892 -0.1504  0.0995
  272TMC3    C3 4109   2.888   3.886  14.285  0.1685  0.3436 -0.3465
  272TMC3    C4 4110   2.665   4.047  14.297 -0.4336  0.1644  0.3108
  272TMC3    C5 4111   2.737   4.018  14.411  0.1235  0.0840  0.7624
  272TMC3    C6 4112   2.841   3.931  14.407  0.6438 -0.3206  0.2201
  272TMC3     C 4113   2.630   4.011  14.058 -0.1333 -0.4545 -0.4315
  272TMC3     O 4114   2.667   3.944  13.963 -0.7421 -0.2535  0.3561
  272TMC3     H 4115   2.863   3.892  14.067  1.1527 -0.1582  0.4151
  272TMC3    H1 4116   2.564   4.085  14.305 -0.8355 -1.0301  0.8772
  272TMC3    H2 4117   2.896   3.912  14.498  0.1345 -2.9583 -0.0227
  272TMC3    C7 4118   2.688   4.081  14.528  0.1969  0.2313  0.5569
  272TMC3    C8 4119   3.021   3.836  14.279  0.0231  0.3478 -1.2460
  272TMC3    O1 4120   2.570   4.111  14.532  0.4560 -0.5861 -0.5014
  272TMC3    O2 4121   3.078   3.838  14.176 -0.1639  0.6240 -0.0540
  273MPD2     C 4122   3.811   2.421  11.555 -0.2181 -0.0023 -0.1906
  273MPD2    C1 4123   3.897   2.529  11.561 -0.7105  0.5329 -0.9374
  273MPD2    C2 4124   3.938   2.595  11.446  0.0292  0.5592 -0.2265
  273MPD2    C3 4125   3.896   2.557  11.327  0.4957 -0.6266  0.4731
  273MPD2    C4 4126   3.805   2.454  11.317  0.5937 -0.3090  0.3589
  273MPD2    C5 4127   3.760   2.388  11.431 -0.2528  0.2298 -0.6047
  273MPD2     H 4128   4.009   2.678  11.449 -0.9264  1.3438  0.7620
  273MPD2    H1 4129   3.761   2.412  11.227  0.4402  0.4208  0.0973
  273MPD2    H2 4130   3.791   2.347  11.631  2.0620 -2.0432 -1.5640
  273MPD2    H3 4131   3.686   2.310  11.413  0.3616 -0.5218  0.1369
  273MPD2     N 4132   3.932   2.614  11.201 -0.2861  0.0467 -0.1772
  273MPD2    H5 4133   3.889   2.583  11.114 -4.1486  0.7114  1.4845
  273MPD2    N1 4134   3.931   2.566  11.699  0.0812 -0.4291  0.2815
  273MPD2    H7 4135   3.884   2.512  11.771  0.6733 -0.1402  0.8841
  274TMC3    C1 4136   4.065   2.722  11.045  0.3296  0.3437 -0.6441
  274TMC3    C2 4137   3.972   2.686  10.941  0.1952 -0.7158  0.7862
  274TMC3    C3 4138   3.981   2.764  10.834 -0.3715 -0.2506  0.4612
  274TMC3    C4 4139   4.163   2.815  11.023 -0.5918  0.8867  0.6414
  274TMC3    C5 4140   4.173   2.876  10.906 -0.4313  0.0661 -0.5703
  274TMC3    C6 4141   4.079   2.865  10.816  0.0044 -0.2481 -0.1517
  274TMC3     C 4142   4.030   2.705  11.185  0.1258  0.2178  0.3049
  274TMC3     O 4143   4.108   2.761  11.266 -0.1630 -0.7928 -0.3632
  274TMC3     H 4144   3.900   2.605  10.944 -0.3245 -0.2325  1.4879
  274TMC3    H1 4145   4.239   2.827  11.099  2.3897 -0.2213 -2.1709
  274TMC3    H2 4146   4.095   2.908  10.718 -0.9924  0.7748  0.1309
  274TMC3    C7 4147   4.230   3.009  10.909 -0.0728 -0.6355 -0.0146
  274TMC3    C8 4148   3.851   2.810  10.800 -0.0602 -0.4692 -0.0104
  274TMC3    O1 4149   4.153   3.095  10.864 -0.1392 -0.1750  0.0348
  274TMC3    O2 4150   3.770   2.794  10.888  0.6106  0.3715  0.5928
  275MPD2     C 4151   4.066   0.464  14.260 -0.7664 -0.3970 -0.0913
  275MPD2    C1 4152   4.002   0.433  14.380 -0.7631 -0.6520  0.3514
  275MPD2    C2 4153   3.866   0.421  14.387 -0.3031 -0.6366  0.2573
  275MPD2    C3 4154   3.787   0.428  14.274 -0.0249 -0.1954  0.4467
  275MPD2    C4 4155   3.840   0.464  14.150 -0.0829 -0.0719  0.0095
  275MPD2    C5 4156   3.983   0.465  14.147 -0.0038  0.2144  0.3801
  275MPD2     H 4157   3.819   0.389  14.479  0.4964  0.3952  1.0294
  275MPD2    H1 4158   3.780   0.475  14.060  0.0623  0.1734 -0.0560
  275MPD2    H2 4159   4.172   0.470  14.241 -0.8564 -0.8815 -0.7320
  275MPD2    H3 4160   4.031   0.497  14.055  0.2240  1.7148  1.0219
  275MPD2     N 4161   3.652   0.398  14.287 -0.2039 -0.2870  0.2835
  275MPD2    H5 4162   3.617   0.376  14.380  2.8323  1.7043  1.8833
  275MPD2    N1 4163   4.072   0.419  14.500 -0.1676  0.1787 -0.1784
  275MPD2    H7 4164   4.006   0.385  14.570 -0.9215  1.4045 -0.3029
  276TMC3    C1 4165   4.241   0.419  14.662  0.6965  0.1938 -0.1275
  276TMC3    C2 4166   4.163   0.340  14.741 -0.2269  0.3151  0.6933
  276TMC3    C3 4167   4.201   0.297  14.864 -0.1476  0.6110  0.3399
  276TMC3    C4 4168   4.361   0.463  14.711  0.3991 -0.3742  0.3528
  276TMC3    C5 4169   4.402   0.406  14.836  0.0659  0.5305 -0.0194
  276TMC3    C6 4170   4.328   0.321  14.910 -0.1828  0.0651  0.3779
  276TMC3     C 4171   4.204   0.440  14.523  0.2857  0.1452 -0.0787
  276TMC3     O 4172   4.286   0.490  14.449 -0.2451  0.0377 -0.1209
  276TMC3     H 4173   4.083   0.282  14.695  0.9067  1.5191 -2.7732
  276TMC3    H1 4174   4.432   0.521  14.654 -0.8018 -0.7846 -1.5662
  276TMC3    H2 4175   4.347   0.295  15.014  0.3222 -1.2945 -0.0453
  276TMC3    C7 4176   4.488   0.495  14.911 -0.1455 -0.7295 -0.1776
  276TMC3    C8 4177   4.096   0.220  14.943 -0.0258 -0.6451 -0.3685
  276TMC3    O1 4178   4.452   0.506  15.028  0.1182  0.2394 -0.3983
  276TMC3    O2 4179   3.977   0.249  14.928 -0.1270  0.1206  0.0434
  277MPD2     C 4180   0.514   4.627  13.363 -0.2763 -0.4711 -0.3220
  277MPD2    C1 4181   0.401   4.574  13.306 -0.1515  0.1519 -0.0189
  277MPD2    C2 4182   0.316   4.498  13.385  0.2133 -0.2881 -0.0199
  277MPD2    C3 4183   0.344   4.478  13.521  0.4040  0.4333 -0.4220
  277MPD2    C4 4184   0.447   4.551  13.577  0.0395 -0.1273 -0.4041
  277MPD2    C5 4185   0.538   4.618  13.500  0.0950  0.3969 -0.4583
  277MPD2     H 4186   0.225   4.447  13.356 -0.4115  1.2626 -0.7957
  277MPD2    H1 4187   0.474   4.557  13.682  0.1132  2.7012 -0.5799
  277MPD2    H2 4188   0.587   4.684  13.306  0.8246 -0.3620  1.1781
  277MPD2    H3 4189   0.629   4.659  13.543  0.8216  0.2343 -1.8354
  277MPD2     N 4190   0.259   4.397  13.591  1.0025 -0.1552  0.2254
  277MPD2    H5 4191   0.184   4.349  13.542  0.3193  0.5605  0.5502
  277MPD2    N1 4192   0.372   4.603  13.171  0.6205  0.9076 -0.0465
  277MPD2    H7 4193   0.441   4.659  13.121 -0.5605  1.1225 -1.4437
  278TMC3    C1 4194   0.149   4.274  13.749 -0.0187  0.5188 -0.9035
  278TMC3    C2 4195   0.183   4.167  13.820  0.4576  0.3202 -0.0817
  278TMC3    C3 4196   0.089   4.064  13.827  0.6299  0.0128  0.8431
  278TMC3    C4 4197   0.031   4.296  13.692  0.0077  0.0012 -0.6198
  278TMC3    C5 4198   4.657   4.201  13.729 -0.4655  0.0178  0.2273
  278TMC3    C6 4199   4.688   4.081  13.778 -0.8335 -0.6092  0.3309
  278TMC3     C 4200   0.266   4.353  13.722  0.2070 -0.3839  0.5624
  278TMC3     O 4201   0.357   4.366  13.803 -0.3471  0.0601 -0.7040
  278TMC3     H 4202   0.283   4.148  13.857  1.2713  1.9316 -1.5290
  278TMC3    H1 4203   0.006   4.391  13.647 -0.6723  0.6593  1.1790
  278TMC3    H2 4204   4.622   3.995  13.776 -1.4506 -0.0207 -4.1988
  278TMC3    C7 4205   4.522   4.232  13.680  0.1005 -0.6471  0.7771
  278TMC3    C8 4206   0.153   3.935  13.822  0.1541  0.9261 -0.4017
  278TMC3    O1 4207   4.523   4.313  13.591  0.2227  0.0765 -0.3520
  278TMC3    O2 4208   0.252   3.916  13.892 -0.3100 -0.7193  0.1247
  279MPD2     C 4209   0.336   4.303   0.312  0.0908 -0.3421 -0.2509
  279MPD2    C1 4210   0.226   4.232   0.267 -0.2514  1.5053  0.0483
  279MPD2    C2 4211   0.215   4.194   0.134  0.1037  0.2154  0.0765
  279MPD2    C3 4212   0.308   4.237   0.044 -0.4703  0.5162 -0.8953
  279MPD2    C4 4213   0.413   4.313   0.086 -0.7270  0.6092 -0.0460
  279MPD2    C5 4214   0.427   4.346   0.219  0.1266 -0.0977  0.1235
  279MPD2     H 4215   0.128   4.137   0.101  0.0001  1.1447 -1.2619
  279MPD2    H1 4216   0.480   4.356   0.013 -0.6500  2.1977  0.9631
  279MPD2    H2 4217   0.348   4.338   0.414  0.5361  0.8289 -0.7077
  279MPD2    H3 4218   0.500   4.420   0.249  0.8306 -0.2574 -1.2002
  279MPD2     N 4219   0.309   4.216  17.604  0.1078 -0.4422 -0.1877
  279MPD2    H5 4220   0.393   4.243  17.555  0.9253 -0.0975  1.3943
  279MPD2    N1 4221   0.123   4.191   0.358  0.7805 -0.6296 -0.6073
  279MPD2    H7 4222   0.059   4.125   0.314  1.4922 -1.0222 -1.0570
  280TMC3    C1 4223   4.686   4.220   0.525  0.1775 -0.4489  0.0129
  280TMC3    C2 4224   4.620   4.112   0.469 -0.5634  0.0682  0.1710
  280TMC3    C3 4225   4.488   4.131   0.443  0.0393  0.6076  0.0834
  280TMC3    C4 4226   4.616   4.339   0.557  0.6336 -0.0462  0.7297
  280TMC3    C5 4227   4.482   4.344   0.538  0.6548  0.1977  1.3610
  280TMC3    C6 4228   4.422   4.244   0.473  0.4988 -0.3071 -0.8196
  280TMC3     C 4229   0.101   4.238   0.490 -0.9859 -0.8444 -0.4373
  280TMC3     O 4230   0.158   4.326   0.554 -0.0099  0.1690  0.0143
  280TMC3     H 4231   4.677   4.022   0.446  0.9696  1.1554 -0.3182
  280TMC3    H1 4232   4.676   4.423   0.590 -0.4615  1.4689 -1.1346
  280TMC3    H2 4233   4.314   4.241   0.469  0.5268  0.7619 -2.5304
  280TMC3    C7 4234   4.433   4.482   0.535  0.3115  0.0691  0.7366
  280TMC3    C8 4235   4.406   4.022   0.399 -0.0050  0.0582  0.3956
  280TMC3    O1 4236   4.497   4.570   0.588 -0.5180  0.2439 -0.3248
  280TMC3    O2 4237   4.301   4.051   0.339 -0.2460  0.3077 -0.8456
  281TMC3    C1 4238   3.620   4.427  13.146  0.4086 -0.1142 -0.5417
  281TMC3    C2 4239   3.735   4.480  13.102 -0.0671 -0.2024 -0.2291
  281TMC3    C3 4240   3.789   4.418  12.997 -1.1642 -0.2863 -0.1466
  281TMC3    C4 4241   3.570   4.308  13.107 -0.2515  0.1889  0.6604
  281TMC3    C5 4242   3.633   4.242  13.004 -0.2129 -0.6332 -0.0644
  281TMC3    C6 4243   3.745   4.297  12.948 -0.8742 -1.1933  0.0930
  281TMC3     C 4244   3.533   4.506  13.234 -0.4323 -0.2872  0.0896
  281TMC3     O 4245   3.425   4.455  13.265 -0.3664 -0.3423 -0.3725
  281TMC3     H 4246   3.790   4.550  13.164  0.0711 -0.8268  0.3532
  281TMC3    H1 4247   3.476   4.272  13.147 -0.1376  1.1831  1.8061
  281TMC3    H2 4248   3.801   4.245  12.871  0.2145 -0.8867  0.6753
  281TMC3    C7 4249   3.576   4.123  12.950  0.4452  0.0765  0.7644
  281TMC3    C8 4250   3.927   4.448  12.964  0.5152 -0.3012 -0.2968
  281TMC3    O1 4251   3.631   4.089  12.845 -1.1555  0.2349  0.6771
  281TMC3    O2 4252   4.001   4.349  12.971 -0.3869  0.5268  0.0290
  282MPD2     C 4253   1.092   1.122  15.102  0.6395  0.3654  0.3281
  282MPD2    C1 4254   0.958   1.155  15.105 -0.5290 -0.1678 -0.0753
  282MPD2    C2 4255   0.874   1.125  14.997  0.0878  0.1115 -0.1140
  282MPD2    C3 4256   0.933   1.067  14.889 -0.4750 -0.0956 -0.0224
  282MPD2    C4 4257   1.068   1.042  14.885 -0.0540  0.6372 -0.0622
  282MPD2    C5 4258   1.149   1.065  14.992  0.6874  0.3511  0.1301
  282MPD2     H 4259   0.769   1.152  15.002  0.3349  0.6513  2.1455
  282MPD2    H1 4260   1.114   0.996  14.799  0.7382  3.6675 -1.2262
  282MPD2    H2 4261   1.151   1.142  15.191  0.3852 -1.1389  0.8280
  282MPD2    H3 4262   1.252   1.033  14.995  0.9983  1.1479 -2.4179
  282MPD2     N 4263   0.847   1.061  14.771  0.5266  0.5982 -0.5355
  282MPD2    H5 4264   0.752   1.095  14.777  0.4688  0.6531 -1.6954
  282MPD2    N1 4265   0.895   1.205  15.223  0.5051  0.0333 -0.9942
  282MPD2    H7 4266   0.793   1.205  15.218  0.4699  1.4880 -0.6089
  283TMC3    C1 4267   0.868   1.290  15.442  0.2195 -0.2823  0.6050
  283TMC3    C2 4268   0.884   1.407  15.511  0.1685  0.8950 -0.2202
  283TMC3    C3 4269   0.810   1.418  15.627 -0.0446 -0.1402 -0.0124
  283TMC3    C4 4270   0.773   1.200  15.478 -0.0728  0.1261  0.7634
  283TMC3    C5 4271   0.711   1.207  15.598 -0.3659 -0.0097 -0.1948
  283TMC3    C6 4272   0.722   1.323  15.670 -0.5070  0.0780  0.4192
  283TMC3     C 4273   0.959   1.266  15.332  0.1016 -0.8690 -0.3346
  283TMC3     O 4274   1.075   1.291  15.349 -0.4983 -0.1091 -0.1480
  283TMC3     H 4275   0.957   1.478  15.472  0.9614 -1.6763 -3.4141
  283TMC3    H1 4276   0.772   1.107  15.424  0.5626  0.0045  0.9596
  283TMC3    H2 4277   0.666   1.333  15.762 -2.1980 -3.6779 -0.2126
  283TMC3    C7 4278   0.628   1.101  15.661 -0.6354  0.1770  0.1413
  283TMC3    C8 4279   0.797   1.554  15.667 -0.2410  0.2641 -0.6570
  283TMC3    O1 4280   0.578   1.126  15.772 -0.3345  0.3138  0.0669
  283TMC3    O2 4281   0.793   1.586  15.785  0.2145 -0.3786  0.7054
  284MPD2     C 4282   4.272   0.713  11.919 -0.1883  0.5647 -0.7062
  284MPD2    C1 4283   4.341   0.660  11.815 -0.2425  0.3596  0.4791
  284MPD2    C2 4284   4.305   0.530  11.765 -0.0918  0.3486  0.3232
  284MPD2    C3 4285   4.201   0.458  11.812 -0.8856  0.0415  0.3954
  284MPD2    C4 4286   4.125   0.527  11.911  0.6741 -0.0461  0.4884
  284MPD2    C5 4287   4.166   0.644  11.967 -0.5485 -0.6575  0.3021
  284MPD2     H 4288   4.375   0.481  11.699  1.6643 -1.0948  3.2297
  284MPD2    H1 4289   4.039   0.477  11.952  0.2078  1.2202  1.0676
  284MPD2    H2 4290   4.290   0.813  11.958  1.5980 -1.1179  2.8035
  284MPD2    H3 4291   4.096   0.688  12.037  0.9013  1.4096  0.4402
  284MPD2     N 4292   4.200   0.322  11.770 -0.1452  0.3010 -0.9093
  284MPD2    H5 4293   4.276   0.293  11.710 -0.4437 -1.1993 -0.5538
  284MPD2    N1 4294   4.456   0.712  11.765 -0.1849 -0.4655  0.1374
  284MPD2    H7 4295   4.490   0.658  11.686 -2.2064 -1.5786  0.0498
  285TMC3    C1 4296   4.609   0.887  11.709 -0.1768 -0.4740  0.3775
  285TMC3    C2 4297   4.637   0.827  11.590 -0.5594 -0.8304  0.6441
  285TMC3    C3 4298   4.717   0.895  11.497  0.4414 -0.4282  0.9925
  285TMC3    C4 4299   4.636   1.018  11.740  0.2699  0.3744  0.2517
  285TMC3    C5 4300   4.718   1.080  11.644  0.0261  0.5188 -0.1257
  285TMC3    C6 4301   0.025   1.024  11.517  0.0322  0.4505 -0.9383
  285TMC3     C 4302   4.518   0.826  11.807  0.4415 -0.0720 -0.0717
  285TMC3     O 4303   4.497   0.886  11.913  0.0859 -0.0941  0.3937
  285TMC3     H 4304   4.605   0.727  11.565 -1.0142 -0.3872 -0.5619
  285TMC3    H1 4305   4.596   1.064  11.830 -2.9672 -0.6083 -0.6680
  285TMC3    H2 4306   0.080   1.082  11.445 -1.8839  2.2828 -0.9131
  285TMC3    C7 4307   0.033   1.218  11.661 -0.3000 -0.1880  0.5676
  285TMC3    C8 4308   4.698   0.842  11.367  0.2459 -0.2331 -0.1959
  285TMC3    O1 4309   0.005   1.289  11.568  0.3832  0.1571  0.0037
  285TMC3    O2 4310   4.593   0.794  11.336 -0.1668  0.1207  0.2161
  286MPD2     C 4311   3.502   3.635   1.636 -0.3707  0.2898 -0.1032
  286MPD2    C1 4312   3.549   3.661   1.508 -0.6473  0.3715  0.0723
  286MPD2    C2 4313   3.633   3.566   1.456  0.7633 -0.4168 -0.6533
  286MPD2    C3 4314   3.656   3.446   1.519  0.2739 -0.1399 -0.2324
  286MPD2    C4 4315   3.600   3.428   1.645 -0.5735 -0.4442 -0.2784
  286MPD2    C5 4316   3.540   3.528   1.708 -0.6642 -0.5102 -0.2284
  286MPD2     H 4317   3.685   3.574   1.361  2.1561 -1.2617  0.0358
  286MPD2    H1 4318   3.609   3.338   1.704  0.8176 -1.5226 -2.1605
  286MPD2    H2 4319   3.438   3.706   1.688  2.2097  1.8803  0.8930
  286MPD2    H3 4320   3.506   3.519   1.810 -0.6312 -0.5435 -0.2202
  286MPD2     N 4321   3.722   3.331   1.466  0.3294 -0.0192  0.1808
  286MPD2    H5 4322   3.733   3.250   1.526 -1.4382  1.4831  2.5226
  286MPD2    N1 4323   3.527   3.786   1.448  0.5575  0.4940  0.2262
  286MPD2    H7 4324   3.564   3.801   1.354 -1.2527 -0.0169 -0.5721
  287TMC3    C1 4325   3.839   3.210   1.323  0.0369  0.3127  0.1306
  287TMC3    C2 4326   3.845   3.162   1.196 -0.6262 -0.1169 -0.0831
  287TMC3    C3 4327   3.918   3.046   1.171 -0.2694 -0.2305  0.4294
  287TMC3    C4 4328   3.890   3.140   1.431 -0.2781 -0.5823 -0.0695
  287TMC3    C5 4329   3.956   3.023   1.406 -0.4812  0.3828 -0.1240
  287TMC3    C6 4330   3.969   2.970   1.274  0.0118 -0.1011  0.1649
  287TMC3     C 4331   3.761   3.329   1.337 -0.7926 -0.5760 -1.0456
  287TMC3     O 4332   3.732   3.392   1.232 -0.1601 -0.3786 -0.0582
  287TMC3     H 4333   3.790   3.208   1.115  0.0272  0.0343 -0.4452
  287TMC3    H1 4334   3.897   3.178   1.533  1.5686  0.3956 -0.5714
  287TMC3    H2 4335   4.013   2.874   1.253  1.0333  0.1723  1.0225
  287TMC3    C7 4336   4.070   3.009   1.493  0.1451 -0.3383  0.1852
  287TMC3    C8 4337   3.937   2.998   1.036 -0.7708 -0.3047  0.2781
  287TMC3    O1 4338   4.092   3.086   1.585  0.3631  0.0174  0.0077
  287TMC3    O2 4339   3.981   2.882   1.023 -0.4483  0.4991  0.1088
  288TMC3    C1 4340   1.023   3.448  14.636  0.8650 -0.1589 -0.0099
  288TMC3    C2 4341   0.989   3.377  14.750 -0.2302 -0.4232  0.1292
  288TMC3    C3 4342   0.964   3.451  14.866  0.5301 -0.0769  0.5614
  288TMC3    C4 4343   1.051   3.581  14.643  0.1948 -0.2504  0.3516
  288TMC3    C5 4344   1.037   3.650  14.763 -0.3414  0.4561  0.8244
  288TMC3    C6 4345   0.989   3.583  14.871 -0.1423 -0.1950  0.3438
  288TMC3     C 4346   1.034   3.374  14.507 -0.7344 -0.3050  0.7413
  288TMC3     O 4347   0.983   3.261  14.503 -0.2989 -0.3798  0.9206
  288TMC3     H 4348   0.990   3.268  14.749 -2.1132 -0.4450  0.3974
  288TMC3    H1 4349   1.069   3.632  14.549  1.4029 -0.7796  0.2958
  288TMC3    H2 4350   0.987   3.643  14.961  0.5480 -1.0785  0.9505
  288TMC3    C7 4351   1.081   3.786  14.781 -0.7204 -0.3322 -0.1608
  288TMC3    C8 4352   0.941   3.380  14.987  1.0958 -0.4758 -0.2738
  288TMC3    O1 4353   1.040   3.847  14.878  0.0573 -0.6096  0.5669
  288TMC3    O2 4354   1.015   3.398  15.085 -0.2919  0.5953 -0.7825
  289MPD2     C 4355   1.512   2.737  14.570 -0.1049  0.6312 -0.1706
  289MPD2    C1 4356   1.446   2.856  14.549  0.3936  0.0480 -0.3565
  289MPD2    C2 4357   1.315   2.861  14.506  1.1174  0.9503 -0.7590
  289MPD2    C3 4358   1.267   2.737  14.454  0.2113 -0.7802  0.0085
  289MPD2    C4 4359   1.331   2.618  14.482  0.6438 -0.3176  0.2983
  289MPD2    C5 4360   1.456   2.617  14.543 -0.4033 -0.4217 -0.5976
  289MPD2     H 4361   1.270   2.957  14.485 -2.5411 -0.3330  1.1604
  289MPD2    H1 4362   1.292   2.525  14.442 -0.3393 -0.8688  2.5335
  289MPD2    H2 4363   1.612   2.742  14.611  0.4952  1.1697 -1.6893
  289MPD2    H3 4364   1.523   2.532  14.556 -1.8262 -1.5377 -0.5742
  289MPD2     N 4365   1.142   2.725  14.386 -0.1753 -0.1050  0.2335
  289MPD2    H5 4366   1.125   2.635  14.344 -2.0554 -0.0065  0.7853
  289MPD2    N1 4367   1.519   2.970  14.573  0.0562  0.7217 -0.0916
  289MPD2    H7 4368   1.608   2.961  14.622 -0.7779  0.8297  1.4648
  290TMC3    C1 4369   0.947   2.791  14.272  0.0570  0.2714  0.9553
  290TMC3    C2 4370   0.839   2.881  14.268 -0.6267  0.1100  0.0608
  290TMC3    C3 4371   0.738   2.862  14.176  0.7773  0.1104 -0.5120
  290TMC3    C4 4372   0.955   2.689  14.179 -0.7196 -0.7712 -0.4480
  290TMC3    C5 4373   0.850   2.674  14.087 -0.3128  0.1461  0.1935
  290TMC3    C6 4374   0.743   2.757  14.084  0.3565  0.7877 -0.4817
  290TMC3     C 4375   1.060   2.823  14.356 -0.1068  0.2614  0.5941
  290TMC3     O 4376   1.066   2.941  14.392 -0.6747 -0.1601  0.0918
  290TMC3     H 4377   0.840   2.969  14.331  1.8686  1.5386 -1.9828
  290TMC3    H1 4378   1.044   2.627  14.169 -1.3186 -1.9477  1.4241
  290TMC3    H2 4379   0.670   2.746  14.004  1.4267 -1.3003 -1.1589
  290TMC3    C7 4380   0.844   2.574  13.985 -0.1930  0.2362 -0.1102
  290TMC3    C8 4381   0.638   2.965  14.137 -0.5088 -0.0710  0.2895
  290TMC3    O1 4382   0.827   2.627  13.874  0.5451 -0.6130  0.4237
  290TMC3    O2 4383   0.587   2.955  14.024  0.8032 -0.1905 -0.8756
  291MPD2     C 4384   1.020   2.576   0.703  0.3520  0.3991 -0.1730
  291MPD2    C1 4385   1.002   2.479   0.608  0.3932  0.9857 -0.2844
  291MPD2    C2 4386   1.116   2.410   0.573  0.4759  0.5302 -0.1553
  291MPD2    C3 4387   1.239   2.431   0.631 -0.1957  0.1244  0.1610
  291MPD2    C4 4388   1.248   2.527   0.724  0.1969 -0.6437  0.0669
  291MPD2    C5 4389   1.142   2.599   0.761 -0.4221 -0.4800 -0.7561
  291MPD2     H 4390   1.103   2.329   0.502  1.6484  2.8399 -3.0213
  291MPD2    H1 4391   1.342   2.558   0.769  0.3641 -1.7424  0.4718
  291MPD2    H2 4392   0.935   2.612   0.761  0.1493 -0.7225  0.2326
  291MPD2    H3 4393   1.153   2.673   0.839 -1.3673 -0.2367 -0.8583
  291MPD2     N 4394   1.360   2.366   0.603 -0.4893 -0.3365 -0.2750
  291MPD2    H5 4395   1.442   2.400   0.651  0.1309 -2.4796  0.1507
  291MPD2    N1 4396   0.873   2.435   0.560 -0.0692  0.2881 -0.5458
  291MPD2    H7 4397   0.862   2.350   0.507 -2.2706  0.5451 -0.4889
  292TMC3    C1 4398   0.639   2.411   0.567  0.6582  0.9669  0.2471
  292TMC3    C2 4399   0.558   2.411   0.678  0.1030  0.1528 -0.7270
  292TMC3    C3 4400   0.466   2.309   0.697 -0.9108  0.2781 -0.6866
  292TMC3    C4 4401   0.646   2.297   0.485 -0.0932  0.4147 -0.4300
  292TMC3    C5 4402   0.568   2.196   0.519 -0.0352 -0.5357 -0.0241
  292TMC3    C6 4403   0.486   2.193   0.628 -0.7588 -0.0407 -0.4227
  292TMC3     C 4404   0.750   2.495   0.593  0.1184 -0.2554 -0.1711
  292TMC3     O 4405   0.732   2.605   0.639 -0.2990  0.3079  0.8854
  292TMC3     H 4406   0.540   2.502   0.735 -1.1216  0.2634 -1.2827
  292TMC3    H1 4407   0.688   2.298   0.385  0.6436 -2.3830 -0.1663
  292TMC3    H2 4408   0.430   2.103   0.648 -2.8329  0.8903 -2.0318
  292TMC3    C7 4409   0.523   2.114   0.404  0.0531 -0.0815  0.0021
  292TMC3    C8 4410   0.397   2.306   0.820 -0.2128  0.1722  0.8731
  292TMC3    O1 4411   0.602   2.089   0.312 -0.1174 -0.0146  0.6270
  292TMC3    O2 4412   0.435   2.383   0.907 -0.0240  0.0146 -0.1125
  293MPD2     C 4413   1.744   4.716  12.374  0.1972 -0.1958  1.0550
  293MPD2    C1 4414   1.703   4.591  12.403  0.3962  0.3825 -0.4882
  293MPD2    C2 4415   1.758   4.536  12.516  0.8503 -1.0713 -0.7416
  293MPD2    C3 4416   1.866   4.595  12.582 -0.0267  0.5318 -0.0608
  293MPD2    C4 4417   1.922   4.717  12.542  0.5005 -0.4699  0.1144
  293MPD2    C5 4418   1.850   0.057  12.437  0.2138 -0.7341  0.5969
  293MPD2     H 4419   1.719   4.440  12.548  0.5190 -1.0440 -1.0625
  293MPD2    H1 4420   2.004   0.044  12.591  0.9442  0.2590 -1.4008
  293MPD2    H2 4421   1.699   0.042  12.289 -1.2120 -2.0609  0.6998
  293MPD2    H3 4422   1.882   0.152  12.396  1.7645 -2.0613 -1.2732
  293MPD2     N 4423   1.916   4.516  12.694 -0.4592  0.0351  0.2480
  293MPD2    H5 4424   1.875   4.426  12.716 -3.3661  1.0414 -0.9480
  293MPD2    N1 4425   1.607   4.529  12.323 -0.0764  0.2244 -0.1276
  293MPD2    H7 4426   1.585   4.577  12.237 -1.5452  0.0987  0.1767
  294TMC3    C1 4427   1.495   4.354  12.202 -1.0084  0.2384 -0.2405
  294TMC3    C2 4428   1.408   4.245  12.213  0.7470 -0.7275  0.1646
  294TMC3    C3 4429   1.358   4.195  12.097  0.5035 -0.2378  0.4287
  294TMC3    C4 4430   1.536   4.403  12.082  0.6650 -0.8448 -0.2841
  294TMC3    C5 4431   1.483   4.341  11.964 -0.3354 -0.1103 -0.3315
  294TMC3    C6 4432   1.397   4.233  11.968 -0.4325 -0.0060 -0.1414
  294TMC3     C 4433   1.545   4.405  12.334 -0.1504 -0.8835  0.3358
  294TMC3     O 4434   1.530   4.324  12.425  0.3257  0.0645 -0.6088
  294TMC3     H 4435   1.380   4.213  12.312 -0.8550 -0.1127 -0.0868
  294TMC3    H1 4436   1.617   4.474  12.068  1.2986 -1.3008  1.0674
  294TMC3    H2 4437   1.361   4.178  11.882 -1.1295 -2.7818  1.9362
  294TMC3    C7 4438   1.495   4.406  11.836 -0.0503  0.8689 -0.7695
  294TMC3    C8 4439   1.285   4.073  12.101 -0.0679  0.0108  0.5267
  294TMC3    O1 4440   1.477   4.347  11.730  0.1731 -0.1346 -0.0115
  294TMC3    O2 4441   1.308   3.993  12.008 -0.2430 -0.3686 -0.2931
  295MPD2     C 4442   2.488   1.617   0.887 -0.6787 -0.1952  0.1074
  295MPD2    C1 4443   2.441   1.738   0.848  1.1709  0.3316  0.1483
  295MPD2    C2 4444   2.380   1.818   0.941  0.4416  0.1326 -0.5806
  295MPD2    C3 4445   2.389   1.783   1.076  0.0930  0.3532  0.7299
  295MPD2    C4 4446   2.453   1.665   1.115  0.1974  0.1893 -0.1499
  295MPD2    C5 4447   2.507   1.587   1.020  0.0645 -0.0007  0.0464
  295MPD2     H 4448   2.320   1.904   0.913 -0.1952 -0.2312 -0.3325
  295MPD2    H1 4449   2.478   1.633   1.216 -1.1600  0.7213  0.3567
  295MPD2    H2 4450   2.524   1.539   0.821  0.4126 -0.3541  0.8882
  295MPD2    H3 4451   2.559   1.494   1.040 -0.0374  0.4165  2.3011
  295MPD2     N 4452   2.323   1.854   1.182 -0.5062  0.0139  0.0968
  295MPD2    H5 4453   2.342   1.826   1.277  0.5952 -2.6052 -0.9135
  295MPD2    N1 4454   2.433   1.775   0.709  0.9147 -0.0905 -0.2589
  295MPD2    H7 4455   2.417   1.873   0.689 -0.6017 -0.0922  1.0145
  296TMC3    C1 4456   2.191   2.021   1.295  0.1204 -0.4741  0.0278
  296TMC3    C2 4457   2.080   2.104   1.275 -0.1396  0.0215  0.5299
  296TMC3    C3 4458   2.042   2.187   1.383 -0.2080 -0.3915 -0.7836
  296TMC3    C4 4459   2.266   2.019   1.406 -0.0569  0.4195 -0.8353
  296TMC3    C5 4460   2.225   2.101   1.506  0.1987 -0.0280 -0.6784
  296TMC3    C6 4461   2.121   2.188   1.495  0.7637  0.1959 -0.4021
  296TMC3     C 4462   2.226   1.950   1.172  0.1347 -0.4006  0.1210
  296TMC3     O 4463   2.176   1.986   1.067 -0.1697 -0.0190  0.1364
  296TMC3     H 4464   2.025   2.112   1.183 -0.4347 -0.1199  0.6945
  296TMC3    H1 4465   2.349   1.950   1.417  0.3039  0.7583 -1.4229
  296TMC3    H2 4466   2.086   2.248   1.579 -1.4368 -0.3131 -0.9734
  296TMC3    C7 4467   2.303   2.084   1.630 -0.0096  0.1814  0.2708
  296TMC3    C8 4468   1.933   2.275   1.372  0.2195 -0.0033 -0.0975
  296TMC3    O1 4469   2.390   2.003   1.626 -0.1024 -0.0002 -0.4435
  296TMC3    O2 4470   1.824   2.250   1.315  0.0194  0.3897 -0.0372
  297MPD2     C 4471   4.651   4.631  16.374  0.3907 -0.1375 -0.1042
  297MPD2    C1 4472   4.608   4.683  16.252 -0.4773 -0.0548 -0.1820
  297MPD2    C2 4473   4.689   0.062  16.201 -0.4783  0.6915 -0.1230
  297MPD2    C3 4474   0.072   0.107  16.277 -0.3964  0.4478  0.0859
  297MPD2    C4 4475   0.100   0.064  16.408  0.3485  0.6002  0.5063
  297MPD2    C5 4476   0.030   4.673  16.446  0.4993  0.0896  0.2698
  297MPD2     H 4477   4.665   0.105  16.105  2.4656  1.1459 -0.6480
  297MPD2    H1 4478   0.183   0.105  16.464  1.6255 -0.0623 -0.9126
  297MPD2    H2 4479   4.611   4.540  16.418  1.8868 -1.3089 -1.1794
  297MPD2    H3 4480   0.042   4.629  16.544 -0.0507  0.3556  0.4557
  297MPD2     N 4481   0.147   0.219  16.236  0.2744  0.2515 -0.1254
  297MPD2    H5 4482   0.210   0.270  16.296 -0.0753 -2.0982  2.2163
  297MPD2    N1 4483   4.499   4.631  16.178 -0.2446  0.2990 -0.7407
  297MPD2    H7 4484   4.485   4.680  16.090  0.6606 -3.0752 -2.7466
  298TMC3    C1 4485   4.312   4.493  16.140  0.0731  0.0703  0.4130
  298TMC3    C2 4486   4.260   4.372  16.157  0.3477  0.9561  0.2113
  298TMC3    C3 4487   4.129   4.351  16.162 -0.1081  0.3853  0.3370
  298TMC3    C4 4488   4.229   4.600  16.127  0.0262  0.6247 -0.9664
  298TMC3    C5 4489   4.097   4.577  16.159  0.2436 -1.0184 -0.3997
  298TMC3    C6 4490   4.041   4.450  16.173 -0.1435  0.3665  0.2017
  298TMC3     C 4491   4.430   4.515  16.212  0.4119 -0.2735  0.2357
  298TMC3     O 4492   4.448   4.450  16.312 -0.5147 -0.2943  0.5027
  298TMC3     H 4493   4.324   4.286  16.175  0.5266  1.7316  3.2961
  298TMC3    H1 4494   4.268   4.701  16.125  0.2937  0.5539  0.4786
  298TMC3    H2 4495   3.940   4.446  16.210 -0.7013  1.1738 -1.2312
  298TMC3    C7 4496   4.016   4.694  16.200  0.6457 -0.0607  0.3661
  298TMC3    C8 4497   4.068   4.219  16.195  0.0404 -0.1507  0.0383
  298TMC3    O1 4498   4.068   0.070  16.256 -0.0255  0.3474 -0.1669
  298TMC3    O2 4499   3.986   4.217  16.290 -0.3073 -0.4603  0.1558
  299MPD2     C 4500   0.868   4.345  10.891  0.3724 -0.9402  0.3222
  299MPD2    C1 4501   0.885   4.428  10.776 -0.1542 -0.0513  0.0157
  299MPD2    C2 4502   0.828   4.390  10.660  0.4498 -0.0845  0.0969
  299MPD2    C3 4503   0.747   4.272  10.663 -0.4300 -0.2564  0.7888
  299MPD2    C4 4504   0.723   4.196  10.776  0.8364  0.6017 -0.7900
  299MPD2    C5 4505   0.786   4.231  10.891  0.4415 -0.3816  0.0221
  299MPD2     H 4506   0.862   4.441  10.571 -0.5722  0.0443 -0.2190
  299MPD2    H1 4507   0.653   4.114  10.773 -0.1137  1.3937 -0.0915
  299MPD2    H2 4508   0.901   4.362  10.992  0.2453 -1.0414  0.3804
  299MPD2    H3 4509   0.772   4.184  10.988  0.0878 -2.6054 -1.1216
  299MPD2     N 4510   0.677   4.226  10.554  0.3440  0.6588 -0.1771
  299MPD2    H5 4511   0.616   4.145  10.558 -0.7278  1.3961 -1.6217
  299MPD2    N1 4512   0.953   4.545  10.791  0.1590 -0.2408  0.2936
  299MPD2    H7 4513   1.002   4.553  10.880  1.4474 -0.2122 -0.4147
  300TMC3    C1 4514   0.600   4.241  10.339 -0.2551  0.0629 -0.4786
  300TMC3    C2 4515   0.623   4.314  10.221  0.0217  0.2904 -0.1497
  300TMC3    C3 4516   0.519   4.403  10.198  0.5970  0.1483  0.1141
  300TMC3    C4 4517   0.475   4.223  10.398  0.1865 -0.3833 -0.3134
  300TMC3    C5 4518   0.379   4.315  10.370  0.4216  0.3050  0.9609
  300TMC3    C6 4519   0.400   4.407  10.269 -0.0144 -0.1946 -0.1790
  300TMC3     C 4520   0.701   4.273  10.430 -0.5845 -0.7181  0.3642
  300TMC3     O 4521   0.801   4.322  10.378  0.1353 -0.4854  0.0596
  300TMC3     H 4522   0.719   4.325  10.173  0.8325 -0.7300  1.2289
  300TMC3    H1 4523   0.446   4.149  10.472  2.8259  0.0850  1.1629
  300TMC3    H2 4524   0.334   4.493  10.267 -2.7954 -2.3064 -0.1420
  300TMC3    C7 4525   0.261   4.316  10.444  0.2567  0.3166 -0.3789
  300TMC3    C8 4526   0.561   4.523  10.137  0.4728 -0.6768  0.2503
  300TMC3    O1 4527   0.215   4.204  10.463 -0.0401  0.0482 -0.4739
  300TMC3    O2 4528   0.679   4.549  10.161  0.4043 -0.2235  0.2517
  301MPD2     C 4529   3.056   0.603   0.854 -0.8821  0.2206  0.2379
  301MPD2    C1 4530   2.954   0.523   0.893 -0.7993 -0.4501  0.2619
  301MPD2    C2 4531   2.929   0.412   0.810 -0.2287 -0.1637  0.4444
  301MPD2    C3 4532   3.015   0.387   0.702  0.3827  0.1820 -0.3744
  301MPD2    C4 4533   3.115   0.471   0.663  0.4003  0.5526  0.5510
  301MPD2    C5 4534   3.129   0.583   0.741  0.5041  0.1175 -0.0714
  301MPD2     H 4535   2.833   0.363   0.815 -1.2119  1.5282 -1.7921
  301MPD2    H1 4536   3.188   0.456   0.584 -0.6168 -0.2811 -0.2133
  301MPD2    H2 4537   3.084   0.693   0.908  0.2383 -0.1770  0.3099
  301MPD2    H3 4538   3.205   0.657   0.721 -0.3770  1.2439  0.7167
  301MPD2     N 4539   2.987   0.274   0.618  0.1629 -0.4060 -0.5584
  301MPD2    H5 4540   3.024   0.284   0.525  1.7773 -1.1218  0.0044
  301MPD2    N1 4541   2.872   0.553   1.007 -0.1465  0.3353  0.8662
  301MPD2    H7 4542   2.908   0.627   1.067 -0.6539  2.5365 -1.5256
  302TMC3    C1 4543   2.879   0.083   0.542  0.0094 -0.9379  0.2138
  302TMC3    C2 4544   2.841   4.685   0.584 -0.1423 -0.2055  0.0419
  302TMC3    C3 4545   2.731   4.640   0.522 -0.0816  0.1317  0.2837
  302TMC3    C4 4546   2.824   0.145   0.435 -0.0962  0.5921 -0.0701
  302TMC3    C5 4547   2.711   0.097   0.382 -0.4646 -1.0095 -0.1095
  302TMC3    C6 4548   2.652   4.710   0.431  0.0595  0.4716 -0.4887
  302TMC3     C 4549   2.910   0.169   0.651  0.5862  0.5914 -0.0906
  302TMC3     O 4550   2.883   0.137   0.765  1.2023  0.4770 -0.0663
  302TMC3     H 4551   2.892   4.621   0.654 -0.1171 -0.3104 -0.0722
  302TMC3    H1 4552   2.841   0.252   0.425 -1.2466  0.8841  1.1064
  302TMC3    H2 4553   2.564   4.674   0.380  0.1137 -1.2272  0.6390
  302TMC3    C7 4554   2.628   0.186   0.305 -0.1098  0.4583 -0.0933
  302TMC3    C8 4555   2.684   4.512   0.573  0.1760  0.4397  0.5737
  302TMC3    O1 4556   2.685   0.281   0.256  0.5962 -0.3295 -0.5201
  302TMC3    O2 4557   2.771   4.448   0.634 -0.4840  0.3506  0.8783
  303MPD2     C 4558   2.599   3.876  10.065  0.8103 -0.2460 -0.1147
  303MPD2    C1 4559   2.483   3.900  10.125 -0.0801  0.0589  0.0929
  303MPD2    C2 4560   2.408   4.008  10.078  0.7968  0.4229 -1.0801
  303MPD2    C3 4561   2.467   4.100   9.995 -0.4701  0.0746 -0.0759
  303MPD2    C4 4562   2.590   4.077   9.949  0.5401  0.0121  0.4239
  303MPD2    C5 4563   2.657   3.962   9.977 -0.1238 -0.6731 -0.2868
  303MPD2     H 4564   2.305   4.028  10.103  1.1996  1.8867 -0.5743
  303MPD2    H1 4565   2.639   4.149   9.884  1.4731 -0.3510  0.7228
  303MPD2    H2 4566   2.668   3.802  10.104 -1.4748 -2.6455 -0.6265
  303MPD2    H3 4567   2.750   3.932   9.929 -1.2382 -0.4804 -2.5545
  303MPD2     N 4568   2.389   4.204   9.940  0.2956 -0.2432  1.1301
  303MPD2    H5 4569   2.432   4.249   9.860  1.1302 -0.5006  1.4342
  303MPD2    N1 4570   2.433   3.802  10.218 -0.3846  0.8542 -0.0768
  303MPD2    H7 4571   2.490   3.722  10.242 -3.3039 -1.7866 -1.9652
  304TMC3    C1 4572   2.275   3.689  10.333  0.2794  0.1868 -0.1515
  304TMC3    C2 4573   2.195   3.709  10.443  1.2636  0.0978  0.0186
  304TMC3    C3 4574   2.103   3.617  10.458 -0.0705  0.7248 -0.3418
  304TMC3    C4 4575   2.259   3.597  10.242  0.3277  0.0781  0.5945
  304TMC3    C5 4576   2.158   3.504  10.263  0.2341 -0.0721 -0.2597
  304TMC3    C6 4577   2.084   3.513  10.371 -0.5960  0.4040  0.1546
  304TMC3     C 4578   2.319   3.813  10.288 -0.6678  0.1792  0.7445
  304TMC3     O 4579   2.230   3.901  10.294  0.3721 -0.3718 -0.0652
  304TMC3     H 4580   2.208   3.792  10.512 -0.6886 -0.9482  1.6452
  304TMC3    H1 4581   2.324   3.595  10.155  0.7159  3.6609  0.8011
  304TMC3    H2 4582   2.003   3.445  10.398 -1.1056  0.4901 -1.1532
  304TMC3    C7 4583   2.058   3.491  10.156 -0.5482  0.3109 -0.6930
  304TMC3    C8 4584   1.977   3.682  10.495  0.1817  0.4171 -0.1677
  304TMC3    O1 4585   1.941   3.502  10.192  0.1665 -0.0974 -0.4311
  304TMC3    O2 4586   1.975   3.757  10.590 -0.5724  0.9137 -0.3460
  305MPD2     C 4587   1.141   1.452  13.963  0.5375  0.0960 -0.2939
  305MPD2    C1 4588   1.068   1.348  14.013  0.0263 -0.0147  0.4152
  305MPD2    C2 4589   1.004   1.261  13.921  0.4016 -0.0991 -0.0000
  305MPD2    C3 4590   1.023   1.286  13.782  0.6375  0.4219 -0.1118
  305MPD2    C4 4591   1.090   1.396  13.736 -0.3220  0.2910 -0.4433
  305MPD2    C5 4592   1.147   1.474  13.827  0.4975  0.2546  0.7756
  305MPD2     H 4593   0.949   1.175  13.958  1.3133 -0.4946  0.4262
  305MPD2    H1 4594   1.102   1.428  13.633  1.8212 -1.1178 -0.6232
  305MPD2    H2 4595   1.195   1.519  14.028  3.1721 -2.7954  0.4554
  305MPD2    H3 4596   1.212   1.551  13.785  0.2954 -0.4318 -0.7985
  305MPD2     N 4597   0.998   1.183  13.683  0.3611  0.2685 -0.8971
  305MPD2    H5 4598   1.014   1.207  13.586  2.0519 -0.9798 -0.9324
  305MPD2    N1 4599   1.067   1.328  14.151 -0.0793 -0.2967 -0.6035
  305MPD2    H7 4600   1.131   1.381  14.208 -2.9698  0.8049  1.6283
  306TMC3    C1 4601   1.047   1.210  14.344 -0.3932  0.2533 -0.0702
  306TMC3    C2 4602   1.178   1.173  14.355  0.4790  0.3328 -0.2734
  306TMC3    C3 4603   1.257   1.195  14.471  0.0957 -1.0933 -0.6858
  306TMC3    C4 4604   0.991   1.283  14.439 -0.5875  0.0586  0.0706
  306TMC3    C5 4605   1.065   1.303  14.559  0.0103  0.2891 -0.0532
  306TMC3    C6 4606   1.202   1.261  14.580  0.1062  0.1029  0.8817
  306TMC3     C 4607   0.990   1.234  14.218 -0.7642 -0.3568 -0.2461
  306TMC3     O 4608   0.889   1.166  14.185  0.5334  0.2796 -0.2683
  306TMC3     H 4609   1.219   1.120  14.270 -0.3891 -0.5332 -0.1460
  306TMC3    H1 4610   0.895   1.330  14.424 -0.4327  1.0345  2.1149
  306TMC3    H2 4611   1.242   1.258  14.681  2.3950 -3.7287 -0.1332
  306TMC3    C7 4612   0.996   1.370  14.671 -0.0234 -0.3858  0.6180
  306TMC3    C8 4613   1.346   1.086  14.490 -0.5778 -0.4669 -0.0551
  306TMC3    O1 4614   0.872   1.372  14.664  0.3643 -1.4252 -0.0075
  306TMC3    O2 4615   1.344   0.997  14.410 -0.0018 -0.2199 -0.2163
  307MPD2     C 4616   3.712   3.347   0.515  0.3068  0.1516  0.7079
  307MPD2    C1 4617   3.646   3.435   0.433 -0.2074 -0.3275 -1.0709
  307MPD2    C2 4618   3.544   3.512   0.487 -0.5808 -0.1346  0.7616
  307MPD2    C3 4619   3.525   3.516   0.627  0.1338  0.6451  0.4573
  307MPD2    C4 4620   3.591   3.426   0.705 -0.4926 -0.4307  0.2324
  307MPD2    C5 4621   3.690   3.348   0.649 -0.3744  0.3069 -0.3185
  307MPD2     H 4622   3.493   3.582   0.422 -1.4437 -1.3172  0.1509
  307MPD2    H1 4623   3.576   3.416   0.812  1.3724  1.0260  0.6546
  307MPD2    H2 4624   3.789   3.275   0.491  1.8440  2.2901 -0.7622
  307MPD2    H3 4625   3.737   3.279   0.719  0.5689  1.4768  0.1872
  307MPD2     N 4626   3.418   3.592   0.679  0.2379 -0.0626 -0.1664
  307MPD2    H5 4627   3.374   3.650   0.609 -1.9872 -0.8623  0.5702
  307MPD2    N1 4628   3.662   3.437   0.294 -0.4428 -0.0422  0.5906
  307MPD2    H7 4629   3.605   3.496   0.234  1.3352  1.8977  0.8219
  308TMC3    C1 4630   3.051   3.706   0.731  0.6060 -0.0966  0.2987
  308TMC3    C2 4631   3.082   3.831   0.674  0.1242 -0.4330  0.2851
  308TMC3    C3 4632   3.201   3.889   0.696 -0.6084 -0.8646 -0.4507
  308TMC3    C4 4633   3.156   3.646   0.806  0.0838 -0.1380  0.9774
  308TMC3    C5 4634   3.276   3.708   0.816  0.0822  0.2342 -0.5755
  308TMC3    C6 4635   3.298   3.829   0.767  0.3437 -0.0584  0.4982
  308TMC3     C 4636   2.920   3.638   0.730  0.5430 -0.1718  0.1971
  308TMC3     O 4637   2.907   3.531   0.793  0.2974  0.5511  0.1925
  308TMC3     H 4638   3.006   3.881   0.616  1.0379  0.7245  0.0911
  308TMC3    H1 4639   3.136   3.546   0.844  0.1359 -0.6896 -0.4615
  308TMC3    H2 4640   3.391   3.877   0.796  0.2353  1.2568 -1.3985
  308TMC3    C7 4641   3.390   3.613   0.815  0.5126 -0.1133  0.5262
  308TMC3    C8 4642   3.223   4.002   0.612 -0.1588 -0.2068  0.2139
  308TMC3    O1 4643   3.432   3.570   0.919 -0.3546 -0.3896 -0.4402
  308TMC3    O2 4644   3.167   4.009   0.507 -0.0165 -0.4989  0.2128
  309MPD2     C 4645   2.687   4.538  17.141 -0.1298 -0.1248  0.0178
  309MPD2    C1 4646   2.611   4.449  17.061  0.1686  0.5926 -0.0703
  309MPD2    C2 4647   2.478   4.439  17.095 -0.0697  0.4249 -0.1698
  309MPD2    C3 4648   2.423   4.495  17.212  0.1948 -0.3177 -0.1508
  309MPD2    C4 4649   2.499   4.586  17.278 -0.5622 -1.0432 -0.1013
  309MPD2    C5 4650   2.628   4.612  17.239  0.5122  0.4056 -0.3904
  309MPD2     H 4651   2.417   4.370  17.037 -0.5566 -0.2801  1.1676
  309MPD2    H1 4652   2.459   4.635  17.366  0.5030 -0.9234  0.3204
  309MPD2    H2 4653   2.795   4.548  17.135 -0.3055  1.2520 -0.8362
  309MPD2    H3 4654   2.695   4.671  17.301  0.9226 -0.3302 -0.1264
  309MPD2     N 4655   2.288   4.482  17.252 -0.0768  0.0611 -0.3890
  309MPD2    H5 4656   2.262   4.541  17.331  1.4681  0.4214 -0.1427
  309MPD2    N1 4657   2.653   4.388  16.946  0.3519  0.3268  0.0088
  309MPD2    H7 4658   2.588   4.339  16.885  0.7700  2.2031 -1.9450
  310TMC3    C1 4659   2.818   4.321  16.794 -0.2116  0.2439 -0.4037
  310TMC3    C2 4660   2.752   4.344  16.677  0.2087  0.0980 -0.0138
  310TMC3    C3 4661   2.805   4.288  16.557  0.2091  0.3820 -0.0466
  310TMC3    C4 4662   2.935   4.250  16.796 -0.0860  0.4068 -0.3659
  310TMC3    C5 4663   2.971   4.182  16.683  0.4216  0.2156  0.1254
  310TMC3    C6 4664   2.908   4.198  16.563 -0.7930  0.2460 -0.1627
  310TMC3     C 4665   2.785   4.382  16.921  0.0702  0.3571  0.3645
  310TMC3     O 4666   2.878   4.408  16.990 -0.4669 -0.3796  0.4589
  310TMC3     H 4667   2.670   4.414  16.666  0.2239  0.3454  1.4725
  310TMC3    H1 4668   2.973   4.214  16.891  0.1198  2.6853  0.4180
  310TMC3    H2 4669   2.960   4.153  16.479 -0.1413  0.2755  0.2254
  310TMC3    C7 4670   3.092   4.110  16.684 -0.3925  0.2903  0.2343
  310TMC3    C8 4671   2.784   4.370  16.435 -0.6925  0.0166  0.7995
  310TMC3    O1 4672   3.102   4.017  16.605  0.3008  0.6680 -0.0141
  310TMC3    O2 4673   2.681   4.423  16.415  0.2637  0.1504  0.7063
  311MPD2     C 4674   0.217   1.171  12.705  0.1829 -0.0200 -0.9051
  311MPD2    C1 4675   0.197   1.280  12.787  0.3464 -0.5867 -0.0582
  311MPD2    C2 4676   0.074   1.328  12.819 -0.7513 -0.5915  0.3660
  311MPD2    C3 4677   4.689   1.264  12.771  0.3412 -0.3385 -0.1198
  311MPD2    C4 4678   4.702   1.156  12.683  0.0625  0.0635 -0.3640
  311MPD2    C5 4679   0.102   1.114  12.643 -0.2467 -0.4761  0.1804
  311MPD2     H 4680   0.068   1.420  12.876  1.3396 -0.7237  0.7982
  311MPD2    H1 4681   4.618   1.091  12.659  0.5732 -0.1018 -1.7552
  311MPD2    H2 4682   0.306   1.120  12.669  0.2338 -0.4391 -0.1988
  311MPD2    H3 4683   0.109   1.026  12.581  0.8685 -0.4630  0.2853
  311MPD2     N 4684   4.566   1.303  12.820  0.1376  0.4581 -0.2231
  311MPD2    H5 4685   4.562   1.373  12.893  0.4566  0.4270 -0.1761
  311MPD2    N1 4686   0.311   1.357  12.823 -0.7652  0.8203  0.5200
  311MPD2    H7 4687   0.289   1.443  12.872  1.8164  1.8491 -0.0939
  312TMC3    C1 4688   4.332   1.247  12.836  0.3377  0.2064 -0.2949
  312TMC3    C2 4689   4.210   1.256  12.773 -0.3120  0.2606  0.0832
  312TMC3    C3 4690   4.103   1.246  12.847  0.8488  0.4536 -0.3315
  312TMC3    C4 4691   4.347   1.218  12.968  0.1264 -0.3605  0.1195
  312TMC3    C5 4692   4.233   1.189  13.040 -1.0026  0.0854 -0.2526
  312TMC3    C6 4693   4.110   1.211  12.986  0.4782  0.1751  0.4225
  312TMC3     C 4694   4.455   1.259  12.761 -0.3710 -0.2453 -0.7178
  312TMC3     O 4695   4.444   1.247  12.643  0.4915  0.1541  0.1197
  312TMC3     H 4696   4.208   1.273  12.666 -0.5911 -1.8234 -0.2392
  312TMC3    H1 4697   4.448   1.213  13.009 -0.2492  0.8342  1.1724
  312TMC3    H2 4698   4.016   1.201  13.040  0.1557 -0.1594 -0.1969
  312TMC3    C7 4699   4.232   1.162  13.183  0.4874  0.3349 -0.1263
  312TMC3    C8 4700   3.974   1.205  12.779 -0.5800 -0.1876  0.2275
  312TMC3    O1 4701   4.123   1.139  13.235  0.2820  0.5398 -0.0964
  312TMC3    O2 4702   3.909   1.132  12.851  0.1663 -0.1851  0.1157
  313MPD2     C 4703   4.636   0.582  10.550  0.7592  0.0178  0.2505
  313MPD2    C1 4704   4.508   0.641  10.548 -0.2596  0.0135  0.3582
  313MPD2    C2 4705   4.403   0.584  10.478  0.0774  0.3130 -0.4571
  313MPD2    C3 4706   4.415   0.458  10.428  0.9491  0.7368 -0.1491
  313MPD2    C4 4707   4.534   0.392  10.434 -0.0588 -0.8993 -0.3497
  313MPD2    C5 4708   4.645   0.455  10.487 -0.3305 -0.7584 -0.3103
  313MPD2     H 4709   4.307   0.635  10.475 -0.2147 -0.1943  0.1762
  313MPD2    H1 4710   4.540   0.286  10.410 -1.1530 -1.1627  0.5226
  313MPD2    H2 4711   4.722   0.605  10.612  0.3706  1.1208  0.3767
  313MPD2    H3 4712   0.017   0.405  10.494 -1.1829 -2.6815 -2.0972
  313MPD2     N 4713   4.291   0.402  10.379  0.6324 -0.1242  0.2460
  313MPD2    H5 4714   4.209   0.462  10.386  0.7514 -0.1753  2.0373
  313MPD2    N1 4715   4.490   0.767  10.605  0.2994  0.1784  0.2540
  313MPD2    H7 4716   4.395   0.804  10.609 -0.2178 -1.1657  0.4433
  314TMC3    C1 4717   4.532   0.974  10.703  0.2742  0.3031  0.1081
  314TMC3    C2 4718   4.586   1.033  10.812  0.1577  0.1720 -0.8989
  314TMC3    C3 4719   4.590   1.173  10.817 -0.5066 -1.0352 -0.3498
  314TMC3    C4 4720   4.486   1.048  10.596 -0.1213 -0.8541 -0.0515
  314TMC3    C5 4721   4.497   1.190  10.602  0.3352 -0.6085 -0.1140
  314TMC3    C6 4722   4.548   1.252  10.712  0.4427 -0.9343 -0.1693
  314TMC3     C 4723   4.581   0.846  10.665  0.1042  0.5027  0.3980
  314TMC3     O 4724   4.692   0.806  10.704  0.2151 -0.0491  0.3041
  314TMC3     H 4725   4.606   0.966  10.894 -1.2035  2.7762  1.5902
  314TMC3    H1 4726   4.443   1.007  10.505  0.5541  0.1501 -0.8125
  314TMC3    H2 4727   4.558   1.360  10.713 -1.3612 -0.7641 -0.6682
  314TMC3    C7 4728   4.454   1.276  10.484  0.0484 -0.3428 -0.3971
  314TMC3    C8 4729   4.635   1.248  10.928  0.6745  1.5939 -0.3702
  314TMC3    O1 4730   4.401   1.379  10.513  0.1473  0.0545 -0.1850
  314TMC3    O2 4731   4.609   1.365  10.925 -0.3371  0.1187  0.0744
  315MPD2     C 4732   3.590   4.239  17.515  0.5466  0.5088  0.5911
  315MPD2    C1 4733   3.646   4.276  17.630 -0.1144  0.0701 -0.0243
  315MPD2    C2 4734   3.711   4.395  17.649 -0.2379 -0.1930 -0.1941
  315MPD2    C3 4735   3.713   4.485  17.541  0.0518  0.4264 -1.1985
  315MPD2    C4 4736   3.640   4.454  17.425  0.0917 -0.1336 -0.0438
  315MPD2    C5 4737   3.582   4.328  17.411 -0.1034 -0.0946 -0.1325
  315MPD2     H 4738   3.739   4.420   0.052  1.2272 -2.2888 -0.0907
  315MPD2    H1 4739   3.626   4.520  17.339  0.7250  0.9856  0.7087
  315MPD2    H2 4740   3.534   4.146  17.510  0.0939  0.9977 -3.3407
  315MPD2    H3 4741   3.548   4.297  17.312  0.2688 -0.1032 -0.2561
  315MPD2     N 4742   3.791   4.601  17.546  0.1185 -0.0204  0.0174
  315MPD2    H5 4743   3.854   4.612  17.624 -0.3641  0.0687  0.3943
  315MPD2    N1 4744   3.658   4.186   0.041  0.1705  0.1976  0.1911
  315MPD2    H7 4745   3.698   4.229   0.124  1.7776  0.9100 -0.9563
  316TMC3    C1 4746   3.928   0.050  17.476  0.2645  0.2849 -0.0077
  316TMC3    C2 4747   3.948   0.072  17.615 -0.0292  0.3352 -0.9855
  316TMC3    C3 4748   4.032   0.168  17.651 -0.0802  0.3687 -0.4280
  316TMC3    C4 4749   3.999   0.119  17.382  0.1010 -0.1019  0.8016
  316TMC3    C5 4750   4.091   0.209  17.434 -0.6171  0.9196  0.0514
  316TMC3    C6 4751   4.114   0.235  17.564 -0.3746 -0.9879 -0.9946
  316TMC3     C 4752   3.827   4.678  17.439  0.0250  0.5575  0.2993
  316TMC3     O 4753   3.800   4.667  17.323 -0.7221 -0.0262  0.2858
  316TMC3     H 4754   3.879   0.037  17.690  0.5759  0.5760 -0.3125
  316TMC3    H1 4755   3.986   0.103  17.276 -1.2367 -0.9773  1.0947
  316TMC3    H2 4756   4.199   0.295  17.594 -0.1890 -0.7595 -1.9765
  316TMC3    C7 4757   4.176   0.275  17.337 -0.5224 -0.1804  0.1483
  316TMC3    C8 4758   4.081   0.181   0.083 -0.6212 -0.0558  0.0627
  316TMC3    O1 4759   4.293   0.261  17.363 -0.3552 -0.8404  0.1412
  316TMC3    O2 4760   4.114   0.292   0.123  0.1995  0.4047  0.5846
  317MPD2     C 4761   1.015   3.318  13.301  0.1263 -0.7954  0.0471
  317MPD2    C1 4762   1.052   3.207  13.226  0.0849  0.2808 -0.5310
  317MPD2    C2 4763   1.135   3.107  13.282  0.0457 -0.0498 -0.2294
  317MPD2    C3 4764   1.185   3.116  13.410  0.2660 -0.4858  0.0286
  317MPD2    C4 4765   1.151   3.229  13.480  0.5175  0.1092  0.5780
  317MPD2    C5 4766   1.065   3.321  13.427  0.6196 -0.0317 -0.1738
  317MPD2     H 4767   1.178   3.033  13.215 -1.3312 -2.5233  1.6206
  317MPD2    H1 4768   1.195   3.251  13.577  0.6726 -0.3420  0.6131
  317MPD2    H2 4769   0.958   3.404  13.269  0.8167 -0.2648  0.2258
  317MPD2    H3 4770   1.051   3.417  13.474  2.0911  1.2488 -2.3068
  317MPD2     N 4771   1.251   3.008  13.474 -0.0210 -0.3691  0.5358
  317MPD2    H5 4772   1.267   2.925  13.418  0.0506  0.8359 -1.2081
  317MPD2    N1 4773   1.017   3.200  13.088 -0.4292  0.0510  0.8009
  317MPD2    H7 4774   1.027   3.112  13.038  1.5753 -0.1369  1.5376
  318TMC3    C1 4775   1.359   2.878  13.634 -0.5140  0.8056 -0.4831
  318TMC3    C2 4776   1.295   2.765  13.593 -0.1828 -0.9121 -0.4379
  318TMC3    C3 4777   1.354   2.645  13.630 -0.7147  0.1875 -0.6327
  318TMC3    C4 4778   1.484   2.873  13.698  0.3685  0.3021 -0.3306
  318TMC3    C5 4779   1.540   2.757  13.727 -0.3306  0.3959  0.3123
  318TMC3    C6 4780   1.472   2.638  13.703 -0.3033 -0.1581  0.1391
  318TMC3     C 4781   1.297   3.002  13.608 -0.5425 -0.2946 -0.4063
  318TMC3     O 4782   1.317   3.093  13.685 -0.5524  1.1750 -0.0086
  318TMC3     H 4783   1.195   2.759  13.551 -0.6104  0.8974  0.2857
  318TMC3    H1 4784   1.536   2.965  13.720 -1.3679  1.5251 -1.3064
  318TMC3    H2 4785   1.519   2.546  13.734  2.7765  1.2641 -0.2506
  318TMC3    C7 4786   1.663   2.766  13.803  0.2156  0.4689 -0.3569
  318TMC3    C8 4787   1.303   2.519  13.579  0.5333 -0.1145  0.4998
  318TMC3    O1 4788   1.695   2.879  13.840 -0.0233  0.4096  0.1921
  318TMC3    O2 4789   1.325   2.418  13.645 -0.1117 -0.0643 -0.2944
  319MPD2     C 4790   2.256   3.605  16.688 -0.1487  0.2641 -0.3209
  319MPD2    C1 4791   2.155   3.619  16.785 -0.1545 -0.3013  0.1639
  319MPD2    C2 4792   2.027   3.661  16.741  0.0766  0.8286 -0.1072
  319MPD2    C3 4793   2.002   3.663  16.604  0.1504 -0.1709 -0.3845
  319MPD2    C4 4794   2.111   3.649  16.515 -0.3289  0.6481  0.5678
  319MPD2    C5 4795   2.232   3.625  16.557  0.2712  0.3061 -0.1420
  319MPD2     H 4796   1.942   3.683  16.806  1.4230  0.8179  1.6547
  319MPD2    H1 4797   2.088   3.643  16.409  2.0053 -0.4327  0.1468
  319MPD2    H2 4798   2.358   3.570  16.699 -0.2406  1.0607  3.0386
  319MPD2    H3 4799   2.316   3.615  16.488 -0.1310  0.0765 -0.6044
  319MPD2     N 4800   1.867   3.679  16.556  0.4092  0.2809  0.5802
  319MPD2    H5 4801   1.860   3.699  16.457 -1.2818 -1.2487  0.3959
  319MPD2    N1 4802   2.173   3.596  16.924  0.5753 -0.9420 -0.2619
  319MPD2    H7 4803   2.094   3.592  16.987  0.5650  2.4676 -0.0153
  320TMC3    C1 4804   1.641   3.668  16.542 -0.5962 -0.0121 -0.3653
  320TMC3    C2 4805   1.638   3.758  16.447 -0.4677  0.3571 -0.5401
  320TMC3    C3 4806   1.532   3.753  16.360 -0.3905 -0.2436  0.4793
  320TMC3    C4 4807   1.547   3.575  16.556 -0.1121 -0.3219  0.4619
  320TMC3    C5 4808   1.432   3.571  16.475  0.5065  0.6299  0.8549
  320TMC3    C6 4809   1.427   3.666  16.380 -0.3991 -0.3004 -0.2769
  320TMC3     C 4810   1.753   3.670  16.630 -0.0964  0.1885  0.1856
  320TMC3     O 4811   1.737   3.618  16.739  0.0098  0.1475  0.4048
  320TMC3     H 4812   1.714   3.836  16.440  1.1672 -1.0936  1.1869
  320TMC3    H1 4813   1.572   3.510  16.639  0.9093 -0.8108 -0.2255
  320TMC3    H2 4814   1.338   3.675  16.319 -2.0195  2.8068  2.4648
  320TMC3    C7 4815   1.360   3.446  16.445  0.0805  0.2254 -0.0422
  320TMC3    C8 4816   1.512   3.860  16.265  0.0326  0.0324 -0.8070
  320TMC3    O1 4817   1.313   3.430  16.330  0.8192 -0.0276  0.1422
  320TMC3    O2 4818   1.560   3.970  16.291 -0.8565 -0.1806  0.3361
  321TMC3    C1 4819   2.269   3.529  17.130  0.4505 -0.8676  0.0822
  321TMC3    C2 4820   2.159   3.590  17.192  0.1119 -0.1143  1.1842
  321TMC3    C3 4821   2.142   3.570  17.324  0.5592 -0.5644  0.0525
  321TMC3    C4 4822   2.358   3.457  17.204 -0.1319 -0.5025 -0.1196
  321TMC3    C5 4823   2.333   3.445  17.339 -0.2182 -0.0359  0.8009
  321TMC3    C6 4824   2.244   3.520  17.401  0.0161  0.3181 -0.4870
  321TMC3     C 4825   2.287   3.549  16.987 -0.9319  0.2191  0.8521
  321TMC3     O 4826   2.398   3.527  16.942 -0.0170 -0.4298 -0.0171
  321TMC3     H 4827   2.072   3.619  17.135  0.4835 -1.9184 -0.3172
  321TMC3    H1 4828   2.439   3.401  17.160  0.0114 -0.7785  0.4910
  321TMC3    H2 4829   2.235   3.517  17.509  0.1230  0.0017 -0.4862
  321TMC3    C7 4830   2.332   3.307  17.398 -0.2833  0.3433 -0.1980
  321TMC3    C8 4831   2.008   3.544  17.372  0.3755 -0.2658 -0.0199
  321TMC3    O1 4832   2.242   3.286  17.479  0.5231  0.3765  0.2405
  321TMC3    O2 4833   1.917   3.623  17.331 -0.5498 -0.2615 -0.3037
  322MPD2     C 4834   0.757   0.654  13.625 -0.7974 -0.1444  0.1463
  322MPD2    C1 4835   0.834   0.592  13.719  0.3307 -0.0499 -0.5079
  322MPD2    C2 4836   0.871   0.460  13.705  0.5141  0.3034  0.4179
  322MPD2    C3 4837   0.837   0.390  13.595  0.3861 -0.7344 -0.0369
  322MPD2    C4 4838   0.756   0.447  13.506  0.5304  0.4090  0.4403
  322MPD2    C5 4839   0.720   0.578  13.513 -0.6007 -0.7582 -0.2487
  322MPD2     H 4840   0.945   0.414  13.770  2.7529  0.1627 -2.2561
  322MPD2    H1 4841   0.715   0.395  13.420 -0.9944  2.4653 -0.0829
  322MPD2    H2 4842   0.740   0.761  13.623  0.9055  0.0451 -2.4642
  322MPD2    H3 4843   0.656   0.616  13.435  1.4282  1.7767 -0.6685
  322MPD2     N 4844   0.881   0.258  13.597 -0.3049  0.7396  0.5103
  322MPD2    H5 4845   0.951   0.239  13.667 -1.1364 -2.8996  0.3951
  322MPD2    N1 4846   0.873   0.665  13.834 -0.6086  0.3987  0.4318
  322MPD2    H7 4847   0.863   0.766  13.829 -1.4721  0.2951  0.1178
  323TMC3    C1 4848   0.934   0.718  14.050  0.0744  0.2220 -0.6234
  323TMC3    C2 4849   1.041   0.795  14.016  0.6686  0.4089  0.3339
  323TMC3    C3 4850   1.124   0.838  14.110  0.2140 -0.0757 -0.4863
  323TMC3    C4 4851   0.914   0.688  14.182  0.4344 -0.0997 -0.8277
  323TMC3    C5 4852   0.999   0.740  14.278 -0.4174 -0.9509  0.3432
  323TMC3    C6 4853   1.104   0.812  14.241  0.0230 -0.3932  0.3855
  323TMC3     C 4854   0.898   0.606  13.954 -0.4845 -0.1182 -1.2993
  323TMC3     O 4855   0.869   0.493  14.000  0.1512  0.3815 -0.5418
  323TMC3     H 4856   1.076   0.792  13.913 -2.4838  0.6525 -0.7448
  323TMC3    H1 4857   0.838   0.613  14.202  0.8937 -0.4347 -0.3775
  323TMC3    H2 4858   1.183   0.837  14.310 -0.5154 -1.1874  1.2997
  323TMC3    C7 4859   1.035   0.641  14.380  0.5562  0.5106  0.0042
  323TMC3    C8 4860   1.253   0.879  14.064 -0.0194  0.4398  0.3663
  323TMC3    O1 4861   0.992   0.530  14.363  0.1264 -0.2473 -0.0016
  323TMC3    O2 4862   1.333   0.804  14.114 -0.4257  0.0950 -0.3400
  324MPD2     C 4863   2.697   1.731  14.545 -0.0848 -0.1041  0.2229
  324MPD2    C1 4864   2.760   1.832  14.483 -1.1401  0.1548  0.2430
  324MPD2    C2 4865   2.687   1.933  14.424  0.4345 -0.1021  0.0792
  324MPD2    C3 4866   2.552   1.939  14.426 -0.6692  0.1947  0.0507
  324MPD2    C4 4867   2.482   1.834  14.482  0.6858 -0.2948  0.7080
  324MPD2    C5 4868   2.557   1.729  14.546  0.0197 -0.1127 -0.4992
  324MPD2     H 4869   2.751   2.014  14.392 -1.5954  0.7723 -1.7546
  324MPD2    H1 4870   2.374   1.840  14.474  0.7491  1.1429  0.9508
  324MPD2    H2 4871   2.744   1.645  14.591 -0.0908 -0.0030  0.4160
  324MPD2    H3 4872   2.507   1.654  14.607  0.1102  2.0773  2.2489
  324MPD2     N 4873   2.475   2.039  14.355  0.3073  0.0553 -0.1319
  324MPD2    H5 4874   2.377   2.023  14.335 -0.4851  0.1540  3.6823
  324MPD2    N1 4875   2.900   1.832  14.466 -0.0534 -0.3100  0.0312
  324MPD2    H7 4876   2.933   1.910  14.410 -2.6655  1.3443  0.7796
  325TMC3    C1 4877   2.416   2.231  14.235  0.5560 -0.1430 -1.2060
  325TMC3    C2 4878   2.312   2.153  14.194 -0.2964  0.4718 -0.3173
  325TMC3    C3 4879   2.182   2.197  14.199 -0.1335  0.0870 -0.7925
  325TMC3    C4 4880   2.383   2.363  14.265 -0.1654 -0.0818 -0.1762
  325TMC3    C5 4881   2.256   2.403  14.271  0.0102  0.9277 -0.5233
  325TMC3    C6 4882   2.151   2.323  14.230  0.8914  0.7505 -0.9638
  325TMC3     C 4883   2.520   2.163  14.317 -0.6597 -0.1060  1.3296
  325TMC3     O 4884   2.632   2.215  14.321  0.5263  0.0967 -0.1794
  325TMC3     H 4885   2.328   2.047  14.180  1.4475  0.8874 -1.5263
  325TMC3    H1 4886   2.452   2.434  14.311 -3.6589  3.9879 -1.2278
  325TMC3    H2 4887   2.048   2.356  14.230  0.5194 -0.4315  0.8572
  325TMC3    C7 4888   2.221   2.522  14.353 -0.5475  0.0900  0.1911
  325TMC3    C8 4889   2.079   2.094  14.185 -0.3002  0.1858  0.7317
  325TMC3    O1 4890   2.307   2.608  14.377  0.3504 -0.4167 -0.1239
  325TMC3    O2 4891   2.119   1.984  14.216  0.7252 -0.4724  0.0122
  326MPD2     C 4892   3.650   3.069  11.164  0.3469 -0.0937  0.0147
  326MPD2    C1 4893   3.590   3.162  11.083 -0.1863  0.8248  0.4444
  326MPD2    C2 4894   3.667   3.205  10.973 -0.2433 -0.8106  0.5090
  326MPD2    C3 4895   3.807   3.190  10.962  0.0702 -0.1034 -0.1903
  326MPD2    C4 4896   3.864   3.094  11.043 -0.5918  0.6929 -0.0529
  326MPD2    C5 4897   3.788   3.036  11.145  0.3535  0.1582  0.0743
  326MPD2     H 4898   3.615   3.244  10.887  4.0993  0.5344 -1.4792
  326MPD2    H1 4899   3.972   3.086  11.052 -0.7435 -1.1019  0.0351
  326MPD2    H2 4900   3.588   3.010  11.231  1.6792 -3.0430 -1.3010
  326MPD2    H3 4901   3.828   2.964  11.215 -0.8060 -0.9088 -0.3658
  326MPD2     N 4902   3.883   3.259  10.867 -0.0911 -0.1524 -0.0774
  326MPD2    H5 4903   3.979   3.233  10.849  0.3669  1.8834 -0.6337
  326MPD2    N1 4904   3.459   3.200  11.077 -0.2084  0.9161  0.0088
  326MPD2    H7 4905   3.429   3.258  10.999 -0.6469 -1.4114 -1.5471
  327TMC3    C1 4906   3.236   3.163  11.091 -0.1754  0.5838 -0.1051
  327TMC3    C2 4907   3.162   3.277  11.091 -0.6631  0.4456 -0.2627
  327TMC3    C3 4908   3.101   3.309  10.973 -0.0514 -0.3282  0.3720
  327TMC3    C4 4909   3.245   3.077  10.984  0.5362 -0.2753  0.1611
  327TMC3    C5 4910   3.194   3.120  10.862 -0.2286  0.0480 -0.2411
  327TMC3    C6 4911   3.109   3.227  10.864  0.0590  0.6308 -0.0146
  327TMC3     C 4912   3.363   3.163  11.170 -0.2969 -1.0152 -0.4110
  327TMC3     O 4913   3.368   3.100  11.276  0.5656 -0.1165  0.2353
  327TMC3     H 4914   3.170   3.347  11.173 -0.0393  0.5447 -0.4056
  327TMC3    H1 4915   3.328   3.009  11.004  1.7344  1.4477  1.0596
  327TMC3    H2 4916   3.041   3.245  10.781 -1.6259 -1.0470  1.0131
  327TMC3    C7 4917   3.279   3.119  10.748 -0.8290  0.2850 -0.3573
  327TMC3    C8 4918   3.057   3.438  10.942 -0.2884 -0.2039 -0.0445
  327TMC3    O1 4919   3.246   3.196  10.657 -0.2088 -0.3144  0.0416
  327TMC3    O2 4920   3.104   3.487  10.839 -0.0885  0.2342 -0.2660
  328MPD2     C 4921   1.458   2.690  17.288  0.1997  0.4906 -0.0436
  328MPD2    C1 4922   1.395   2.641  17.180  0.1463 -0.2978  0.0910
  328MPD2    C2 4923   1.326   2.718  17.091  0.3411  0.4785 -0.4013
  328MPD2    C3 4924   1.307   2.856  17.111 -0.0918  0.0114 -0.0269
  328MPD2    C4 4925   1.358   2.911  17.222 -0.9418  0.4921 -0.9108
  328MPD2    C5 4926   1.437   2.826  17.301 -0.6821  0.3332  0.3894
  328MPD2     H 4927   1.292   2.678  16.996 -0.8647  1.3817 -0.3614
  328MPD2    H1 4928   1.363   3.018  17.239  1.9985 -0.1947  2.6657
  328MPD2    H2 4929   1.510   2.628  17.360 -0.1987 -0.3742 -0.5008
  328MPD2    H3 4930   1.472   2.873  17.393 -0.8118 -1.4406  1.3338
  328MPD2     N 4931   1.230   2.943  17.028  0.0209  0.9514 -0.3681
  328MPD2    H5 4932   1.210   3.034  17.068  0.6115  0.3244  1.3962
  328MPD2    N1 4933   1.414   2.503  17.162  0.2819 -0.0746  0.2753
  328MPD2    H7 4934   1.462   2.451  17.234 -0.5645 -3.4380 -1.5727
  329TMC3    C1 4935   1.380   2.280  17.060 -0.0578  0.0343 -0.5063
  329TMC3    C2 4936   1.450   2.218  17.159  0.4585  0.0777  0.5724
  329TMC3    C3 4937   1.473   2.083  17.144  0.5707  0.3402 -0.1944
  329TMC3    C4 4938   1.311   2.210  16.967  0.6065 -0.7002 -0.1504
  329TMC3    C5 4939   1.339   2.077  16.954  0.2724  0.4993  0.0565
  329TMC3    C6 4940   1.423   2.009  17.041  0.8588 -0.8360  0.4456
  329TMC3     C 4941   1.342   2.422  17.073  0.0253  0.9400  0.0833
  329TMC3     O 4942   1.238   2.451  17.010 -0.1618  1.0541  0.5463
  329TMC3     H 4943   1.499   2.266  17.243 -0.1124  1.2261  0.2504
  329TMC3    H1 4944   1.240   2.263  16.903 -0.0618  0.6478  1.6925
  329TMC3    H2 4945   1.446   1.904  17.027 -1.7273 -1.5907  1.6883
  329TMC3    C7 4946   1.271   2.007  16.852 -0.3733  0.5448  0.2214
  329TMC3    C8 4947   1.551   2.013  17.240 -0.3598  0.3899  0.7235
  329TMC3    O1 4948   1.209   2.072  16.771 -0.1289  0.0234  0.1306
  329TMC3    O2 4949   1.591   1.905  17.199  0.6824 -0.4163  0.3802
  330TMC3    C1 4950   4.468   2.393   9.811  0.1750  0.0706  0.9996
  330TMC3    C2 4951   4.459   2.272   9.745  0.1911 -0.4599 -0.2912
  330TMC3    C3 4952   4.560   2.188   9.754 -0.6665  0.2155 -0.1422
  330TMC3    C4 4953   4.573   2.430   9.890 -0.1489  0.5208  0.0449
  330TMC3    C5 4954   4.674   2.339   9.897 -0.5896  0.4865  0.0391
  330TMC3    C6 4955   4.671   2.218   9.834 -0.5972  0.6501  0.5137
  330TMC3     C 4956   4.352   2.478   9.807 -0.9772  0.3941  0.0451
  330TMC3     O 4957   4.387   2.599   9.809 -0.9032 -0.1443  0.4599
  330TMC3     H 4958   4.397   2.262   9.656 -2.4677  0.6971  1.4502
  330TMC3    H1 4959   4.572   2.525   9.942 -1.8859  1.1751 -1.2018
  330TMC3    H2 4960   0.027   2.147   9.849 -1.2749 -0.3689 -0.7043
  330TMC3    C7 4961   0.081   2.380   9.957  0.2511 -0.2161  0.0123
  330TMC3    C8 4962   4.550   2.051   9.707 -0.0922 -0.4397 -0.3104
  330TMC3    O1 4963   0.173   2.302   9.930 -0.1839  0.3395  0.1703
  330TMC3    O2 4964   4.660   1.998   9.704 -0.3888 -1.1423 -0.7009
  331MPD2     C 4965   1.796   1.215  12.963 -0.4639  0.1066 -0.0950
  331MPD2    C1 4966   1.927   1.210  12.963 -0.5101 -0.5241  0.9426
  331MPD2    C2 4967   1.993   1.103  12.912 -0.5954  0.3053 -0.4791
  331MPD2    C3 4968   1.918   0.992  12.870  0.0825 -0.0632 -0.3142
  331MPD2    C4 4969   1.780   0.994  12.879 -0.5721 -0.2088 -0.6409
  331MPD2    C5 4970   1.719   1.112  12.917 -0.1874  0.5200 -0.0633
  331MPD2     H 4971   2.101   1.097  12.909 -0.4147  2.0254  2.1180
  331MPD2    H1 4972   1.708   0.919  12.848 -2.6712  2.1946 -1.5683
  331MPD2    H2 4973   1.748   1.307  12.992 -2.1192  0.2643 -3.2381
  331MPD2    H3 4974   1.610   1.116  12.918 -0.0357  3.5323  2.8611
  331MPD2     N 4975   1.988   0.894  12.806 -0.0817  0.6764 -0.1115
  331MPD2    H5 4976   2.088   0.906  12.793 -0.1176  0.1070 -0.9718
  331MPD2    N1 4977   1.997   1.328  12.995  0.5429  0.8212  0.0354
  331MPD2    H7 4978   1.939   1.411  12.987  1.0630  0.9366 -2.4304
  332TMC3    C1 4979   2.038   0.734  12.644  0.6255 -0.0554 -0.8762
  332TMC3    C2 4980   2.056   0.800  12.519 -0.2500  0.1766 -0.9481
  332TMC3    C3 4981   2.182   0.799  12.477 -0.3126  0.3478 -0.8004
  332TMC3    C4 4982   2.134   0.684  12.723 -0.1779  0.3120  0.5915
  332TMC3    C5 4983   2.251   0.664  12.662 -0.4028  0.1262 -0.0509
  332TMC3    C6 4984   2.279   0.725  12.548 -0.1606 -0.1673  0.1670
  332TMC3     C 4985   1.927   0.791  12.729  0.3579 -0.1343  0.0684
  332TMC3     O 4986   1.808   0.763  12.713  0.2551  0.2438 -0.3061
  332TMC3     H 4987   1.966   0.839  12.472 -1.0367  1.1405  1.3557
  332TMC3    H1 4988   2.107   0.647  12.821  1.8045 -1.9873  0.2661
  332TMC3    H2 4989   2.374   0.720  12.496  1.4840  3.4613  2.8449
  332TMC3    C7 4990   2.354   0.606  12.743  0.3328 -0.3041  0.1282
  332TMC3    C8 4991   2.231   0.878  12.368  0.4250  0.1493  0.0593
  332TMC3    O1 4992   2.320   0.525  12.828 -0.4878 -0.1968  0.3960
  332TMC3    O2 4993   2.351   0.892  12.363 -0.3354  0.3800  0.2866
  333MPD2     C 4994   2.655   1.408  11.408 -0.2196 -1.4084 -0.0617
  333MPD2    C1 4995   2.597   1.413  11.280  1.1823  0.1987  0.2080
  333MPD2    C2 4996   2.470   1.358  11.259  0.1835  0.1641 -0.2206
  333MPD2    C3 4997   2.398   1.298  11.364  0.7345  0.1202 -0.1998
  333MPD2    C4 4998   2.458   1.297  11.494 -0.5886 -0.2979  0.4834
  333MPD2    C5 4999   2.581   1.356  11.511  0.5442  0.1788  0.0980
  333MPD2     H 5000   2.425   1.338  11.163 -0.6558 -1.9015  0.5907
  333MPD2    H1 5001   2.414   1.245  11.579 -0.5608 -3.8942 -1.7029
  333MPD2    H2 5002   2.754   1.449  11.420 -2.0115  2.3833  2.0270
  333MPD2    H3 5003   2.623   1.349  11.611 -1.2779 -0.6508  0.8143
  333MPD2     N 5004   2.280   1.235  11.338  0.0991  0.2314  0.4123
  333MPD2    H5 5005   2.257   1.203  11.245 -1.4245 -1.0947  1.2447
  333MPD2    N1 5006   2.673   1.482  11.181  0.1984 -0.5455 -0.2123
  333MPD2    H7 5007   2.767   1.509  11.208 -0.8646  0.1165  2.8679
  334TMC3    C1 5008   2.735   1.597  11.009  0.1945  0.2200 -0.7370
  334TMC3    C2 5009   2.861   1.544  11.026  0.2003  0.2417 -0.4946
  334TMC3    C3 5010   2.968   1.628  10.993  0.3010  0.5900  0.2233
  334TMC3    C4 5011   2.711   1.727  10.977 -0.5032 -0.2504 -0.2411
  334TMC3    C5 5012   2.824   1.806  10.960 -0.4362  0.3875  0.1998
  334TMC3    C6 5013   2.954   1.766  10.973 -0.5004  0.3309 -0.0877
  334TMC3     C 5014   2.625   1.523  11.065  0.3469  0.4940 -0.4414
  334TMC3     O 5015   2.516   1.516  11.016  0.2962 -0.1293  0.2286
  334TMC3     H 5016   2.890   1.440  11.035 -2.2310 -0.4413 -0.6997
  334TMC3    H1 5017   2.610   1.768  10.977 -0.1122  0.7128  0.6524
  334TMC3    H2 5018   3.035   1.837  10.955  0.3074 -0.2075  1.5122
  334TMC3    C7 5019   2.804   1.953  10.968  0.0660 -0.4928 -0.3015
  334TMC3    C8 5020   3.106   1.584  11.024  0.3088  0.4077 -0.3646
  334TMC3    O1 5021   2.904   2.021  10.973 -0.1213 -0.1975  0.5856
  334TMC3    O2 5022   3.106   1.497  11.110 -0.1027  0.5183 -0.2712
  335TMC3    C1 5023   1.993   2.495  17.156  0.2320  0.2693 -0.7226
  335TMC3    C2 5024   1.926   2.397  17.100  0.0528  0.1098 -1.0093
  335TMC3    C3 5025   1.983   2.277  17.078 -0.1306  0.2344  0.0287
  335TMC3    C4 5026   2.120   2.480  17.189  0.6553  0.5373 -0.7259
  335TMC3    C5 5027   2.174   2.353  17.179 -0.1118 -0.1107 -0.6062
  335TMC3    C6 5028   2.109   2.253  17.107 -0.0884  0.2570 -0.2733
  335TMC3     C 5029   1.925   2.623  17.180 -0.4002  0.5146 -0.3012
  335TMC3     O 5030   1.802   2.615  17.184 -0.0814  0.2088 -0.4838
  335TMC3     H 5031   1.822   2.414  17.072 -0.2930 -1.4856 -0.7102
  335TMC3    H1 5032   2.184   2.556  17.232 -0.5142  0.7727  0.6026
  335TMC3    H2 5033   2.147   2.151  17.101 -0.2609  0.2257 -0.8657
  335TMC3    C7 5034   2.312   2.321  17.208  0.8336 -0.8112 -0.5060
  335TMC3    C8 5035   1.907   2.161  17.043  0.5253  0.1323 -0.8054
  335TMC3    O1 5036   2.364   2.240  17.129 -0.4031  0.5077 -0.3229
  335TMC3    O2 5037   1.935   2.065  17.114  0.2353 -0.5326  0.2375
  336MPD2     C 5038   1.780   0.577  16.407  0.0940 -0.0473  0.6180
  336MPD2    C1 5039   1.766   0.544  16.268 -0.4973  0.2622 -0.0003
  336MPD2    C2 5040   1.781   0.415  16.223  0.2550  0.4790  0.7137
  336MPD2    C3 5041   1.818   0.315  16.312  0.1964 -0.3384  0.1745
  336MPD2    C4 5042   1.829   0.342  16.450  0.3412 -0.4814 -0.4143
  336MPD2    C5 5043   1.811   0.473  16.489  0.6405  0.6424 -0.5898
  336MPD2     H 5044   1.778   0.386  16.119 -2.2174 -0.5156  1.0610
  336MPD2    H1 5045   1.852   0.269  16.527 -1.3089  0.9342  1.4017
  336MPD2    H2 5046   1.755   0.678  16.437 -0.1675 -0.2559  1.1028
  336MPD2    H3 5047   1.808   0.498  16.595  0.4978 -3.0202  0.2572
  336MPD2     N 5048   1.842   0.177  16.276  0.0135  0.1665 -0.1892
  336MPD2    H5 5049   1.867   0.117  16.354 -1.1434 -1.4035 -1.0263
  336MPD2    N1 5050   1.730   0.628  16.162 -0.1442 -0.4960  0.4046
  336MPD2    H7 5051   1.721   0.595  16.067 -0.9133  0.4016  0.1617
  337TMC3    C1 5052   1.656   0.833  16.063 -0.0273 -0.2809 -0.2975
  337TMC3    C2 5053   1.553   0.776  15.984 -0.3044 -0.5925  0.8015
  337TMC3    C3 5054   1.499   0.852  15.887 -0.8495 -0.0943 -0.8925
  337TMC3    C4 5055   1.721   0.953  16.030 -0.1383 -0.9436 -0.8789
  337TMC3    C5 5056   1.673   1.013  15.919  0.3493  0.5218 -0.0184
  337TMC3    C6 5057   1.562   0.968  15.857 -0.3459 -0.2983 -0.1593
  337TMC3     C 5058   1.710   0.764  16.183 -0.2344  0.1896 -0.2906
  337TMC3     O 5059   1.720   0.836  16.283 -0.8816  1.0439  0.0444
  337TMC3     H 5060   1.497   0.691  16.022  0.5512 -1.1325  0.8636
  337TMC3    H1 5061   1.815   0.970  16.080 -0.9569  2.5402 -0.4883
  337TMC3    H2 5062   1.512   1.031  15.784 -0.7745  1.4596  1.6782
  337TMC3    C7 5063   1.757   1.110  15.850 -0.3960 -0.3834 -0.4002
  337TMC3    C8 5064   1.355   0.847  15.866 -0.2004 -0.5624  0.4048
  337TMC3    O1 5065   1.859   1.133  15.911 -0.1710 -0.0008  0.1993
  337TMC3    O2 5066   1.293   0.792  15.959 -0.1068 -0.4195 -0.2576
  338MPD2     C 5067   1.732   4.135   0.976  0.6206  0.6224  0.1490
  338MPD2    C1 5068   1.742   4.214   0.863  0.0232 -0.3616  0.7327
  338MPD2    C2 5069   1.656   4.321   0.842 -0.2918 -0.0828 -0.2569
  338MPD2    C3 5070   1.566   4.343   0.937 -0.1637  0.3926 -0.3352
  338MPD2    C4 5071   1.558   4.266   1.046  1.2770 -0.2174 -0.0963
  338MPD2    C5 5072   1.644   4.168   1.073  0.2068  0.2536 -0.1151
  338MPD2     H 5073   1.664   4.386   0.755  0.3424 -0.9366 -0.8466
  338MPD2    H1 5074   1.476   4.283   1.115  1.5553  0.4868  0.0638
  338MPD2    H2 5075   1.795   4.049   0.997  0.5013  0.4108 -0.3567
  338MPD2    H3 5076   1.633   4.108   1.163 -2.0697 -1.6908 -1.7191
  338MPD2     N 5077   1.479   4.448   0.901  0.0154 -0.0074  0.1460
  338MPD2    H5 5078   1.499   4.509   0.822  0.1712 -0.6735 -0.3337
  338MPD2    N1 5079   1.853   4.191   0.775 -0.9991 -0.5789  0.0430
  338MPD2    H7 5080   1.875   4.273   0.719 -0.8831 -0.0104  0.9061
  339TMC3    C1 5081   1.271   4.541   0.859  0.0284  0.5257  0.3764
  339TMC3    C2 5082   1.162   4.465   0.832  0.4590 -0.4252 -0.1193
  339TMC3    C3 5083   1.111   4.469   0.702  0.0273 -0.3586  0.1962
  339TMC3    C4 5084   1.340   4.611   0.765 -0.3063  0.1564 -0.3827
  339TMC3    C5 5085   1.284   4.620   0.637 -0.2702  0.1935  0.1989
  339TMC3    C6 5086   1.174   4.545   0.605  0.4267  0.1735 -0.0743
  339TMC3     C 5087   1.359   4.475   0.961 -0.4017  0.1115 -0.8885
  339TMC3     O 5088   1.303   4.418   1.053  0.3829 -0.2677  0.4626
  339TMC3     H 5089   1.116   4.402   0.908  4.2704 -1.6896  1.1448
  339TMC3    H1 5090   1.429   4.667   0.794 -0.8207  1.0874 -0.6205
  339TMC3    H2 5091   1.142   4.538   0.501  0.5962 -1.6410  0.0045
  339TMC3    C7 5092   1.353   4.699   0.531 -0.5062  0.3287  0.1184
  339TMC3    C8 5093   1.043   4.351   0.657  0.7441 -0.5371  0.4947
  339TMC3    O1 5094   1.440   0.045   0.579 -0.5658  0.2596 -0.0351
  339TMC3    O2 5095   1.069   4.317   0.543  0.1861 -0.3051 -0.3532
  340MPD2     C 5096   2.213   2.461  10.681  0.7307  0.3339  0.9783
  340MPD2    C1 5097   2.231   2.458  10.548 -0.2969  0.1235  0.6761
  340MPD2    C2 5098   2.297   2.565  10.489 -0.0927  0.2951  0.7369
  340MPD2    C3 5099   2.325   2.680  10.560 -1.1155  0.0172  0.4523
  340MPD2    C4 5100   2.305   2.684  10.691 -0.2216 -0.1668  0.4030
  340MPD2    C5 5101   2.237   2.581  10.752 -0.5683  0.6294 -0.0662
  340MPD2     H 5102   2.326   2.563  10.385 -0.2066 -0.3766  0.7187
  340MPD2    H1 5103   2.342   2.764  10.754  1.5592 -0.0272 -0.8071
  340MPD2    H2 5104   2.163   2.384  10.738 -1.0487 -0.0100 -1.0267
  340MPD2    H3 5105   2.228   2.570  10.859  0.1873 -2.2567 -0.2793
  340MPD2     N 5106   2.387   2.794  10.508  0.0904  0.4868  0.1939
  340MPD2    H5 5107   2.433   2.864  10.566  0.7681 -0.1687  0.4453
  340MPD2    N1 5108   2.205   2.338  10.482  0.3935 -0.5392 -0.5125
  340MPD2    H7 5109   2.204   2.258  10.544 -1.4265 -1.1903 -1.4014
  341TMC3    C1 5110   2.253   2.197  10.314 -1.0022 -0.0708 -0.3721
  341TMC3    C2 5111   2.214   2.087  10.383  0.3008  0.2576 -0.1611
  341TMC3    C3 5112   2.311   1.987  10.381  0.0218 -0.1427 -0.1730
  341TMC3    C4 5113   2.373   2.217  10.248 -1.1511 -0.2211  0.1856
  341TMC3    C5 5114   2.468   2.115  10.249  0.5036  0.2069  0.0361
  341TMC3    C6 5115   2.436   2.003  10.320  0.8054  0.0501 -0.2894
  341TMC3     C 5116   2.195   2.329  10.346  0.0485 -0.1710  0.2733
  341TMC3     O 5117   2.197   2.418  10.263  0.1976  0.4501 -0.2722
  341TMC3     H 5118   2.117   2.070  10.429 -0.4632  0.5743 -1.6757
  341TMC3    H1 5119   2.395   2.307  10.190  0.4594 -0.2127  0.7929
  341TMC3    H2 5120   2.509   1.924  10.304 -0.1679 -1.2539  1.7524
  341TMC3    C7 5121   2.530   2.079  10.125 -0.1567  0.4035 -0.4701
  341TMC3    C8 5122   2.251   1.863  10.339  0.4809  0.7835  0.1598
  341TMC3    O1 5123   2.632   2.013  10.126  0.1102 -0.2382  0.3092
  341TMC3    O2 5124   2.136   1.867  10.298  0.1490 -0.0441 -0.5770
  342MPD2     C 5125   0.109   0.813  17.586  0.7263 -0.2883 -0.4012
  342MPD2    C1 5126   0.229   0.810  17.522  0.5081  0.1929  0.1071
  342MPD2    C2 5127   0.304   0.927  17.529 -0.6828  0.2878 -0.0753
  342MPD2    C3 5128   0.256   1.049  17.583 -0.0751 -1.1391 -0.2762
  342MPD2    C4 5129   0.129   1.046  17.635  0.6610  0.2853  0.4547
  342MPD2    C5 5130   0.063   0.929  17.645  0.2572  0.0444 -0.7831
  342MPD2     H 5131   0.406   0.920  17.493 -0.8465 -1.9986 -0.1077
  342MPD2    H1 5132   0.082   1.135  17.677 -1.4477 -0.2137 -0.8183
  342MPD2    H2 5133   0.041   0.729  17.595  0.3419 -0.0189 -0.7512
  342MPD2    H3 5134   4.696   0.935   0.004  0.1784 -2.1195 -0.6707
  342MPD2     N 5135   0.317   1.178  17.583  0.3923 -1.3071 -0.5827
  342MPD2    H5 5136   0.282   1.257  17.637  1.6631 -0.7482 -0.5695
  342MPD2    N1 5137   0.284   0.691  17.470  0.3000 -0.0994  0.1067
  342MPD2    H7 5138   0.366   0.700  17.411  0.0238 -0.9025 -0.4042
  343TMC3    C1 5139   0.264   0.478  17.385 -0.1180 -0.0872  0.4853
  343TMC3    C2 5140   0.323   0.527  17.267  0.8174 -0.0001 -0.0006
  343TMC3    C3 5141   0.348   0.431  17.165  0.0774 -0.5841 -0.6536
  343TMC3    C4 5142   0.228   0.349  17.394 -0.6665  0.5588 -0.3204
  343TMC3    C5 5143   0.256   0.260  17.299  0.1302  0.7266 -0.2687
  343TMC3    C6 5144   0.316   0.298  17.178 -1.0084  0.5867 -0.5611
  343TMC3     C 5145   0.231   0.569  17.494  0.4715 -0.4903 -0.1114
  343TMC3     O 5146   0.156   0.528  17.582 -0.9159  0.1539 -0.6306
  343TMC3     H 5147   0.329   0.631  17.240  0.6684  0.2965  1.1382
  343TMC3    H1 5148   0.163   0.309  17.471  1.9943 -1.1485  1.0313
  343TMC3    H2 5149   0.351   0.226  17.104  0.4202  0.0437  0.6391
  343TMC3    C7 5150   0.194   0.127  17.304  0.1840 -0.5489 -0.3330
  343TMC3    C8 5151   0.457   0.478  17.072  1.6754  0.4995 -0.7389
  343TMC3    O1 5152   0.146   0.080  17.203 -0.0661  0.7179 -0.0620
  343TMC3    O2 5153   0.515   0.583  17.099  0.2044 -0.0546  0.4329
  344MPD2     C 5154   1.008   0.363  10.230 -0.2446  0.1629  0.3338
  344MPD2    C1 5155   1.102   0.394  10.329 -0.0725  0.2825 -0.3031
  344MPD2    C2 5156   1.194   0.495  10.303 -0.2226 -1.0169  1.3965
  344MPD2    C3 5157   1.202   0.554  10.176  0.0513 -0.0624  0.4990
  344MPD2    C4 5158   1.107   0.519  10.083 -0.3744  0.4202 -0.4750
  344MPD2    C5 5159   1.006   0.429  10.113 -0.0872 -1.0790  0.1300
  344MPD2     H 5160   1.265   0.527  10.378  0.3345  0.2386  0.3362
  344MPD2    H1 5161   1.104   0.561   9.983  1.1814  0.9174 -0.3147
  344MPD2    H2 5162   0.939   0.280  10.242  0.0590 -0.1506 -0.0683
  344MPD2    H3 5163   0.938   0.404  10.032 -0.5324  1.8710 -0.4158
  344MPD2     N 5164   1.299   0.653  10.133 -0.3506 -0.2348 -0.4247
  344MPD2    H5 5165   1.279   0.690  10.041 -1.1258 -0.5102 -0.3624
  344MPD2    N1 5166   1.078   0.322  10.449  0.1536 -0.3116  0.2539
  344MPD2    H7 5167   1.009   0.247  10.452  0.6680 -0.7849  0.3302
  345TMC3    C1 5168   1.443   0.831  10.166 -0.0971 -0.6038  0.3998
  345TMC3    C2 5169   1.546   0.883  10.242  0.5812 -0.1583 -0.4972
  345TMC3    C3 5170   1.599   1.003  10.206 -0.0526 -0.2161 -0.2279
  345TMC3    C4 5171   1.393   0.902  10.055 -0.2012  0.3467  0.1834
  345TMC3    C5 5172   1.445   1.023  10.022  0.2314 -0.2369 -0.0861
  345TMC3    C6 5173   1.553   1.075  10.095  0.2350  0.6796 -1.0450
  345TMC3     C 5174   1.411   0.695  10.205  0.2263 -0.2628  0.3823
  345TMC3     O 5175   1.451   0.646  10.313  0.5032 -0.3251 -1.0563
  345TMC3     H 5176   1.583   0.832  10.330 -3.3324 -2.7440 -0.3486
  345TMC3    H1 5177   1.303   0.866  10.006  1.6378  0.5306 -3.3092
  345TMC3    H2 5178   1.597   1.171  10.072  0.6475 -0.0736 -3.4158
  345TMC3    C7 5179   1.427   1.087   9.882 -0.4439 -1.1594 -0.0689
  345TMC3    C8 5180   1.726   1.046  10.261 -0.5577  0.1787  0.2125
  345TMC3    O1 5181   1.517   1.151   9.834  0.1728  0.5741  0.0000
  345TMC3    O2 5182   1.797   0.958  10.314 -0.3339 -0.1127 -0.9435
  346MPD2     C 5183   1.187   1.818  14.551 -0.3174  0.2363  0.1302
  346MPD2    C1 5184   1.251   1.932  14.499 -0.1296 -0.0139 -0.3684
  346MPD2    C2 5185   1.304   2.023  14.581 -0.2236 -0.1918 -0.1348
  346MPD2    C3 5186   1.301   2.008  14.720 -0.4241  0.0451  0.8551
  346MPD2    C4 5187   1.235   1.901  14.774  0.0158 -0.5648  0.0417
  346MPD2    C5 5188   1.182   1.810  14.687 -0.2510  0.3712 -0.0291
  346MPD2     H 5189   1.346   2.113  14.539  2.8078 -1.4505  0.2113
  346MPD2    H1 5190   1.225   1.885  14.881  0.3554  0.0897  0.1724
  346MPD2    H2 5191   1.140   1.740  14.493 -1.9945  1.2735  0.0857
  346MPD2    H3 5192   1.125   1.729  14.730 -0.8047  1.4675  1.2726
  346MPD2     N 5193   1.373   2.104  14.788 -0.5555  0.3326 -0.0310
  346MPD2    H5 5194   1.409   2.177  14.728 -1.6647  1.7411  0.9966
  346MPD2    N1 5195   1.270   1.964  14.366  0.1941  0.3418  0.2668
  346MPD2    H7 5196   1.333   2.043  14.352 -0.4565  0.4797 -1.8485
  347TMC3    C1 5197   1.462   2.244  14.952  0.5574 -0.0288  0.3392
  347TMC3    C2 5198   1.537   2.299  14.853 -0.2602  0.4250 -0.3387
  347TMC3    C3 5199   1.646   2.375  14.885 -0.7353  0.2177  0.1850
  347TMC3    C4 5200   1.495   2.266  15.083  0.5115  0.7484 -0.0564
  347TMC3    C5 5201   1.602   2.348  15.114 -1.0050 -0.4836 -0.6520
  347TMC3    C6 5202   1.680   2.416  15.016 -0.0087  0.4079 -0.0264
  347TMC3     C 5203   1.391   2.120  14.921 -0.5460 -0.0901 -0.1694
  347TMC3     O 5204   1.345   2.055  15.015  0.0730 -0.7001 -0.5918
  347TMC3     H 5205   1.523   2.268  14.750 -0.3882 -0.0763 -0.1712
  347TMC3    H1 5206   1.448   2.207  15.161 -0.5167  1.0446 -0.4572
  347TMC3    H2 5207   1.759   2.483  15.049  0.2967  0.9685 -1.9177
  347TMC3    C7 5208   1.658   2.347  15.252  0.5535 -0.1817 -0.1761
  347TMC3    C8 5209   1.721   2.435  14.773 -0.3653  0.8367  0.3028
  347TMC3    O1 5210   1.781   2.359  15.255  0.4065 -0.2221  0.1999
  347TMC3    O2 5211   1.684   2.401  14.659  0.1922  0.1198 -0.0620
  348MPD2     C 5212   4.464   1.898  12.044  0.3810 -0.4105  0.5711
  348MPD2    C1 5213   4.523   2.020  12.070 -0.7872  1.0340 -0.3813
  348MPD2    C2 5214   4.482   2.127  11.995  0.8112  0.1965  0.0064
  348MPD2    C3 5215   4.396   2.125  11.886 -0.3331 -0.6355 -0.6532
  348MPD2    C4 5216   4.350   1.999  11.854 -0.4374  0.7310  0.5536
  348MPD2    C5 5217   4.386   1.893  11.930 -0.5614 -0.2242  0.6917
  348MPD2     H 5218   4.532   2.217  12.030  0.8234  0.8893 -1.7996
  348MPD2    H1 5219   4.286   1.982  11.768  1.2013 -0.9277 -0.3528
  348MPD2    H2 5220   4.480   1.806  12.099 -0.7216 -1.4531 -0.8500
  348MPD2    H3 5221   4.344   1.797  11.900  1.0358 -1.1987  1.6068
  348MPD2     N 5222   4.378   2.241  11.801  0.6030 -0.3319 -0.1561
  348MPD2    H5 5223   4.427   2.329  11.811 -0.8719  0.1448  2.9183
  348MPD2    N1 5224   4.613   2.041  12.175  0.3503 -0.1626 -0.7122
  348MPD2    H7 5225   4.653   2.134  12.177 -0.6253  0.2949 -2.1514
  349TMC3    C1 5226   0.071   1.994  12.321 -0.1126  0.2961  0.2594
  349TMC3    C2 5227   0.150   1.892  12.354  0.5258 -0.4189 -0.9482
  349TMC3    C3 5228   0.283   1.902  12.333 -0.2694  0.6994 -0.5504
  349TMC3    C4 5229   0.122   2.114  12.272  0.2937 -0.0877 -0.4774
  349TMC3    C5 5230   0.255   2.114  12.237  0.1725 -0.1578 -0.3077
  349TMC3    C6 5231   0.339   2.011  12.271 -0.4819  0.4975 -0.4269
  349TMC3     C 5232   4.666   1.944  12.262 -0.1014 -0.1519  0.0459
  349TMC3     O 5233   4.630   1.831  12.283 -0.4338  0.1712 -0.0504
  349TMC3     H 5234   0.111   1.798  12.392 -0.3984  0.4630  0.2831
  349TMC3    H1 5235   0.055   2.193  12.242  0.4142  0.9607  1.9566
  349TMC3    H2 5236   0.441   2.010  12.235  0.3409 -0.5259  1.8955
  349TMC3    C7 5237   0.270   2.163  12.097 -0.6345 -0.5628  0.7808
  349TMC3    C8 5238   0.359   1.780  12.353  0.0509 -0.0556 -0.2612
  349TMC3    O1 5239   0.314   2.081  12.014 -0.0826 -0.5264 -0.3129
  349TMC3    O2 5240   0.290   1.673  12.351  0.0717  0.1381  0.3947
  350MPD2     C 5241   4.122   4.364   9.726 -0.1319  0.9914 -0.3977
  350MPD2    C1 5242   4.006   4.396   9.783 -0.0885  0.1342 -0.2254
  350MPD2    C2 5243   3.994   4.496   9.877 -0.0214  0.0006 -0.1853
  350MPD2    C3 5244   4.106   4.566   9.913  0.3761 -0.8127 -0.4183
  350MPD2    C4 5245   4.226   4.530   9.847  0.0460 -0.7016  0.0205
  350MPD2    C5 5246   4.233   4.444   9.745  0.3987  0.1453  0.6377
  350MPD2     H 5247   3.901   4.507   9.932  1.0388 -1.7324  1.9421
  350MPD2    H1 5248   4.320   4.582   9.863 -0.4055  0.1907 -0.1867
  350MPD2    H2 5249   4.138   4.294   9.645  0.7647  1.3821 -0.5646
  350MPD2    H3 5250   4.324   4.435   9.687  0.6112 -0.0386  0.9981
  350MPD2     N 5251   4.106   4.670  10.012 -0.3930 -0.2380 -0.4618
  350MPD2    H5 5252   4.192   4.693  10.060  0.4999 -1.9201 -1.2606
  350MPD2    N1 5253   3.889   4.319   9.751 -0.1512 -0.2186 -0.6480
  350MPD2    H7 5254   3.804   4.351   9.794  2.4156  2.2887  2.5369
  351TMC3    C1 5255   3.758   4.149   9.643  0.8547  0.3636  0.3411
  351TMC3    C2 5256   3.750   4.020   9.589 -0.2876  0.4017 -0.5733
  351TMC3    C3 5257   3.642   3.945   9.627 -1.1577  0.1147  0.9392
  351TMC3    C4 5258   3.644   4.202   9.698 -0.4329  0.5843 -0.9879
  351TMC3    C5 5259   3.533   4.129   9.705 -0.1714 -0.4878  0.4389
  351TMC3    C6 5260   3.534   3.994   9.692  0.2412 -0.0473  0.2627
  351TMC3     C 5261   3.888   4.202   9.678  0.4560  0.2577 -0.0781
  351TMC3     O 5262   3.981   4.133   9.635  0.1063  0.4843  0.1652
  351TMC3     H 5263   3.831   3.979   9.530  0.7804  3.2455 -1.0960
  351TMC3    H1 5264   3.631   4.306   9.726  0.0931  0.6685 -1.0590
  351TMC3    H2 5265   3.455   3.935   9.738  1.2169 -1.1757  0.4980
  351TMC3    C7 5266   3.439   4.174   9.807  0.8624  0.2539 -0.0004
  351TMC3    C8 5267   3.647   3.799   9.611  0.5398  0.0175 -0.3584
  351TMC3    O1 5268   3.466   4.273   9.873 -0.1472  0.1065 -0.6505
  351TMC3    O2 5269   3.756   3.745   9.606  0.3628  0.0948  0.1417
  352MPD2     C 5270   2.475   1.198   0.740  0.0195 -0.4816  0.4632
  352MPD2    C1 5271   2.409   1.196   0.864 -0.4274 -0.6246  0.3187
  352MPD2    C2 5272   2.465   1.113   0.963 -0.6228  0.8619  0.5962
  352MPD2    C3 5273   2.583   1.041   0.948 -0.4132  0.0656  0.7373
  352MPD2    C4 5274   2.643   1.051   0.825  0.3313 -0.7656  0.5630
  352MPD2    C5 5275   2.586   1.123   0.723  0.0208  0.0712  0.2150
  352MPD2     H 5276   2.412   1.096   1.056 -1.8069 -1.2715 -0.4479
  352MPD2    H1 5277   2.730   0.987   0.813  1.1985  1.2171 -3.6877
  352MPD2    H2 5278   2.435   1.255   0.657 -0.5458 -0.3373  0.8272
  352MPD2    H3 5279   2.626   1.100   0.625 -1.7387  0.4508 -0.6041
  352MPD2     N 5280   2.631   0.944   1.041  0.0905 -0.1623 -0.0888
  352MPD2    H5 5281   2.704   0.881   1.010 -0.4674 -0.3977 -0.9515
  352MPD2    N1 5282   2.294   1.275   0.876 -0.3160 -0.0399  0.4340
  352MPD2    H7 5283   2.273   1.322   0.789  0.7664 -2.2900 -1.0561
  353TMC3    C1 5284   2.627   0.792   1.214  0.0695 -0.3868 -0.0316
  353TMC3    C2 5285   2.703   0.712   1.135 -0.9436 -0.2230  0.0778
  353TMC3    C3 5286   2.695   0.574   1.148 -0.1647 -0.2315  0.0494
  353TMC3    C4 5287   2.531   0.732   1.292  0.4641 -0.3390  0.5210
  353TMC3    C5 5288   2.524   0.597   1.305  0.4344  0.6338  0.2259
  353TMC3    C6 5289   2.610   0.513   1.240 -0.2968 -0.3588 -0.4824
  353TMC3     C 5290   2.584   0.925   1.169  0.4634  0.1770  0.1794
  353TMC3     O 5291   2.494   0.977   1.233 -0.2479  0.4918  0.2177
  353TMC3     H 5292   2.772   0.745   1.059 -2.2038 -0.4054 -1.1639
  353TMC3    H1 5293   2.465   0.784   1.360  1.8768 -1.2118  2.5624
  353TMC3    H2 5294   2.614   0.410   1.271 -4.7492  0.0624  1.5242
  353TMC3    C7 5295   2.397   0.552   1.261  0.2293  0.3041  0.3514
  353TMC3    C8 5296   2.756   0.490   1.052 -0.6256 -0.3103 -0.4492
  353TMC3    O1 5297   2.310   0.637   1.257  0.8412 -0.1566 -0.0633
  353TMC3    O2 5298   2.704   0.378   1.025  0.3671  1.0120  0.2551
  354TMC3    C1 5299   3.769   2.939  12.993 -0.8746 -0.1033 -0.4633
  354TMC3    C2 5300   3.752   3.073  12.950  0.4121 -0.2875  0.0927
  354TMC3    C3 5301   3.780   3.094  12.815 -0.2902 -0.3595  0.0394
  354TMC3    C4 5302   3.799   2.843  12.902 -0.4953  0.3951  0.3956
  354TMC3    C5 5303   3.833   2.875  12.776 -0.5905 -0.4314  1.2203
  354TMC3    C6 5304   3.829   3.001  12.729 -0.0280 -1.3047 -0.0983
  354TMC3     C 5305   3.788   2.904  13.135  0.5937  0.5806  0.1417
  354TMC3     O 5306   3.794   2.786  13.154  0.0888  0.6272  0.0119
  354TMC3     H 5307   3.713   3.138  13.028 -0.8990 -1.1868  0.1736
  354TMC3    H1 5308   3.842   2.748  12.931 -1.3500  0.4895  1.9575
  354TMC3    H2 5309   3.846   3.025  12.625 -1.7858  0.5813  0.0481
  354TMC3    C7 5310   3.889   2.770  12.694 -0.1301 -0.6349  0.4946
  354TMC3    C8 5311   3.761   3.223  12.752 -0.0372 -0.3769 -0.5124
  354TMC3    O1 5312   3.854   2.658  12.721  0.1621  0.1413  0.2478
  354TMC3    O2 5313   3.781   3.242  12.632 -0.0411  0.0520  0.0691
  355MPD2     C 5314   3.923   4.310  11.467  0.2770 -0.2816 -0.2104
  355MPD2    C1 5315   3.915   4.324  11.331  0.1472 -0.2389 -1.5656
  355MPD2    C2 5316   4.017   4.271  11.247 -0.7965 -0.4782  0.1650
  355MPD2    C3 5317   4.109   4.186  11.304  0.3048  0.0566  0.5732
  355MPD2    C4 5318   4.108   4.162  11.443  0.4451  0.4324 -0.8482
  355MPD2    C5 5319   4.018   4.227  11.523  0.0574  0.4237 -0.2186
  355MPD2     H 5320   4.018   4.294  11.141 -3.0164 -1.6379 -0.1032
  355MPD2    H1 5321   4.176   4.090  11.488 -1.2655  0.8896  2.4818
  355MPD2    H2 5322   3.849   4.357  11.531  0.9750  1.1855 -0.5057
  355MPD2    H3 5323   4.024   4.219  11.631  0.6627  1.3219 -0.1886
  355MPD2     N 5324   4.212   4.121  11.230  0.0187 -0.0003  0.1340
  355MPD2    H5 5325   4.275   4.066  11.286  0.5747 -0.1066 -0.5943
  355MPD2    N1 5326   3.801   4.401  11.293 -0.1560 -0.3215  0.5962
  355MPD2    H7 5327   3.734   4.428  11.364 -0.1794  0.9598  0.0992
  356TMC3    C1 5328   4.355   4.066  11.055  0.4106  0.6516 -0.1218
  356TMC3    C2 5329   4.453   4.142  10.991  0.6858 -0.2886  0.3990
  356TMC3    C3 5330   4.579   4.092  11.002  0.7124 -0.0842  0.6521
  356TMC3    C4 5331   4.376   3.945  11.114  0.7158 -0.9050  0.5507
  356TMC3    C5 5332   4.503   3.893  11.103 -0.4119 -0.0785 -0.5986
  356TMC3    C6 5333   4.602   3.967  11.052 -0.5134  0.4966 -0.0776
  356TMC3     C 5334   4.237   4.134  11.096  0.8976  0.0601  0.0080
  356TMC3     O 5335   4.187   4.211  11.017  0.0403  0.6018  0.2258
  356TMC3     H 5336   4.431   4.245  10.966  0.2050 -0.6087 -0.4773
  356TMC3    H1 5337   4.306   3.891  11.176 -0.0072 -0.7950 -0.1586
  356TMC3    H2 5338   4.701   3.922  11.058 -0.3877  0.6325 -1.1655
  356TMC3    C7 5339   4.538   3.825  11.225 -0.0449  0.1795 -0.2260
  356TMC3    C8 5340   4.690   4.153  10.925  0.3964  0.0123 -0.5220
  356TMC3    O1 5341   4.507   3.706  11.227 -0.3146  0.3398 -0.2958
  356TMC3    O2 5342   4.658   4.216  10.826 -0.2262 -0.4844  0.1640
  357MPD2     C 5343   3.326   3.158   0.669 -0.0225  0.3434 -0.2607
  357MPD2    C1 5344   3.443   3.111   0.715  0.1679  0.4741 -0.5244
  357MPD2    C2 5345   3.470   3.126   0.852 -0.1577  0.0796  0.0600
  357MPD2    C3 5346   3.386   3.202   0.937  0.1263  0.4808  0.6364
  357MPD2    C4 5347   3.283   3.269   0.876 -0.7188 -0.6577 -0.2166
  357MPD2    C5 5348   3.254   3.245   0.746 -0.0558 -0.2398 -0.1567
  357MPD2     H 5349   3.557   3.075   0.893 -0.2896 -0.5462 -0.4337
  357MPD2    H1 5350   3.218   3.345   0.920 -3.1606 -2.4639 -0.7046
  357MPD2    H2 5351   3.294   3.134   0.568  1.4536 -0.6371 -0.4869
  357MPD2    H3 5352   3.172   3.302   0.703 -0.6572 -0.3929  0.7982
  357MPD2     N 5353   3.394   3.211   1.081  0.1373  0.0766  0.0650
  357MPD2    H5 5354   3.321   3.266   1.123  0.6000  1.1327 -0.5102
  357MPD2    N1 5355   3.517   3.040   0.617  0.1097  0.1592 -0.3159
  357MPD2    H7 5356   3.484   3.040   0.521 -1.0123  1.0880  0.0650
  358TMC3    C1 5357   3.700   2.939   0.509  0.1219  0.4244  0.4662
  358TMC3    C2 5358   3.670   3.009   0.397 -0.2782 -0.0970 -0.0855
  358TMC3    C3 5359   3.700   2.957   0.273 -0.2417  0.3611 -0.1479
  358TMC3    C4 5360   3.767   2.822   0.497  0.5262 -0.1504 -0.4237
  358TMC3    C5 5361   3.779   2.769   0.371 -0.4115 -0.6120  0.2315
  358TMC3    C6 5362   3.759   2.837   0.254 -0.3801 -0.1971  0.8317
  358TMC3     C 5363   3.632   2.976   0.639  0.2292  0.0867 -0.1533
  358TMC3     O 5364   3.670   2.934   0.748  0.6249 -0.9348 -0.1853
  358TMC3     H 5365   3.628   3.108   0.403  1.1554  0.4769  0.5562
  358TMC3    H1 5366   3.799   2.770   0.587  1.8605 -1.9285 -1.9160
  358TMC3    H2 5367   3.798   2.791   0.164 -1.4830  1.3592 -0.4435
  358TMC3    C7 5368   3.836   2.635   0.361  1.1019 -0.3976  0.1257
  358TMC3    C8 5369   3.651   3.025   0.153  0.1889  0.6600  0.3934
  358TMC3    O1 5370   3.899   2.601   0.259 -0.2003 -0.3331  0.6235
  358TMC3    O2 5371   3.541   3.075   0.158 -0.7422 -0.3352 -0.3172
  359MPD2     C 5372   4.204   2.176  12.239  0.1809  0.2438  0.4132
  359MPD2    C1 5373   4.094   2.260  12.204  0.6209 -0.1230 -0.1076
  359MPD2    C2 5374   3.966   2.218  12.233 -0.2119  0.1137 -0.0969
  359MPD2    C3 5375   3.945   2.085  12.280  0.2594  0.2260 -1.0354
  359MPD2    C4 5376   4.052   2.001  12.296 -0.2018 -0.9106  0.0535
  359MPD2    C5 5377   4.178   2.049  12.279  0.2945 -0.3065 -0.4350
  359MPD2     H 5378   3.881   2.284  12.222  0.1037  0.8222  1.7812
  359MPD2    H1 5379   4.047   1.899  12.332  1.4249 -0.4400  1.6272
  359MPD2    H2 5380   4.309   2.199  12.230  0.9054 -3.0969  0.5772
  359MPD2    H3 5381   4.256   1.980  12.308 -0.9280 -1.6010 -0.2565
  359MPD2     N 5382   3.819   2.030  12.317 -0.3409 -0.0462 -0.5527
  359MPD2    H5 5383   3.818   1.932  12.342  1.1366 -0.2081 -1.1381
  359MPD2    N1 5384   4.107   2.389  12.144 -0.1232 -0.2211 -0.5035
  359MPD2    H7 5385   4.025   2.449  12.138 -0.9497 -1.2722  0.3267
  360TMC3    C1 5386   4.201   2.566  12.020 -0.6962  0.0364  0.5476
  360TMC3    C2 5387   4.271   2.684  12.046 -0.2839 -0.3143 -0.0616
  360TMC3    C3 5388   4.220   2.794  11.988 -0.2794  0.2079  0.3414
  360TMC3    C4 5389   4.099   2.556  11.924 -0.2011 -0.1195  0.1139
  360TMC3    C5 5390   4.056   2.675  11.866  0.4081  0.2395 -0.9836
  360TMC3    C6 5391   4.115   2.797  11.897  0.5055  1.3689 -0.2991
  360TMC3     C 5392   4.227   2.448  12.094  0.2687 -0.1088 -0.2261
  360TMC3     O 5393   4.344   2.424  12.115  0.0004 -0.3152 -0.2504
  360TMC3     H 5394   4.344   2.694  12.125  0.4953  0.3817 -0.8680
  360TMC3    H1 5395   4.064   2.460  11.888  4.0807 -1.2928 -0.8494
  360TMC3    H2 5396   4.088   2.884  11.838 -1.7617  0.8559 -0.0149
  360TMC3    C7 5397   4.021   2.667  11.735  0.8702  0.0471  0.1021
  360TMC3    C8 5398   4.298   2.913  11.981  0.5397 -0.3921  0.0607
  360TMC3    O1 5399   4.075   2.750  11.669 -0.2080  0.5361 -0.3341
  360TMC3    O2 5400   4.248   3.019  11.938 -0.2985  0.1582  0.3361
  361MPD2     C 5401   0.999   1.078  16.524  0.1012  0.2586 -0.2715
  361MPD2    C1 5402   1.037   1.119  16.648  0.1904  0.3593  0.1421
  361MPD2    C2 5403   1.137   1.057  16.718  0.1779  0.9596  0.5052
  361MPD2    C3 5404   1.209   0.953  16.661 -0.6864  0.3464  0.2098
  361MPD2    C4 5405   1.174   0.916  16.531 -0.3368  0.0099 -0.2628
  361MPD2    C5 5406   1.066   0.969  16.464 -0.0068 -0.2341 -1.1866
  361MPD2     H 5407   1.159   1.098  16.816 -0.5327  3.1945 -0.2857
  361MPD2    H1 5408   1.231   0.839  16.481 -0.5561 -0.2065 -0.1805
  361MPD2    H2 5409   0.916   1.124  16.473  0.6650  1.3407 -0.2155
  361MPD2    H3 5410   1.050   0.946  16.360 -1.4399 -0.6778 -0.8734
  361MPD2     N 5411   1.316   0.882  16.717 -0.0746 -0.0507 -0.6289
  361MPD2    H5 5412   1.360   0.808  16.662  0.1461 -0.3877 -0.0034
  361MPD2    N1 5413   0.963   1.223  16.714  0.2413 -0.7421 -0.3308
  361MPD2    H7 5414   0.993   1.240  16.810 -0.9904  1.0545 -0.2575
  362TMC3    C1 5415   0.823   1.425  16.729  0.5662  0.7142  0.1034
  362TMC3    C2 5416   0.889   1.459  16.845 -0.2908 -0.2380 -0.2788
  362TMC3    C3 5417   0.838   1.565  16.911 -0.0085 -0.8657 -0.6357
  362TMC3    C4 5418   0.729   1.508  16.672 -0.8785  0.0775 -0.0615
  362TMC3    C5 5419   0.702   1.627  16.737  0.3532 -0.2744 -0.1162
  362TMC3    C6 5420   0.753   1.657  16.860 -0.4512  0.1341 -0.5121
  362TMC3     C 5421   0.878   1.317  16.649 -0.3747 -0.3276  0.1225
  362TMC3     O 5422   0.860   1.322  16.527 -0.0511  0.2435 -0.2641
  362TMC3     H 5423   0.973   1.406  16.888  0.9812  1.9125 -0.0924
  362TMC3    H1 5424   0.685   1.478  16.578 -0.0400  0.6665 -0.6490
  362TMC3    H2 5425   0.729   1.751  16.907 -0.7097  0.6703 -1.7155
  362TMC3    C7 5426   0.621   1.723  16.666 -0.3569 -0.4727  0.3020
  362TMC3    C8 5427   0.875   1.583  17.048  0.3468  0.7909 -0.2685
  362TMC3    O1 5428   0.608   1.836  16.711 -0.1151 -0.6050  0.0891
  362TMC3    O2 5429   0.986   1.534  17.079 -0.2820 -0.1242 -0.6231
  363TMC3    C1 5430   4.098   3.747   9.371 -0.4874 -0.3660  0.2868
  363TMC3    C2 5431   4.173   3.782   9.478 -0.0302  0.0462  0.3282
  363TMC3    C3 5432   4.275   3.697   9.509  0.1070  0.2708  0.5671
  363TMC3    C4 5433   4.107   3.628   9.312  0.0657  0.2953 -0.9449
  363TMC3    C5 5434   4.215   3.549   9.343  0.6170  0.4444  0.0979
  363TMC3    C6 5435   4.293   3.575   9.451 -0.8809  0.9122 -0.3506
  363TMC3     C 5436   3.991   3.841   9.337 -0.2053 -0.4835 -1.1983
  363TMC3     O 5437   4.022   3.961   9.329 -0.2151 -0.1929 -0.1452
  363TMC3     H 5438   4.164   3.873   9.536  1.0666  1.0739 -1.0943
  363TMC3    H1 5439   4.045   3.605   9.226 -0.9422  0.0318 -0.1457
  363TMC3    H2 5440   4.371   3.506   9.481 -1.3950 -0.3129 -1.8372
  363TMC3    C7 5441   4.216   3.403   9.307 -0.0518 -0.2251 -0.7451
  363TMC3    C8 5442   4.335   3.731   9.640 -0.0613  0.5431  0.9442
  363TMC3    O1 5443   4.322   3.350   9.325 -0.5568  0.5385 -0.9578
  363TMC3    O2 5444   4.286   3.808   9.717 -0.2824  0.1606  0.6841
  364MPD2     C 5445   2.868   3.888  11.086  0.3351 -0.0808  0.4881
  364MPD2    C1 5446   2.907   3.848  10.961 -0.0044  0.1140  0.2300
  364MPD2    C2 5447   2.947   3.718  10.950 -0.1285  0.0680 -0.2099
  364MPD2    C3 5448   2.953   3.630  11.067  0.3855 -0.2170  0.1503
  364MPD2    C4 5449   2.917   3.679  11.189 -0.4924  0.4726 -0.0815
  364MPD2    C5 5450   2.867   3.811  11.201  0.0366  0.1611  0.4821
  364MPD2     H 5451   2.961   3.674  10.852 -0.7599  0.7521 -0.6143
  364MPD2    H1 5452   2.919   3.612  11.275 -1.3549  1.7925  0.9641
  364MPD2    H2 5453   2.835   3.991  11.087 -0.4242 -0.3379  2.2507
  364MPD2    H3 5454   2.839   3.855  11.295  0.2478  1.6261 -0.1334
  364MPD2     N 5455   3.004   3.497  11.052  0.2909 -0.1409 -0.3560
  364MPD2    H5 5456   3.004   3.436  11.133 -1.7124  0.2179 -0.1030
  364MPD2    N1 5457   2.912   3.946  10.857  0.2083 -0.4344 -0.2343
  364MPD2    H7 5458   2.908   4.043  10.884 -0.8573 -0.6046  0.2468
  365TMC3    C1 5459   2.966   4.039  10.655  0.5970  0.3829  0.0658
  365TMC3    C2 5460   3.082   4.049  10.579  0.2152 -0.1602 -0.3073
  365TMC3    C3 5461   3.118   4.179  10.552  0.5393 -0.2212  0.6556
  365TMC3    C4 5462   2.886   4.147  10.680 -0.0719 -0.5690  0.2250
  365TMC3    C5 5463   2.926   4.269  10.645 -0.7761  0.1441  0.1305
  365TMC3    C6 5464   3.047   4.286  10.582  0.4408  0.5024 -0.9753
  365TMC3     C 5465   2.947   3.916  10.730 -0.0659 -0.2270  0.0988
  365TMC3     O 5466   2.975   3.808  10.680 -0.1358  0.0696  0.3173
  365TMC3     H 5467   3.155   3.969  10.579 -0.1010 -0.4514  0.2347
  365TMC3    H1 5468   2.788   4.134  10.726 -0.2136  0.5375  0.2345
  365TMC3    H2 5469   3.075   4.385  10.549  1.3276  0.4787 -0.2879
  365TMC3    C7 5470   2.826   4.369  10.630  0.1490  0.8103 -1.0040
  365TMC3    C8 5471   3.240   4.206  10.482  0.5441 -0.0583  0.1866
  365TMC3    O1 5472   2.845   4.428  10.520  0.3977  0.2692  0.2963
  365TMC3    O2 5473   3.303   4.308  10.509  0.6231 -0.0729  0.1142
  366MPD2     C 5474   1.342   4.125  15.603 -0.0079 -0.1954  0.2582
  366MPD2    C1 5475   1.398   4.194  15.498 -0.2990  0.2323 -1.0876
  366MPD2    C2 5476   1.497   4.134  15.423 -0.4453 -0.5949 -0.1560
  366MPD2    C3 5477   1.541   4.006  15.447  0.2034  0.0304 -0.0403
  366MPD2    C4 5478   1.486   3.934  15.547  1.1052  1.0001 -0.0617
  366MPD2    C5 5479   1.382   3.996  15.621 -0.4242 -0.8156 -0.4670
  366MPD2     H 5480   1.542   4.186  15.340 -2.4716 -0.8815 -1.4322
  366MPD2    H1 5481   1.519   3.832  15.564 -3.1541 -0.1742  0.9675
  366MPD2    H2 5482   1.266   4.163  15.670  1.7130  0.7543  1.6686
  366MPD2    H3 5483   1.325   3.934  15.689  0.3289  1.0216  1.8421
  366MPD2     N 5484   1.655   3.972  15.370  0.1855  0.1487 -0.3241
  366MPD2    H5 5485   1.693   4.036  15.301 -0.2880  0.0123 -0.7118
  366MPD2    N1 5486   1.375   4.331  15.470 -0.2604  0.2231 -0.0348
  366MPD2    H7 5487   1.434   4.367  15.396 -0.9543 -0.7795 -1.0796
  367TMC3    C1 5488   1.316   4.553  15.507 -1.3532 -0.8122 -0.0180
  367TMC3    C2 5489   1.424   4.608  15.570 -0.2549 -0.4714 -0.0312
  367TMC3    C3 5490   1.494   4.705  15.500  0.4231 -0.7461 -0.1216
  367TMC3    C4 5491   1.284   4.590  15.381  0.0636 -0.8854  0.3251
  367TMC3    C5 5492   1.353   4.698  15.326  0.4022  0.5188  0.3577
  367TMC3    C6 5493   1.462   0.026  15.379  0.2854  0.1841  0.0386
  367TMC3     C 5494   1.300   4.416  15.549 -0.4530 -0.0796 -0.5406
  367TMC3     O 5495   1.233   4.388  15.648  0.0051 -0.1582  0.2018
  367TMC3     H 5496   1.462   4.571  15.664 -0.4224 -1.7304 -0.4625
  367TMC3    H1 5497   1.208   4.539  15.322  0.4694  0.1420 -1.0683
  367TMC3    H2 5498   1.521   0.099  15.325 -0.6035  0.0877 -1.0609
  367TMC3    C7 5499   1.287   0.058  15.228  0.3119 -0.7040  0.0971
  367TMC3    C8 5500   1.621   0.012  15.554 -0.0285 -0.2338  1.0177
  367TMC3    O1 5501   1.321   0.175  15.219  0.3066 -0.0123  0.5428
  367TMC3    O2 5502   1.651   4.678  15.654  0.6612  0.0574 -0.3097
  368MPD2     C 5503   3.276   1.554  13.462 -0.0238  0.2890 -0.0692
  368MPD2    C1 5504   3.259   1.671  13.545 -0.3015 -0.0914  0.2026
  368MPD2    C2 5505   3.372   1.750  13.568 -0.5014  0.0821 -0.3974
  368MPD2    C3 5506   3.495   1.720  13.507 -1.1670 -0.1696  0.6028
  368MPD2    C4 5507   3.506   1.607  13.426 -0.3070  0.7571 -0.4546
  368MPD2    C5 5508   3.397   1.523  13.409  0.4190  0.1247 -0.5760
  368MPD2     H 5509   3.373   1.846  13.618  0.7268 -0.5136  0.7242
  368MPD2    H1 5510   3.600   1.583  13.377  0.4007  2.2055  0.1960
  368MPD2    H2 5511   3.187   1.496  13.441  1.3578 -2.0621  0.6043
  368MPD2    H3 5512   3.412   1.438  13.344  0.9336 -0.7940  0.7454
  368MPD2     N 5513   3.611   1.794  13.508 -0.3462  0.3916 -0.0999
  368MPD2    H5 5514   3.683   1.758  13.446 -0.4560 -2.4319  1.3949
  368MPD2    N1 5515   3.137   1.705  13.595 -0.2433  0.1145  0.4647
  368MPD2    H7 5516   3.061   1.652  13.554 -0.0439 -1.0567  1.6099
  369TMC3    C1 5517   2.972   1.850  13.644  0.6050  0.3374  0.0867
  369TMC3    C2 5518   2.975   1.907  13.516  0.1764 -0.2608  0.3677
  369TMC3    C3 5519   2.857   1.938  13.458  0.4716  0.3882  0.1023
  369TMC3    C4 5520   2.859   1.799  13.703 -0.6212 -0.0281 -0.1973
  369TMC3    C5 5521   2.748   1.831  13.637  0.0528 -0.2408  0.7403
  369TMC3    C6 5522   2.739   1.900  13.519  0.2709 -0.2230  0.7046
  369TMC3     C 5523   3.103   1.801  13.681  0.2284  0.1400  0.1221
  369TMC3     O 5524   3.169   1.864  13.763  0.4989  0.0772  0.4876
  369TMC3     H 5525   3.071   1.936  13.476  0.1245 -1.6576 -0.7704
  369TMC3    H1 5526   2.867   1.736  13.791  2.2427  0.9545  0.2405
  369TMC3    H2 5527   2.646   1.937  13.479  0.4300 -1.9362 -1.2345
  369TMC3    C7 5528   2.619   1.775  13.678  0.2818  0.0563  0.6214
  369TMC3    C8 5529   2.857   1.995  13.328  0.0252 -0.5540 -0.6904
  369TMC3    O1 5530   2.593   1.760  13.798  0.4728 -0.3000 -0.1146
  369TMC3    O2 5531   2.753   2.051  13.299 -0.1564  0.3492  0.7346
  370TMC3    C1 5532   2.180   1.975  16.141 -0.2616 -0.5598 -0.0577
  370TMC3    C2 5533   2.133   1.896  16.248  0.0110 -0.1510 -0.4069
  370TMC3    C3 5534   2.093   1.768  16.214  0.0363  0.0550 -0.5333
  370TMC3    C4 5535   2.207   1.924  16.015  0.6601  0.0358 -0.1443
  370TMC3    C5 5536   2.191   1.792  15.996  0.5068  0.2577 -0.1822
  370TMC3    C6 5537   2.130   1.710  16.092 -0.3110 -0.1125 -0.0798
  370TMC3     C 5538   2.285   2.073  16.189  0.0629 -1.0800 -0.0455
  370TMC3     O 5539   2.329   2.057  16.300 -0.7698 -0.7460 -0.6434
  370TMC3     H 5540   2.128   1.947  16.344  2.3856 -2.6603  1.0546
  370TMC3    H1 5541   2.252   1.983  15.936 -0.4462  3.0572  1.4736
  370TMC3    H2 5542   2.123   1.603  16.074  0.5109  0.1861 -2.0747
  370TMC3    C7 5543   2.227   1.741  15.871 -1.3887 -0.6274  0.4194
  370TMC3    C8 5544   2.051   1.674  16.318  0.3345 -0.5878 -0.3442
  370TMC3    O1 5545   2.200   1.815  15.772 -0.1033 -0.0949 -0.0417
  370TMC3    O2 5546   2.032   1.556  16.284  0.6267  0.1707  0.3342
  371TMC3    C1 5547   3.648   0.086  15.490  0.8108 -0.8089  0.2167
  371TMC3    C2 5548   3.507   0.083  15.459  0.2395  0.1766  0.3340
  371TMC3    C3 5549   3.456   0.200  15.412 -0.5580 -0.5512 -0.1893
  371TMC3    C4 5550   3.725   0.200  15.465  0.1688  0.9215 -0.7468
  371TMC3    C5 5551   3.666   0.313  15.428 -0.5836 -0.0856 -0.0017
  371TMC3    C6 5552   3.535   0.314  15.395  0.2015  0.0487  0.1217
  371TMC3     C 5553   3.728   4.690  15.485  0.2612 -0.0407  0.4263
  371TMC3     O 5554   3.846   4.687  15.450  0.4731  0.2263 -0.1337
  371TMC3     H 5555   3.445   4.719  15.471 -2.2441  1.4968 -2.8552
  371TMC3    H1 5556   3.831   0.199  15.487 -0.6325  0.0671  3.0621
  371TMC3    H2 5557   3.488   0.399  15.348 -1.1324  1.0546  3.3049
  371TMC3    C7 5558   3.731   0.437  15.416  0.2623 -0.0180  0.3822
  371TMC3    C8 5559   3.315   0.209  15.414 -0.8214  0.1131  0.2835
  371TMC3    O1 5560   3.659   0.539  15.415  0.1180  0.3705 -0.1947
  371TMC3    O2 5561   3.251   0.109  15.383 -0.0991  0.4496  0.3261
  372MPD2     C 5562   4.071   1.815  13.751  0.2549 -0.4338 -0.2822
  372MPD2    C1 5563   4.053   1.678  13.743  0.7082 -0.5736  0.7447
  372MPD2    C2 5564   3.927   1.627  13.765 -0.8544 -0.1164 -0.0245
  372MPD2    C3 5565   3.826   1.717  13.799 -0.0676 -0.2438 -0.1491
  372MPD2    C4 5566   3.854   1.853  13.811 -0.3981  0.2493 -0.2706
  372MPD2    C5 5567   3.980   1.902  13.790 -0.2642 -0.4666 -0.6665
  372MPD2     H 5568   3.912   1.520  13.752  0.4630 -0.3385  0.3545
  372MPD2    H1 5569   3.785   1.935  13.820 -1.6588 -0.6980 -1.2265
  372MPD2    H2 5570   4.170   1.858  13.740  0.2030 -0.1197  0.4763
  372MPD2    H3 5571   4.003   2.008  13.802  2.8821 -1.0970 -0.9357
  372MPD2     N 5572   3.698   1.664  13.810  0.2442  0.2171  0.1791
  372MPD2    H5 5573   3.686   1.570  13.773 -0.1961  0.1264  0.5538
  372MPD2    N1 5574   4.150   1.586  13.704  0.4989 -0.2539  0.2152
  372MPD2    H7 5575   4.129   1.487  13.702  1.3619 -0.4287 -0.1203
  373TMC3    C1 5576   3.470   1.649  13.860  0.3602 -0.5744  0.1073
  373TMC3    C2 5577   3.379   1.659  13.956  0.4246 -0.0054 -0.2142
  373TMC3    C3 5578   3.281   1.568  13.971  0.0006  0.2940 -0.1765
  373TMC3    C4 5579   3.464   1.541  13.782  0.1637 -0.2255  0.1700
  373TMC3    C5 5580   3.366   1.444  13.795 -0.2228 -0.2139 -0.3322
  373TMC3    C6 5581   3.263   1.463  13.887 -0.1250 -0.0095 -0.2927
  373TMC3     C 5582   3.594   1.722  13.875 -0.9308 -0.3933  0.2696
  373TMC3     O 5583   3.587   1.820  13.952  0.1843 -0.1849 -0.1532
  373TMC3     H 5584   3.389   1.739  14.028 -0.6615  0.8347 -1.0040
  373TMC3    H1 5585   3.534   1.532  13.700 -0.2184 -0.8128 -0.0945
  373TMC3    H2 5586   3.172   1.405  13.898 -0.0573 -0.1235 -0.3458
  373TMC3    C7 5587   3.380   1.319  13.726  0.3825  1.1306  0.5263
  373TMC3    C8 5588   3.260   1.527  14.105 -0.0435  0.4395  0.0067
  373TMC3    O1 5589   3.451   1.315  13.624  0.3482 -0.1102  0.0265
  373TMC3    O2 5590   3.154   1.474  14.140 -0.2965  0.1352 -0.4521
  374TMC3    C1 5591   4.701   1.482   9.744 -0.1323 -0.6443 -0.2583
  374TMC3    C2 5592   4.574   1.541   9.761 -0.2387  0.1619 -0.3733
  374TMC3    C3 5593   4.557   1.611   9.877 -0.9681  0.3492  0.2549
  374TMC3    C4 5594   0.059   1.471   9.854 -0.1096 -0.2298 -1.0230
  374TMC3    C5 5595   0.016   1.513   9.976  0.3956  1.2134  0.0810
  374TMC3    C6 5596   4.634   1.596   9.989 -0.7558  0.0113 -0.1491
  374TMC3     C 5597   0.013   1.419   9.619  0.1889 -0.0100  0.3102
  374TMC3     O 5598   0.132   1.397   9.606 -0.1189  0.3987  0.4731
  374TMC3     H 5599   4.516   1.563   9.672  0.3432 -1.9406 -1.2595
  374TMC3    H1 5600   0.149   1.411   9.838 -0.2154 -0.9700  1.0697
  374TMC3    H2 5601   4.598   1.636  10.083 -1.9252  0.6088 -0.8500
  374TMC3    C7 5602   0.086   1.458  10.087 -0.3694  0.9007 -0.0447
  374TMC3    C8 5603   4.425   1.682   9.884 -0.4047 -0.1836 -0.6745
  374TMC3    O1 5604   0.167   1.369  10.065 -0.1257 -0.4809  0.1109
  374TMC3    O2 5605   4.326   1.643   9.823 -0.1641 -0.2638 -0.2784
  375MPD2     C 5606   3.664   1.881  17.129 -0.5483  1.2612 -0.0090
  375MPD2    C1 5607   3.600   1.931  17.018 -0.6096 -0.4605 -0.6072
  375MPD2    C2 5608   3.661   1.912  16.897 -0.4369 -0.0478  0.0594
  375MPD2    C3 5609   3.779   1.844  16.890 -0.3504 -0.2641 -0.1736
  375MPD2    C4 5610   3.843   1.794  17.004  0.2472 -0.0297 -0.1965
  375MPD2    C5 5611   3.779   1.810  17.127  0.4357  0.0487 -0.2360
  375MPD2     H 5612   3.618   1.950  16.805  2.5558  0.9461 -0.9139
  375MPD2    H1 5613   3.940   1.747  17.014  0.1884 -0.4902 -1.8147
  375MPD2    H2 5614   3.628   1.900  17.229 -1.4165  0.6229 -0.2008
  375MPD2    H3 5615   3.831   1.772  17.214  0.0373  2.0669  0.9092
  375MPD2     N 5616   3.855   1.842  16.767  0.1994 -0.0284  0.5269
  375MPD2    H5 5617   3.941   1.788  16.775 -0.1608 -0.5065  1.2143
  375MPD2    N1 5618   3.471   1.995  17.021 -0.0793  0.3360 -0.5747
  375MPD2    H7 5619   3.425   2.032  16.938  2.2065  0.5026 -1.7674
  376TMC3    C1 5620   3.916   1.863  16.547 -0.0940 -0.6439  0.3583
  376TMC3    C2 5621   4.048   1.888  16.582  0.0461  0.5564  0.2184
  376TMC3    C3 5622   4.141   1.901  16.489 -0.0079 -0.8021  0.0979
  376TMC3    C4 5623   3.881   1.864  16.415 -0.0291 -0.2942  0.4967
  376TMC3    C5 5624   3.980   1.877  16.326  0.5657 -0.6021 -0.2441
  376TMC3    C6 5625   4.106   1.902  16.358  0.1053 -0.1935 -0.7586
  376TMC3     C 5626   3.812   1.886  16.649 -0.0839 -0.2360  0.1629
  376TMC3     O 5627   3.699   1.915  16.600  0.1036 -0.2915 -0.7475
  376TMC3     H 5628   4.072   1.919  16.684  0.7916  2.7322 -0.6087
  376TMC3    H1 5629   3.776   1.855  16.390  0.6273 -0.0152 -2.3161
  376TMC3    H2 5630   4.175   1.928  16.279  2.1031  1.0648  1.4187
  376TMC3    C7 5631   3.948   1.910  16.186 -0.5247  0.0998  0.1324
  376TMC3    C8 5632   4.248   1.987  16.525  0.2394  0.4289  0.2089
  376TMC3    O1 5633   3.985   2.019  16.152 -0.2219 -0.2531  0.2389
  376TMC3    O2 5634   4.239   2.100  16.474  0.7430  0.3441  0.3277
  377MPD2     C 5635   2.192   1.922  13.431  0.0095  0.1385  0.0186
  377MPD2    C1 5636   2.175   1.903  13.296  0.4301  0.7349  0.2218
  377MPD2    C2 5637   2.058   1.851  13.244 -0.6304 -0.9030  0.6057
  377MPD2    C3 5638   1.953   1.828  13.328  0.1206  0.4637  0.0091
  377MPD2    C4 5639   1.964   1.851  13.461 -0.3099  0.8747 -0.2467
  377MPD2    C5 5640   2.085   1.898  13.511 -0.1012  0.4770  0.2056
  377MPD2     H 5641   2.054   1.838  13.136 -2.9330  0.1663  0.5467
  377MPD2    H1 5642   1.883   1.835  13.531  0.6102  2.8052  1.2721
  377MPD2    H2 5643   2.289   1.955  13.465  0.2181 -0.2406 -0.2099
  377MPD2    H3 5644   2.096   1.921  13.616 -0.3883  1.8803 -0.0772
  377MPD2     N 5645   1.823   1.773  13.291 -0.1671  0.1023  0.0220
  377MPD2    H5 5646   1.757   1.762  13.368 -0.8805  1.2905 -0.4172
  377MPD2    N1 5647   2.290   1.935  13.223  0.3509 -0.2805  0.2222
  377MPD2    H7 5648   2.372   1.967  13.273  2.7261 -0.7701 -3.2885
  378TMC3    C1 5649   2.490   2.076  12.835  0.2192  0.2346 -0.2056
  378TMC3    C2 5650   2.405   2.082  12.944  1.1162 -0.4909  0.2033
  378TMC3    C3 5651   2.429   1.992  13.049  0.1316 -0.0499  0.4869
  378TMC3    C4 5652   2.602   1.999  12.831 -0.1598 -0.4850  0.1324
  378TMC3    C5 5653   2.620   1.909  12.932  0.4501  0.8798  1.1838
  378TMC3    C6 5654   2.535   1.906  13.034 -0.1678 -0.4956  0.7466
  378TMC3     C 5655   2.413   2.068  12.709  0.1348  0.5170 -0.1293
  378TMC3     O 5656   2.476   2.117  12.613 -0.5764  0.0472 -0.1766
  378TMC3     H 5657   2.315   2.142  12.945  2.4298  1.4458  1.4648
  378TMC3    H1 5658   2.668   1.999  12.745  0.3963  0.5174  0.5597
  378TMC3    H2 5659   2.544   1.834  13.114  0.0264 -1.1472  0.1441
  378TMC3    C7 5660   2.724   1.806  12.927  0.7402 -0.1471 -0.3388
  378TMC3    C8 5661   2.299   1.934  13.085  0.0955 -0.5727  0.4470
  378TMC3    O1 5662   2.747   1.736  13.028  0.2721  0.3200  0.0457
  378TMC3    O2 5663   2.210   1.929  13.002  0.9088 -0.2535  0.2717
  379MPD2     C 5664   2.944   4.415  15.959  0.5520  0.5087 -0.9223
  379MPD2    C1 5665   2.828   4.457  16.010  0.7456  0.1515 -0.5625
  379MPD2    C2 5666   2.811   4.445  16.143  0.8256  0.2509  0.3924
  379MPD2    C3 5667   2.910   4.384  16.219  0.7612 -0.2008 -0.3447
  379MPD2    C4 5668   3.026   4.345  16.163  0.5473  0.2668 -0.4167
  379MPD2    C5 5669   3.045   4.358  16.029 -0.0642  0.2928 -0.2426
  379MPD2     H 5670   2.717   4.466  16.194  0.4078  0.2468 -0.3775
  379MPD2    H1 5671   3.097   4.287  16.220  1.1872  0.1201 -1.3642
  379MPD2    H2 5672   2.969   4.415  15.853 -4.0312  0.4233 -2.0029
  379MPD2    H3 5673   3.130   4.315  15.979  0.2943 -1.0420  1.4967
  379MPD2     N 5674   2.894   4.354  16.358 -0.3427 -0.0702 -0.2230
  379MPD2    H5 5675   2.979   4.328  16.408 -1.6048 -1.8186  1.0192
  379MPD2    N1 5676   2.730   4.494  15.914  0.4611  0.2187  0.2092
  379MPD2    H7 5677   2.772   4.518  15.826 -0.2622  1.3368  0.1755
  380TMC3    C1 5678   2.541   4.585  15.809 -0.5094 -0.6851  0.3575
  380TMC3    C2 5679   2.570   4.530  15.687  0.4703 -0.4446  0.0994
  380TMC3    C3 5680   2.484   4.538  15.590  0.0584  0.3434 -0.6425
  380TMC3    C4 5681   2.423   4.657  15.821  0.2024  0.0442 -0.3707
  380TMC3    C5 5682   2.338   4.665  15.719 -0.1934  0.2814 -0.4243
  380TMC3    C6 5683   2.366   4.609  15.595 -0.3563 -1.1052 -0.3121
  380TMC3     C 5684   2.606   4.535  15.930  0.0613 -0.9041 -0.6196
  380TMC3     O 5685   2.552   4.540  16.039 -0.8268 -0.3043 -0.6270
  380TMC3     H 5686   2.671   4.498  15.666  1.3124  1.4740  1.2111
  380TMC3    H1 5687   2.389   4.693  15.917  0.4233 -0.9812  0.0986
  380TMC3    H2 5688   2.294   4.630  15.517  1.3241 -1.1534 -1.8726
  380TMC3    C7 5689   2.238   0.049  15.725  0.3401  0.0584 -0.1880
  380TMC3    C8 5690   2.543   4.550  15.462 -0.2297  0.5118  0.4814
  380TMC3    O1 5691   2.267   0.153  15.780 -0.4555 -0.2143  0.2758
  380TMC3    O2 5692   2.666   4.566  15.450 -0.5607  0.1138  0.2230
  381TMC3    C1 5693   2.119   0.907  15.968  0.5727 -0.1923  0.2905
  381TMC3    C2 5694   2.188   1.029  15.953 -0.5822 -0.2253  0.4741
  381TMC3    C3 5695   2.199   1.108  16.064 -0.1196 -0.2338 -0.5959
  381TMC3    C4 5696   2.070   0.866  16.089 -0.7379  0.0023 -0.2102
  381TMC3    C5 5697   2.080   0.953  16.196  0.5246  0.1240 -0.2269
  381TMC3    C6 5698   2.144   1.071  16.182  0.6343  0.0410  0.0348
  381TMC3     C 5699   2.048   0.869  15.845  0.2760  0.2066 -0.5088
  381TMC3     O 5700   2.084   0.938  15.750 -0.0961  0.0511 -0.1612
  381TMC3     H 5701   2.234   1.073  15.865 -2.0707  0.6056  0.1238
  381TMC3    H1 5702   2.024   0.770  16.107  0.6724 -0.8364 -1.1291
  381TMC3    H2 5703   2.156   1.139  16.266 -3.0203 -1.0866  1.4734
  381TMC3    C7 5704   2.041   0.902  16.327 -0.1573 -0.1817 -0.9614
  381TMC3    C8 5705   2.294   1.220  16.062 -0.4333 -0.1891  0.5473
  381TMC3    O1 5706   2.069   0.785  16.344  0.4175 -0.0852 -0.2917
  381TMC3    O2 5707   2.379   1.214  15.974 -0.3928  0.4579  0.0476
  382MPD2     C 5708   1.610   3.608  17.230  0.8056  0.7633  0.1801
  382MPD2    C1 5709   1.531   3.676  17.318 -0.2160  0.4024  0.2269
  382MPD2    C2 5710   1.403   3.640  17.335  0.6103  0.1172 -0.1564
  382MPD2    C3 5711   1.339   3.537  17.263 -0.2959  0.1838  0.9139
  382MPD2    C4 5712   1.425   3.461  17.183 -0.5467  0.1267 -0.4845
  382MPD2    C5 5713   1.553   3.502  17.167  0.2682  0.1469 -0.4498
  382MPD2     H 5714   1.348   3.701  17.406 -0.1028  0.0443 -0.6379
  382MPD2    H1 5715   1.386   3.377  17.126  1.6319 -0.3688 -1.2555
  382MPD2    H2 5716   1.718   3.605  17.219  0.6062 -0.0504 -1.6344
  382MPD2    H3 5717   1.625   3.442  17.113  0.7680 -0.0397  0.4343
  382MPD2     N 5718   1.203   3.496  17.273  0.0214  0.2687  0.7265
  382MPD2    H5 5719   1.158   3.427  17.214 -0.9988  1.0292  0.6120
  382MPD2    N1 5720   1.572   3.786  17.392  0.1689  0.4488 -0.0687
  382MPD2    H7 5721   1.508   3.826  17.460 -0.1983 -0.1255 -0.0825
  383TMC3    C1 5722   0.975   3.523  17.336  0.0248 -0.3946  0.2335
  383TMC3    C2 5723   0.938   3.418  17.257  0.1930 -0.4275 -0.2224
  383TMC3    C3 5724   0.807   3.411  17.236 -0.3725  0.1417  0.2537
  383TMC3    C4 5725   0.891   3.609  17.399 -0.0089 -0.1662 -0.1957
  383TMC3    C5 5726   0.757   3.576  17.375  0.4142 -0.6663  0.1693
  383TMC3    C6 5727   0.709   3.484  17.290 -0.0261  0.2865  0.0577
  383TMC3     C 5728   1.117   3.559  17.350  0.5219 -0.1547  0.1722
  383TMC3     O 5729   1.138   3.654  17.424 -0.3936  0.0742 -0.0749
  383TMC3     H 5730   0.995   3.334  17.219 -1.4074 -1.6528  0.0988
  383TMC3    H1 5731   0.922   3.683  17.472 -1.5077  0.5240 -0.2446
  383TMC3    H2 5732   0.605   3.456  17.291 -1.0438  4.0590 -1.3412
  383TMC3    C7 5733   0.649   3.630  17.463 -0.0111  0.2939 -0.2494
  383TMC3    C8 5734   0.756   3.310  17.141 -0.1981  0.1824  0.6113
  383TMC3    O1 5735   0.531   3.593  17.445  0.1504  0.0860  0.1661
  383TMC3    O2 5736   0.657   3.338  17.083 -0.5577  0.3998 -0.1568
  384MPD2     C 5737   2.950   0.303  11.883  0.6711  0.5504 -0.1532
  384MPD2    C1 5738   2.965   0.310  12.020  0.7504 -0.1442  0.0176
  384MPD2    C2 5739   3.046   0.222  12.084  1.0154 -0.0737 -0.4402
  384MPD2    C3 5740   3.114   0.124  12.009 -0.4600 -1.3339  0.0116
  384MPD2    C4 5741   3.102   0.117  11.871 -0.1596  0.2844 -0.6600
  384MPD2    C5 5742   3.012   0.207  11.815 -0.5931 -0.4496  0.6317
  384MPD2     H 5743   3.067   0.238  12.189 -0.8074  2.4477 -0.4589
  384MPD2    H1 5744   3.131   0.033  11.809  0.0488  1.0594 -1.6216
  384MPD2    H2 5745   2.886   0.375  11.833 -1.4018  0.2566  2.0752
  384MPD2    H3 5746   2.987   0.201  11.709  0.3551 -2.4761  0.5327
  384MPD2     N 5747   3.200   0.032  12.065 -0.0385  0.0301 -0.2428
  384MPD2    H5 5748   3.225   4.684  11.999  0.5842 -1.2175  1.3523
  384MPD2    N1 5749   2.898   0.405  12.100 -0.5007 -0.4525 -0.2995
  384MPD2    H7 5750   2.925   0.415  12.197  1.2017  0.3097 -0.8508
  385TMC3    C1 5751   3.325   4.653  12.232  0.0817  0.5754  0.3824
  385TMC3    C2 5752   3.286   4.540  12.171 -0.3572  0.1582  0.4756
  385TMC3    C3 5753   3.298   4.424  12.249 -0.1938  0.1680 -0.1695
  385TMC3    C4 5754   3.373   4.664  12.356  0.4661  0.0575  0.0039
  385TMC3    C5 5755   3.355   4.556  12.438 -0.0057 -1.2917 -0.0824
  385TMC3    C6 5756   3.321   4.432  12.386 -0.7701 -0.5917 -0.2997
  385TMC3     C 5757   3.252   0.043  12.197 -0.1121  0.1506  0.5235
  385TMC3     O 5758   3.250   0.137  12.272 -0.1862  0.4852  0.6900
  385TMC3     H 5759   3.228   4.533  12.079  0.9167 -1.2116 -0.2139
  385TMC3    H1 5760   3.413   0.032  12.397 -1.7201  0.8634  0.3376
  385TMC3    H2 5761   3.323   4.341  12.445  0.0109 -0.7858 -0.6216
  385TMC3    C7 5762   3.277   4.597  12.553  0.1428  0.8242 -0.0155
  385TMC3    C8 5763   3.276   4.294  12.198  0.6792  0.4525 -0.6545
  385TMC3    O1 5764   3.241   4.507  12.627 -0.1312  0.3806  0.5481
  385TMC3    O2 5765   3.256   4.207  12.286 -0.2141  0.1305 -0.3222
  386TMC3    C1 5766   3.512   2.399  11.862 -0.2000  0.3780 -0.2934
  386TMC3    C2 5767   3.492   2.482  11.754 -0.2608 -0.3213  0.0237
  386TMC3    C3 5768   3.363   2.505  11.713  0.9695 -0.0199 -0.0665
  386TMC3    C4 5769   3.405   2.360  11.938  0.3080 -0.0367  0.6975
  386TMC3    C5 5770   3.278   2.398  11.901 -0.2175 -0.0598  0.3135
  386TMC3    C6 5771   3.253   2.464  11.786 -0.2825 -0.9121  0.1011
  386TMC3     C 5772   3.647   2.350  11.893 -0.4368 -0.7054 -0.4461
  386TMC3     O 5773   3.741   2.411  11.851  0.2127 -0.2894  0.1602
  386TMC3     H 5774   3.581   2.499  11.695  0.8840 -1.5971  1.4310
  386TMC3    H1 5775   3.417   2.314  12.036 -2.5529 -0.1166  1.0230
  386TMC3    H2 5776   3.154   2.492  11.750  0.7461 -0.5019 -2.4131
  386TMC3    C7 5777   3.168   2.357  11.991  1.1165 -0.0257 -0.3089
  386TMC3    C8 5778   3.330   2.555  11.569  0.0256  0.3227 -0.4690
  386TMC3    O1 5779   3.187   2.367  12.111 -0.4451  0.2761  0.0702
  386TMC3    O2 5780   3.224   2.513  11.524 -0.2005 -0.0673 -0.1020
  387MPD2     C 5781   1.350   2.631   9.807  0.0992  0.0246 -0.5864
  387MPD2    C1 5782   1.398   2.545   9.902 -0.0494  0.3398 -0.1062
  387MPD2    C2 5783   1.381   2.411   9.882  0.1549 -0.0335  0.2497
  387MPD2    C3 5784   1.321   2.357   9.775  0.3634 -0.1066  0.5060
  387MPD2    C4 5785   1.257   2.440   9.686 -0.0326  0.0187 -0.0748
  387MPD2    C5 5786   1.281   2.575   9.699  0.1158  0.9437 -0.0180
  387MPD2     H 5787   1.423   2.349   9.960 -0.6338 -0.4179  0.3708
  387MPD2    H1 5788   1.205   2.407   9.598 -0.1649  1.3911 -0.5219
  387MPD2    H2 5789   1.364   2.737   9.826 -0.9055  0.0335  0.0931
  387MPD2    H3 5790   1.240   2.651   9.633  0.0956  0.8516 -0.1110
  387MPD2     N 5791   1.342   2.218   9.766  0.2664 -0.0125  0.2189
  387MPD2    H5 5792   1.394   2.179   9.845  0.4993 -0.9129 -0.3793
  387MPD2    N1 5793   1.461   2.581  10.016 -0.3049 -0.2199 -0.4049
  387MPD2    H7 5794   1.490   2.506  10.079  0.9457  1.8087  1.4679
  388TMC3    C1 5795   1.535   2.692  10.202 -0.5493  0.2392 -0.7765
  388TMC3    C2 5796   1.478   2.766  10.308 -0.4781  0.0160  0.1414
  388TMC3    C3 5797   1.511   2.735  10.437  0.1704 -0.3836  0.2756
  388TMC3    C4 5798   1.615   2.584  10.233  0.3209  0.2565  0.0753
  388TMC3    C5 5799   1.655   2.567  10.361 -0.7307 -0.8323  0.0322
  388TMC3    C6 5800   1.602   2.638  10.462  0.5713 -0.3420  0.5756
  388TMC3     C 5801   1.487   2.705  10.066 -0.0255  0.0123  0.2804
  388TMC3     O 5802   1.454   2.813  10.023  0.1235 -0.9270 -0.3627
  388TMC3     H 5803   1.408   2.840  10.272 -2.6369 -0.7962  2.6568
  388TMC3    H1 5804   1.664   2.527  10.155 -1.4084 -1.4701  0.2404
  388TMC3    H2 5805   1.625   2.611  10.564  1.8589  0.1813  0.4229
  388TMC3    C7 5806   1.710   2.431  10.396 -0.4692 -0.8651 -0.2324
  388TMC3    C8 5807   1.427   2.778  10.550 -0.2297  0.6304 -0.2194
  388TMC3    O1 5808   1.823   2.431  10.435 -0.0186 -0.5071 -0.9204
  388TMC3    O2 5809   1.466   2.736  10.653 -0.0280  0.0877 -0.4494
  389MPD2     C 5810   0.683   0.722  10.926 -0.5005 -0.4716 -0.2494
  389MPD2    C1 5811   0.664   0.621  10.836 -0.0280 -0.8659 -0.2249
  389MPD2    C2 5812   0.589   0.515  10.869 -0.4578  1.1601 -0.1286
  389MPD2    C3 5813   0.554   0.481  10.994  0.2342  0.2317 -0.0439
  389MPD2    C4 5814   0.577   0.578  11.093 -0.4860 -0.8892 -0.2242
  389MPD2    C5 5815   0.632   0.694  11.054  0.0116 -0.1082 -1.0488
  389MPD2     H 5816   0.558   0.450  10.788  2.6089 -0.2767 -0.1326
  389MPD2    H1 5817   0.553   0.550  11.195  0.8846 -0.2311  0.2789
  389MPD2    H2 5818   0.728   0.817  10.901 -2.2008  0.3309 -0.2895
  389MPD2    H3 5819   0.655   0.770  11.128 -0.6571 -0.5255 -0.4175
  389MPD2     N 5820   0.500   0.358  11.028  0.1473  0.6420  0.3702
  389MPD2    H5 5821   0.506   0.330  11.126  0.5876  0.4843  0.2985
  389MPD2    N1 5822   0.721   0.635  10.705 -0.1760 -0.7210  0.3884
  389MPD2    H7 5823   0.760   0.725  10.677 -1.2434  0.0330  1.3222
  390TMC3    C1 5824   0.378   0.168  10.995 -0.8630  0.1403 -0.1577
  390TMC3    C2 5825   0.264   0.111  10.938  0.6410 -0.6954  0.3156
  390TMC3    C3 5826   0.204   0.006  10.999  0.0987  0.0415  0.2631
  390TMC3    C4 5827   0.449   0.107  11.096 -0.0546 -0.2926  0.5129
  390TMC3    C5 5828   0.387   0.004  11.152 -0.0004  0.5709  0.8111
  390TMC3    C6 5829   0.271   4.673  11.102  0.1852 -0.3817 -0.8735
  390TMC3     C 5830   0.435   0.283  10.939  0.1884  0.2305  0.3061
  390TMC3     O 5831   0.405   0.305  10.820  0.2834  0.7480 -0.4601
  390TMC3     H 5832   0.210   0.176  10.870  3.7389  2.6167  1.0327
  390TMC3    H1 5833   0.543   0.143  11.136 -0.6261 -0.0760  1.6687
  390TMC3    H2 5834   0.250   4.572  11.134  0.1284  0.1175  0.6626
  390TMC3    C7 5835   0.357   0.050  11.286  0.1421 -0.3440 -0.1342
  390TMC3    C8 5836   0.058   0.014  11.015 -0.2623 -0.7239  0.9989
  390TMC3    O1 5837   0.424   0.141  11.332 -0.1742 -0.1039 -0.1522
  390TMC3    O2 5838   4.719   4.635  11.029  0.1234  0.2078  0.6404
  391MPD2     C 5839   4.026   2.311  11.054  0.8650 -0.0725  0.3307
  391MPD2    C1 5840   4.146   2.366  11.089  1.4852  0.2809  0.8874
  391MPD2    C2 5841   4.226   2.406  10.987  0.2200  0.2891 -0.0943
  391MPD2    C3 5842   4.193   2.390  10.849 -0.0970 -0.2305  0.3122
  391MPD2    C4 5843   4.078   2.324  10.818  0.4914 -0.2447 -0.0110
  391MPD2    C5 5844   3.997   2.282  10.920  0.0953  0.5599  0.0828
  391MPD2     H 5845   4.325   2.446  11.004 -0.5700  1.8471  0.8076
  391MPD2    H1 5846   4.053   2.297  10.716 -0.9665  1.7823 -0.1938
  391MPD2    H2 5847   3.971   2.268  11.137 -0.4314  3.9102  1.5267
  391MPD2    H3 5848   3.901   2.239  10.893  1.0502 -0.8333 -1.0861
  391MPD2     N 5849   4.283   2.444  10.754 -0.2059  0.2062 -0.2796
  391MPD2    H5 5850   4.368   2.492  10.783 -0.6233 -0.1168  1.4967
  391MPD2    N1 5851   4.177   2.383  11.229 -0.6534 -0.5868  0.0805
  391MPD2    H7 5852   4.130   2.330  11.303 -2.0816 -0.7447 -0.9526
  392TMC3    C1 5853   4.372   2.441  10.534 -0.5855 -0.6969 -0.9796
  392TMC3    C2 5854   4.359   2.373  10.408 -0.2539  0.0351 -0.3511
  392TMC3    C3 5855   4.469   2.357  10.334 -0.1768 -0.8312  0.0081
  392TMC3    C4 5856   4.491   2.493  10.572 -0.4893 -0.3655  0.0094
  392TMC3    C5 5857   4.595   2.478  10.490 -0.0238 -0.5162 -0.1433
  392TMC3    C6 5858   4.592   2.401  10.380 -0.0336  0.3556  0.3915
  392TMC3     C 5859   4.269   2.401  10.620 -0.8363  0.4926 -1.0281
  392TMC3     O 5860   4.213   2.298  10.580  0.0413 -0.0008  0.0152
  392TMC3     H 5861   4.261   2.348  10.369 -0.1109  0.2556 -0.8585
  392TMC3    H1 5862   4.515   2.542  10.666 -1.4613 -0.5609  0.3644
  392TMC3    H2 5863   4.679   2.391  10.316  0.4658 -0.7447  1.2476
  392TMC3    C7 5864   4.722   2.543  10.537  0.1564  0.2571 -0.1735
  392TMC3    C8 5865   4.474   2.250  10.230  0.3565  0.6795 -0.6549
  392TMC3    O1 5866   4.705   2.650  10.595  0.0380 -0.1248  0.1409
  392TMC3    O2 5867   4.579   2.208  10.188  0.1540  0.1976  0.2258
  393TMC3    C1 5868   3.053   0.384  10.565 -0.1698  0.0344  0.6503
  393TMC3    C2 5869   2.960   0.325  10.642  0.6092  0.1596  0.3432
  393TMC3    C3 5870   2.979   0.323  10.777 -0.5076 -0.0310  0.3080
  393TMC3    C4 5871   3.157   0.448  10.619  0.4791  0.4054  0.1455
  393TMC3    C5 5872   3.179   0.439  10.757 -0.9941 -0.5222  0.6468
  393TMC3    C6 5873   3.086   0.382  10.838 -0.4536 -0.8949  0.4974
  393TMC3     C 5874   3.021   0.420  10.432 -0.3208 -0.0355 -0.3021
  393TMC3     O 5875   3.091   0.504  10.381 -0.3140  0.6253  0.3149
  393TMC3     H 5876   2.871   0.278  10.602 -0.2637  2.0553  0.0873
  393TMC3    H1 5877   3.226   0.491  10.547  0.8510  2.2706  1.6142
  393TMC3    H2 5878   3.116   0.377  10.942 -0.4242  0.0722  0.5351
  393TMC3    C7 5879   3.315   0.455  10.809 -0.3918  0.4649  0.1270
  393TMC3    C8 5880   2.863   0.286  10.855  0.0605 -0.4363 -0.5739
  393TMC3    O1 5881   3.337   0.470  10.928 -0.3442 -0.0222 -0.0180
  393TMC3    O2 5882   2.761   0.250  10.794 -0.5536 -0.2400  1.1178
  394TMC3    C1 5883   0.761   0.563  10.477 -0.0402  0.0341  0.1048
  394TMC3    C2 5884   0.709   0.481  10.384  0.0076 -0.1528 -0.3006
  394TMC3    C3 5885   0.719   0.520  10.259 -0.2220 -0.0610 -0.4777
  394TMC3    C4 5886   0.836   0.676  10.447 -0.7928  0.4862  0.1554
  394TMC3    C5 5887   0.853   0.707  10.317  0.5264 -0.1109  0.1398
  394TMC3    C6 5888   0.782   0.635  10.224  0.0195  0.2579 -0.4063
  394TMC3     C 5889   0.723   0.535  10.611 -0.2357  0.3795 -0.4569
  394TMC3     O 5890   0.694   0.416  10.632  0.0237 -0.2084 -0.6045
  394TMC3     H 5891   0.645   0.396  10.406  0.3659 -0.3156  0.1166
  394TMC3    H1 5892   0.871   0.746  10.521  1.2157 -3.6738  3.1517
  394TMC3    H2 5893   0.778   0.662  10.119  2.1481  0.7103 -0.3865
  394TMC3    C7 5894   0.960   0.795  10.273 -0.1437 -0.2604 -0.2553
  394TMC3    C8 5895   0.648   0.447  10.161 -0.0148 -0.2807 -0.4641
  394TMC3    O1 5896   0.953   0.822  10.152  0.1657  0.2736  0.3752
  394TMC3    O2 5897   0.611   0.521  10.064 -0.0743  0.0293  0.2309
  395TMC3    C1 5898   4.679   2.679  14.138 -0.0465  0.9189 -0.6857
  395TMC3    C2 5899   4.551   2.667  14.095  0.1097  0.0095  0.4298
  395TMC3    C3 5900   4.450   2.754  14.136 -0.0141 -0.0368 -0.0418
  395TMC3    C4 5901   4.703   2.782  14.228 -0.4079 -0.6840 -0.8824
  395TMC3    C5 5902   4.608   2.864  14.270  0.3351 -0.6994 -0.1663
  395TMC3    C6 5903   4.481   2.860  14.225  1.0583  0.0320 -0.3440
  395TMC3     C 5904   4.698   2.552  14.194  0.2224 -0.5452  0.4240
  395TMC3     O 5905   4.594   2.487  14.207 -0.1463 -0.0656 -0.0589
  395TMC3     H 5906   4.530   2.613  14.003  0.2498 -1.4076  1.2202
  395TMC3    H1 5907   0.065   2.779  14.295  0.1032  0.0448 -1.5132
  395TMC3    H2 5908   4.406   2.902  14.291  1.6449 -1.2064  1.1151
  395TMC3    C7 5909   4.621   2.881  14.411  0.0733  0.2355  0.6481
  395TMC3    C8 5910   4.313   2.701  14.139 -0.2171 -0.2058  0.5531
  395TMC3    O1 5911   4.629   2.780  14.487 -0.8455 -0.0762 -0.3557
  395TMC3    O2 5912   4.218   2.776  14.161  0.2162  0.9177 -0.0804
  396MPD2     C 5913   4.378   3.083  17.532 -0.0859  0.3518  0.5826
  396MPD2    C1 5914   4.472   3.164  17.470  0.2250  0.0684 -0.4859
  396MPD2    C2 5915   4.429   3.271  17.396 -0.0667 -0.3186  0.3799
  396MPD2    C3 5916   4.292   3.287  17.364  1.1880  0.5169  0.1756
  396MPD2    C4 5917   4.200   3.205  17.431  0.1930 -0.1810 -0.2921
  396MPD2    C5 5918   4.246   3.104  17.510 -0.4862  0.1820  0.6565
  396MPD2     H 5919   4.496   3.344  17.354 -3.7021  0.9657 -3.2315
  396MPD2    H1 5920   4.094   3.222  17.419  0.0049 -1.4749 -0.4183
  396MPD2    H2 5921   4.414   3.006  17.598  0.5257 -0.5050 -0.7443
  396MPD2    H3 5922   4.188   3.033  17.567 -1.2303 -0.7127 -1.2127
  396MPD2     N 5923   4.257   3.379  17.263  0.0263  0.6052  0.4301
  396MPD2    H5 5924   4.337   3.419  17.215  1.3017 -1.4169  0.8551
  396MPD2    N1 5925   4.604   3.129  17.494  0.5070 -0.3614 -0.1337
  396MPD2    H7 5926   4.605   3.044  17.551  2.2971 -1.7175 -2.1860
  397TMC3    C1 5927   0.113   3.130  17.450  0.4193  0.5148 -0.1815
  397TMC3    C2 5928   0.177   3.149  17.329 -0.1959  0.2404 -0.0902
  397TMC3    C3 5929   0.161   3.039  17.244 -1.4427  0.2573  0.0997
  397TMC3    C4 5930   0.088   3.002  17.491 -0.0116  0.6354  0.1058
  397TMC3    C5 5931   0.112   2.890  17.416 -0.1536 -0.5877  0.0046
  397TMC3    C6 5932   0.146   2.911  17.287  0.6452 -0.1831 -0.3343
  397TMC3     C 5933   4.710   3.201  17.453 -0.5149 -0.6509 -0.7586
  397TMC3     O 5934   4.706   3.315  17.404  0.3012  0.4880 -0.1937
  397TMC3     H 5935   0.171   3.248  17.286 -1.2776 -0.4730 -1.6205
  397TMC3    H1 5936   0.080   2.994  17.599  2.0660  0.8841  0.2834
  397TMC3    H2 5937   0.145   2.837  17.208 -1.4273 -1.0013  0.4388
  397TMC3    C7 5938   0.025   2.778  17.424 -0.6529  0.7956  0.0509
  397TMC3    C8 5939   0.097   3.069  17.121  0.0990  0.1123 -0.3369
  397TMC3    O1 5940   4.723   2.725  17.318  0.4501  0.5217  0.0616
  397TMC3    O2 5941   0.011   2.990  17.084 -0.2789 -0.1145 -0.4130
  398MPD2     C 5942   2.515   4.202   0.222 -0.1352 -0.3567  0.5242
  398MPD2    C1 5943   2.602   4.099   0.187 -0.8250 -0.0128 -0.0777
  398MPD2    C2 5944   2.725   4.134   0.133  0.3244  0.3559 -0.9334
  398MPD2    C3 5945   2.773   4.267   0.135  0.0913 -0.2205 -0.0452
  398MPD2    C4 5946   2.687   4.373   0.180  0.4950  0.0962 -0.2570
  398MPD2    C5 5947   2.557   4.335   0.217 -0.1612  0.3948  0.1584
  398MPD2     H 5948   2.784   4.067   0.072  1.2340  1.4063 -1.2082
  398MPD2    H1 5949   2.716   4.476   0.168 -1.2073  0.5053 -0.7774
  398MPD2    H2 5950   2.413   4.186   0.257 -0.3334  1.6738  0.9003
  398MPD2    H3 5951   2.500   4.421   0.252  0.7267  1.8406 -1.9052
  398MPD2     N 5952   2.900   4.287   0.068 -0.1433  0.0220  0.2681
  398MPD2    H5 5953   2.945   4.211   0.019 -1.0337 -1.2697  1.4743
  398MPD2    N1 5954   2.578   3.960   0.206  0.3202 -0.7834  0.7121
  398MPD2    H7 5955   2.656   3.897   0.192  1.1768  0.0771  1.6371
  399TMC3    C1 5956   2.483   3.777   0.298  0.4368  0.2891  0.6507
  399TMC3    C2 5957   2.599   3.710   0.281 -0.8768 -0.3849 -0.4364
  399TMC3    C3 5958   2.588   3.573   0.283  0.2522 -0.5100  0.0134
  399TMC3    C4 5959   2.359   3.717   0.311  0.3916  0.3161 -0.0880
  399TMC3    C5 5960   2.357   3.577   0.308 -0.3652  0.0986  0.5919
  399TMC3    C6 5961   2.471   3.502   0.296 -0.2973  0.0679 -0.4556
  399TMC3     C 5962   2.466   3.910   0.252 -0.7337 -0.1032 -0.5388
  399TMC3     O 5963   2.353   3.958   0.233  0.6984 -0.7131  0.0702
  399TMC3     H 5964   2.694   3.760   0.266 -1.2757  0.4603 -0.1901
  399TMC3    H1 5965   2.267   3.772   0.327 -0.4848 -1.6921  1.7497
  399TMC3    H2 5966   2.464   3.395   0.284  1.2459 -0.1912  1.0443
  399TMC3    C7 5967   2.232   3.509   0.276 -0.2466 -0.0465 -0.1027
  399TMC3    C8 5968   2.709   3.504   0.233 -0.9478 -0.2102  0.3027
  399TMC3    O1 5969   2.228   3.395   0.318  0.6923  0.6511  0.4846
  399TMC3    O2 5970   2.795   3.570   0.176 -0.4342 -0.2921 -0.5398
  400TMC3    C1 5971   1.087   3.017  16.878 -0.6349 -0.1733 -0.2401
  400TMC3    C2 5972   0.970   3.001  16.802  0.5313 -0.4967  0.1787
  400TMC3    C3 5973   0.915   3.118  16.740 -0.4773  0.5690  0.2458
  400TMC3    C4 5974   1.143   3.139  16.883  0.2214  0.2470 -0.0971
  400TMC3    C5 5975   1.082   3.253  16.817 -0.1051  0.3236  0.2561
  400TMC3    C6 5976   0.968   3.247  16.746 -0.0330  0.0975  0.7376
  400TMC3     C 5977   1.156   2.904  16.919 -0.4229 -0.0284 -0.2069
  400TMC3     O 5978   1.129   2.794  16.878  0.3630  0.1124 -0.1515
  400TMC3     H 5979   0.936   2.899  16.798  2.1234 -1.1550  3.1900
  400TMC3    H1 5980   1.245   3.144  16.921  0.8429  1.8920 -1.9992
  400TMC3    H2 5981   0.922   3.333  16.699  1.6736  0.0823 -0.9718
  400TMC3    C7 5982   1.105   3.391  16.877 -0.0157 -0.4646 -0.3826
  400TMC3    C8 5983   0.789   3.105  16.665 -0.3870  0.4639  0.2621
  400TMC3    O1 5984   1.203   3.407  16.944 -0.3183  0.1503 -0.3065
  400TMC3    O2 5985   0.724   3.206  16.639  0.1800 -0.2532  0.9161
  401MPD2     C 5986   4.174   1.431   0.646  0.5349  0.4541  0.0902
  401MPD2    C1 5987   4.237   1.424   0.770 -0.2863  0.0063 -0.1625
  401MPD2    C2 5988   4.277   1.297   0.809  0.1634  0.2833 -0.4946
  401MPD2    C3 5989   4.246   1.181   0.737 -0.3365 -0.0401  0.5338
  401MPD2    C4 5990   4.178   1.193   0.621  0.7919 -0.5809 -0.3252
  401MPD2    C5 5991   4.136   1.318   0.575  0.4353  0.4318 -0.3244
  401MPD2     H 5992   4.342   1.291   0.896  0.5134  2.0629 -0.6193
  401MPD2    H1 5993   4.152   1.106   0.562 -0.1258 -0.8966  0.5512
  401MPD2    H2 5994   4.145   1.526   0.602  1.3952  0.9108  0.4926
  401MPD2    H3 5995   4.096   1.330   0.475 -0.6149 -0.6865 -0.0326
  401MPD2     N 5996   4.298   1.062   0.798 -0.2889 -0.5166 -0.0634
  401MPD2    H5 5997   4.347   1.069   0.887 -2.9477 -2.3317  1.5565
  401MPD2    N1 5998   4.260   1.543   0.850 -0.0219  0.0993  0.1265
  401MPD2    H7 5999   4.279   1.528   0.949  2.3026  2.2764  0.0085
  402TMC3    C1 6000   4.351   0.833   0.810  0.2831 -0.4964  0.0455
  402TMC3    C2 6001   4.340   0.832   0.945 -0.0969  0.0721 -0.3980
  402TMC3    C3 6002   4.377   0.711   1.001  0.0474 -0.7327  0.2523
  402TMC3    C4 6003   4.402   0.729   0.736  0.2848  0.1695 -0.5726
  402TMC3    C5 6004   4.439   0.614   0.802 -0.1945 -0.4560 -0.6512
  402TMC3    C6 6005   4.413   0.602   0.931  0.4717  0.3128  0.7500
  402TMC3     C 6006   4.294   0.941   0.733  0.2433 -0.0853 -0.0621
  402TMC3     O 6007   4.271   0.917   0.615  0.1906 -0.5689  0.4901
  402TMC3     H 6008   4.270   0.902   0.990 -0.6707 -0.9389  0.3006
  402TMC3    H1 6009   4.384   0.714   0.630  0.1438  0.0953 -0.5379
  402TMC3    H2 6010   4.451   0.506   0.965  0.7853 -0.4825 -1.8146
  402TMC3    C7 6011   4.473   0.502   0.713  0.0198 -0.5986  0.2815
  402TMC3    C8 6012   4.390   0.706   1.146  0.3842 -0.5605  0.6519
  402TMC3    O1 6013   4.429   0.389   0.743 -0.9187  0.8794 -0.2563
  402TMC3    O2 6014   4.406   0.601   1.204 -0.1464 -0.4826 -0.5998
  403MPD2     C 6015   2.403   0.166  13.091 -0.8361  0.4237  0.1222
  403MPD2    C1 6016   2.421   0.035  13.128  0.0553 -0.2806 -0.1260
  403MPD2    C2 6017   2.527   0.014  13.220  0.2376  0.1805 -0.6679
  403MPD2    C3 6018   2.615   0.112  13.270 -0.7817 -0.4841 -0.5930
  403MPD2    C4 6019   2.584   0.243  13.238  0.5008  0.4353  0.0056
  403MPD2    C5 6020   2.480   0.264  13.151 -0.6786  0.2735  0.3106
  403MPD2     H 6021   2.547   4.636  13.249 -1.4768 -0.6401 -2.3695
  403MPD2    H1 6022   2.647   0.328  13.262  0.5197  0.5588 -0.4829
  403MPD2    H2 6023   2.335   0.201  13.014 -2.6557 -0.4275  1.3583
  403MPD2    H3 6024   2.486   0.361  13.102 -0.3952  0.6386  1.0551
  403MPD2     N 6025   2.724   0.079  13.361  0.1673  0.3496 -0.0983
  403MPD2    H5 6026   2.745   4.706  13.376  0.4713  0.3765 -0.3415
  403MPD2    N1 6027   2.341   4.655  13.070  0.3105  0.0515 -0.0898
  403MPD2    H7 6028   2.262   4.690  13.017  1.9191  1.3697 -1.6017
  404TMC3    C1 6029   2.239   4.451  13.023  0.8129  0.2041  0.3894
  404TMC3    C2 6030   2.164   4.363  13.096 -0.0379  0.2137  0.0607
  404TMC3    C3 6031   2.038   4.326  13.056  0.4175  0.5256  0.0999
  404TMC3    C4 6032   2.191   4.497  12.908 -0.1128  0.1780 -0.5808
  404TMC3    C5 6033   2.066   4.461  12.866  0.8745  0.3826  0.0760
  404TMC3    C6 6034   1.981   4.381  12.942  0.1732  0.0918 -0.4981
  404TMC3     C 6035   2.347   4.519  13.094 -0.0343 -0.5213  0.4748
  404TMC3     O 6036   2.415   4.461  13.175  0.2616  0.2689 -0.3620
  404TMC3     H 6037   2.203   4.341  13.195  1.0085 -1.3861 -0.7082
  404TMC3    H1 6038   2.263   4.547  12.844 -0.5243  3.2683  1.3590
  404TMC3    H2 6039   1.877   4.375  12.913  0.3688  0.2152 -1.2314
  404TMC3    C7 6040   2.013   4.569  12.777 -0.9040  0.6753 -0.1981
  404TMC3    C8 6041   1.950   4.250  13.148  0.7593 -0.1922 -0.9033
  404TMC3    O1 6042   2.076   4.674  12.781  0.0243 -0.4271  0.7391
  404TMC3    O2 6043   1.847   4.197  13.111  0.4288 -0.9239 -0.0516
  405MPD2     C 6044   2.905   0.349  14.347 -0.4448 -0.3217 -0.1105
  405MPD2    C1 6045   2.862   0.253  14.264  0.7094 -0.0447 -0.3558
  405MPD2    C2 6046   2.799   0.288  14.146 -0.0055  0.0145  0.1966
  405MPD2    C3 6047   2.745   0.420  14.125  0.2780  0.1455  0.9096
  405MPD2    C4 6048   2.764   0.507  14.225 -0.8955 -0.0431  0.3355
  405MPD2    C5 6049   2.853   0.476  14.331 -0.1180 -0.0070 -0.0076
  405MPD2     H 6050   2.782   0.210  14.073 -1.5420 -0.5670  1.1880
  405MPD2    H1 6051   2.717   0.605  14.218 -0.7546 -0.0719 -1.0798
  405MPD2    H2 6052   2.947   0.318  14.442  0.2374  1.6905  0.2454
  405MPD2    H3 6053   2.884   0.547  14.407  0.3287 -1.5479  1.2584
  405MPD2     N 6054   2.689   0.462  14.004  0.1692 -0.2176 -0.3898
  405MPD2    H5 6055   2.645   0.553  13.996 -0.5291 -0.5456 -0.2654
  405MPD2    N1 6056   2.867   0.114  14.287 -0.6218  0.3220 -0.0151
  405MPD2    H7 6057   2.809   0.061  14.223  1.7129 -1.4065 -0.6722
  406TMC3    C1 6058   2.380   0.461  13.782 -0.4346 -0.3538  0.1816
  406TMC3    C2 6059   2.378   0.370  13.680 -0.0476  0.2025 -0.5714
  406TMC3    C3 6060   2.498   0.324  13.635 -0.5064 -0.0812 -0.4571
  406TMC3    C4 6061   2.500   0.504  13.834 -0.4723  0.1743 -0.3253
  406TMC3    C5 6062   2.621   0.453  13.786  0.1238 -0.1327 -0.5293
  406TMC3    C6 6063   2.614   0.373  13.680 -0.6096 -0.4009  0.4188
  406TMC3     C 6064   2.266   0.473  13.875  0.3569  0.0303  0.6519
  406TMC3     O 6065   2.295   0.505  13.988 -0.1468  0.1188  0.5190
  406TMC3     H 6066   2.285   0.329  13.642 -0.2469  0.5279 -0.4361
  406TMC3    H1 6067   2.494   0.569  13.920  3.0302  0.2897 -0.1643
  406TMC3    H2 6068   2.706   0.324  13.650  0.6368  2.3849 -0.3078
  406TMC3    C7 6069   2.701   0.397  13.886 -0.3675  0.4310  0.3677
  406TMC3    C8 6070   2.501   0.177  13.628  1.0053 -0.2332  0.5117
  406TMC3    O1 6071   2.760   0.297  13.854 -0.1684 -0.0516  0.1666
  406TMC3    O2 6072   2.457   0.115  13.534  0.1441  0.7195  0.2988
  407MPD2     C 6073   0.719   2.182   9.620 -0.2583  0.7219  0.4609
  407MPD2    C1 6074   0.852   2.207   9.633 -0.1581 -0.0611  0.5444
  407MPD2    C2 6075   0.904   2.258   9.752 -0.5005  0.2471  0.0008
  407MPD2    C3 6076   0.813   2.275   9.859  0.2341 -0.2402  0.0210
  407MPD2    C4 6077   0.677   2.252   9.837 -0.5223  0.1572  0.7608
  407MPD2    C5 6078   0.631   2.203   9.715  0.2800  0.1504 -0.2140
  407MPD2     H 6079   1.010   2.281   9.760 -0.4075  0.5327 -1.9846
  407MPD2    H1 6080   0.597   2.262   9.909  0.2907  0.5042  1.6122
  407MPD2    H2 6081   0.670   2.144   9.531 -1.4726  0.4246  1.2610
  407MPD2    H3 6082   0.523   2.188   9.711  0.3120 -0.7579  2.0160
  407MPD2     N 6083   0.857   2.321   9.983  0.2143  0.0998 -0.1198
  407MPD2    H5 6084   0.782   2.340  10.049 -0.7425 -1.6048 -0.7000
  407MPD2    N1 6085   0.944   2.199   9.523  0.2904  0.3910  0.3721
  407MPD2    H7 6086   1.042   2.205   9.547  0.0049 -1.1169  1.8894
  408TMC3    C1 6087   1.028   2.155   9.319  0.4437 -0.4376 -0.0960
  408TMC3    C2 6088   1.088   2.033   9.304 -0.6245 -1.1199  0.2233
  408TMC3    C3 6089   1.222   2.033   9.285 -0.2065  0.1802 -0.2052
  408TMC3    C4 6090   1.093   2.273   9.317  0.5198 -0.2953 -0.4826
  408TMC3    C5 6091   1.226   2.265   9.270 -0.0969 -0.2159 -0.0319
  408TMC3    C6 6092   1.293   2.145   9.272  0.4507  0.2250 -0.7320
  408TMC3     C 6093   0.912   2.153   9.403  0.6741  1.1441 -0.6310
  408TMC3     O 6094   0.825   2.071   9.368 -0.1259  0.0503 -0.2453
  408TMC3     H 6095   1.025   1.948   9.283  0.3559 -1.9140  0.4989
  408TMC3    H1 6096   1.038   2.367   9.323  0.0428 -0.4513 -2.3223
  408TMC3    H2 6097   1.398   2.139   9.245  0.4059 -2.0547 -0.3951
  408TMC3    C7 6098   1.311   2.378   9.303  0.0480  0.2329  0.3778
  408TMC3    C8 6099   1.287   1.907   9.311  1.0296  0.4178  0.0551
  408TMC3    O1 6100   1.428   2.350   9.327  0.1165  0.3354  0.4256
  408TMC3    O2 6101   1.213   1.807   9.311  1.1171  0.0010  0.3339
  409MPD2     C 6102   4.591   2.217  17.221 -0.7164  0.1483 -0.4816
  409MPD2    C1 6103   4.698   2.295  17.263  0.8691 -0.3984 -0.4883
  409MPD2    C2 6104   0.015   2.405  17.182 -0.9532  0.3701  0.0144
  409MPD2    C3 6105   4.681   2.448  17.060  0.0878 -0.0574 -0.1320
  409MPD2    C4 6106   4.566   2.381  17.028 -1.4206 -0.4740  0.1924
  409MPD2    C5 6107   4.527   2.272  17.106  0.6311 -0.2803  0.3633
  409MPD2     H 6108   0.107   2.452  17.218 -0.7124 -0.1479  0.0803
  409MPD2    H1 6109   4.503   2.396  16.941 -4.5673 -1.3094  2.3337
  409MPD2    H2 6110   4.547   2.136  17.279  1.1626 -1.7337 -1.6595
  409MPD2    H3 6111   4.439   2.225  17.062  1.7627 -1.1925 -0.9415
  409MPD2     N 6112   4.720   2.561  16.985 -0.7038 -0.4712 -0.1411
  409MPD2    H5 6113   4.650   2.599  16.923 -1.0988 -0.7455  0.1419
  409MPD2    N1 6114   0.061   2.262  17.377 -0.5499  0.4966  0.1418
  409MPD2    H7 6115   0.141   2.321  17.394  0.1318 -0.6318  0.8190
  410TMC3    C1 6116   0.145   2.742  16.914 -0.1923 -0.3018 -0.5442
  410TMC3    C2 6117   0.273   2.794  16.917 -0.3924  0.0096  0.4498
  410TMC3    C3 6118   0.306   2.898  16.834  0.1752  0.8087 -0.0952
  410TMC3    C4 6119   0.050   2.786  16.828 -0.4536 -1.1950  0.0206
  410TMC3    C5 6120   0.083   2.891  16.748  0.0088  0.7445 -0.3172
  410TMC3    C6 6121   0.208   2.952  16.751 -0.3039 -0.8946 -0.4493
  410TMC3     C 6122   0.118   2.628  17.006 -0.1258  0.6642  0.5529
  410TMC3     O 6123   0.206   2.604  17.087  0.0646  0.0788 -0.0289
  410TMC3     H 6124   0.337   2.753  16.995 -0.0910 -0.2898  0.0415
  410TMC3    H1 6125   4.675   2.744  16.822  1.0113 -4.8179  1.1269
  410TMC3    H2 6126   0.222   3.047  16.700  2.0820 -0.8837  0.2518
  410TMC3    C7 6127   4.707   2.913  16.651 -0.0007 -1.3567  0.1116
  410TMC3    C8 6128   0.430   2.969  16.858  1.0930  0.2971  0.5267
  410TMC3    O1 6129   4.593   2.892  16.686  0.0479 -0.5894 -0.6084
  410TMC3    O2 6130   0.421   3.091  16.852  0.1525 -0.1125 -0.0199
  411MPD2     C 6131   0.327   3.032  14.503 -0.9653  0.4269  0.2623
  411MPD2    C1 6132   0.318   3.130  14.408 -0.3584 -0.4942  0.6928
  411MPD2    C2 6133   0.293   3.095  14.276 -0.2647  0.5990 -0.8802
  411MPD2    C3 6134   0.296   2.960  14.231  0.2720 -0.1108 -0.4627
  411MPD2    C4 6135   0.330   2.861  14.327 -0.3226 -0.1426  0.3831
  411MPD2    C5 6136   0.341   2.900  14.461 -0.1128 -0.3721 -0.1692
  411MPD2     H 6137   0.271   3.181  14.213  0.1618 -1.1289 -3.3964
  411MPD2    H1 6138   0.327   2.755  14.305  1.9306 -0.1937  0.3588
  411MPD2    H2 6139   0.328   3.060  14.607 -0.8400 -2.0984  0.9323
  411MPD2    H3 6140   0.372   2.824  14.532 -1.3106 -1.2798 -0.6033
  411MPD2     N 6141   0.285   2.918  14.096  0.5048  0.1981  0.1036
  411MPD2    H5 6142   0.302   2.820  14.075  0.4099 -0.1672  1.6722
  411MPD2    N1 6143   0.327   3.268  14.443  0.4227 -0.5201 -0.0973
  411MPD2    H7 6144   0.298   3.335  14.372  0.4241 -0.6461 -0.2176
  412TMC3    C1 6145   0.255   2.944  13.854 -0.1532  0.3813  0.5493
  412TMC3    C2 6146   0.182   2.828  13.833 -0.3094 -0.1012  0.0639
  412TMC3    C3 6147   0.155   2.795  13.702 -0.1040 -0.2188 -0.0130
  412TMC3    C4 6148   0.264   3.026  13.747 -0.3233  0.3826  0.4303
  412TMC3    C5 6149   0.224   3.001  13.622 -0.0192 -0.1058  0.1521
  412TMC3    C6 6150   0.185   2.875  13.590 -0.4003 -0.6407  0.4119
  412TMC3     C 6151   0.248   2.997  13.990  0.5645 -0.9711  0.3306
  412TMC3     O 6152   0.220   3.119  13.982  0.4007 -0.0722 -0.4527
  412TMC3     H 6153   0.146   2.776  13.921 -1.3361  0.2483 -0.1398
  412TMC3    H1 6154   0.322   3.115  13.768  0.6385  0.4447 -2.4868
  412TMC3    H2 6155   0.145   2.848  13.493 -0.9815 -2.0520  1.0287
  412TMC3    C7 6156   0.129   3.102  13.572 -0.1381  0.2630  0.0987
  412TMC3    C8 6157   0.025   2.739  13.672 -0.2035 -0.5000  0.1492
  412TMC3    O1 6158   0.085   3.094  13.461  0.4367  0.0520 -0.6993
  412TMC3    O2 6159   4.695   2.769  13.565 -0.6062 -0.6804  0.6744
  413MPD2     C 6160   2.170   1.723  15.301 -0.6586  0.4485 -0.6530
  413MPD2    C1 6161   2.065   1.673  15.233  0.3110 -0.3645 -0.4331
  413MPD2    C2 6162   2.080   1.600  15.117  0.4348  0.5000  0.5118
  413MPD2    C3 6163   2.202   1.583  15.064 -0.2421 -0.8619 -0.1060
  413MPD2    C4 6164   2.312   1.639  15.134 -0.3529  0.0969  0.2887
  413MPD2    C5 6165   2.294   1.705  15.251  0.1532 -0.9061 -0.3310
  413MPD2     H 6166   1.997   1.553  15.065  2.4539 -1.9370 -0.5285
  413MPD2    H1 6167   2.413   1.627  15.098 -0.6960  1.6738 -1.2194
  413MPD2    H2 6168   2.160   1.779  15.393  0.0171 -2.2013  1.0117
  413MPD2    H3 6169   2.386   1.733  15.301 -0.2702  0.7880 -0.5007
  413MPD2     N 6170   2.208   1.498  14.957  0.2863  0.1111 -0.1170
  413MPD2    H5 6171   2.121   1.450  14.937  0.7948 -1.1364  0.6283
  413MPD2    N1 6172   1.937   1.695  15.293  0.3304  0.1285  0.2506
  413MPD2    H7 6173   1.926   1.709  15.392  0.7645  0.6595  0.2265
  414TMC3    C1 6174   2.303   1.341  14.819  0.3050  0.2067  0.0684
  414TMC3    C2 6175   2.237   1.243  14.882  0.0354  0.5271 -0.6485
  414TMC3    C3 6176   2.218   1.125  14.815  0.0897  0.5294  0.3287
  414TMC3    C4 6177   2.374   1.324  14.708  0.5578 -0.4222 -0.8342
  414TMC3    C5 6178   2.334   1.216  14.631  0.6404 -0.1619  0.2834
  414TMC3    C6 6179   2.253   1.123  14.686  0.2245 -0.2106 -0.0660
  414TMC3     C 6180   2.316   1.471  14.875 -0.0912  0.3427  0.2165
  414TMC3     O 6181   2.423   1.523  14.879  0.4898 -0.4847  0.5724
  414TMC3     H 6182   2.195   1.247  14.982 -1.2495  4.0253 -1.3220
  414TMC3    H1 6183   2.424   1.410  14.664  1.6392 -0.6670 -0.0955
  414TMC3    H2 6184   2.222   1.035  14.631 -0.3744  0.1960 -0.3716
  414TMC3    C7 6185   2.461   1.157  14.591 -0.5555  0.5719 -0.2097
  414TMC3    C8 6186   2.276   1.007  14.878 -0.0498 -0.3665  0.8216
  414TMC3    O1 6187   2.556   1.208  14.651  0.5006  0.5914 -0.2764
  414TMC3    O2 6188   2.228   0.894  14.855  0.0206 -0.4413  0.2336
  415TMC3    C1 6189   2.213   4.365   9.913  1.0305 -0.1509 -0.6821
  415TMC3    C2 6190   2.289   4.460   9.860 -0.0818  0.4197  0.4340
  415TMC3    C3 6191   2.228   4.548   9.771 -0.4151 -0.2603  0.0494
  415TMC3    C4 6192   2.074   4.356   9.895  0.0171  0.0773  0.2497
  415TMC3    C5 6193   2.022   4.446   9.810  0.0628  0.0626  0.6051
  415TMC3    C6 6194   2.099   4.535   9.746  0.0299  0.0696  0.0160
  415TMC3     C 6195   2.269   4.251   9.984 -0.1194 -0.5578  0.7053
  415TMC3     O 6196   2.216   4.240  10.095  0.5975 -0.1469 -0.1006
  415TMC3     H 6197   2.393   4.465   9.890  0.1334  0.8394 -0.3775
  415TMC3    H1 6198   2.014   4.292   9.958 -0.1553  1.2969  1.3185
  415TMC3    H2 6199   2.062   4.589   9.659 -0.5348 -0.8356 -0.3123
  415TMC3    C7 6200   1.880   4.443   9.780  0.1344 -1.2223 -0.2298
  415TMC3    C8 6201   2.298   4.651   9.700  0.4010 -0.4874  0.3072
  415TMC3    O1 6202   1.830   4.545   9.729  0.0433  0.6704  0.5160
  415TMC3    O2 6203   2.246   0.001   9.616  0.1018 -0.0700 -0.5319
  416MPD2     C 6204   4.544   3.352  11.128 -0.0790 -0.6166  0.5739
  416MPD2    C1 6205   4.416   3.372  11.083 -0.1915 -0.3785  0.1323
  416MPD2    C2 6206   4.348   3.270  11.030  0.5322  0.5716 -0.5169
  416MPD2    C3 6207   4.402   3.136  11.041 -0.4661  0.2193  0.3175
  416MPD2    C4 6208   4.529   3.115  11.087 -0.8017 -0.7212  0.6783
  416MPD2    C5 6209   4.601   3.228  11.130 -0.0611 -0.4923  0.1725
  416MPD2     H 6210   4.255   3.295  10.981  0.2680  0.9636  0.1915
  416MPD2    H1 6211   4.570   3.016  11.103 -0.0938 -0.8531 -2.0344
  416MPD2    H2 6212   4.609   3.429  11.169 -0.7852 -0.1411  0.7857
  416MPD2    H3 6213   4.702   3.217  11.170  0.4961 -1.1902 -1.4483
  416MPD2     N 6214   4.336   3.016  10.992 -0.4068  0.0377 -0.4436
  416MPD2    H5 6215   4.375   2.925  11.010 -2.3042 -0.7125 -0.1451
  416MPD2    N1 6216   4.355   3.497  11.123  0.1687 -0.3942  0.2105
  416MPD2    H7 6217   4.404   3.561  11.185 -2.7509  1.4648  0.5802
  417TMC3    C1 6218   4.189   3.655  11.164  0.0240 -0.0665  0.3831
  417TMC3    C2 6219   4.212   3.672  11.297 -0.0213 -0.4041  0.3350
  417TMC3    C3 6220   4.126   3.755  11.367 -0.4000 -0.1379 -0.3267
  417TMC3    C4 6221   4.084   3.724  11.097  0.0429 -0.5929  0.3422
  417TMC3    C5 6222   4.011   3.810  11.174  0.0956  0.5965  0.6066
  417TMC3    C6 6223   4.027   3.828  11.307  0.0365  0.4739 -0.0296
  417TMC3     C 6224   4.234   3.541  11.084 -0.3644  0.4898 -0.5605
  417TMC3     O 6225   4.160   3.509  10.991  0.0023  0.1363  0.5244
  417TMC3     H 6226   4.262   3.593  11.351  0.6503  1.0542  1.8266
  417TMC3    H1 6227   4.056   3.708  10.994  1.4665 -0.5790 -0.0399
  417TMC3    H2 6228   3.975   3.908  11.357 -0.9273  0.2840 -0.7375
  417TMC3    C7 6229   3.939   3.922  11.106 -0.6572  0.4015 -0.7153
  417TMC3    C8 6230   4.119   3.757  11.514 -0.4652  0.2677  0.0516
  417TMC3    O1 6231   3.981   3.965  11.001 -0.2155 -0.1042 -0.3196
  417TMC3    O2 6232   4.032   3.832  11.559  0.0008 -0.2079  0.0285
  418TMC3    C1 6233   3.206   4.211  17.585 -0.4899 -0.2200  0.2606
  418TMC3    C2 6234   3.099   4.295  17.604  0.2618  0.3532  0.4966
  418TMC3    C3 6235   3.103   4.383   0.009 -0.2018 -0.3886 -0.0872
  418TMC3    C4 6236   3.315   4.218  17.669 -0.3013  0.1715  0.1878
  418TMC3    C5 6237   3.315   4.319   0.058 -0.5617  0.3193 -0.2085
  418TMC3    C6 6238   3.211   4.400   0.082  0.2322  0.3104  0.2361
  418TMC3     C 6239   3.222   4.127  17.467 -0.2217  0.1512 -0.3585
  418TMC3     O 6240   3.197   4.177  17.362 -0.7308 -0.2879 -0.4234
  418TMC3     H 6241   3.021   4.293  17.529 -1.7218  0.4383  2.5347
  418TMC3    H1 6242   3.401   4.152  17.663 -0.7523 -0.4893  0.9066
  418TMC3    H2 6243   3.203   4.474   0.160 -0.1875  0.8021 -0.2730
  418TMC3    C7 6244   3.355   4.255   0.179 -0.0645  1.2300 -0.3736
  418TMC3    C8 6245   2.976   4.406   0.071  0.2441 -0.7626  0.1065
  418TMC3    O1 6246   3.343   4.135   0.198 -0.2867  0.3247 -0.0075
  418TMC3    O2 6247   2.968   4.493   0.160 -0.3264 -0.4808  0.1462
  419MPD2     C 6248   1.264   2.937  12.532  0.3200  0.5885  0.3810
  419MPD2    C1 6249   1.258   3.078  12.534  0.6056 -0.3520  0.0042
  419MPD2    C2 6250   1.302   3.157  12.641  0.6417 -0.1387 -0.1395
  419MPD2    C3 6251   1.354   3.090  12.749  1.3042 -0.6719 -0.0426
  419MPD2    C4 6252   1.364   2.951  12.746  0.0086  0.9373  0.1509
  419MPD2    C5 6253   1.319   2.879  12.637 -0.2121 -0.1237  0.4304
  419MPD2     H 6254   1.290   3.265  12.648  0.1365 -0.2799  1.2681
  419MPD2    H1 6255   1.399   2.892  12.830 -2.9554 -0.9216  0.0614
  419MPD2    H2 6256   1.221   2.872  12.456  0.1617 -0.2050  1.1565
  419MPD2    H3 6257   1.334   2.772  12.640  1.8052  0.1520  0.2169
  419MPD2     N 6258   1.394   3.164  12.865  0.2319 -0.4656  0.0188
  419MPD2    H5 6259   1.403   3.265  12.852  2.2428 -0.3178  2.4254
  419MPD2    N1 6260   1.207   3.152  12.428  0.0167 -0.3648 -0.2985
  419MPD2    H7 6261   1.209   3.254  12.433  3.5042 -0.4387 -0.2260
  420TMC3    C1 6262   1.423   3.219  13.096  0.5964 -0.5953 -0.8934
  420TMC3    C2 6263   1.358   3.335  13.080  0.0406  0.2456  0.0593
  420TMC3    C3 6264   1.360   3.430  13.182 -0.6358  0.1080  0.5248
  420TMC3    C4 6265   1.464   3.179  13.221  0.3517 -0.7326  0.3398
  420TMC3    C5 6266   1.464   3.267  13.320  0.3857  0.1030 -0.3378
  420TMC3    C6 6267   1.405   3.392  13.305 -0.3022  0.2055  0.4773
  420TMC3     C 6268   1.418   3.119  12.991 -0.8289  0.0957  0.1988
  420TMC3     O 6269   1.402   2.999  13.025 -0.4318 -0.6113  0.4788
  420TMC3     H 6270   1.323   3.364  12.981 -1.6022 -1.1093  0.2461
  420TMC3    H1 6271   1.497   3.077  13.240 -0.5647 -1.5129 -2.3368
  420TMC3    H2 6272   1.385   3.459  13.388 -1.9252  0.1365  0.1345
  420TMC3    C7 6273   1.548   3.230  13.429  0.2899 -0.1289 -0.2404
  420TMC3    C8 6274   1.273   3.547  13.155 -0.0973 -0.0391  0.1427
  420TMC3    O1 6275   1.549   3.114  13.472  0.0259  0.3205 -0.0281
  420TMC3    O2 6276   1.266   3.586  13.039  0.5516 -0.1065 -0.6256
  421TMC3    C1 6277   2.903   0.105  13.509  0.4543  0.7834  1.0232
  421TMC3    C2 6278   2.995   0.198  13.546 -0.6374  0.6203 -0.0132
  421TMC3    C3 6279   3.037   0.202  13.669  0.0074  0.4038  0.5422
  421TMC3    C4 6280   2.850   0.012  13.591 -0.0887 -0.2018 -0.5515
  421TMC3    C5 6281   2.903   0.011  13.713 -0.0404  0.6874  1.2783
  421TMC3    C6 6282   2.987   0.108  13.761 -0.2469  0.4498 -0.8863
  421TMC3     C 6283   2.800   0.171  13.428 -0.6157 -0.1791 -0.3344
  421TMC3     O 6284   2.811   0.294  13.412  0.8686 -0.3938  0.0227
  421TMC3     H 6285   3.035   0.260  13.467  1.0134  2.0162  1.8900
  421TMC3    H1 6286   2.786   4.652  13.567  2.4311 -1.2222 -3.7513
  421TMC3    H2 6287   3.033   0.091  13.858  1.3822  3.4663 -1.1314
  421TMC3    C7 6288   2.938   4.607  13.765  0.1384 -0.3274 -0.4685
  421TMC3    C8 6289   3.101   0.325  13.716 -0.2282  0.4511  0.2131
  421TMC3    O1 6290   2.963   4.601  13.888  0.3761  0.3391  0.5378
  421TMC3    O2 6291   3.169   0.387  13.636 -0.1739  0.0977 -0.2653
  422TMC3    C1 6292   0.776   1.438  12.869 -0.4141  0.3199  0.0829
  422TMC3    C2 6293   0.752   1.569  12.867 -0.8288  0.8144 -0.3982
  422TMC3    C3 6294   0.627   1.617  12.856  0.1469  0.3426 -0.1824
  422TMC3    C4 6295   0.674   1.346  12.859 -0.4651 -0.3416 -0.2604
  422TMC3    C5 6296   0.547   1.398  12.846  0.0037 -0.3047  0.1047
  422TMC3    C6 6297   0.523   1.530  12.838 -0.4339  0.2620  0.1908
  422TMC3     C 6298   0.908   1.412  12.804  0.2563  0.7589  0.0579
  422TMC3     O 6299   0.984   1.507  12.767 -0.1913  0.5509  0.3838
  422TMC3     H 6300   0.837   1.637  12.864 -1.1868  1.2890  0.3960
  422TMC3    H1 6301   0.685   1.239  12.873  0.0578 -0.5033 -2.0022
  422TMC3    H2 6302   0.421   1.562  12.817 -0.5951 -1.5667 -1.8671
  422TMC3    C7 6303   0.438   1.302  12.838  0.0822  0.0880  0.4126
  422TMC3    C8 6304   0.610   1.761  12.831  0.1699  0.4460 -0.6687
  422TMC3    O1 6305   0.474   1.187  12.826  0.5998  0.7861 -0.5382
  422TMC3    O2 6306   0.683   1.837  12.889  0.5201 -0.4191  0.6874
  423MPD2     C 6307   2.083   1.840   0.532  0.3555  0.3769 -0.0856
  423MPD2    C1 6308   2.129   1.716   0.553 -0.2111  0.2507  0.3566
  423MPD2    C2 6309   2.158   1.633   0.445  0.8779 -0.5342 -0.0803
  423MPD2    C3 6310   2.141   1.681   0.317  0.4542 -0.4270 -0.5365
  423MPD2    C4 6311   2.099   1.807   0.296  0.5332 -0.0326 -0.1861
  423MPD2    C5 6312   2.063   1.885   0.403 -0.3874 -0.3750  0.4768
  423MPD2     H 6313   2.229   1.556   0.473 -1.4310 -0.5268  5.9100
  423MPD2    H1 6314   2.087   1.846   0.196 -2.7610 -0.3980  0.0375
  423MPD2    H2 6315   2.053   1.903   0.616  1.5207  1.3035 -0.3672
  423MPD2    H3 6316   2.014   1.981   0.389  0.4639 -0.4271 -2.7423
  423MPD2     N 6317   2.163   1.596   0.206  0.3977 -0.1203  0.2444
  423MPD2    H5 6318   2.148   1.646   0.119 -2.0986  0.4339  0.9994
  423MPD2    N1 6319   2.131   1.648   0.681 -0.1525 -0.2159  0.6573
  423MPD2    H7 6320   2.169   1.555   0.671  0.3162  0.1546 -1.0299
  424TMC3    C1 6321   2.077   1.612   0.913 -0.0222 -1.0510  0.6357
  424TMC3    C2 6322   2.160   1.505   0.913 -0.3270 -0.2192 -0.1884
  424TMC3    C3 6323   2.125   1.397   0.982 -0.5039  0.2243  0.0731
  424TMC3    C4 6324   1.961   1.608   0.992 -0.5143  0.1121 -0.5311
  424TMC3    C5 6325   1.931   1.497   1.062  0.3554 -0.2958 -0.7332
  424TMC3    C6 6326   2.014   1.386   1.058 -0.1955  0.7655  0.1453
  424TMC3     C 6327   2.065   1.696   0.796  0.3187 -0.0032 -0.0016
  424TMC3     O 6328   2.008   1.807   0.807 -0.2551  0.5296  0.5308
  424TMC3     H 6329   2.257   1.502   0.864 -1.1093  0.9653 -1.7813
  424TMC3    H1 6330   1.890   1.686   0.971  0.0336  0.5998 -0.5638
  424TMC3    H2 6331   1.986   1.299   1.118  0.2295 -0.4678 -1.4569
  424TMC3    C7 6332   1.787   1.484   1.096 -0.1610 -0.2688  0.6952
  424TMC3    C8 6333   2.213   1.282   0.984  0.5471  0.3655  0.2245
  424TMC3    O1 6334   1.733   1.378   1.117  0.1691  0.2531 -0.0180
  424TMC3    O2 6335   2.212   1.219   1.090 -0.2903 -0.2704 -0.0959
  425MPD2     C 6336   1.263   1.365  17.649 -0.9939  0.1102 -0.2680
  425MPD2    C1 6337   1.209   1.309  17.530  0.2318 -0.1052  0.1683
  425MPD2    C2 6338   1.075   1.334  17.503 -0.9846 -0.8332 -0.2928
  425MPD2    C3 6339   1.007   1.431  17.573 -0.4429  0.2457 -0.1572
  425MPD2    C4 6340   1.061   1.489  17.686  0.3582 -0.4775  0.5225
  425MPD2    C5 6341   1.186   1.460   0.018  0.1505  0.4701 -0.2223
  425MPD2     H 6342   1.016   1.295  17.421  1.6377 -3.1440 -1.1038
  425MPD2    H1 6343   1.009   1.565   0.043  1.6300  0.3045  0.6449
  425MPD2    H2 6344   1.360   1.334  17.685 -0.9787 -0.9268 -1.1733
  425MPD2    H3 6345   1.225   1.508   0.107 -0.4140 -0.8182  0.7353
  425MPD2     N 6346   0.873   1.456  17.528  0.1617  0.0532 -0.7532
  425MPD2    H5 6347   0.840   1.427  17.437 -0.7947  0.0302 -0.3944
  425MPD2    N1 6348   1.278   1.206  17.465 -0.6449  0.1604  0.5036
  425MPD2    H7 6349   1.361   1.178  17.516 -0.0009  0.2823 -0.4660
  426TMC3    C1 6350   1.291   1.020  17.315  0.1460 -0.3981  0.0485
  426TMC3    C2 6351   1.250   0.972  17.194 -0.5823 -0.0360 -0.3006
  426TMC3    C3 6352   1.271   0.841  17.174 -0.1151 -0.3765 -0.5592
  426TMC3    C4 6353   1.341   0.940  17.418 -0.6005  0.2662 -0.3326
  426TMC3    C5 6354   1.384   0.811  17.380 -0.4434  0.1589 -0.6276
  426TMC3    C6 6355   1.343   0.767  17.259  0.0478 -0.3336 -0.1150
  426TMC3     C 6356   1.244   1.157  17.341 -0.4707 -0.0190 -0.1744
  426TMC3     O 6357   1.160   1.200  17.263 -0.0677  0.4106  0.3597
  426TMC3     H 6358   1.213   1.044  17.123  1.1685  1.7419  0.5785
  426TMC3    H1 6359   1.374   0.982  17.512 -1.7696 -1.6174  0.9130
  426TMC3    H2 6360   1.355   0.664  17.227 -0.5067  0.2191 -2.1228
  426TMC3    C7 6361   1.382   0.710  17.483  0.0557  0.2467 -1.2816
  426TMC3    C8 6362   1.167   0.796  17.088  0.2550  0.0876  0.4733
  426TMC3    O1 6363   1.450   0.608  17.471 -0.1076  0.0716  0.2835
  426TMC3    O2 6364   1.190   0.699  17.017 -0.4538  0.0647 -0.2164
  427MPD2     C 6365   4.168   3.530  15.066 -0.3294  0.0492 -0.7941
  427MPD2    C1 6366   4.112   3.405  15.090 -0.5228 -0.1108  0.0203
  427MPD2    C2 6367   3.980   3.379  15.074  0.6421  0.3897  0.8194
  427MPD2    C3 6368   3.890   3.481  15.038 -0.1729 -0.2296  0.3646
  427MPD2    C4 6369   3.950   3.607  15.014  0.1223 -0.5066 -0.0866
  427MPD2    C5 6370   4.087   3.638  15.026  0.3585  0.4820  0.1678
  427MPD2     H 6371   3.950   3.278  15.101 -0.5277  1.0610  1.9849
  427MPD2    H1 6372   3.889   3.694  14.995 -0.3931 -0.3932  2.0695
  427MPD2    H2 6373   4.273   3.551  15.083 -0.7384  0.9762  0.6895
  427MPD2    H3 6374   4.130   3.737  15.018 -2.0329  1.4589 -0.5556
  427MPD2     N 6375   3.752   3.468  15.017 -0.4856 -0.0939 -0.0926
  427MPD2    H5 6376   3.698   3.548  14.984  2.4863  1.4364 -1.1929
  427MPD2    N1 6377   4.191   3.295  15.133 -0.2884  0.2099 -0.3222
  427MPD2    H7 6378   4.151   3.205  15.158  0.3850  0.6738  2.4479
  428TMC3    C1 6379   4.395   3.170  15.166 -0.1642 -0.1554 -0.0162
  428TMC3    C2 6380   4.329   3.049  15.157  0.9908 -0.0692  0.4143
  428TMC3    C3 6381   4.401   2.942  15.210 -0.1162  0.3269 -0.2148
  428TMC3    C4 6382   4.521   3.187  15.215  0.1753  0.6486  0.3448
  428TMC3    C5 6383   4.586   3.079  15.262  0.2858 -0.1761  0.0695
  428TMC3    C6 6384   4.527   2.957  15.267  0.2365  0.2632 -0.5331
  428TMC3     C 6385   4.331   3.292  15.129 -0.5920 -0.8168  0.0494
  428TMC3     O 6386   4.407   3.378  15.084  0.0884  0.1868 -0.1306
  428TMC3     H 6387   4.244   3.035  15.090  1.0044  0.5527  0.2644
  428TMC3    H1 6388   4.569   3.284  15.223  2.5038 -0.0637 -5.1072
  428TMC3    H2 6389   4.577   2.864  15.293  1.1118  0.5459 -1.2085
  428TMC3    C7 6390   0.002   3.086  15.300 -0.5944  0.0062  1.0827
  428TMC3    C8 6391   4.359   2.807  15.175  0.7405  0.8367 -0.2885
  428TMC3    O1 6392   0.033   3.031  15.399 -0.0595 -0.3433 -0.6805
  428TMC3    O2 6393   4.443   2.715  15.172 -0.0381  0.5516  0.6698
  429MPD2     C 6394   0.108   3.538   0.101  0.4431  0.1245  0.2087
  429MPD2    C1 6395   0.216   3.474   0.036  0.0869  1.1088 -0.1103
  429MPD2    C2 6396   0.260   3.518  17.612 -0.3446  0.3914 -0.0636
  429MPD2    C3 6397   0.195   3.628  17.557 -0.2856 -0.4123  0.1413
  429MPD2    C4 6398   0.099   3.699  17.627 -0.8495  0.0928 -0.1401
  429MPD2    C5 6399   0.053   3.651   0.046  0.8176  0.2813 -0.5897
  429MPD2     H 6400   0.327   3.457  17.553  0.3955 -0.7252  1.9248
  429MPD2    H1 6401   0.062   3.790  17.583  0.6283  0.1349 -1.3110
  429MPD2    H2 6402   0.062   3.496   0.190  2.0755 -0.9864  0.5417
  429MPD2    H3 6403   4.696   3.699   0.100 -0.1815  1.5443 -3.2591
  429MPD2     N 6404   0.233   3.665  17.421  0.3570  0.1588 -0.4404
  429MPD2    H5 6405   0.317   3.627  17.378  0.5897  0.8849 -0.6264
  429MPD2    N1 6406   0.263   3.358   0.106  0.1198 -0.2755  0.1899
  429MPD2    H7 6407   0.221   3.341   0.197  0.2042  2.0087  0.6444
  430TMC3    C1 6408   0.233   3.781  17.218 -0.0800  0.8098 -0.4618
  430TMC3    C2 6409   0.168   3.757  17.101  0.4386  0.3568  0.2796
  430TMC3    C3 6410   0.243   3.756  16.985 -0.5182  0.5948  0.1329
  430TMC3    C4 6411   0.362   3.803  17.224  0.1618 -0.3973  0.5855
  430TMC3    C5 6412   0.433   3.819  17.112  0.8166  0.0067  0.2195
  430TMC3    C6 6413   0.374   3.794  16.993 -0.0202 -0.4346  0.4555
  430TMC3     C 6414   0.161   3.742  17.341  0.0808 -0.4234  0.2831
  430TMC3     O 6415   0.045   3.771  17.349 -0.0215 -0.2287  0.7447
  430TMC3     H 6416   0.062   3.735  17.106  0.0534  2.3590  0.9383
  430TMC3    H1 6417   0.421   3.831  17.311  1.0775  0.0994 -0.1904
  430TMC3    H2 6418   0.427   3.784  16.900  1.1973 -1.6901  1.2844
  430TMC3    C7 6419   0.577   3.830  17.127  0.0200  0.4162  0.2968
  430TMC3    C8 6420   0.193   3.711  16.853 -0.0073 -1.1141  0.2658
  430TMC3    O1 6421   0.621   3.894  17.221  0.0630 -0.2063  0.2310
  430TMC3    O2 6422   0.267   3.717  16.760 -0.1848  0.4533 -0.2348
  431MPD2     C 6423   1.031   4.003  12.361 -1.0211  0.6170 -0.3323
  431MPD2    C1 6424   1.125   3.970  12.265 -0.4076 -0.2730 -0.5283
  431MPD2    C2 6425   1.145   3.835  12.226 -0.4380 -0.2436  0.2059
  431MPD2    C3 6426   1.073   3.741  12.303  0.5620  0.3416  0.0928
  431MPD2    C4 6427   0.990   3.778  12.407  0.2207  0.0587 -0.4823
  431MPD2    C5 6428   0.967   3.908  12.436  0.5051  0.5259 -0.2614
  431MPD2     H 6429   1.205   3.812  12.139  1.0305  1.5208  0.7408
  431MPD2    H1 6430   0.958   3.696  12.470 -3.2735  1.8505  0.0888
  431MPD2    H2 6431   1.005   4.107  12.377  2.0639  0.8646  2.9936
  431MPD2    H3 6432   0.900   3.927  12.519  0.4237 -3.3625  0.5265
  431MPD2     N 6433   1.091   3.604  12.273  0.2125 -0.0664 -0.2105
  431MPD2    H5 6434   1.040   3.535  12.327  0.6490 -0.4978 -0.3544
  431MPD2    N1 6435   1.201   4.074  12.211  0.1196 -0.0010  0.4364
  431MPD2    H7 6436   1.195   4.165  12.254 -1.7833 -0.0951  0.3797
  432TMC3    C1 6437   1.133   3.420  12.133 -0.0060  0.4967 -0.3104
  432TMC3    C2 6438   1.131   3.385  12.000  0.6830 -0.2638 -0.5979
  432TMC3    C3 6439   1.136   3.255  11.966 -0.7251  0.4452  0.1565
  432TMC3    C4 6440   1.129   3.329  12.236 -0.3028 -0.7148 -0.1919
  432TMC3    C5 6441   1.141   3.200  12.194  0.6009 -0.0931 -0.0934
  432TMC3    C6 6442   1.147   3.160  12.067 -0.3265  0.0367 -0.8798
  432TMC3     C 6443   1.154   3.557  12.156  0.6035 -0.0436  0.7136
  432TMC3     O 6444   1.244   3.607  12.092  0.3471  0.3444 -0.4187
  432TMC3     H 6445   1.153   3.464  11.928 -2.4395  1.7738  0.6914
  432TMC3    H1 6446   1.133   3.365  12.338  1.1251 -1.2318 -0.0699
  432TMC3    H2 6447   1.162   3.057  12.037  2.1723 -0.3988  1.8887
  432TMC3    C7 6448   1.166   3.103  12.302  0.0983  0.2233 -0.3850
  432TMC3    C8 6449   1.215   3.224  11.846  0.0523  0.4369 -0.2395
  432TMC3    O1 6450   1.156   2.984  12.270  0.0277 -0.5842 -0.5194
  432TMC3    O2 6451   1.161   3.257  11.740  0.5378  0.1256 -0.8863
  433MPD2     C 6452   0.715   2.677  11.173  0.1972  0.0443  0.1780
  433MPD2    C1 6453   0.595   2.606  11.168  0.1458  0.1123 -0.0406
  433MPD2    C2 6454   0.510   2.609  11.279  1.1125 -0.2728 -0.2191
  433MPD2    C3 6455   0.551   2.671  11.397 -0.2898  0.2493  0.5593
  433MPD2    C4 6456   0.668   2.739  11.398 -0.4599 -0.4036  0.4308
  433MPD2    C5 6457   0.756   2.723  11.292  0.8054  1.2108  0.8617
  433MPD2     H 6458   0.408   2.575  11.274  1.2484 -0.9475  1.8091
  433MPD2    H1 6459   0.707   2.795  11.482 -0.1910 -0.4535  0.3393
  433MPD2    H2 6460   0.788   2.675  11.094  1.3747 -0.5246  1.2819
  433MPD2    H3 6461   0.857   2.762  11.295  0.1523  3.0121 -0.6942
  433MPD2     N 6462   0.467   2.666  11.512 -0.0616 -0.3025 -0.7933
  433MPD2    H5 6463   0.395   2.595  11.513 -1.3200  0.9930  1.3048
  433MPD2    N1 6464   0.575   2.533  11.053 -0.0224  0.0390 -0.4431
  433MPD2    H7 6465   0.643   2.541  10.978 -1.1790 -2.2847 -1.7689
  434TMC3    C1 6466   0.551   2.322  10.992 -0.5844  0.3258  0.1715
  434TMC3    C2 6467   0.641   2.279  11.083  0.1265 -0.1559 -0.6485
  434TMC3    C3 6468   0.748   2.205  11.040  0.0218  0.2459 -0.7873
  434TMC3    C4 6469   0.575   2.310  10.858 -0.4205  0.0977  0.2721
  434TMC3    C5 6470   0.689   2.243  10.820 -0.9359 -0.4815 -0.2829
  434TMC3    C6 6471   0.781   2.184  10.910 -0.0600 -0.1460  0.0678
  434TMC3     C 6472   0.483   2.433  11.040  0.2546 -0.0254  0.2008
  434TMC3     O 6473   0.385   2.414  11.111  0.2098  1.1223  0.3347
  434TMC3     H 6474   0.607   2.278  11.185  0.6229 -2.6481 -0.5025
  434TMC3    H1 6475   0.505   2.356  10.789  1.4792  0.8456 -1.1344
  434TMC3    H2 6476   0.876   2.158  10.866  1.3259  2.0487  1.7604
  434TMC3    C7 6477   0.707   2.230  10.679 -0.2505  0.5170 -0.9346
  434TMC3    C8 6478   0.832   2.153  11.144 -0.5363 -0.1983  0.1388
  434TMC3    O1 6479   0.691   2.330  10.614  0.8889 -0.0702  0.2469
  434TMC3    O2 6480   0.804   2.176  11.257  0.2028  0.3107  0.5235
  435MPD2     C 6481   2.524   1.942  15.356  0.4611 -0.2719  0.4682
  435MPD2    C1 6482   2.465   1.917  15.482  0.4420  0.3508 -0.7555
  435MPD2    C2 6483   2.545   1.846  15.568 -0.0443 -0.0137 -0.4382
  435MPD2    C3 6484   2.666   1.788  15.535 -0.4355  0.3534 -0.1686
  435MPD2    C4 6485   2.717   1.807  15.415  0.4207  0.2425  0.4207
  435MPD2    C5 6486   2.645   1.891  15.327 -0.5717 -0.3971  0.9161
  435MPD2     H 6487   2.506   1.828  15.667  1.5722 -0.5971  0.1020
  435MPD2    H1 6488   2.818   1.774  15.390  0.7450  4.0038 -3.1308
  435MPD2    H2 6489   2.472   1.985  15.271  0.4987 -0.1887  0.4880
  435MPD2    H3 6490   2.673   1.901  15.223 -1.0800  1.9023  0.9944
  435MPD2     N 6491   2.741   1.727  15.638 -0.1202  0.0125 -0.8855
  435MPD2    H5 6492   2.706   1.749  15.731 -2.8377  0.4278 -2.0011
  435MPD2    N1 6493   2.339   1.973  15.515  0.3447  0.9736  0.5170
  435MPD2    H7 6494   2.309   1.949  15.609  0.1623 -0.3906  0.1066
  436TMC3    C1 6495   2.014   2.117  15.704  0.2802  0.0839 -0.0093
  436TMC3    C2 6496   2.133   2.109  15.633 -0.1306  0.0761  0.3706
  436TMC3    C3 6497   2.123   2.074  15.504 -0.0841 -0.5074 -1.6085
  436TMC3    C4 6498   1.892   2.095  15.643 -0.2034  0.2878  0.7948
  436TMC3    C5 6499   1.895   2.043  15.522 -0.1950  0.1471  0.0983
  436TMC3    C6 6500   2.009   2.043  15.444  0.1144  0.5937 -0.4287
  436TMC3     C 6501   2.028   2.153  15.848 -0.8063 -0.4449  0.7032
  436TMC3     O 6502   2.133   2.207  15.879  0.2473  0.0385  0.3716
  436TMC3     H 6503   2.230   2.136  15.674  1.8758 -1.6793 -3.2182
  436TMC3    H1 6504   1.800   2.109  15.699 -1.1631  1.9496 -1.2046
  436TMC3    H2 6505   2.016   2.027  15.337  0.8804  2.8060 -0.7184
  436TMC3    C7 6506   1.774   2.013  15.448  0.1865  0.1057 -0.3077
  436TMC3    C8 6507   2.247   2.035  15.433  0.7145 -0.8926  0.3265
  436TMC3    O1 6508   1.783   2.002  15.325  0.8206  0.3349 -0.1309
  436TMC3    O2 6509   2.248   2.057  15.314  0.3909  0.6399 -0.3439
  437TMC3    C1 6510   0.678   4.691  12.625  0.3372  0.4132  0.2812
  437TMC3    C2 6511   0.549   4.695  12.596  1.2362 -0.0372  0.3288
  437TMC3    C3 6512   0.507   0.056  12.498 -0.0556  0.1185 -0.1051
  437TMC3    C4 6513   0.774   0.049  12.562  0.7093  0.2448  0.6922
  437TMC3    C5 6514   0.723   0.138  12.468 -0.5567 -0.4366  0.6826
  437TMC3    C6 6515   0.594   0.144  12.432 -0.0530  0.2732 -0.5218
  437TMC3     C 6516   0.719   4.613  12.739 -0.2581 -1.1048  0.6345
  437TMC3     O 6517   0.620   4.558  12.795  0.4835 -0.0739  0.2152
  437TMC3     H 6518   0.487   4.621  12.646 -0.0661  0.1219 -1.0547
  437TMC3    H1 6519   0.881   0.034  12.565  0.9720  2.1180  0.7780
  437TMC3    H2 6520   0.564   0.210  12.351  0.0700  2.9928  1.6829
  437TMC3    C7 6521   0.811   0.220  12.392  0.3403  0.2523  0.9100
  437TMC3    C8 6522   0.361   0.077  12.500 -0.2914  1.0197 -0.1755
  437TMC3    O1 6523   0.767   0.275  12.293  0.7466  0.0814 -0.0810
  437TMC3    O2 6524   0.297   4.713  12.558 -0.1468  0.7209  0.3211
  438MPD2     C 6525   3.128   4.550  16.644  0.2715 -0.3410 -0.0446
  438MPD2    C1 6526   3.251   4.508  16.692 -0.1192 -0.5038  0.4657
  438MPD2    C2 6527   3.276   4.537  16.823  0.0273  0.0400  0.3226
  438MPD2    C3 6528   3.177   4.591  16.901 -0.0288 -0.7024  0.3903
  438MPD2    C4 6529   3.052   4.629  16.855 -0.1235  0.2574  0.1344
  438MPD2    C5 6530   3.036   4.619  16.718 -0.0292  0.3410 -0.1219
  438MPD2     H 6531   3.377   4.518  16.857  0.5703  3.6686  0.6966
  438MPD2    H1 6532   2.975   4.681  16.911 -1.6126 -1.2730 -0.4989
  438MPD2    H2 6533   3.079   4.526  16.550  0.2182 -0.7203  0.0780
  438MPD2    H3 6534   2.942   4.638  16.668 -0.0118  4.2208  1.2802
  438MPD2     N 6535   3.200   4.617  17.038 -0.6492  0.9603 -0.0856
  438MPD2    H5 6536   3.110   4.631  17.083 -1.2527 -0.6320 -0.7869
  438MPD2    N1 6537   3.345   4.426  16.616  0.4746  0.1069 -1.0736
  438MPD2    H7 6538   3.437   4.401  16.650 -0.2245 -1.5589 -0.3667
  439TMC3    C1 6539   3.410   4.271  16.463 -0.8419  0.1306  0.5318
  439TMC3    C2 6540   3.354   4.148  16.446 -0.2800 -0.3471  0.9542
  439TMC3    C3 6541   3.427   4.037  16.485 -0.3355 -0.1760  0.2017
  439TMC3    C4 6542   3.539   4.290  16.511 -0.3059 -0.5858 -0.3765
  439TMC3    C5 6543   3.601   4.178  16.558  0.0155  0.3498  0.2534
  439TMC3    C6 6544   3.552   4.051  16.540 -0.1554 -0.7349 -1.1458
  439TMC3     C 6545   3.307   4.369  16.495  0.3579  0.6365 -0.0467
  439TMC3     O 6546   3.196   4.358  16.449 -0.0188  0.2021  0.5554
  439TMC3     H 6547   3.257   4.129  16.401 -0.6328  0.2792  1.4538
  439TMC3    H1 6548   3.578   4.389  16.533  2.0257 -1.3734 -0.9558
  439TMC3    H2 6549   3.613   3.970  16.577  1.1893 -0.4299 -2.6583
  439TMC3    C7 6550   3.729   4.199  16.627  0.5592 -0.2919 -0.6576
  439TMC3    C8 6551   3.407   3.906  16.428  0.4649  0.2843  0.0527
  439TMC3    O1 6552   3.763   4.111  16.704  0.1806 -0.9433  0.1086
  439TMC3    O2 6553   3.510   3.855  16.387  0.2504  0.3700 -0.1980
  440MPD2     C 6554   2.175   0.609  14.382 -0.2091 -0.2514  0.3340
  440MPD2    C1 6555   2.176   0.645  14.515  0.0709 -0.1982  0.4464
  440MPD2    C2 6556   2.279   0.591  14.599 -0.5434 -0.6743  0.6216
  440MPD2    C3 6557   2.370   0.492  14.557 -0.1777 -0.1474  0.1144
  440MPD2    C4 6558   2.364   0.462  14.421  0.3413  0.2874  0.2310
  440MPD2    C5 6559   2.273   0.518  14.338  0.4938  0.4324 -0.1911
  440MPD2     H 6560   2.283   0.614  14.704 -2.0923  1.1830  0.2704
  440MPD2    H1 6561   2.438   0.392  14.383  0.8636  1.7107 -1.3875
  440MPD2    H2 6562   2.100   0.649  14.314  1.0018 -0.1520 -0.9412
  440MPD2    H3 6563   2.279   0.493  14.233  0.6284 -1.6921  0.3265
  440MPD2     N 6564   2.451   0.429  14.652  0.0775  0.1893  0.6223
  440MPD2    H5 6565   2.435   0.455  14.749 -0.9153 -0.7116  0.7035
  440MPD2    N1 6566   2.079   0.729  14.578 -0.8527 -0.0987 -0.3136
  440MPD2    H7 6567   2.107   0.762  14.670 -0.1232  0.5997 -0.7853
  441TMC3    C1 6568   2.619   0.311  14.742  0.6591  1.0500  0.3462
  441TMC3    C2 6569   2.648   0.433  14.808 -0.6017  0.1020 -0.4155
  441TMC3    C3 6570   2.723   0.418  14.922  0.6760 -0.1167  0.4738
  441TMC3    C4 6571   2.659   0.188  14.790  0.0554 -0.4315 -0.5000
  441TMC3    C5 6572   2.711   0.187  14.915  0.1851  0.3789  0.0320
  441TMC3    C6 6573   2.741   0.300  14.991 -0.1673 -0.3663  0.0015
  441TMC3     C 6574   2.529   0.317  14.631  0.4038 -0.5467 -0.0801
  441TMC3     O 6575   2.546   0.249  14.534 -0.4821  0.4441  0.2141
  441TMC3     H 6576   2.628   0.531  14.766 -0.9217  0.9217  1.6459
  441TMC3    H1 6577   2.621   0.097  14.745 -1.1422  0.3356 -1.0282
  441TMC3    H2 6578   2.783   0.298  15.091 -1.0604 -1.8504  0.3568
  441TMC3    C7 6579   2.723   0.069  14.988 -0.8327 -0.4318 -0.8355
  441TMC3    C8 6580   2.719   0.539  14.998  0.0931 -0.6720 -0.2603
  441TMC3    O1 6581   2.785   0.083  15.094  0.1819 -0.3745  0.8415
  441TMC3    O2 6582   2.808   0.542  15.081 -0.6048  0.1969 -0.5067
  442MPD2     C 6583   0.615   1.025  16.505 -0.1513  0.1390  0.0695
  442MPD2    C1 6584   0.525   0.930  16.554  0.5618  0.3473  0.2375
  442MPD2    C2 6585   0.484   0.827  16.475  0.2343 -0.1821  0.1507
  442MPD2    C3 6586   0.523   0.820  16.345 -0.1528 -0.2459  0.2535
  442MPD2    C4 6587   0.615   0.909  16.299  0.0669  0.0381  0.2193
  442MPD2    C5 6588   0.667   1.005  16.382 -0.3397 -0.2490 -0.2361
  442MPD2     H 6589   0.414   0.754  16.514 -2.3272  2.0329 -0.3765
  442MPD2    H1 6590   0.657   0.915  16.200 -1.3789 -2.0258 -0.5081
  442MPD2    H2 6591   0.642   1.115  16.558 -2.1460 -0.3539  1.9412
  442MPD2    H3 6592   0.733   1.078  16.336 -1.3521  0.9306  0.1858
  442MPD2     N 6593   0.483   0.729  16.245  0.6503  0.0658 -0.3044
  442MPD2    H5 6594   0.530   0.732  16.155  2.3677  0.6508  0.6122
  442MPD2    N1 6595   0.464   0.937  16.681 -0.3300 -0.0179  0.1178
  442MPD2    H7 6596   0.394   0.866  16.699 -0.0798 -0.2669  0.1049
  443TMC3    C1 6597   0.376   1.018  16.878  0.6392  0.5057 -0.3791
  443TMC3    C2 6598   0.282   1.123  16.895  0.2105  0.5824  0.5020
  443TMC3    C3 6599   0.155   1.083  16.935 -0.3219  1.0908  0.0135
  443TMC3    C4 6600   0.334   0.885  16.904 -0.3855 -0.4918  0.4003
  443TMC3    C5 6601   0.221   0.869  16.986 -0.1276  0.4198 -0.5310
  443TMC3    C6 6602   0.129   0.965  16.999  0.3325 -0.1331 -0.0063
  443TMC3     C 6603   0.468   1.042  16.769  1.1056 -0.0451  0.0704
  443TMC3     O 6604   0.519   1.151  16.754  0.6069  0.6462 -0.0447
  443TMC3     H 6605   0.303   1.218  16.848  2.0108  0.7274  1.6241
  443TMC3    H1 6606   0.396   0.798  16.888 -1.7369 -1.1480 -1.3219
  443TMC3    H2 6607   0.035   0.955  17.053  0.5567  0.6795  0.5338
  443TMC3    C7 6608   0.164   0.740  17.016  1.3072 -0.2261 -0.3053
  443TMC3    C8 6609   0.057   1.103  16.834  0.1602  0.2556  0.7620
  443TMC3    O1 6610   0.191   0.650  16.938  0.2114  0.6356 -0.1396
  443TMC3    O2 6611   0.002   0.997  16.797 -0.5416 -0.0911 -0.8469
  444MPD2     C 6612   0.710   0.469  16.930  0.4162  0.5317  0.5215
  444MPD2    C1 6613   0.605   0.388  16.891  0.3557 -0.3485  0.1272
  444MPD2    C2 6614   0.614   0.313  16.778  0.3255 -0.1578 -0.5463
  444MPD2    C3 6615   0.734   0.286  16.724 -0.3267  0.0595  0.5282
  444MPD2    C4 6616   0.842   0.349  16.777  0.2275 -0.1502  0.5465
  444MPD2    C5 6617   0.831   0.435  16.875 -0.2933  0.3114  0.3750
  444MPD2     H 6618   0.525   0.258  16.751  0.4776 -1.6196  1.9318
  444MPD2    H1 6619   0.940   0.336  16.732 -0.4128  2.4051 -1.6567
  444MPD2    H2 6620   0.713   0.540  17.011 -0.1416 -0.8658  1.7659
  444MPD2    H3 6621   0.921   0.485  16.910  0.6930  1.4681 -3.8361
  444MPD2     N 6622   0.736   0.195  16.618 -0.0291  0.1480  0.2876
  444MPD2    H5 6623   0.647   0.169  16.579  0.5305  3.2404 -3.0657
  444MPD2    N1 6624   0.482   0.388  16.967 -0.5157  0.1949  0.1102
  444MPD2    H7 6625   0.411   0.319  16.948  0.1239 -0.8395  1.4871
  445TMC3    C1 6626   0.834   0.040  16.466  0.0512 -0.5246  0.3900
  445TMC3    C2 6627   0.731   4.680  16.480  0.5569  0.5894 -0.4310
  445TMC3    C3 6628   0.740   4.569  16.404  0.1790 -0.7633 -0.3003
  445TMC3    C4 6629   0.944   0.019  16.392  0.1687 -0.3603 -0.2460
  445TMC3    C5 6630   0.945   4.628  16.315 -0.8962  0.6906  0.0274
  445TMC3    C6 6631   0.845   4.535  16.325 -0.3040 -0.5377  0.0735
  445TMC3     C 6632   0.851   0.134  16.571 -0.8141  0.0978 -0.2755
  445TMC3     O 6633   0.971   0.151  16.597  0.5461  0.0133 -0.6782
  445TMC3     H 6634   0.643   4.705  16.539 -0.1812 -2.8642 -0.0621
  445TMC3    H1 6635   1.025   0.091  16.387 -1.1689  1.2120  0.8079
  445TMC3    H2 6636   0.853   4.440  16.273  0.0803  0.1899 -1.2056
  445TMC3    C7 6637   1.078   4.583  16.279 -0.2353  0.1321  0.3486
  445TMC3    C8 6638   0.626   4.475  16.403  0.3866  0.5178 -0.7735
  445TMC3    O1 6639   1.159   4.673  16.270  0.0576  0.3942 -0.0074
  445TMC3    O2 6640   0.625   4.407  16.299 -0.2597 -0.5773  0.4231
  446MPD2     C 6641   0.413   2.164  11.673 -0.1522 -0.1508 -0.0064
  446MPD2    C1 6642   0.439   2.140  11.537  0.1253 -0.8552  0.1891
  446MPD2    C2 6643   0.554   2.191  11.478 -1.2077 -0.0337  0.1125
  446MPD2    C3 6644   0.634   2.283  11.541  0.0344  0.4713  0.7489
  446MPD2    C4 6645   0.608   2.310  11.671  0.0582 -0.1684 -0.7555
  446MPD2    C5 6646   0.505   2.245  11.733 -1.1619  0.0647  0.5078
  446MPD2     H 6647   0.579   2.149  11.381 -2.6752 -1.6936  0.4428
  446MPD2    H1 6648   0.674   2.367  11.735 -1.6456 -0.8267  1.6078
  446MPD2    H2 6649   0.329   2.121  11.725 -0.8908 -0.4513 -1.4591
  446MPD2    H3 6650   0.494   2.253  11.841  1.9523 -0.2718  0.8446
  446MPD2     N 6651   0.757   2.327  11.482 -0.9404  0.5711  0.0213
  446MPD2    H5 6652   0.776   2.285  11.392 -1.1329  0.4686  0.0277
  446MPD2    N1 6653   0.356   2.056  11.462 -0.4677 -0.2172  0.3598
  446MPD2    H7 6654   0.380   2.047  11.364 -0.6778 -1.2495  0.4016
  447TMC3    C1 6655   0.975   2.415  11.444  0.8289  0.3310  0.3826
  447TMC3    C2 6656   0.965   2.430  11.309 -0.0656 -0.8146  0.0899
  447TMC3    C3 6657   1.079   2.438  11.235  0.3948 -0.1779 -0.5409
  447TMC3    C4 6658   1.103   2.397  11.500 -0.3559  0.0025 -0.2134
  447TMC3    C5 6659   1.214   2.407  11.421  0.1543  0.3814  0.1111
  447TMC3    C6 6660   1.206   2.425  11.289 -0.5664 -0.6162  0.2380
  447TMC3     C 6661   0.860   2.400  11.536 -0.6243 -0.4343  0.0830
  447TMC3     O 6662   0.860   2.472  11.636  0.2909  0.3435 -0.2049
  447TMC3     H 6663   0.868   2.444  11.263  0.1868 -1.3973 -0.6103
  447TMC3    H1 6664   1.109   2.381  11.607  0.5034  0.1451 -0.2364
  447TMC3    H2 6665   1.297   2.443  11.233 -0.8495  1.3742  0.4001
  447TMC3    C7 6666   1.336   2.352  11.474 -0.2883  0.0311  0.0217
  447TMC3    C8 6667   1.078   2.438  11.086  0.0315 -0.0074 -0.1177
  447TMC3    O1 6668   1.407   2.296  11.394 -0.7969  0.3666  0.2624
  447TMC3    O2 6669   0.981   2.470  11.022  0.0453 -0.3650  0.3371
  448TMC3    C1 6670   3.545   1.537  17.070  0.2369  0.3880  0.1118
  448TMC3    C2 6671   3.590   1.540  16.943  0.1840 -1.0376 -0.3359
  448TMC3    C3 6672   3.713   1.496  16.912  0.3139 -0.6103 -0.0947
  448TMC3    C4 6673   3.625   1.491  17.175 -0.1170 -0.0078  0.1143
  448TMC3    C5 6674   3.749   1.443  17.141  0.3976 -0.2341  0.1149
  448TMC3    C6 6675   3.802   1.454  17.015 -0.1225 -0.6289  0.6135
  448TMC3     C 6676   3.416   1.602  17.089  0.2278  0.3571  0.4160
  448TMC3     O 6677   3.349   1.630  16.990  0.1412 -0.1810 -0.2488
  448TMC3     H 6678   3.518   1.574  16.869 -0.5598 -1.2774  0.2816
  448TMC3    H1 6679   3.592   1.489  17.278  0.7808 -1.1672  0.3769
  448TMC3    H2 6680   3.894   1.399  16.994  0.5040  0.7270 -0.1787
  448TMC3    C7 6681   3.819   1.371  17.246  0.3594 -0.0376 -0.0488
  448TMC3    C8 6682   3.717   1.396  16.801  0.4015 -1.2494 -0.0694
  448TMC3    O1 6683   3.935   1.349  17.226  0.0943  0.0282 -0.4159
  448TMC3    O2 6684   3.790   1.301  16.825  0.7864  0.5742 -0.2860
  449MPD2     C 6685   4.703   4.474  13.947 -0.3696 -0.0713  0.6557
  449MPD2    C1 6686   4.572   4.448  13.966  0.4243 -0.1393 -0.2502
  449MPD2    C2 6687   4.542   4.335  14.036  0.3436 -0.0591 -0.1140
  449MPD2    C3 6688   4.641   4.263  14.104  0.9170 -0.3824  0.3542
  449MPD2    C4 6689   0.051   4.298  14.090 -0.4725 -0.6717 -1.1236
  449MPD2    C5 6690   0.078   4.402  14.013 -0.4461 -0.0137  0.1220
  449MPD2     H 6691   4.440   4.296  14.038 -0.3074  1.6797  1.0419
  449MPD2    H1 6692   0.129   4.244  14.144 -1.4401 -0.2750  0.6878
  449MPD2    H2 6693   0.013   4.560  13.891 -0.0006 -2.4305 -2.7214
  449MPD2    H3 6694   0.179   4.437  13.999 -0.2147 -1.1429 -1.0386
  449MPD2     N 6695   4.588   4.145  14.166 -0.3104  0.1694  0.6428
  449MPD2    H5 6696   4.491   4.120  14.152 -0.0906 -1.0476  1.3429
  449MPD2    N1 6697   4.462   4.524  13.924 -0.2646 -1.2856  0.2267
  449MPD2    H7 6698   4.378   4.504  13.977 -0.2772 -0.8493  0.3693
  450TMC3    C1 6699   4.330   4.646  13.779 -0.3542  0.2528 -0.1630
  450TMC3    C2 6700   4.314   4.691  13.650 -0.1840 -0.3068 -0.1911
  450TMC3    C3 6701   4.186   4.722  13.611 -0.1465  0.1648  0.2441
  450TMC3    C4 6702   4.230   4.623  13.869 -0.0728 -0.6592 -0.1389
  450TMC3    C5 6703   4.105   4.660  13.824  0.6204 -1.3629 -0.2575
  450TMC3    C6 6704   4.079   4.714  13.700 -0.7176  0.6934  0.3297
  450TMC3     C 6705   4.462   4.599  13.808 -0.1972 -0.2545 -0.5429
  450TMC3     O 6706   4.549   4.623  13.725 -0.4612  0.1950  0.3345
  450TMC3     H 6707   4.400   0.002  13.595 -0.6714 -1.6788 -1.8133
  450TMC3    H1 6708   4.250   4.594  13.972  0.1383 -1.0861 -0.2984
  450TMC3    H2 6709   3.976   0.011  13.673 -0.6182 -0.6379 -1.0848
  450TMC3    C7 6710   4.004   4.575  13.888 -0.0949 -0.1980  0.8535
  450TMC3    C8 6711   4.163   0.045  13.475 -1.0180  0.6702 -0.4396
  450TMC3    O1 6712   3.884   4.601  13.872 -0.7471  0.3722  0.7550
  450TMC3    O2 6713   4.064   0.119  13.450  0.2034 -0.0430  0.5548
  451MPD2     C 6714   1.144   3.422   0.752 -0.2238  0.5795 -0.2018
  451MPD2    C1 6715   1.097   3.384   0.879 -0.4197  1.0709 -0.0307
  451MPD2    C2 6716   1.180   3.341   0.979  0.3781 -0.2565 -0.3709
  451MPD2    C3 6717   1.317   3.331   0.945  0.5952 -0.1739 -0.1930
  451MPD2    C4 6718   1.363   3.364   0.820 -0.0229 -0.0894 -0.3879
  451MPD2    C5 6719   1.276   3.412   0.721  0.2559  0.4577 -0.1480
  451MPD2     H 6720   1.149   3.304   1.076  1.3173  1.5962  0.6333
  451MPD2    H1 6721   1.467   3.337   0.802 -0.3289 -1.1190 -0.5923
  451MPD2    H2 6722   1.077   3.454   0.673  0.0449  0.3345 -0.5259
  451MPD2    H3 6723   1.307   3.428   0.618 -2.0619 -0.4414 -0.9728
  451MPD2     N 6724   1.415   3.284   1.033 -0.1529  0.1596 -0.0456
  451MPD2    H5 6725   1.506   3.264   0.993  0.3390  0.9891  0.6451
  451MPD2    N1 6726   0.956   3.387   0.906  0.3957 -0.4299  0.0137
  451MPD2    H7 6727   0.896   3.385   0.824  0.3050  1.8324  0.0115
  452TMC3    C1 6728   1.495   3.175   1.214 -0.0589 -0.0359  0.2201
  452TMC3    C2 6729   1.567   3.206   1.327  0.4584 -0.3512  0.1203
  452TMC3    C3 6730   1.682   3.143   1.344  0.8500 -0.3052  0.2601
  452TMC3    C4 6731   1.523   3.067   1.141  0.7219 -0.6037  0.1756
  452TMC3    C5 6732   1.629   2.992   1.172  0.1229 -0.6202 -0.9492
  452TMC3    C6 6733   1.715   3.030   1.271  0.4550  0.4247 -0.6088
  452TMC3     C 6734   1.394   3.259   1.165 -0.2317  0.0068 -0.5126
  452TMC3     O 6735   1.317   3.310   1.245 -0.1995  0.1513 -0.3520
  452TMC3     H 6736   1.529   3.290   1.384  1.0860  1.2383 -1.8126
  452TMC3    H1 6737   1.472   3.043   1.048  3.3431 -1.4327 -1.0787
  452TMC3    H2 6738   1.807   2.977   1.295  0.1675  0.1358 -0.1354
  452TMC3    C7 6739   1.680   2.916   1.064 -0.1514 -0.0461  0.3144
  452TMC3    C8 6740   1.741   3.161   1.475 -0.2492 -0.5601 -0.6085
  452TMC3    O1 6741   1.597   2.879   0.987 -0.5763 -0.0149 -0.1818
  452TMC3    O2 6742   1.811   3.069   1.506  0.3027 -0.2135  0.0941
  453TMC3    C1 6743   2.626   1.002  11.646  0.7560  0.1236 -0.4199
  453TMC3    C2 6744   2.520   0.948  11.711 -0.0083  0.1759  0.2122
  453TMC3    C3 6745   2.414   0.912  11.633 -0.4914  0.6205 -0.6383
  453TMC3    C4 6746   2.636   1.009  11.511  0.0671  0.2874 -0.1289
  453TMC3    C5 6747   2.523   0.980  11.441  0.4130  0.0141 -0.0282
  453TMC3    C6 6748   2.417   0.928  11.499 -0.6142  0.1926 -0.1581
  453TMC3     C 6749   2.748   1.019  11.721  0.1498 -0.0273 -0.7144
  453TMC3     O 6750   2.839   1.075  11.663  0.0588 -0.8235  0.1451
  453TMC3     H 6751   2.508   0.937  11.818  0.1423  1.2619  0.3403
  453TMC3    H1 6752   2.720   1.059  11.464  0.2874 -0.8931 -0.9960
  453TMC3    H2 6753   2.332   0.892  11.441 -0.2454 -3.0727  1.3518
  453TMC3    C7 6754   2.527   0.965  11.302 -0.1304  0.2395 -0.8821
  453TMC3    C8 6755   2.304   0.837  11.678 -0.2278 -0.3333 -0.0843
  453TMC3    O1 6756   2.441   0.906  11.240  0.4937  0.4492 -0.3028
  453TMC3    O2 6757   2.199   0.832  11.615 -0.2935 -0.4055 -0.0072
  454MPD2     C 6758   1.500   0.172  16.251  0.1506  0.3677 -1.2831
  454MPD2    C1 6759   1.394   0.179  16.162 -0.5501  1.0462 -1.0204
  454MPD2    C2 6760   1.294   0.277  16.166 -0.2068  0.8210 -0.5415
  454MPD2    C3 6761   1.289   0.360  16.274 -0.0336 -0.2007 -0.1110
  454MPD2    C4 6762   1.394   0.356  16.366 -0.3816 -0.3876 -0.3398
  454MPD2    C5 6763   1.492   0.256  16.360  0.3093 -0.9017  0.3430
  454MPD2     H 6764   1.216   0.273  16.091 -0.2115 -0.6671 -0.4480
  454MPD2    H1 6765   1.401   0.426  16.449  1.7848 -1.4411  0.3722
  454MPD2    H2 6766   1.569   0.089  16.250 -1.6726 -1.1630  0.3583
  454MPD2    H3 6767   1.571   0.258  16.434 -0.8313  0.2945  1.5255
  454MPD2     N 6768   1.186   0.450  16.292  0.1114 -0.0109 -0.2542
  454MPD2    H5 6769   1.191   0.534  16.349 -0.2986 -1.2552  1.6173
  454MPD2    N1 6770   1.386   0.095  16.050  0.3002 -0.4982 -0.4135
  454MPD2    H7 6771   1.307   0.114  15.989  0.8953 -0.0202 -1.0280
  455TMC3    C1 6772   0.969   0.534  16.267  0.3073  1.5628  0.3940
  455TMC3    C2 6773   0.994   0.608  16.378  0.2793  0.4555  0.1612
  455TMC3    C3 6774   0.890   0.636  16.462 -0.5918 -0.2796  0.2695
  455TMC3    C4 6775   0.848   0.492  16.242 -0.3405 -0.1608  0.4611
  455TMC3    C5 6776   0.752   0.493  16.339 -0.2775 -0.6661  0.7327
  455TMC3    C6 6777   0.769   0.565  16.450  0.6446 -0.1188  0.3682
  455TMC3     C 6778   1.067   0.432  16.231  0.5124 -0.6041 -0.1255
  455TMC3     O 6779   1.021   0.334  16.170 -0.0426 -0.3325  0.1127
  455TMC3     H 6780   1.094   0.634  16.412  0.4542 -0.9439  0.7446
  455TMC3    H1 6781   0.832   0.444  16.146 -1.3028 -0.4081  0.7407
  455TMC3    H2 6782   0.687   0.564  16.521 -0.3577 -0.6440 -0.7949
  455TMC3    C7 6783   0.653   0.382  16.335  0.1305  0.1607  0.4346
  455TMC3    C8 6784   0.931   0.664  16.606 -0.0984  0.1459  0.5409
  455TMC3    O1 6785   0.556   0.386  16.413  0.0219  0.0325 -0.1302
  455TMC3    O2 6786   1.046   0.643  16.636 -0.4232  0.0603 -0.2604
  456MPD2     C 6787   3.675   0.035  16.133  0.1104  0.3307 -0.1530
  456MPD2    C1 6788   3.783   0.039  16.209  0.8041 -0.3056  0.5972
  456MPD2    C2 6789   3.800   0.151  16.285  0.3040 -0.2674  0.0208
  456MPD2    C3 6790   3.699   0.242  16.305  0.3276 -0.3833  0.1398
  456MPD2    C4 6791   3.581   0.232  16.237 -0.4230 -0.4851 -0.5073
  456MPD2    C5 6792   3.574   0.132  16.147  0.3396 -0.1825  0.1974
  456MPD2     H 6793   3.893   0.164  16.339  0.3593  0.9558 -0.3731
  456MPD2    H1 6794   3.496   0.297  16.251 -0.2578 -0.5512  0.7821
  456MPD2    H2 6795   3.673   4.678  16.061 -1.3131  0.0826  0.1706
  456MPD2    H3 6796   3.484   0.122  16.087  1.2760  0.2537 -1.2858
  456MPD2     N 6797   3.732   0.351  16.391  0.5723  0.1697  0.0552
  456MPD2    H5 6798   3.828   0.347  16.423  0.0195  0.2384  1.7501
  456MPD2    N1 6799   3.885   4.667  16.191 -0.0431 -0.6480 -0.3131
  456MPD2    H7 6800   3.875   4.594  16.121 -0.3847  0.5967 -1.5691
  457TMC3    C1 6801   3.696   0.536  16.533  0.6696 -0.1616 -0.2092
  457TMC3    C2 6802   3.640   0.661  16.550 -0.0142  0.0227  0.5144
  457TMC3    C3 6803   3.702   0.753  16.631  0.4576 -1.0685 -0.5817
  457TMC3    C4 6804   3.806   0.491  16.604  0.3428 -0.4961  0.2797
  457TMC3    C5 6805   3.857   0.586  16.688  0.6060 -0.7523 -0.1084
  457TMC3    C6 6806   3.807   0.711  16.706  0.5743 -0.3166 -0.7615
  457TMC3     C 6807   3.649   0.458  16.418 -0.2962 -0.4014 -0.3958
  457TMC3     O 6808   3.540   0.486  16.374  0.1378  0.5907  0.4593
  457TMC3     H 6809   3.557   0.692  16.489 -0.4881 -1.3140  0.4845
  457TMC3    H1 6810   3.842   0.388  16.604  3.1418  0.4977 -1.2427
  457TMC3    H2 6811   3.846   0.769  16.789 -2.8666 -1.1294  1.4201
  457TMC3    C7 6812   3.915   0.541  16.814  0.1973 -0.1582 -0.0792
  457TMC3    C8 6813   3.656   0.885  16.657  0.1765 -0.2900 -0.1058
  457TMC3    O1 6814   3.859   0.567  16.920  0.5063 -0.7659  0.1582
  457TMC3    O2 6815   3.700   0.941  16.757 -0.2023  0.0992  0.4728
  458MPD2     C 6816   1.268   0.463  12.301 -0.0929  0.0980  0.1682
  458MPD2    C1 6817   1.286   0.378  12.408  0.4264  0.3464  0.5237
  458MPD2    C2 6818   1.177   0.302  12.449 -0.1722  0.5178  0.3563
  458MPD2    C3 6819   1.054   0.306  12.387  0.5319  0.1923  0.1746
  458MPD2    C4 6820   1.045   0.375  12.267  0.2187 -0.4378 -0.3346
  458MPD2    C5 6821   1.148   0.457  12.231  0.4234 -1.1721 -0.2504
  458MPD2     H 6822   1.187   0.235  12.533  1.9276  0.0158 -0.2913
  458MPD2    H1 6823   0.958   0.369  12.203 -1.2902 -0.1497  1.6780
  458MPD2    H2 6824   1.347   0.529  12.267  0.7316 -0.6413  0.6380
  458MPD2    H3 6825   1.144   0.518  12.141 -1.7649 -1.5963 -0.4370
  458MPD2     N 6826   0.944   0.235  12.446 -0.5022 -0.1303  0.4775
  458MPD2    H5 6827   0.969   0.198  12.536 -0.7311  1.3220  1.1401
  458MPD2    N1 6828   1.413   0.374  12.471 -0.0099 -0.5345 -0.3642
  458MPD2    H7 6829   1.490   0.421  12.424 -1.6842  0.0468 -2.5329
  459TMC3    C1 6830   1.584   0.299  12.625  0.6924  0.1977  0.4395
  459TMC3    C2 6831   1.682   0.361  12.553  0.0052  0.1587 -0.3942
  459TMC3    C3 6832   1.812   0.358  12.608 -0.4883  0.7701  0.4051
  459TMC3    C4 6833   1.605   0.266  12.756  0.0086 -0.0722  0.1772
  459TMC3    C5 6834   1.727   0.279  12.819 -0.1080 -0.3288  0.3026
  459TMC3    C6 6835   1.833   0.314  12.736  0.4898 -0.4181  0.0360
  459TMC3     C 6836   1.439   0.308  12.592  0.5225  0.4763 -0.4641
  459TMC3     O 6837   1.360   0.267  12.676  0.2579 -0.1603 -0.2238
  459TMC3     H 6838   1.667   0.382  12.448  2.0951 -0.6820 -0.8681
  459TMC3    H1 6839   1.524   0.229  12.818 -0.2566 -1.0157 -0.7439
  459TMC3    H2 6840   1.930   0.324  12.782  0.7846  1.6136 -1.0134
  459TMC3    C7 6841   1.744   0.174  12.916 -0.5302 -0.1959 -0.5946
  459TMC3    C8 6842   1.932   0.385  12.531 -0.7410 -0.0160  0.1945
  459TMC3    O1 6843   1.649   0.095  12.933  0.3253 -0.1011 -0.1478
  459TMC3    O2 6844   2.038   0.354  12.580 -0.8312  0.2307 -0.0815
  460MPD2     C 6845   1.380   2.373  10.882 -0.6977 -0.1809  0.4049
  460MPD2    C1 6846   1.242   2.399  10.895 -0.4291 -0.2465  1.0336
  460MPD2    C2 6847   1.173   2.456  10.789  0.1339 -0.2657  0.8145
  460MPD2    C3 6848   1.235   2.468  10.663  0.2686 -0.1249 -0.5952
  460MPD2    C4 6849   1.376   2.445  10.655 -0.0094  0.2425  0.9166
  460MPD2    C5 6850   1.444   2.389  10.764  0.2559 -0.2663  0.2128
  460MPD2     H 6851   1.066   2.471  10.798 -0.1388 -1.7602  0.2380
  460MPD2    H1 6852   1.434   2.471  10.567 -0.8957  1.1040  0.5923
  460MPD2    H2 6853   1.436   2.332  10.965  0.1515 -0.9337 -0.5479
  460MPD2    H3 6854   1.549   2.363  10.755  0.2604 -0.0771 -0.3106
  460MPD2     N 6855   1.157   2.502  10.548  0.0775 -0.2316  0.0927
  460MPD2    H5 6856   1.060   2.529  10.560 -0.9675 -3.7520 -0.3780
  460MPD2    N1 6857   1.196   2.389  11.029 -0.0556 -0.9864 -0.0458
  460MPD2    H7 6858   1.266   2.354  11.094  0.4779  0.9343  0.4051
  461TMC3    C1 6859   1.107   2.518  10.316  0.0156  0.4089 -0.7225
  461TMC3    C2 6860   1.109   2.436  10.209 -0.3159 -0.2914 -0.4277
  461TMC3    C3 6861   0.997   2.438  10.130 -0.4368  0.7225  0.1300
  461TMC3    C4 6862   1.001   2.596  10.350  0.5423  0.2068  0.0931
  461TMC3    C5 6863   0.899   2.594  10.264  0.5652 -0.3079 -0.4090
  461TMC3    C6 6864   0.885   2.518  10.159 -0.9109 -0.1774  0.1243
  461TMC3     C 6865   1.205   2.492  10.418  0.1658  0.0688  0.1914
  461TMC3     O 6866   1.309   2.441  10.379 -0.0329  0.4030  0.2095
  461TMC3     H 6867   1.195   2.372  10.193 -1.1955 -1.5631 -0.0534
  461TMC3    H1 6868   1.006   2.667  10.432 -0.6735  2.2278 -1.5942
  461TMC3    H2 6869   0.817   2.537  10.077 -0.0725  3.3005  0.2269
  461TMC3    C7 6870   0.807   2.707  10.259 -0.6215 -0.1431  0.8760
  461TMC3    C8 6871   0.985   2.341  10.022  0.3196  0.1312 -0.4371
  461TMC3    O1 6872   0.750   2.729  10.156  0.0836 -0.5555 -0.6791
  461TMC3    O2 6873   1.093   2.299   9.980 -0.0439 -0.1267 -0.1100
  462TMC3    C1 6874   1.730   2.196   0.598 -0.3171 -0.0335  0.3036
  462TMC3    C2 6875   1.775   2.150   0.480 -0.1212  0.3454 -0.1478
  462TMC3    C3 6876   1.685   2.147   0.376  0.0253  0.1727  1.3492
  462TMC3    C4 6877   1.599   2.233   0.621 -0.3914  0.4396 -0.1412
  462TMC3    C5 6878   1.513   2.219   0.506 -0.0447  0.2925 -0.6293
  462TMC3    C6 6879   1.555   2.178   0.385 -0.3955  0.6786  0.3800
  462TMC3     C 6880   1.829   2.207   0.700  0.2156  0.0842  0.3356
  462TMC3     O 6881   1.926   2.132   0.696 -0.1517 -0.0279  0.2393
  462TMC3     H 6882   1.882   2.133   0.472 -0.3759 -1.6176  0.5914
  462TMC3    H1 6883   1.562   2.274   0.714  3.4674  1.6848  0.8418
  462TMC3    H2 6884   1.484   2.173   0.303 -1.4355  0.8025  1.2683
  462TMC3    C7 6885   1.380   2.267   0.510  0.3530 -0.5040  0.1445
  462TMC3    C8 6886   1.732   2.088   0.255 -0.7072  0.7469  0.1093
  462TMC3    O1 6887   1.297   2.218   0.433  0.7133  0.4206 -0.7905
  462TMC3    O2 6888   1.832   2.020   0.263  0.4578  0.1687  0.2216
  463MPD2     C 6889   1.312   2.621   2.014 -0.1950  0.1150  1.5152
  463MPD2    C1 6890   1.345   2.484   2.024  0.0721  0.1143  0.2424
  463MPD2    C2 6891   1.443   2.449   2.116  0.4401 -0.1033 -0.1735
  463MPD2    C3 6892   1.518   2.548   2.183 -0.2054 -0.2867  0.7995
  463MPD2    C4 6893   1.496   2.682   2.164 -0.1783  0.2898  0.4614
  463MPD2    C5 6894   1.396   2.715   2.075  0.4365 -0.2440  0.4544
  463MPD2     H 6895   1.470   2.346   2.133  0.8453  0.1257  0.5977
  463MPD2    H1 6896   1.549   2.766   2.207 -0.3005  0.7920 -0.3528
  463MPD2    H2 6897   1.243   2.666   1.944  0.2909 -0.9699  0.3121
  463MPD2    H3 6898   1.385   2.821   2.052  0.8785 -0.7850 -2.2470
  463MPD2     N 6899   1.621   2.516   2.271 -0.5667 -0.4741  0.3561
  463MPD2    H5 6900   1.667   2.597   2.310  1.8358 -1.8341  0.3240
  463MPD2    N1 6901   1.277   2.380   1.955 -1.2065 -0.2313  0.3324
  463MPD2    H7 6902   1.293   2.282   1.975 -0.0868 -0.1707 -0.2750
  464TMC3    C1 6903   1.134   2.275   1.804 -0.3130 -0.6305 -0.6276
  464TMC3    C2 6904   1.095   2.254   1.673 -0.4701  0.6396 -0.0772
  464TMC3    C3 6905   1.040   2.135   1.645 -0.4272 -0.5416  0.6350
  464TMC3    C4 6906   1.102   2.190   1.905 -0.1288 -0.4739 -0.2516
  464TMC3    C5 6907   1.048   2.063   1.867 -0.4584  0.5710 -0.2404
  464TMC3    C6 6908   1.025   2.035   1.732  0.1774  0.0840 -0.0861
  464TMC3     C 6909   1.192   2.402   1.848  0.4239  0.1772  0.0585
  464TMC3     O 6910   1.173   2.506   1.778  0.4720  0.2854  0.0651
  464TMC3     H 6911   1.114   2.322   1.591  0.3984  0.5977  0.0948
  464TMC3    H1 6912   1.092   2.228   2.006  1.2054  0.1858 -0.3614
  464TMC3    H2 6913   1.018   1.934   1.691  1.7502  0.4845 -1.3279
  464TMC3    C7 6914   1.041   1.952   1.964  0.2444 -0.1546  0.4080
  464TMC3    C8 6915   1.003   2.114   1.506  0.5877 -0.4304 -0.1521
  464TMC3    O1 6916   1.073   1.982   2.079 -0.2624 -0.0784 -0.2813
  464TMC3    O2 6917   1.051   2.018   1.443 -0.5478 -0.3010 -0.5082
  465MPD2     C 6918   3.162   0.081  16.215 -0.6603 -0.0358 -0.3372
  465MPD2    C1 6919   3.077   0.112  16.322  0.5151 -0.0153  0.3632
  465MPD2    C2 6920   2.944   0.123  16.287 -0.2341 -0.7425 -0.5014
  465MPD2    C3 6921   2.898   0.120  16.157  0.1479  0.0739  0.3724
  465MPD2    C4 6922   2.986   0.088  16.053  0.0073 -0.1036  0.2236
  465MPD2    C5 6923   3.111   0.063  16.085  0.1731 -0.8727 -0.6747
  465MPD2     H 6924   2.876   0.149  16.367 -1.0540  0.4235 -1.5941
  465MPD2    H1 6925   2.954   0.060  15.954 -2.9471  0.4348  1.0106
  465MPD2    H2 6926   3.270   0.072  16.219 -0.5501  1.5164  0.0982
  465MPD2    H3 6927   3.184   0.021  16.017  0.6802 -0.5223 -0.3381
  465MPD2     N 6928   2.760   0.146  16.142  0.0010  0.3870 -0.1409
  465MPD2    H5 6929   2.699   0.144  16.223  1.3534  1.4748  0.8946
  465MPD2    N1 6930   3.121   0.134  16.451 -0.0686  0.0761 -0.3579
  465MPD2    H7 6931   3.055   0.171  16.518  0.8841 -0.7299  1.0371
  466TMC3    C1 6932   2.364   0.169  16.135  0.3861 -0.0238  0.4999
  466TMC3    C2 6933   2.328   0.288  16.072  0.0075 -0.5775  0.3578
  466TMC3    C3 6934   2.404   0.344  15.975 -0.1256 -0.3059  1.1336
  466TMC3    C4 6935   2.488   0.117  16.108 -0.1913 -0.2429 -0.0555
  466TMC3    C5 6936   2.567   0.190  16.016  0.2707  0.0392 -0.0817
  466TMC3    C6 6937   2.526   0.295  15.943 -0.1972  0.7923  0.3938
  466TMC3     C 6938   2.263   0.096  16.204 -0.2726  0.2024  0.4750
  466TMC3     O 6939   2.179   0.164  16.259  0.2213 -0.4438  0.2009
  466TMC3     H 6940   2.235   0.338  16.096  1.6095  1.3971  2.3948
  466TMC3    H1 6941   2.521   0.029  16.163 -1.7085 -0.1315  1.0508
  466TMC3    H2 6942   2.600   0.368  15.910  0.4963 -1.3528 -2.7404
  466TMC3    C7 6943   2.706   0.175  16.019  0.4202 -0.3115  0.6429
  466TMC3    C8 6944   2.416   0.489  15.962  0.2053 -0.2388  0.0578
  466TMC3    O1 6945   2.769   0.219  15.926  0.6787 -0.1175 -0.3519
  466TMC3    O2 6946   2.465   0.545  15.867  0.2021 -0.3303  0.5551
  467TMC3    C1 6947   2.934   3.504  13.420 -0.0921 -0.1769  0.3196
  467TMC3    C2 6948   2.968   3.508  13.286 -0.1177  0.6142  0.9789
  467TMC3    C3 6949   2.939   3.621  13.220 -0.1772  0.4514 -0.2612
  467TMC3    C4 6950   2.849   3.598  13.474 -1.0133  0.1409  1.1051
  467TMC3    C5 6951   2.841   3.718  13.409  0.1424 -0.5558  0.2457
  467TMC3    C6 6952   2.882   3.729  13.277  0.0015 -0.3189 -0.1956
  467TMC3     C 6953   3.039   3.460  13.514 -0.0363  1.0327  0.3422
  467TMC3     O 6954   3.034   3.498  13.629 -0.4271  0.4508 -0.2183
  467TMC3     H 6955   3.042   3.444  13.240 -1.5563  0.6711 -1.4231
  467TMC3    H1 6956   2.822   3.589  13.578  1.5143 -0.5102  1.6891
  467TMC3    H2 6957   2.858   3.812  13.212 -0.6688 -0.0424  0.4158
  467TMC3    C7 6958   2.726   3.806  13.447  0.1731 -0.3170  0.1940
  467TMC3    C8 6959   3.027   3.642  13.110 -0.6755 -0.3210  0.7178
  467TMC3    O1 6960   2.720   3.913  13.390  0.3675  0.3363 -0.3116
  467TMC3    O2 6961   3.019   3.553  13.020  0.3594  0.4890 -0.1904
  468MPD2     C 6962   2.541   2.399  10.978 -0.3435  0.0212  0.1607
  468MPD2    C1 6963   2.674   2.376  10.959 -0.2699  0.1658 -0.2160
  468MPD2    C2 6964   2.722   2.250  10.952  0.1456  0.3688  0.0261
  468MPD2    C3 6965   2.638   2.140  10.982  0.2641  0.0379 -0.4918
  468MPD2    C4 6966   2.502   2.162  11.005 -0.3314 -0.4052  0.0320
  468MPD2    C5 6967   2.466   2.288  11.002  0.2604  0.6366 -0.1722
  468MPD2     H 6968   2.829   2.239  10.940 -0.0379  0.0593 -1.3766
  468MPD2    H1 6969   2.432   2.082  11.026 -1.8659  1.0704  0.5543
  468MPD2    H2 6970   2.491   2.495  10.981 -0.0503  0.1224  1.9594
  468MPD2    H3 6971   2.367   2.323  11.029  0.9397  2.9301 -0.6439
  468MPD2     N 6972   2.673   2.007  10.982 -0.2710  0.1215  0.1418
  468MPD2    H5 6973   2.593   1.945  10.977 -0.4792  0.4260 -0.2692
  468MPD2    N1 6974   2.769   2.484  10.947  0.1462 -0.0456 -0.1997
  468MPD2    H7 6975   2.866   2.457  10.958  0.1655 -0.1573 -0.6440
  469TMC3    C1 6976   2.839   2.711  10.912  0.2210  0.3946  0.3668
  469TMC3    C2 6977   2.963   2.678  10.958  0.4994  0.7874 -0.3546
  469TMC3    C3 6978   3.071   2.749  10.904 -0.5289  0.5820 -0.7142
  469TMC3    C4 6979   2.811   2.814  10.830  0.5180 -0.4695  0.5827
  469TMC3    C5 6980   2.921   2.866  10.768 -0.5862  0.0606 -0.4484
  469TMC3    C6 6981   3.049   2.835  10.799  0.6611 -0.0791  0.2784
  469TMC3     C 6982   2.729   2.618  10.927 -0.9838  0.4072 -0.3763
  469TMC3     O 6983   2.616   2.670  10.932 -0.6471  0.1460 -0.5729
  469TMC3     H 6984   2.979   2.611  11.042  1.0168  0.6144 -0.5943
  469TMC3    H1 6985   2.711   2.846  10.803  0.9003 -0.0679 -0.3795
  469TMC3    H2 6986   3.128   2.859  10.729 -1.1594  0.2512 -1.6605
  469TMC3    C7 6987   2.897   2.993  10.702 -0.5356  0.3471 -0.2951
  469TMC3    C8 6988   3.208   2.743  10.960  0.0949  0.0935  0.3007
  469TMC3    O1 6989   2.968   3.014  10.605 -0.2135 -0.0809  0.1760
  469TMC3    O2 6990   3.292   2.796  10.891  0.6857  0.0096  0.3160
  470TMC3    C1 6991   0.228   2.640   0.535  0.5431 -0.1490  0.4178
  470TMC3    C2 6992   0.188   2.734   0.443  0.8370 -0.1534  0.4572
  470TMC3    C3 6993   0.209   2.868   0.466 -0.0413  0.4933  0.5277
  470TMC3    C4 6994   0.301   2.680   0.643  0.8432  0.1528 -0.7865
  470TMC3    C5 6995   0.333   2.814   0.651  0.3334 -0.1284  0.1173
  470TMC3    C6 6996   0.290   2.913   0.565  0.2176  0.0514 -0.2204
  470TMC3     C 6997   0.170   2.505   0.546  0.3258  0.1898  0.3257
  470TMC3     O 6998   0.186   2.443   0.653  0.1989 -0.2396  0.4239
  470TMC3     H 6999   0.106   2.713   0.376  1.5658  2.2328 -1.1734
  470TMC3    H1 7000   0.347   2.605   0.706  0.7950  0.5564 -0.2733
  470TMC3    H2 7001   0.299   3.018   0.591 -2.1201  0.4275 -0.9811
  470TMC3    C7 7002   0.466   2.838   0.712  0.4857  0.7112 -0.4256
  470TMC3    C8 7003   0.099   2.953   0.428  0.2018  0.0171  0.1799
  470TMC3    O1 7004   0.549   2.900   0.644 -0.4460 -0.1265 -0.5014
  470TMC3    O2 7005   0.096   2.985   0.310 -0.0833 -0.0577 -0.1405
  471MPD2     C 7006   4.536   3.599  16.532  0.3045  0.1742  0.2845
  471MPD2    C1 7007   4.667   3.640  16.498 -0.8987 -0.2990 -0.4553
  471MPD2    C2 7008   0.029   3.660  16.603  0.2662 -0.0426  0.4321
  471MPD2    C3 7009   4.716   3.640  16.733  0.1446  0.9158 -0.1295
  471MPD2    C4 7010   4.591   3.588  16.763 -0.0733  0.3578 -0.2844
  471MPD2    C5 7011   4.499   3.577  16.660 -0.2333  0.6541 -0.4981
  471MPD2     H 7012   0.127   3.695  16.571  0.1177 -0.4448 -0.4700
  471MPD2    H1 7013   4.562   3.563  16.865 -1.2980 -1.1222 -1.0035
  471MPD2    H2 7014   4.462   3.579  16.455 -0.4560 -1.0133  1.3051
  471MPD2    H3 7015   4.398   3.546  16.684 -1.8677  3.4572 -3.8795
  471MPD2     N 7016   0.059   3.671  16.850  0.0662 -0.3414  0.4977
  471MPD2    H5 7017   0.007   3.662  16.936  1.2131 -1.9103  1.0191
  471MPD2    N1 7018   4.708   3.661  16.362  0.3393 -0.0102 -0.5088
  471MPD2    H7 7019   0.083   3.680  16.355  0.2752  0.4622 -0.1129
  472TMC3    C1 7020   4.710   3.665  16.129  0.0865 -0.1654  0.7350
  472TMC3    C2 7021   4.623   3.658  16.024 -0.5838  0.8955 -0.1000
  472TMC3    C3 7022   4.629   3.549  15.944  1.2463 -0.9205 -0.3594
  472TMC3    C4 7023   0.083   3.572  16.154  0.0645  0.0238 -0.2580
  472TMC3    C5 7024   0.079   3.456  16.070  0.3911  0.2517  0.4189
  472TMC3    C6 7025   4.721   3.450  15.964 -0.1127 -0.0154  0.3437
  472TMC3     C 7026   4.631   3.663  16.251  0.6885  0.1344 -0.4944
  472TMC3     O 7027   4.511   3.631  16.237 -0.4950 -0.0309 -0.8730
  472TMC3     H 7028   4.548   3.734  16.007 -0.0371  1.3340 -0.5425
  472TMC3    H1 7029   0.153   3.560  16.235  3.2028  4.0928 -2.4097
  472TMC3    H2 7030   4.710   3.371  15.890  0.0943  0.7145 -0.4748
  472TMC3    C7 7031   0.076   3.348  16.163  0.2317 -0.0423  0.1472
  472TMC3    C8 7032   4.509   3.499  15.890  0.7021 -0.7672  0.3461
  472TMC3    O1 7033   0.167   3.340  16.245 -0.4878  0.3901 -0.3277
  472TMC3    O2 7034   4.507   3.420  15.791  0.2933  0.3558 -0.3957
  473MPD2     C 7035   0.570   0.962  13.713 -0.2363  0.2340 -0.6760
  473MPD2    C1 7036   0.544   1.086  13.667 -0.0003  0.0297 -0.1260
  473MPD2    C2 7037   0.584   1.192  13.738  0.0808  0.9034 -0.6275
  473MPD2    C3 7038   0.638   1.184  13.864 -0.6046 -0.1643 -0.5631
  473MPD2    C4 7039   0.661   1.059  13.916  0.2799  0.0564 -0.3174
  473MPD2    C5 7040   0.621   0.951  13.838 -1.0893 -0.4148  0.6677
  473MPD2     H 7041   0.565   1.291  13.698 -0.6284  1.1242  0.2512
  473MPD2    H1 7042   0.720   1.047  14.006 -1.4211  0.3505  0.8342
  473MPD2    H2 7043   0.543   0.869  13.665  3.4479  0.1676 -2.5995
  473MPD2    H3 7044   0.624   0.849  13.876  2.1659  0.1667  1.9508
  473MPD2     N 7045   0.695   1.298  13.932 -0.5357 -0.0315  0.5932
  473MPD2    H5 7046   0.727   1.278  14.026  3.5666 -0.3051 -0.8904
  473MPD2    N1 7047   0.504   1.120  13.540  0.3510 -0.1247 -0.9448
  473MPD2    H7 7048   0.480   1.216  13.520  3.1853  0.5947 -0.9130
  474TMC3    C1 7049   0.770   1.521  13.964  0.5712 -0.2855 -0.0110
  474TMC3    C2 7050   0.832   1.625  13.905 -0.2315 -0.0573  0.3426
  474TMC3    C3 7051   0.885   1.719  13.991 -0.1509  0.2145 -0.4201
  474TMC3    C4 7052   0.757   1.502  14.098 -0.0105  0.3342 -0.7658
  474TMC3    C5 7053   0.805   1.601  14.175  0.5006  0.0035  0.2816
  474TMC3    C6 7054   0.872   1.712  14.127  0.1270  0.1173  0.1684
  474TMC3     C 7055   0.719   1.418  13.871 -0.5789  0.9034  0.1532
  474TMC3     O 7056   0.728   1.436  13.751  0.5665 -0.0174  0.0186
  474TMC3     H 7057   0.828   1.637  13.797 -0.0135 -0.3353  0.3056
  474TMC3    H1 7058   0.702   1.418  14.139 -0.1150  0.0855 -1.4133
  474TMC3    H2 7059   0.914   1.789  14.191 -3.2825 -1.4732  4.3485
  474TMC3    C7 7060   0.747   1.601  14.310 -0.3872  0.4473 -0.1984
  474TMC3    C8 7061   0.946   1.834  13.923 -0.6798  0.0451  0.4153
  474TMC3    O1 7062   0.671   1.506  14.324 -0.4706  0.3673  0.2772
  474TMC3    O2 7063   0.973   1.809  13.807 -0.3181  0.0119  0.1663
  475MPD2     C 7064   3.806   0.507  10.698  0.5349  0.1395  0.0395
  475MPD2    C1 7065   3.752   0.412  10.615  0.1110  0.2927 -0.0294
  475MPD2    C2 7066   3.619   0.387  10.615 -0.1453  0.3044  0.2809
  475MPD2    C3 7067   3.542   0.446  10.716  0.3571  0.0523  0.1761
  475MPD2    C4 7068   3.601   0.534  10.808  0.7505 -0.2206 -0.2296
  475MPD2    C5 7069   3.731   0.569  10.799 -0.1893 -0.3382  0.0087
  475MPD2     H 7070   3.574   0.310  10.554 -0.0304  0.3222  0.1726
  475MPD2    H1 7071   3.538   0.589  10.877 -1.3915 -4.2810  1.0364
  475MPD2    H2 7072   3.909   0.539  10.702  0.2380  0.6986  3.1568
  475MPD2    H3 7073   3.773   0.638  10.872 -0.9192  1.8277 -1.5976
  475MPD2     N 7074   3.408   0.422  10.711  0.2439  0.3260 -0.0572
  475MPD2    H5 7075   3.372   0.389  10.622  0.4260 -0.3373  0.1185
  475MPD2    N1 7076   3.842   0.349  10.522  0.4275 -0.8066  0.2239
  475MPD2    H7 7077   3.939   0.378  10.531 -0.0493  1.4625 -2.0616
  476TMC3    C1 7078   3.936   0.209  10.361 -0.9305  0.2776 -0.1696
  476TMC3    C2 7079   3.921   0.113  10.266  0.3859  0.2033  0.0356
  476TMC3    C3 7080   4.019   0.097  10.170  0.2137  0.1654  0.4363
  476TMC3    C4 7081   4.051   0.288  10.359 -0.3094  0.7059 -0.9148
  476TMC3    C5 7082   4.147   0.258  10.266 -0.0414  0.0331 -0.3672
  476TMC3    C6 7083   4.132   0.164  10.169  0.1129  0.3891  0.0675
  476TMC3     C 7084   3.811   0.246  10.433 -0.1822  0.1954  0.5162
  476TMC3     O 7085   3.703   0.198  10.411 -0.9196  0.0956  0.5919
  476TMC3     H 7086   3.841   0.040  10.261  2.0243 -1.5724 -0.3577
  476TMC3    H1 7087   4.065   0.359  10.440 -2.9946  0.9211 -0.6507
  476TMC3    H2 7088   4.210   0.144  10.096  0.2765  1.8133 -0.1373
  476TMC3    C7 7089   4.282   0.285  10.305 -0.3925 -0.5093 -0.1494
  476TMC3    C8 7090   3.993   4.719  10.065 -0.0809 -0.1080 -0.4986
  476TMC3    O1 7091   4.374   0.213  10.267  0.7703 -0.1229 -0.4330
  476TMC3    O2 7092   3.877   4.711  10.035 -0.3284 -0.0375 -0.2539
  477MPD2     C 7093   1.570   1.986  12.391  0.7405  0.4793  0.2026
  477MPD2    C1 7094   1.534   1.904  12.288  0.2481 -0.1595  0.1471
  477MPD2    C2 7095   1.541   1.763  12.300 -0.4513  0.8737 -0.3688
  477MPD2    C3 7096   1.582   1.705  12.416 -0.3076 -0.4188 -0.2794
  477MPD2    C4 7097   1.619   1.787  12.517 -0.1848  0.0670  0.0539
  477MPD2    C5 7098   1.616   1.923  12.503 -0.0933  0.3520  0.4630
  477MPD2     H 7099   1.503   1.690  12.229 -0.6261  0.9795 -0.3835
  477MPD2    H1 7100   1.665   1.744  12.605  0.9553 -2.1213 -1.6151
  477MPD2    H2 7101   1.539   2.090  12.388 -2.3871 -0.4851 -0.3172
  477MPD2    H3 7102   1.653   1.980  12.588  0.2481 -0.0842  0.6047
  477MPD2     N 7103   1.604   1.569  12.438 -0.0258  1.0305 -0.1848
  477MPD2    H5 7104   1.628   1.547  12.534 -0.0078  1.2492 -0.1386
  477MPD2    N1 7105   1.474   1.965  12.173 -0.4814  0.3515  0.0883
  477MPD2    H7 7106   1.454   2.064  12.183  2.7511  1.0287 -0.2012
  478TMC3    C1 7107   1.349   1.960  11.979  0.8534 -0.4587  0.8678
  478TMC3    C2 7108   1.262   2.052  12.031 -0.9283  0.8143  0.7766
  478TMC3    C3 7109   1.175   2.122  11.953 -0.6097 -0.5504  0.2624
  478TMC3    C4 7110   1.350   1.936  11.844  0.6055 -0.6347 -0.2996
  478TMC3    C5 7111   1.259   1.995  11.766  0.0893 -0.4956 -0.3915
  478TMC3    C6 7112   1.169   2.092  11.817 -0.3543 -0.8476  0.2670
  478TMC3     C 7113   1.448   1.892  12.058 -0.6595  0.0461  0.3438
  478TMC3     O 7114   1.493   1.789  12.019  0.1737  0.2728 -0.3981
  478TMC3     H 7115   1.263   2.077  12.137 -2.4326 -1.7844  1.3960
  478TMC3    H1 7116   1.425   1.871  11.800 -0.4027 -1.2835 -1.0690
  478TMC3    H2 7117   1.122   2.160  11.746  1.4904  0.0744 -0.0772
  478TMC3    C7 7118   1.260   1.952  11.631 -0.7451 -0.3292  0.1017
  478TMC3    C8 7119   1.151   2.259  11.993 -0.0274 -0.4168 -0.2072
  478TMC3    O1 7120   1.346   1.866  11.597  0.3695 -0.1590  0.3889
  478TMC3    O2 7121   1.238   2.300  12.070 -0.2436 -0.1970  0.0378
  479MPD2     C 7122   0.276   3.262  15.125  0.0146  0.2916 -0.0807
  479MPD2    C1 7123   0.212   3.207  15.232  0.8546 -0.3826  0.4699
  479MPD2    C2 7124   0.271   3.206  15.357  0.5537  0.0613 -0.4314
  479MPD2    C3 7125   0.397   3.261  15.378  0.3770  0.0366 -0.2262
  479MPD2    C4 7126   0.463   3.310  15.267 -0.0630 -0.4735 -0.3804
  479MPD2    C5 7127   0.403   3.317  15.143 -0.4745  0.2466  0.0827
  479MPD2     H 7128   0.214   3.168  15.441 -1.2682  1.4743 -1.0099
  479MPD2    H1 7129   0.562   3.351  15.278 -0.3492 -0.3151  1.6428
  479MPD2    H2 7130   0.239   3.260  15.023  0.1510 -0.8251 -0.1019
  479MPD2    H3 7131   0.455   3.364  15.061 -0.7652  0.4565  0.0161
  479MPD2     N 7132   0.461   3.270  15.504 -0.1131  0.1258 -0.2440
  479MPD2    H5 7133   0.552   3.315  15.495  0.6153 -1.6081 -1.5526
  479MPD2    N1 7134   0.076   3.161  15.212  0.1917  0.0462 -0.0425
  479MPD2    H7 7135   0.033   3.192  15.125 -0.8142  1.5519  0.9960
  480TMC3    C1 7136   0.062   3.206  15.718  0.5257 -0.3657 -0.2557
  480TMC3    C2 7137   4.719   3.287  15.638 -0.1145  0.2794 -0.5615
  480TMC3    C3 7138   0.066   3.378  15.562 -0.1930  0.2180  0.3325
  480TMC3    C4 7139   0.203   3.206  15.726  0.5502  0.4269 -0.1019
  480TMC3    C5 7140   0.270   3.295  15.646 -0.4090 -0.2387 -0.6540
  480TMC3    C6 7141   0.202   3.388  15.567  0.3325  0.7640  0.5240
  480TMC3     C 7142   4.721   3.127  15.825 -0.1059 -0.1628 -0.1602
  480TMC3     O 7143   0.066   3.114  15.930 -0.1042 -0.9119 -0.3731
  480TMC3     H 7144   4.612   3.280  15.625 -0.1189 -1.5073  0.5031
  480TMC3    H1 7145   0.249   3.123  15.778 -1.5367  0.9733  2.6174
  480TMC3    H2 7146   0.262   3.462  15.515 -0.0143  0.4108 -0.3807
  480TMC3    C7 7147   0.408   3.256  15.632  1.0867  0.1944 -0.3476
  480TMC3    C8 7148   4.719   3.458  15.457  1.0022  0.0647 -0.6200
  480TMC3    O1 7149   0.476   3.236  15.734  0.3546  0.2381  0.2584
  480TMC3    O2 7150   4.603   3.486  15.484  0.0554  1.1473  0.0001
  481MPD2     C 7151   2.071   3.269  14.656 -0.6464 -0.1599 -0.1477
  481MPD2    C1 7152   1.980   3.158  14.653 -0.3041 -0.3244  1.0023
  481MPD2    C2 7153   1.949   3.095  14.770  0.1495  0.8819  0.0349
  481MPD2    C3 7154   1.995   3.149  14.891 -0.1026  0.3753  0.0116
  481MPD2    C4 7155   2.070   3.262  14.889  0.8625  0.1926  0.1709
  481MPD2    C5 7156   2.104   3.325  14.773  0.4042  0.1545 -0.0922
  481MPD2     H 7157   1.898   3.000  14.766  2.4498 -0.3194 -0.7755
  481MPD2    H1 7158   2.106   3.310  14.978  1.5249  0.7797 -0.4146
  481MPD2    H2 7159   2.109   3.311  14.564 -0.6932  0.0567 -0.0680
  481MPD2    H3 7160   2.155   3.419  14.759 -3.6315  2.3975  0.4624
  481MPD2     N 7161   1.968   3.085  15.013  0.3432 -0.8320  0.4510
  481MPD2    H5 7162   2.017   3.114  15.097  0.2598  1.0215 -0.1443
  481MPD2    N1 7163   1.943   3.115  14.522  0.3154 -0.0876  0.8831
  481MPD2    H7 7164   1.978   3.172  14.446 -0.1351  1.0773  1.5486
  482TMC3    C1 7165   1.822   3.003  14.343 -0.3419  0.1496 -0.5432
  482TMC3    C2 7166   1.727   2.908  14.318  0.1034 -0.3775  0.2190
  482TMC3    C3 7167   1.655   2.917  14.203  0.1451 -0.4680 -0.0713
  482TMC3    C4 7168   1.844   3.107  14.258 -0.1193  0.3789 -0.0315
  482TMC3    C5 7169   1.765   3.115  14.146  0.2724  0.7490  0.2072
  482TMC3    C6 7170   1.667   3.018  14.118  0.4184  0.3186 -0.4015
  482TMC3     C 7171   1.862   3.008  14.482  0.6775  0.4132 -0.3924
  482TMC3     O 7172   1.803   2.929  14.555 -0.3490 -0.0123 -0.0155
  482TMC3     H 7173   1.707   2.819  14.378 -2.9370 -0.0371 -0.2908
  482TMC3    H1 7174   1.914   3.186  14.281  0.0883  0.7830 -2.0245
  482TMC3    H2 7175   1.620   3.025  14.021  1.6069  1.4787 -0.8918
  482TMC3    C7 7176   1.826   3.195  14.038  0.2199  0.3303  1.1124
  482TMC3    C8 7177   1.563   2.807  14.165 -0.0602 -0.2889  0.3454
  482TMC3    O1 7178   1.916   3.267  14.071 -0.2300 -0.4610 -0.0698
  482TMC3    O2 7179   1.592   2.695  14.206  0.2371  0.7227 -0.0387
  483TMC3    C1 7180   4.285   1.757   0.913 -0.2076  0.4243 -0.6088
  483TMC3    C2 7181   4.381   1.849   0.890  1.1708  0.8474  0.3768
  483TMC3    C3 7182   4.467   1.878   0.988  0.9605 -0.3499  0.0845
  483TMC3    C4 7183   4.263   1.715   1.043 -0.1493  0.2444  0.0772
  483TMC3    C5 7184   4.363   1.733   1.135  1.1103 -0.3098  0.2157
  483TMC3    C6 7185   4.471   1.823   1.121 -0.4829 -0.3975  0.1388
  483TMC3     C 7186   4.249   1.671   0.804  0.9198 -0.0126 -0.4704
  483TMC3     O 7187   4.240   1.723   0.692 -0.0087  0.0631  0.2290
  483TMC3     H 7188   4.403   1.868   0.785  1.2844  0.2702  0.2922
  483TMC3    H1 7189   4.187   1.644   1.074 -1.2795  1.3661 -0.1388
  483TMC3    H2 7190   4.547   1.833   1.198 -0.8084  1.3073  0.2414
  483TMC3    C7 7191   4.395   1.606   1.198  0.1366 -0.2559 -0.2064
  483TMC3    C8 7192   4.569   1.978   0.957  0.5836 -0.3779  0.8240
  483TMC3    O1 7193   4.366   1.505   1.135  0.0020 -0.0979  0.1643
  483TMC3    O2 7194   4.575   2.004   0.840  0.5371 -0.1252  0.2982
  484MPD2     C 7195   1.941   0.592  12.233 -0.3962 -0.1992  0.5784
  484MPD2    C1 7196   1.996   0.504  12.326  0.3752 -0.0504 -0.6373
  484MPD2    C2 7197   2.135   0.483  12.329 -0.7890 -0.3483 -0.0627
  484MPD2    C3 7198   2.221   0.559  12.244  0.3317 -0.1959 -0.3052
  484MPD2    C4 7199   2.162   0.646  12.154  0.1822 -0.1000  0.5241
  484MPD2    C5 7200   2.025   0.664  12.147  0.2998 -0.6297  0.2271
  484MPD2     H 7201   2.178   0.434  12.415  0.0352 -0.1203 -0.3467
  484MPD2    H1 7202   2.225   0.690  12.078  2.5045 -0.6794  2.1008
  484MPD2    H2 7203   1.835   0.609  12.227 -0.0590  1.3317 -0.8553
  484MPD2    H3 7204   1.970   0.733  12.084  2.2695  0.2121 -0.5418
  484MPD2     N 7205   2.361   0.558  12.252 -1.0512  0.1933  0.1489
  484MPD2    H5 7206   2.414   0.618  12.189  1.6255 -0.1434  2.0846
  484MPD2    N1 7207   1.902   0.454  12.417  0.3226  0.0921 -0.4306
  484MPD2    H7 7208   1.805   0.476  12.401  0.3105  0.9200  0.7634
  485TMC3    C1 7209   2.575   0.500  12.319  0.2421  0.2852 -0.2745
  485TMC3    C2 7210   2.655   0.479  12.430  0.5766  0.2913  0.2175
  485TMC3    C3 7211   2.793   0.502  12.417 -0.0208 -0.4753  0.4153
  485TMC3    C4 7212   2.618   0.534  12.191 -0.5555 -0.3742 -0.5758
  485TMC3    C5 7213   2.750   0.555  12.182  0.4946  0.3070 -0.2402
  485TMC3    C6 7214   2.837   0.545  12.288  0.1991 -0.0756  0.4497
  485TMC3     C 7215   2.432   0.477  12.335 -0.1954  0.5816 -0.1412
  485TMC3     O 7216   2.408   0.397  12.423  0.6694  0.4637 -0.5255
  485TMC3     H 7217   2.610   0.455  12.526 -1.7600 -0.4803 -1.0697
  485TMC3    H1 7218   2.559   0.528  12.100 -0.2088 -1.3311 -0.7380
  485TMC3    H2 7219   2.939   0.577  12.270  1.3841 -3.2905  1.4729
  485TMC3    C7 7220   2.799   0.489  12.068 -0.3520  0.4545 -0.3277
  485TMC3    C8 7221   2.895   0.414  12.481 -0.4094  0.0768 -0.1935
  485TMC3    O1 7222   2.744   0.521  11.966 -0.0501  0.3049 -0.2074
  485TMC3    O2 7223   2.998   0.405  12.412 -0.3061  0.3265  0.2543
  486MPD2     C 7224   4.559   3.521  12.763 -0.4292  0.0389  0.1635
  486MPD2    C1 7225   4.521   3.483  12.637 -0.7626  0.0744 -0.9741
  486MPD2    C2 7226   4.427   3.559  12.560  0.2226  0.0250 -0.1344
  486MPD2    C3 7227   4.359   3.658  12.620 -0.0535 -0.6144 -0.1948
  486MPD2    C4 7228   4.379   3.679  12.757 -0.9368 -0.6609  0.0429
  486MPD2    C5 7229   4.492   3.624  12.825  0.0984 -0.0725 -0.1498
  486MPD2     H 7230   4.406   3.529  12.458 -1.1093  1.9861 -0.4402
  486MPD2    H1 7231   4.326   3.761  12.805 -2.2528 -0.7654 -1.2501
  486MPD2    H2 7232   4.633   3.465  12.819 -0.7034 -1.8267 -1.3225
  486MPD2    H3 7233   4.518   3.652  12.926  0.1221 -2.8033  0.6052
  486MPD2     N 7234   4.264   3.734  12.546  0.0359 -0.4596 -0.5539
  486MPD2    H5 7235   4.265   3.708  12.448 -0.7263  2.1927 -1.2630
  486MPD2    N1 7236   4.567   3.355  12.598 -0.1894  0.6475  0.1895
  486MPD2    H7 7237   4.647   3.316  12.646  0.5942  2.0845  0.0724
  487TMC3    C1 7238   4.595   3.159  12.468  0.0565 -0.9464  0.2054
  487TMC3    C2 7239   4.541   3.084  12.367 -0.2189 -0.0190 -0.3406
  487TMC3    C3 7240   4.542   2.946  12.381  0.1893 -0.3693 -0.0577
  487TMC3    C4 7241   4.646   3.100  12.579  0.3483 -0.7366  0.1692
  487TMC3    C5 7242   4.642   2.965  12.593 -0.2066 -0.1059 -0.0168
  487TMC3    C6 7243   4.592   2.883  12.494  0.3049  0.3154  0.3397
  487TMC3     C 7244   4.516   3.281  12.493  0.9096  0.7063 -0.7385
  487TMC3     O 7245   4.416   3.292  12.418 -0.3002  0.3021 -0.4606
  487TMC3     H 7246   4.489   3.130  12.283  0.2268 -2.4401 -1.9529
  487TMC3    H1 7247   4.707   3.156  12.650 -0.4911  1.3062 -0.7254
  487TMC3    H2 7248   4.619   2.778  12.492  0.5906  0.4062 -0.9075
  487TMC3    C7 7249   4.569   2.952  12.718 -0.0070  0.3139 -0.4175
  487TMC3    C8 7250   4.411   2.899  12.342 -0.5239 -0.1319  0.2106
  487TMC3    O1 7251   4.569   3.043  12.796  0.3908  0.7155  0.1682
  487TMC3    O2 7252   4.328   2.981  12.319  0.6911  0.0374  0.5620
  488MPD2     C 7253   4.442   0.348  16.191 -0.0180  0.8047  0.4108
  488MPD2    C1 7254   4.520   0.398  16.292 -0.7411  0.0661  0.1058
  488MPD2    C2 7255   4.526   0.354  16.419  0.1646  0.0377 -0.6609
  488MPD2    C3 7256   4.456   0.240  16.462 -0.3706 -0.2827 -0.0492
  488MPD2    C4 7257   4.380   0.189  16.362  0.0337 -0.4088 -0.4640
  488MPD2    C5 7258   4.372   0.238  16.232  0.1380  0.0781  0.3004
  488MPD2     H 7259   4.576   0.418  16.491 -0.1195 -0.2407 -0.2129
  488MPD2    H1 7260   4.328   0.096  16.376 -0.2831  0.1093  1.7775
  488MPD2    H2 7261   4.425   0.390  16.093 -1.1894  1.3794  0.8588
  488MPD2    H3 7262   4.307   0.186  16.162 -0.5404  0.7107  0.4650
  488MPD2     N 7263   4.470   0.194  16.594  0.0118 -0.4863 -0.4867
  488MPD2    H5 7264   4.519   0.252  16.662  0.9736  0.5488 -2.0562
  488MPD2    N1 7265   4.599   0.506  16.263 -0.4035 -0.2579 -0.1834
  488MPD2    H7 7266   4.648   0.553  16.339 -1.7279  1.3436 -0.3181
  489TMC3    C1 7267   4.483   0.041  16.771  0.2930 -0.1727  0.2918
  489TMC3    C2 7268   4.598   0.100  16.811  0.3657 -0.2560 -0.1075
  489TMC3    C3 7269   4.633   0.102  16.940  0.7055  0.0383 -0.1059
  489TMC3    C4 7270   4.408   4.699  16.859  0.8785  0.5421 -0.4847
  489TMC3    C5 7271   4.441   4.702  16.993  0.4310  0.4106 -0.1658
  489TMC3    C6 7272   4.557   0.039  17.037 -0.6130 -1.4322  0.9614
  489TMC3     C 7273   4.432   0.068  16.638  0.0239 -0.7106 -0.6726
  489TMC3     O 7274   4.360   4.710  16.586  0.2159 -0.1722  0.6880
  489TMC3     H 7275   4.660   0.157  16.743  0.2011  1.6301  1.3092
  489TMC3    H1 7276   4.323   4.645  16.819  1.5362 -1.1700  0.4184
  489TMC3    H2 7277   4.588   0.037  17.141  2.8328 -0.9908 -0.0452
  489TMC3    C7 7278   4.362   4.641  17.099 -0.3324  0.3456 -0.2618
  489TMC3    C8 7279   4.697   0.228  16.982 -0.2509 -0.5197 -0.0022
  489TMC3    O1 7280   4.410   4.642  17.211  0.8283  0.5653 -0.0391
  489TMC3    O2 7281   0.028   0.296  16.897 -0.4914  0.4190 -0.2593
  490MPD2     C 7282   0.488   4.680  17.067 -0.1351  0.3455  0.1217
  490MPD2    C1 7283   0.458   4.635  17.194 -1.4127 -0.7971 -0.4237
  490MPD2    C2 7284   0.509   4.703  17.303  0.3125 -0.2214 -0.1358
  490MPD2    C3 7285   0.601   0.077  17.284 -0.3873 -0.5236  0.0931
  490MPD2    C4 7286   0.625   0.123  17.156 -0.4169 -0.1688  0.5863
  490MPD2    C5 7287   0.576   0.054  17.050  0.2012  0.5436 -0.4053
  490MPD2     H 7288   0.486   4.667  17.403 -1.5943 -1.8117 -1.1540
  490MPD2    H1 7289   0.685   0.207  17.124 -2.1541  0.0363 -2.1574
  490MPD2    H2 7290   0.457   4.625  16.978  0.6507 -0.5615  0.4138
  490MPD2    H3 7291   0.599   0.103  16.957  2.0617  0.4680  0.0241
  490MPD2     N 7292   0.672   0.142  17.384 -0.6483 -0.1613  0.2676
  490MPD2    H5 7293   0.742   0.203  17.344 -0.6607  1.6130  2.9824
  490MPD2    N1 7294   0.387   4.516  17.223 -0.0764 -0.4708 -0.0136
  490MPD2    H7 7295   0.408   4.483  17.317  0.2606 -0.9239 -0.2515
  491TMC3    C1 7296   0.266   4.315  17.201  0.6663  0.0571 -0.7329
  491TMC3    C2 7297   0.278   4.293  17.334 -1.0849 -0.2394 -0.0167
  491TMC3    C3 7298   0.216   4.185  17.394  0.5452  0.7392 -0.2912
  491TMC3    C4 7299   0.198   4.229  17.119  0.2700 -0.4701 -0.1491
  491TMC3    C5 7300   0.136   4.122  17.178  0.4566 -0.5306 -0.3803
  491TMC3    C6 7301   0.134   4.109  17.313 -0.5437 -0.2207 -0.9592
  491TMC3     C 7302   0.322   4.432  17.135  0.0934  0.5725 -0.3758
  491TMC3     O 7303   0.327   4.441  17.016 -0.0972 -0.0061 -0.0389
  491TMC3     H 7304   0.317   4.374  17.395  2.3089 -0.7367 -1.5255
  491TMC3    H1 7305   0.168   4.267  17.022  0.1709 -2.6285 -0.9662
  491TMC3    H2 7306   0.071   4.031  17.354 -0.3854  0.4548  0.5611
  491TMC3    C7 7307   0.032   4.052  17.103  0.3621 -0.9697  0.4569
  491TMC3    C8 7308   0.208   4.156  17.534 -0.6053 -0.5045 -0.4411
  491TMC3    O1 7309   4.661   4.013  17.161  0.1892  0.5244  0.1241
  491TMC3    O2 7310   0.107   4.100  17.569  0.1716  0.1690  0.6121
  492MPD2     C 7311   1.248   0.431  11.245  0.6485  0.7524  0.3435
  492MPD2    C1 7312   1.229   0.303  11.204 -0.1300  0.4294 -0.3519
  492MPD2    C2 7313   1.186   0.202  11.295  0.1628 -0.2528 -0.0840
  492MPD2    C3 7314   1.167   0.233  11.423  0.6214 -0.5915  0.0210
  492MPD2    C4 7315   1.189   0.364  11.466 -1.1524 -0.1765  0.6429
  492MPD2    C5 7316   1.225   0.464  11.375 -0.2244  0.4849 -0.0823
  492MPD2     H 7317   1.159   0.106  11.254  0.3828 -0.3843  0.0768
  492MPD2    H1 7318   1.167   0.392  11.568  0.9976 -1.1324  1.3582
  492MPD2    H2 7319   1.288   0.502  11.173 -1.0520  0.6019 -0.7533
  492MPD2    H3 7320   1.234   0.568  11.400 -0.3328  0.3476  0.5160
  492MPD2     N 7321   1.113   0.139  11.511 -0.4964  0.5858  0.0956
  492MPD2    H5 7322   1.097   0.161  11.608 -0.3966  1.2639 -0.0403
  492MPD2    N1 7323   1.234   0.274  11.065  0.0039  0.2524 -0.2740
  492MPD2    H7 7324   1.222   0.352  11.001 -1.0799 -0.0847 -0.4837
  493TMC3    C1 7325   1.192   0.137  10.869  0.0668  0.2259 -0.1417
  493TMC3    C2 7326   1.192   0.244  10.777  0.1127 -0.7138 -0.3961
  493TMC3    C3 7327   1.135   0.234  10.655 -0.0081  0.0026 -0.0838
  493TMC3    C4 7328   1.117   0.025  10.843  0.3463 -0.4642 -0.1907
  493TMC3    C5 7329   1.046   0.025  10.728 -0.0430 -0.4173  0.3307
  493TMC3    C6 7330   1.054   0.132  10.637 -0.8379  0.3188  0.3592
  493TMC3     C 7331   1.232   0.150  11.006 -0.0607 -0.1960 -0.1766
  493TMC3     O 7332   1.237   0.043  11.065  0.1026  0.5143 -0.0643
  493TMC3     H 7333   1.253   0.332  10.799 -3.2893  1.1786  1.4919
  493TMC3    H1 7334   1.132   4.663  10.906  0.7906  0.9178  1.6074
  493TMC3    H2 7335   1.000   0.129  10.543  1.8145  2.0758 -1.2281
  493TMC3    C7 7336   0.962   4.640  10.695  0.3706 -0.1890  0.5740
  493TMC3    C8 7337   1.152   0.340  10.565  0.8748 -0.3381 -0.2826
  493TMC3    O1 7338   0.891   4.658  10.599 -0.5740  0.1714 -0.3803
  493TMC3    O2 7339   1.229   0.433  10.593  0.0206 -0.9016  0.0885
  494TMC3    C1 7340   1.756   1.707   0.425  0.2787  0.2732 -0.0446
  494TMC3    C2 7341   1.782   1.604   0.504  0.1365  0.0686  0.2695
  494TMC3    C3 7342   1.799   1.481   0.434 -0.0457 -0.4691 -0.3414
  494TMC3    C4 7343   1.756   1.694   0.292 -0.3223 -0.8127  0.2129
  494TMC3    C5 7344   1.780   1.579   0.226 -0.0323 -0.4645  1.1658
  494TMC3    C6 7345   1.809   1.471   0.296  0.2017 -0.2926  0.6997
  494TMC3     C 7346   1.667   1.807   0.481 -0.0617  0.3977 -1.0591
  494TMC3     O 7347   1.565   1.832   0.415 -0.5954  0.0647  0.0051
  494TMC3     H 7348   1.777   1.607   0.612  1.0103  0.3398  0.3019
  494TMC3    H1 7349   1.717   1.778   0.235  1.3839 -0.8199 -0.9904
  494TMC3    H2 7350   1.827   1.375   0.250 -1.6080  0.5426 -1.7420
  494TMC3    C7 7351   1.723   1.551   0.095  0.1158  0.4942 -0.3717
  494TMC3    C8 7352   1.822   1.363   0.519 -0.0925  0.2302  0.2543
  494TMC3    O1 7353   1.758   1.454   0.030  0.5820 -0.1642 -0.3063
  494TMC3    O2 7354   1.886   1.274   0.463 -1.0607  0.0483  0.1410
  495TMC3    C1 7355   0.375   3.456  14.597 -0.4558 -0.1203 -0.0747
  495TMC3    C2 7356   0.320   3.541  14.509  0.7699  0.5292  0.3013
  495TMC3    C3 7357   0.300   3.667  14.546  0.5748  0.5987 -0.3540
  495TMC3    C4 7358   0.399   3.490  14.730 -0.3637  0.4129 -0.7544
  495TMC3    C5 7359   0.366   3.615  14.765 -0.4670  0.4278  0.3408
  495TMC3    C6 7360   0.318   3.708  14.678 -0.2322 -0.5568  1.0738
  495TMC3     C 7361   0.386   3.316  14.557 -1.1724  0.0659  0.0281
  495TMC3     O 7362   0.432   3.256  14.653 -0.2232 -0.4088 -0.0078
  495TMC3     H 7363   0.307   3.512  14.405 -0.7894 -0.5577  0.7955
  495TMC3    H1 7364   0.451   3.424  14.799 -0.0034  1.3053 -0.1663
  495TMC3    H2 7365   0.303   3.812  14.704 -1.9147 -0.4550 -0.3099
  495TMC3    C7 7366   0.315   3.633  14.901 -0.6768 -0.6977 -0.0476
  495TMC3    C8 7367   0.193   3.734  14.476  0.7293  0.6499  0.2189
  495TMC3    O1 7368   0.384   3.584  14.986 -0.4163 -0.6791 -0.1457
  495TMC3    O2 7369   0.108   3.788  14.549  0.1815  0.4182  0.3151
  496MPD2     C 7370   2.423   3.705  15.341 -0.6091 -0.2777  0.2251
  496MPD2    C1 7371   2.340   3.593  15.334  0.0887  0.4767  0.2489
  496MPD2    C2 7372   2.248   3.569  15.434 -0.4736  0.4159 -1.5067
  496MPD2    C3 7373   2.219   3.663  15.530 -0.0831 -0.2785  0.8668
  496MPD2    C4 7374   2.305   3.773  15.535 -0.0738 -0.8851  0.5731
  496MPD2    C5 7375   2.404   3.797  15.445 -0.2080 -0.6281 -0.0023
  496MPD2     H 7376   2.182   3.483  15.438 -0.6287  0.5120 -2.0422
  496MPD2    H1 7377   2.297   3.839  15.621 -1.2252  0.3555 -0.4871
  496MPD2    H2 7378   2.512   3.713  15.280 -1.0602  1.5051 -0.2104
  496MPD2    H3 7379   2.478   3.870  15.473  0.0162  0.0031 -2.1784
  496MPD2     N 7380   2.133   3.649  15.642  0.0215 -0.8829 -0.0764
  496MPD2    H5 7381   2.135   3.724  15.709  4.3221 -0.1789 -1.0262
  496MPD2    N1 7382   2.381   3.480  15.258  0.0686  0.4638  0.6591
  496MPD2    H7 7383   2.344   3.391  15.288  2.8356 -0.9765 -0.2793
  497TMC3    C1 7384   1.947   3.588  15.783 -0.2286  0.5296  0.3320
  497TMC3    C2 7385   1.892   3.715  15.773  0.4437  0.0675 -0.5620
  497TMC3    C3 7386   1.779   3.749  15.839 -0.2170 -0.1502  0.2624
  497TMC3    C4 7387   1.878   3.488  15.852  0.4096 -0.2834 -0.0934
  497TMC3    C5 7388   1.768   3.525  15.924 -0.1851  0.3963  0.1063
  497TMC3    C6 7389   1.720   3.654  15.922 -0.5177 -0.6434 -0.5976
  497TMC3     C 7390   2.042   3.547  15.675  0.3505 -0.5130 -0.3740
  497TMC3     O 7391   2.016   3.442  15.615  0.3081  0.5288  0.6461
  497TMC3     H 7392   1.945   3.791  15.716 -0.9940 -0.0707 -2.0831
  497TMC3    H1 7393   1.913   3.386  15.858  1.4565  0.1710  1.6603
  497TMC3    H2 7394   1.640   3.686  15.988  2.0024  2.7697  0.8136
  497TMC3    C7 7395   1.729   3.445  16.040 -0.2980 -0.0569  0.2974
  497TMC3    C8 7396   1.754   3.895  15.876  0.1858  0.0634  0.2280
  497TMC3    O1 7397   1.612   3.428  16.063  0.6208 -0.1552 -0.0370
  497TMC3    O2 7398   1.716   3.911  15.991 -0.2914  0.2091  0.1893
  498MPD2     C 7399   2.731   0.185   9.632  0.6022  0.7769 -0.0526
  498MPD2    C1 7400   2.740   0.117   9.750  0.2729  0.6444 -0.0795
  498MPD2    C2 7401   2.636   0.038   9.793  0.1537 -0.1156  0.4676
  498MPD2    C3 7402   2.519   0.040   9.722 -0.2525  0.9156  0.1799
  498MPD2    C4 7403   2.504   0.110   9.605  0.9609  0.3750 -0.0125
  498MPD2    C5 7404   2.614   0.179   9.567  0.1345 -0.0860 -0.1600
  498MPD2     H 7405   2.650   4.715   9.889 -4.2834 -0.5827  0.8873
  498MPD2    H1 7406   2.418   0.126   9.541  1.6597  3.0972 -0.2692
  498MPD2    H2 7407   2.812   0.244   9.589 -0.2836  0.1851 -2.5161
  498MPD2    H3 7408   2.598   0.245   9.482 -1.2504 -0.4868 -0.2073
  498MPD2     N 7409   2.422   4.666   9.760 -0.3028  0.2904 -0.1766
  498MPD2    H5 7410   2.452   4.602   9.833 -1.3809 -1.2305 -1.0736
  498MPD2    N1 7411   2.855   0.119   9.832  0.3006  0.0643  0.3254
  498MPD2    H7 7412   2.851   0.049   9.905 -0.9530 -1.2206 -0.9776
  499TMC3    C1 7413   3.067   0.157   9.918 -0.0796  0.0235  0.1121
  499TMC3    C2 7414   3.034   0.120  10.047 -0.2939 -0.5332 -1.0447
  499TMC3    C3 7415   3.140   0.108  10.138 -0.5423 -0.4716  0.4855
  499TMC3    C4 7416   3.198   0.176   9.888  0.1572 -0.3417  0.2747
  499TMC3    C5 7417   3.303   0.161   9.974 -0.3152 -0.2950 -0.0638
  499TMC3    C6 7418   3.278   0.121  10.104 -0.0593  0.2746  0.0093
  499TMC3     C 7419   2.972   0.183   9.813  0.8135  0.3108  0.2130
  499TMC3     O 7420   3.014   0.244   9.719 -0.2793  1.0438  0.0369
  499TMC3     H 7421   2.932   0.102  10.079 -0.6652  2.5267 -0.4693
  499TMC3    H1 7422   3.219   0.207   9.786  3.4485  2.1249  1.7066
  499TMC3    H2 7423   3.351   0.122  10.183  0.7349 -0.5141 -0.7235
  499TMC3    C7 7424   3.434   0.208   9.939 -0.2885  0.1149 -0.1105
  499TMC3    C8 7425   3.104   0.074  10.278 -0.4010 -0.2838 -0.1061
  499TMC3    O1 7426   3.451   0.228   9.815  0.2786 -0.4918 -0.2592
  499TMC3    O2 7427   2.992   0.037  10.306  0.2061 -0.1223  0.0949
  500MPD2     C 7428   0.756   1.077   9.795  0.5219  0.3997  0.2579
  500MPD2    C1 7429   0.657   1.132   9.867 -0.4316 -0.2029  0.7434
  500MPD2    C2 7430   0.525   1.119   9.827 -0.1841  0.4044 -0.5254
  500MPD2    C3 7431   0.494   1.051   9.705  0.2469 -0.0176  0.8555
  500MPD2    C4 7432   0.597   0.989   9.638 -0.0158  0.1528  0.0983
  500MPD2    C5 7433   0.729   1.002   9.682  0.1134  0.2347  0.0749
  500MPD2     H 7434   0.451   1.172   9.886  1.8399  1.5323  1.0021
  500MPD2    H1 7435   0.583   0.944   9.540 -0.7035  0.3648  0.0997
  500MPD2    H2 7436   0.858   1.108   9.815  0.4479  0.9643 -0.2294
  500MPD2    H3 7437   0.811   0.977   9.615 -0.6843 -0.7060 -0.5402
  500MPD2     N 7438   0.369   1.044   9.653 -0.4975  0.5647  0.7483
  500MPD2    H5 7439   0.353   0.993   9.567 -0.0174  0.6439  0.6160
  500MPD2    N1 7440   0.678   1.209   9.983  0.2909  0.6978 -0.8610
  500MPD2    H7 7441   0.595   1.255  10.018 -1.5535 -2.8366 -0.6037
  501TMC3    C1 7442   0.779   1.267  10.183  0.0967 -0.1476  0.4346
  501TMC3    C2 7443   0.747   1.402  10.175 -0.4165 -0.4074 -0.6556
  501TMC3    C3 7444   0.795   1.484  10.275 -0.2440  0.1445  0.3176
  501TMC3    C4 7445   0.852   1.211  10.281 -0.0294 -0.1802  0.7214
  501TMC3    C5 7446   0.886   1.295  10.384  0.0665  0.7826  0.1522
  501TMC3    C6 7447   0.861   1.432  10.379 -0.1796  0.8477  0.7466
  501TMC3     C 7448   0.798   1.205  10.057 -0.1029  0.1181  0.2152
  501TMC3     O 7449   0.903   1.148  10.033 -0.5593 -0.2841 -0.3432
  501TMC3     H 7450   0.691   1.453  10.098 -1.7670  2.1978  2.0524
  501TMC3    H1 7451   0.860   1.103  10.286 -0.6760 -0.2873 -0.6638
  501TMC3    H2 7452   0.861   1.480  10.476  0.3960  0.2254  1.0569
  501TMC3    C7 7453   0.931   1.242  10.505  0.2463 -0.4754 -0.8161
  501TMC3    C8 7454   0.766   1.624  10.264 -0.7741 -0.0300  0.1007
  501TMC3    O1 7455   0.895   1.125  10.530  0.0440  0.0133 -0.5007
  501TMC3    O2 7456   0.714   1.664  10.159 -0.1497  0.4974 -0.5865
  502TMC3    C1 7457   4.212   4.090  15.452  0.3039  0.6849  0.5812
  502TMC3    C2 7458   4.222   4.194  15.362 -0.0011 -0.2056  0.0576
  502TMC3    C3 7459   4.189   4.176  15.230 -0.0020 -0.7077 -0.0976
  502TMC3    C4 7460   4.181   3.963  15.402 -0.1495  0.3121  0.2489
  502TMC3    C5 7461   4.143   3.954  15.269 -0.3578  0.1443  0.5444
  502TMC3    C6 7462   4.139   4.059  15.180 -1.0480  0.5371 -0.8344
  502TMC3     C 7463   4.138   4.121  15.578 -0.7172  0.5800 -0.2535
  502TMC3     O 7464   4.164   4.233  15.627  0.3087  0.0893  0.4036
  502TMC3     H 7465   4.245   4.294  15.396 -2.0942 -0.3480  1.9320
  502TMC3    H1 7466   4.173   3.881  15.472 -2.1027 -0.3387 -0.7237
  502TMC3    H2 7467   4.103   4.056  15.077  0.5494  0.9223 -1.4065
  502TMC3    C7 7468   4.031   3.868  15.253  0.4556  0.0116 -0.1880
  502TMC3    C8 7469   4.095   4.270  15.178 -0.0839 -0.1157  0.0216
  502TMC3    O1 7470   4.026   3.770  15.327  0.4450  0.5062 -0.5838
  502TMC3    O2 7471   3.983   4.231  15.146  0.0733  0.3718 -0.8531
  503MPD2     C 7472   1.575   0.151  16.729 -0.2603 -0.8268  0.5000
  503MPD2    C1 7473   1.618   0.216  16.834 -0.2708  0.0326  0.1743
  503MPD2    C2 7474   1.678   0.148  16.937  0.1477 -0.1435  0.1900
  503MPD2    C3 7475   1.682   0.012  16.938  0.5311  0.7377  0.3645
  503MPD2    C4 7476   1.622   4.670  16.831 -0.7003  0.4815 -0.5782
  503MPD2    C5 7477   1.579   0.012  16.718 -0.1281 -0.2057  0.2212
  503MPD2     H 7478   1.726   0.199  17.019 -1.0809  0.3474  0.6098
  503MPD2    H1 7479   1.614   4.562  16.832  2.2579  0.3061  2.4302
  503MPD2    H2 7480   1.535   0.206  16.644  2.5747 -1.9390 -1.5723
  503MPD2    H3 7481   1.547   4.672  16.637  1.6006  1.4707 -1.7990
  503MPD2     N 7482   1.742   4.668  17.045  0.3432 -0.5940 -0.0719
  503MPD2    H5 7483   1.774   0.004  17.120 -1.6653 -0.0022  0.3044
  503MPD2    N1 7484   1.614   0.356  16.851 -0.0515  0.1522 -0.5470
  503MPD2    H7 7485   1.659   0.381  16.938 -1.0713  0.5027 -0.1184
  504TMC3    C1 7486   1.846   4.499  17.170 -0.2171  0.0191  0.1824
  504TMC3    C2 7487   1.820   4.574  17.283 -0.4907 -0.0039  0.6246
  504TMC3    C3 7488   1.922   4.558  17.380 -0.1315  0.4555  0.0433
  504TMC3    C4 7489   1.961   4.437  17.145 -0.0559  0.2645 -0.0118
  504TMC3    C5 7490   2.060   4.430  17.238 -0.0520 -0.3751 -0.9924
  504TMC3    C6 7491   2.047   4.502  17.353  0.4298 -0.1531  0.2257
  504TMC3     C 7492   1.768   4.535  17.053 -0.2258  0.4440 -0.2069
  504TMC3     O 7493   1.786   4.461  16.958 -0.2347  0.1643  0.6581
  504TMC3     H 7494   1.726   4.624  17.302 -1.8964 -1.6884 -1.8966
  504TMC3    H1 7495   1.968   4.387  17.048 -0.4597  1.3899 -0.6136
  504TMC3    H2 7496   2.126   4.486  17.425  1.1148  0.0846 -0.4796
  504TMC3    C7 7497   2.193   4.414  17.179  1.0370 -0.2428 -0.1205
  504TMC3    C8 7498   1.917   4.636  17.505  0.5171 -0.0129 -0.3615
  504TMC3    O1 7499   2.188   4.345  17.077  0.3806  0.2088  0.1835
  504TMC3    O2 7500   1.853   0.016  17.507 -0.0131  0.3398  0.0088
  505MPD2     C 7501   1.494   3.804  10.381  0.6673  0.0842  0.0819
  505MPD2    C1 7502   1.541   3.721  10.282 -0.0929 -0.1061  0.9514
  505MPD2    C2 7503   1.672   3.675  10.289 -0.5001  0.0358 -0.2564
  505MPD2    C3 7504   1.753   3.702  10.400  0.3180 -0.2702 -0.4325
  505MPD2    C4 7505   1.706   3.793  10.490  0.2330  0.3629 -0.2440
  505MPD2    C5 7506   1.580   3.845  10.481 -1.0545  0.1327 -0.2435
  505MPD2     H 7507   1.712   3.609  10.214 -0.0971  2.2073 -1.9482
  505MPD2    H1 7508   1.762   3.829  10.575 -2.1131 -0.0714  1.4776
  505MPD2    H2 7509   1.389   3.831  10.379  0.6663  0.0857  0.1587
  505MPD2    H3 7510   1.547   3.905  10.565  3.4376  0.1871  1.5213
  505MPD2     N 7511   1.883   3.664  10.392  0.3493  0.1369  0.2648
  505MPD2    H5 7512   1.911   3.613  10.309  1.0192 -0.3383  0.7814
  505MPD2    N1 7513   1.467   3.697  10.168  0.6035 -0.4203  0.1139
  505MPD2    H7 7514   1.379   3.747  10.159  0.7436 -0.5974 -2.2362
  506TMC3    C1 7515   1.406   3.614   9.950  0.4908 -0.5473  0.1411
  506TMC3    C2 7516   1.358   3.740   9.926  0.4566  0.4590  1.0003
  506TMC3    C3 7517   1.367   3.792   9.799  0.0630  0.2939 -0.3199
  506TMC3    C4 7518   1.446   3.535   9.851 -0.4664  0.3788 -0.8033
  506TMC3    C5 7519   1.472   3.594   9.731 -0.0159  0.4805 -0.0361
  506TMC3    C6 7520   1.429   3.719   9.702 -0.1921  0.4192 -0.4138
  506TMC3     C 7521   1.487   3.600  10.065 -1.0529  0.4662 -0.3262
  506TMC3     O 7522   1.574   3.513  10.064  0.5377  0.2390 -0.9698
  506TMC3     H 7523   1.311   3.802  10.001  0.8102 -0.2393  1.8024
  506TMC3    H1 7524   1.486   3.438   9.875  0.1595  0.6544 -0.7268
  506TMC3    H2 7525   1.449   3.760   9.604 -1.8197 -1.8446 -1.7071
  506TMC3    C7 7526   1.608   3.579   9.687  0.3072  1.3625  0.2498
  506TMC3    C8 7527   1.361   3.931   9.793 -1.0171 -0.1760  0.0045
  506TMC3    O1 7528   1.639   3.625   9.582  0.1740 -0.3915 -0.3537
  506TMC3    O2 7529   1.263   3.991   9.844 -0.3998  0.4551  0.3203
  507TMC3    C1 7530   2.722   4.487  14.513  0.8868  0.0467  0.2197
  507TMC3    C2 7531   2.694   4.422  14.393  0.2050 -0.0954 -0.1940
  507TMC3    C3 7532   2.748   4.484  14.282 -0.3195  0.0074 -0.4029
  507TMC3    C4 7533   2.809   4.595  14.519  0.6423  0.5221 -0.4201
  507TMC3    C5 7534   2.869   4.645  14.406  0.4247 -0.1645  0.5052
  507TMC3    C6 7535   2.838   4.593  14.285 -0.0420 -0.3759 -0.5418
  507TMC3     C 7536   2.601   4.515  14.589 -0.2731 -0.2165 -0.2457
  507TMC3     O 7537   2.587   4.632  14.631 -0.0817  0.4179 -0.5985
  507TMC3     H 7538   2.625   4.339  14.383  0.5074 -0.4022  0.2438
  507TMC3    H1 7539   2.818   4.647  14.614  2.0580  2.3902 -1.5845
  507TMC3    H2 7540   2.871   4.614  14.184  0.6935  0.2666 -0.1709
  507TMC3    C7 7541   2.911   0.055  14.407 -0.2572 -0.4112 -0.0018
  507TMC3    C8 7542   2.707   4.444  14.148  0.7903  0.3532 -0.1304
  507TMC3    O1 7543   2.952   0.104  14.514  0.6087 -0.3082 -0.1526
  507TMC3    O2 7544   2.747   4.341  14.099 -0.4985  0.2798  0.3386
  508MPD2     C 7545   3.720   1.746  15.959  0.4506 -0.2225 -0.3164
  508MPD2    C1 7546   3.793   1.848  16.005 -0.5312  0.2125 -0.2951
  508MPD2    C2 7547   3.796   1.968  15.938 -0.4237 -0.2837 -0.1712
  508MPD2    C3 7548   3.723   1.986  15.821  0.6236 -0.0369  0.3082
  508MPD2    C4 7549   3.646   1.880  15.774  0.5835  0.1646  0.3579
  508MPD2    C5 7550   3.643   1.764  15.850  0.3277 -0.2277  0.7160
  508MPD2     H 7551   3.855   2.057  15.956 -0.4904 -0.6718  1.9856
  508MPD2    H1 7552   3.585   1.880  15.684  1.1306 -0.1883 -0.0190
  508MPD2    H2 7553   3.716   1.650  16.010 -0.6942 -0.2861 -0.5152
  508MPD2    H3 7554   3.587   1.680  15.809 -0.7266  0.6800  0.2933
  508MPD2     N 7555   3.731   2.116  15.753  0.0017  0.4443 -0.1492
  508MPD2    H5 7556   3.791   2.183  15.799 -2.1110  0.9387  1.9213
  508MPD2    N1 7557   3.863   1.822  16.124 -0.2308  0.6324  0.2045
  508MPD2    H7 7558   3.862   1.725  16.154  2.1779  1.0828  1.7229
  509TMC3    C1 7559   3.602   2.494  15.494 -0.2085  0.4333 -0.2526
  509TMC3    C2 7560   3.730   2.537  15.491 -0.0560  0.3032  0.6987
  509TMC3    C3 7561   3.835   2.466  15.538 -0.0893 -0.0258 -1.0039
  509TMC3    C4 7562   3.574   2.371  15.558 -0.1823 -0.1577 -0.1245
  509TMC3    C5 7563   3.674   2.299  15.616 -0.2067  1.1202  0.3633
  509TMC3    C6 7564   3.807   2.341  15.596 -1.1506 -0.2470  0.6929
  509TMC3     C 7565   3.490   2.584  15.501  0.2071  0.3433  0.5913
  509TMC3     O 7566   3.402   2.556  15.585 -0.2027  0.1330  0.6504
  509TMC3     H 7567   3.755   2.631  15.444  0.3392 -0.4420 -0.5765
  509TMC3    H1 7568   3.470   2.343  15.569 -1.1565  3.5603  0.3525
  509TMC3    H2 7569   3.894   2.285  15.629  1.3965  2.2754 -1.7645
  509TMC3    C7 7570   3.654   2.159  15.649  0.2545  0.0713 -0.2964
  509TMC3    C8 7571   3.973   2.511  15.530  0.2600  0.3677 -0.9158
  509TMC3    O1 7572   3.556   2.106  15.604 -0.4484  0.3042  0.3179
  509TMC3    O2 7573   4.058   2.426  15.545  0.0230  0.1420 -0.1529
  510MPD2     C 7574   1.641   4.429  14.621 -0.1842 -0.2757 -0.6857
  510MPD2    C1 7575   1.709   4.317  14.658  0.0124 -0.1402  0.3502
  510MPD2    C2 7576   1.798   4.272  14.560 -0.5887  0.2100 -0.7388
  510MPD2    C3 7577   1.820   4.338  14.434  0.2728 -0.1178 -0.6933
  510MPD2    C4 7578   1.761   4.459  14.421 -0.2493 -0.2272 -0.5798
  510MPD2    C5 7579   1.671   4.498  14.513  0.3893  0.4564  0.2575
  510MPD2     H 7580   1.856   4.181  14.576 -0.7773 -0.1643 -2.1465
  510MPD2    H1 7581   1.777   4.537  14.347  1.6615 -1.0043 -0.9711
  510MPD2    H2 7582   1.578   4.476  14.695  0.7187  0.2717 -0.2673
  510MPD2    H3 7583   1.623   4.594  14.501 -1.0155 -0.2782 -0.1263
  510MPD2     N 7584   1.897   4.272  14.344  0.1853 -0.4633 -0.2789
  510MPD2    H5 7585   1.940   4.189  14.383  0.7711 -1.7229 -3.6177
  510MPD2    N1 7586   1.666   4.249  14.775 -0.2092  0.5626  0.1991
  510MPD2    H7 7587   1.582   4.286  14.818  0.2697  1.0754  0.6941
  511TMC3    C1 7588   1.630   4.050  14.906 -0.8965  0.2037  0.2786
  511TMC3    C2 7589   1.534   4.111  14.985  0.0540 -0.3287  0.6155
  511TMC3    C3 7590   1.436   4.026  15.043  0.3756  0.4051 -0.3476
  511TMC3    C4 7591   1.634   3.914  14.885 -0.0817 -0.0800  0.3654
  511TMC3    C5 7592   1.525   3.845  14.923 -0.2706 -0.0796  0.0957
  511TMC3    C6 7593   1.425   3.887  15.005  0.0943 -0.8637 -0.5661
  511TMC3     C 7594   1.714   4.125  14.810 -0.0699 -0.0940  0.2557
  511TMC3     O 7595   1.820   4.073  14.770  0.3130 -0.0276  0.4713
  511TMC3     H 7596   1.542   4.213  15.020  1.4280 -0.7387  1.4894
  511TMC3    H1 7597   1.713   3.868  14.825 -0.0643  2.6518 -1.7505
  511TMC3    H2 7598   1.339   3.827  15.034  0.7430 -1.0390  1.0244
  511TMC3    C7 7599   1.500   3.726  14.847  0.2721 -0.9539  0.4301
  511TMC3    C8 7600   1.329   4.077  15.135  0.7954  0.1859 -0.0109
  511TMC3    O1 7601   1.556   3.715  14.743  0.0843 -0.0322  0.0334
  511TMC3    O2 7602   1.291   4.192  15.128 -0.3704  0.2182 -0.2481
  512TMC3    C1 7603   4.596   3.331  13.111  0.6988 -0.2853 -0.2872
  512TMC3    C2 7604   4.665   3.351  13.230 -0.1413  0.0957 -0.0116
  512TMC3    C3 7605   0.070   3.314  13.242  0.4974  0.1897  0.8394
  512TMC3    C4 7606   4.650   3.260  13.013  1.3510  0.4626  0.2598
  512TMC3    C5 7607   0.047   3.204  13.031 -0.2303 -0.5463 -0.2202
  512TMC3    C6 7608   0.120   3.247  13.136  0.4315 -0.2671  0.0718
  512TMC3     C 7609   4.463   3.376  13.096  0.8418 -0.2064 -0.8893
  512TMC3     O 7610   4.394   3.314  13.014 -0.6115 -0.1082 -0.5171
  512TMC3     H 7611   4.618   3.409  13.308  1.6906  1.9058 -0.2424
  512TMC3    H1 7612   4.595   3.244  12.920 -0.5782  1.4307  1.2204
  512TMC3    H2 7613   0.221   3.208  13.145  1.0316  1.5502  1.2797
  512TMC3    C7 7614   0.116   3.197  12.904 -0.0946  0.1546  0.8400
  512TMC3    C8 7615   0.155   3.373  13.340  0.4492 -0.1396  0.1774
  512TMC3    O1 7616   0.087   3.285  12.823  0.8831  0.3386  0.2612
  512TMC3    O2 7617   0.264   3.316  13.336 -0.1681  0.3323 -0.1372
  513MPD2     C 7618   1.895   2.873  13.522 -0.5751 -0.1016  0.1432
  513MPD2    C1 7619   1.973   2.875  13.409 -0.5848  0.2053  0.4962
  513MPD2    C2 7620   2.063   2.973  13.382 -0.2285 -0.4538  0.0134
  513MPD2    C3 7621   2.078   3.071  13.469  0.7580 -0.0611  0.5166
  513MPD2    C4 7622   2.004   3.068  13.582  0.2761  0.6244  0.6460
  513MPD2    C5 7623   1.907   2.978  13.608  0.0972 -0.6048  0.7164
  513MPD2     H 7624   2.120   2.975  13.290 -0.9413 -2.6247 -0.4749
  513MPD2    H1 7625   2.022   3.136  13.664  0.5329  0.2929  0.8664
  513MPD2    H2 7626   1.826   2.795  13.552  1.5513 -1.8623  0.5210
  513MPD2    H3 7627   1.842   2.976  13.695 -1.0422 -0.4033 -0.1321
  513MPD2     N 7628   2.180   3.169  13.446  0.3372 -0.4164 -0.3890
  513MPD2    H5 7629   2.224   3.170  13.354  0.4055 -0.2059 -0.3549
  513MPD2    N1 7630   1.979   2.777  13.310  0.4576 -0.4569  0.2945
  513MPD2    H7 7631   2.054   2.793  13.243  2.3624 -0.9912  2.3020
  514TMC3    C1 7632   1.934   2.607  13.166 -0.3890  0.6523  0.4186
  514TMC3    C2 7633   1.848   2.621  13.055 -0.0328  0.2017 -0.2114
  514TMC3    C3 7634   1.903   2.621  12.932  0.6821  0.1774  0.5367
  514TMC3    C4 7635   2.066   2.604  13.151  0.0674  0.5856  0.0363
  514TMC3    C5 7636   2.123   2.617  13.025  0.0201  0.0095  0.0770
  514TMC3    C6 7637   2.038   2.619  12.915  0.0650 -0.3678  0.1693
  514TMC3     C 7638   1.891   2.673  13.285 -0.2353 -0.0391 -0.6008
  514TMC3     O 7639   1.798   2.643  13.359 -0.0037 -0.3478  0.5346
  514TMC3     H 7640   1.743   2.611  13.081 -0.0860  0.9616 -0.1517
  514TMC3    H1 7641   2.142   2.619  13.227 -0.5862  1.6428  0.4800
  514TMC3    H2 7642   2.069   2.649  12.816 -0.7271 -0.3087 -0.0660
  514TMC3    C7 7643   2.199   2.736  13.030  0.3310  0.7157  0.1662
  514TMC3    C8 7644   1.804   2.663  12.824  0.8055  0.4725  0.8402
  514TMC3    O1 7645   2.154   2.828  13.099 -0.7469  0.2357  0.2009
  514TMC3    O2 7646   1.691   2.692  12.867  0.8904  0.1174  0.1754
  515MPD2     C 7647   0.253   0.540  15.250  0.5114  0.2221  0.2558
  515MPD2    C1 7648   0.278   0.510  15.118 -0.4441 -0.4263  0.4599
  515MPD2    C2 7649   0.388   0.562  15.054  0.3289  0.6505  0.8979
  515MPD2    C3 7650   0.461   0.667  15.121  0.7499  0.1347 -0.2415
  515MPD2    C4 7651   0.432   0.695  15.252 -0.2791  0.1684  0.3007
  515MPD2    C5 7652   0.325   0.636  15.307  0.2070 -0.0703  0.5674
  515MPD2     H 7653   0.413   0.538  14.951  0.8369  0.6364  1.0268
  515MPD2    H1 7654   0.493   0.761  15.312  0.0346  0.2971 -0.1642
  515MPD2    H2 7655   0.166   0.496  15.297  0.7293 -0.0379  0.4235
  515MPD2    H3 7656   0.294   0.663  15.407  1.0579 -1.1001  1.1039
  515MPD2     N 7657   0.587   0.718  15.080 -0.0491 -0.0972 -0.5208
  515MPD2    H5 7658   0.637   0.770  15.152 -1.2675  1.2612 -0.6585
  515MPD2    N1 7659   0.201   0.404  15.058 -0.8103  0.0608  0.3138
  515MPD2    H7 7660   0.222   0.384  14.961  0.1837  0.7485  0.3819
  516TMC3    C1 7661   0.079   0.206  15.027 -0.4820  0.5293 -0.1886
  516TMC3    C2 7662   0.071   0.234  14.895 -0.0316  0.3819 -0.1210
  516TMC3    C3 7663   0.106   0.133  14.814 -0.3706 -0.0384 -0.0781
  516TMC3    C4 7664   0.100   0.077  15.073 -0.7067 -0.3274 -0.5846
  516TMC3    C5 7665   0.111   4.695  14.988  0.0421  0.7858 -0.2818
  516TMC3    C6 7666   0.113   4.724  14.850 -0.1106 -0.3630 -0.1464
  516TMC3     C 7667   0.118   0.314  15.120 -0.2152  0.4441 -0.0054
  516TMC3     O 7668   0.104   0.292  15.238  0.1717  0.6970 -0.1174
  516TMC3     H 7669   0.044   0.335  14.866  0.2634 -0.2886 -2.8009
  516TMC3    H1 7670   0.092   0.051  15.178 -1.6196 -1.6042 -0.9655
  516TMC3    H2 7671   0.141   4.654  14.772  1.2953  2.0299 -1.8014
  516TMC3    C7 7672   0.133   4.564  15.041  0.2348 -0.3404 -0.3208
  516TMC3    C8 7673   0.091   0.163  14.672  0.9238  0.0214 -0.7887
  516TMC3    O1 7674   0.174   4.562  15.154 -0.3754  0.0136 -0.5346
  516TMC3    O2 7675   4.717   0.224  14.643  1.0650  0.1785 -0.0120
  517MPD2     C 7676   0.201   1.884   0.091  0.2343 -0.2223 -0.7120
  517MPD2    C1 7677   0.330   1.851   0.120  0.1646 -1.2368  0.0887
  517MPD2    C2 7678   0.395   1.918   0.221  0.1708 -0.3628  0.0995
  517MPD2    C3 7679   0.330   2.010   0.297  0.0730  0.0212  0.1392
  517MPD2    C4 7680   0.197   2.036   0.279 -0.5421  0.4064  0.1299
  517MPD2    C5 7681   0.135   1.973   0.169  0.3203  0.3809 -0.2698
  517MPD2     H 7682   0.500   1.892   0.233  0.2605 -0.2372 -0.4402
  517MPD2    H1 7683   0.139   2.104   0.341 -2.4123 -1.0665 -0.0235
  517MPD2    H2 7684   0.142   1.842   0.010  2.2638 -0.4508 -2.0793
  517MPD2    H3 7685   0.030   1.996   0.152  0.1522  1.5797  2.3320
  517MPD2     N 7686   0.394   2.087   0.399 -0.6624  0.7187 -0.2629
  517MPD2    H5 7687   0.334   2.135   0.465 -1.9222  0.3825 -1.1627
  517MPD2    N1 7688   0.401   1.756   0.044  0.5069 -0.4644  0.4481
  517MPD2    H7 7689   0.495   1.738   0.078 -0.3023 -1.9618  1.8669
  518TMC3    C1 7690   0.442   1.559  17.622 -0.5587 -0.6686 -0.4979
  518TMC3    C2 7691   0.395   1.434  17.590 -0.2303  0.4158 -0.1108
  518TMC3    C3 7692   0.478   1.345  17.536  0.2727  0.0035  0.2393
  518TMC3    C4 7693   0.573   1.599  17.610  0.6964 -0.0265  0.0399
  518TMC3    C5 7694   0.655   1.506  17.552 -0.9124 -0.0722  0.1642
  518TMC3    C6 7695   0.609   1.377  17.529 -0.7056 -0.4288  0.0761
  518TMC3     C 7696   0.347   1.663  17.654 -0.0496 -0.2821  0.1803
  518TMC3     O 7697   0.227   1.647  17.627 -0.8181  0.1827 -0.2995
  518TMC3     H 7698   0.293   1.441  17.553 -0.9431 -2.0405  1.4056
  518TMC3    H1 7699   0.608   1.697  17.641 -1.1992  0.4956  0.5188
  518TMC3    H2 7700   0.674   1.308  17.475  0.4944 -0.6397  1.7885
  518TMC3    C7 7701   0.780   1.510  17.611 -0.4500 -0.0563 -0.6004
  518TMC3    C8 7702   0.433   1.209  17.516 -0.2240 -0.8587  0.3797
  518TMC3    O1 7703   0.781   1.552   0.027  1.1222 -0.3338  0.1511
  518TMC3    O2 7704   0.511   1.130  17.461 -0.5972 -0.5428 -0.3233
  519MPD2     C 7705   1.646   0.181  14.602  0.2385  0.3096 -0.2859
  519MPD2    C1 7706   1.610   0.224  14.485 -0.9091  0.1943 -0.1461
  519MPD2    C2 7707   1.681   0.176  14.380 -1.0697 -0.3406  0.2076
  519MPD2    C3 7708   1.780   0.083  14.397  0.2012  0.2457 -0.2615
  519MPD2    C4 7709   1.814   0.041  14.524 -1.0580  0.7001  0.6259
  519MPD2    C5 7710   1.740   0.090  14.627 -0.7987 -0.4204 -0.2562
  519MPD2     H 7711   1.659   0.203  14.278  3.4709 -0.4147 -0.7825
  519MPD2    H1 7712   1.886   4.692  14.556  0.4879  1.4315 -1.1817
  519MPD2    H2 7713   1.597   0.220  14.690 -2.0922 -2.9037 -0.1533
  519MPD2    H3 7714   1.760   0.044  14.724 -0.5246 -3.9505 -1.9770
  519MPD2     N 7715   1.861   0.037  14.288  0.1058 -0.0107  0.5127
  519MPD2    H5 7716   1.948   4.714  14.308  1.5088  2.4370  0.2355
  519MPD2    N1 7717   1.507   0.319  14.467  0.6204 -0.6905  0.1930
  519MPD2    H7 7718   1.445   0.347  14.542 -1.2702 -1.6025 -1.0402
  520TMC3    C1 7719   1.942   0.034  14.063 -0.9287  0.3744 -0.3688
  520TMC3    C2 7720   1.941   0.102  13.946  0.1098  0.8540  0.1615
  520TMC3    C3 7721   2.041   0.066  13.854 -0.0077  0.1807  1.6744
  520TMC3    C4 7722   2.031   4.650  14.090 -0.2507  0.3238  0.1823
  520TMC3    C5 7723   2.139   4.637  14.008  0.2026  0.8037 -0.0311
  520TMC3    C6 7724   2.139   4.699  13.882  0.0179  0.0670  0.2895
  520TMC3     C 7725   1.832   0.060  14.152  0.2401 -0.4748 -0.9310
  520TMC3     O 7726   1.733   0.090  14.095  0.1976 -0.3209 -0.4384
  520TMC3     H 7727   1.886   0.194  13.929 -0.7330  0.1481 -0.8643
  520TMC3    H1 7728   2.016   4.592  14.181 -0.3863 -0.3599 -0.2763
  520TMC3    H2 7729   2.218   4.687  13.808  1.1139 -2.5962  1.9148
  520TMC3    C7 7730   2.227   4.526  14.025 -0.4718  0.0158  0.2864
  520TMC3    C8 7731   1.999   0.083  13.718  0.3205  0.2362  0.0677
  520TMC3    O1 7732   2.272   4.496  14.137  0.0147 -0.1716 -0.3541
  520TMC3    O2 7733   2.082   0.117  13.631  0.8427  0.2282  0.5002
  521MPD2     C 7734   2.546   2.447  17.465  0.1941  0.8314 -0.5903
  521MPD2    C1 7735   2.507   2.384  17.344 -0.0959 -0.1442 -0.2179
  521MPD2    C2 7736   2.603   2.310  17.276 -0.1024 -0.0054 -0.1980
  521MPD2    C3 7737   2.732   2.287  17.329  0.0076 -1.0908 -0.4034
  521MPD2    C4 7738   2.767   2.352  17.448  0.4675  0.3710  0.3481
  521MPD2    C5 7739   2.670   2.415  17.517 -0.6052  0.0353  0.6492
  521MPD2     H 7740   2.573   2.248  17.193 -1.3823  1.0609 -0.5286
  521MPD2    H1 7741   2.870   2.352  17.482  0.4316 -0.0149  0.4558
  521MPD2    H2 7742   2.488   2.518  17.522  0.6301  0.4002  0.3836
  521MPD2    H3 7743   2.679   2.451  17.619  0.8728  3.5774 -0.7355
  521MPD2     N 7744   2.827   2.205  17.258  0.2079  0.1743  0.3609
  521MPD2    H5 7745   2.784   2.167  17.174  0.2047 -0.6637  0.7427
  521MPD2    N1 7746   2.374   2.398  17.300  0.2220  0.4510  0.2534
  521MPD2    H7 7747   2.328   2.473  17.351  1.2807  2.4054 -1.6749
  522TMC3    C1 7748   3.034   2.114  17.182 -0.2824  0.3337  0.4675
  522TMC3    C2 7749   3.169   2.088  17.210  0.1377 -0.1568 -0.7720
  522TMC3    C3 7750   3.247   2.044  17.105 -0.3785 -0.2084 -0.0579
  522TMC3    C4 7751   2.980   2.083  17.061  0.1402 -0.2223  0.6068
  522TMC3    C5 7752   3.058   2.039  16.959  0.0145 -0.3382  0.5132
  522TMC3    C6 7753   3.193   2.020  16.979 -0.3565 -0.2359  0.0112
  522TMC3     C 7754   2.957   2.186  17.289  0.3867 -0.4277 -0.1292
  522TMC3     O 7755   3.021   2.218  17.390  0.3067  0.1360  0.4031
  522TMC3     H 7756   3.219   2.125  17.299 -1.9517 -2.6199  1.4119
  522TMC3    H1 7757   2.875   2.105  17.039  0.9176 -0.4840 -3.4334
  522TMC3    H2 7758   3.252   1.974  16.900  0.6755 -0.9731  1.2048
  522TMC3    C7 7759   2.990   1.989  16.836  0.3206 -0.0687  0.1419
  522TMC3    C8 7760   3.392   2.010  17.132  0.4980 -0.0166  0.1624
  522TMC3    O1 7761   3.032   1.879  16.793  0.1363 -0.1462 -0.5595
  522TMC3    O2 7762   3.428   2.019  17.251 -0.0760 -0.4504 -0.1501
  523MPD2     C 7763   0.650   2.885  10.531  0.1494  0.2460 -0.0148
  523MPD2    C1 7764   0.693   2.867  10.406 -0.0133 -0.1853  0.2309
  523MPD2    C2 7765   0.650   2.951  10.303 -0.7837 -0.0670  0.3161
  523MPD2    C3 7766   0.556   3.053  10.327  0.7451 -0.6808  0.1285
  523MPD2    C4 7767   0.504   3.059  10.457 -0.4390  0.1267 -0.0007
  523MPD2    C5 7768   0.553   2.980  10.556  0.1388 -0.7482  0.6554
  523MPD2     H 7769   0.686   2.929  10.203  0.3425  1.7286  0.3317
  523MPD2    H1 7770   0.427   3.134  10.475 -0.3865  0.3034 -0.5231
  523MPD2    H2 7771   0.692   2.820  10.606 -4.0723 -1.1409  1.1467
  523MPD2    H3 7772   0.516   2.990  10.658 -0.4341 -0.6441  0.4389
  523MPD2     N 7773   0.509   3.153  10.238  0.2988 -0.3844 -0.6189
  523MPD2    H5 7774   0.453   3.226  10.281 -0.4989 -1.1203 -0.3861
  523MPD2    N1 7775   0.783   2.762  10.385 -0.1646 -0.0839 -0.6525
  523MPD2    H7 7776   0.835   2.726  10.464  1.4715  2.9384 -0.3474
  524TMC3    C1 7777   0.488   3.281  10.042  0.5015  0.0935  0.3299
  524TMC3    C2 7778   0.559   3.349   9.947 -0.4367  1.2115  0.2057
  524TMC3    C3 7779   0.486   3.446   9.881 -0.4553  0.6063  0.4329
  524TMC3    C4 7780   0.353   3.303  10.056 -0.2332 -0.1147 -0.2779
  524TMC3    C5 7781   0.285   3.391   9.980  0.4272 -0.0089 -0.2903
  524TMC3    C6 7782   0.347   3.461   9.887  0.3470 -0.0799  0.2086
  524TMC3     C 7783   0.558   3.179  10.111  0.3034  0.5113  0.1954
  524TMC3     O 7784   0.640   3.117  10.045  0.0599  0.1846  0.5662
  524TMC3     H 7785   0.666   3.350   9.965 -0.3174 -0.3430 -0.4058
  524TMC3    H1 7786   0.300   3.237  10.124 -0.6907  0.2892 -0.2459
  524TMC3    H2 7787   0.298   3.549   9.846 -0.8343 -0.9851 -0.3003
  524TMC3    C7 7788   0.151   3.429  10.021 -0.4645  0.3635  0.6377
  524TMC3    C8 7789   0.562   3.557   9.814  0.3789  0.9009 -0.2832
  524TMC3    O1 7790   0.111   3.391  10.129 -0.6060  0.0908 -0.2373
  524TMC3    O2 7791   0.492   3.644   9.769 -0.5173 -0.2073  0.1307
  525MPD2     C 7792   3.153   4.322  14.300  0.2280  0.2431 -0.2295
  525MPD2    C1 7793   3.211   4.374  14.419 -0.6243 -0.2737 -0.5188
  525MPD2    C2 7794   3.236   4.509  14.423  0.6696  0.3731  0.1679
  525MPD2    C3 7795   3.211   4.587  14.315  0.6160 -0.2561 -0.0143
  525MPD2    C4 7796   3.157   4.533  14.202  0.0037 -0.6136 -0.5442
  525MPD2    C5 7797   3.128   4.406  14.195 -0.0675 -0.0314 -0.0107
  525MPD2     H 7798   3.275   4.558  14.512  0.2076 -1.3691  1.3273
  525MPD2    H1 7799   3.123   4.598  14.122  1.1173 -1.1767 -1.4716
  525MPD2    H2 7800   3.134   4.216  14.291 -1.1133  0.4421  0.2458
  525MPD2    H3 7801   3.074   4.360  14.113  1.6655 -0.7556 -0.7318
  525MPD2     N 7802   3.230   0.006  14.325 -0.0503 -0.2971  0.6046
  525MPD2    H5 7803   3.245   0.036  14.421 -0.7651  1.0044  0.3058
  525MPD2    N1 7804   3.246   4.293  14.531  1.0315  0.3009  0.2410
  525MPD2    H7 7805   3.312   4.327  14.599  0.2417  1.7720  0.2557
  526TMC3    C1 7806   3.261   4.114  14.684 -0.0707  0.5444 -0.6972
  526TMC3    C2 7807   3.203   4.010  14.756 -0.0903  0.1013  0.3540
  526TMC3    C3 7808   3.273   3.944  14.849 -0.1654  0.0071 -0.4853
  526TMC3    C4 7809   3.391   4.152  14.714 -0.4391  0.1827  0.1674
  526TMC3    C5 7810   3.452   4.085  14.816  0.7143 -0.6243 -0.0772
  526TMC3    C6 7811   3.399   3.981  14.883  0.2915  0.4406  0.6682
  526TMC3     C 7812   3.193   4.171  14.569 -0.1147  0.1380 -0.4392
  526TMC3     O 7813   3.095   4.114  14.519  0.2728 -0.1835  0.3655
  526TMC3     H 7814   3.109   3.970  14.719  0.0581 -1.3131  1.5280
  526TMC3    H1 7815   3.445   4.220  14.650 -0.8509  0.8662  0.5424
  526TMC3    H2 7816   3.442   3.937  14.972  1.7005  2.9988  1.2565
  526TMC3    C7 7817   3.597   4.124  14.844 -0.5630 -0.6515 -0.0043
  526TMC3    C8 7818   3.203   3.879  14.960 -0.5296  0.9692  0.2887
  526TMC3    O1 7819   3.632   4.242  14.833 -0.4025  0.4763 -0.1433
  526TMC3    O2 7820   3.265   3.818  15.051  0.4561 -0.3443 -0.5905
  527MPD2     C 7821   1.348   1.745   1.185  0.0893  0.5871  0.6223
  527MPD2    C1 7822   1.452   1.823   1.216 -0.6502 -0.5118  0.5730
  527MPD2    C2 7823   1.579   1.774   1.194  0.0218 -0.6138  0.6422
  527MPD2    C3 7824   1.609   1.648   1.151  0.3445  0.3379 -0.1252
  527MPD2    C4 7825   1.502   1.568   1.128  0.4698 -0.1864  0.5235
  527MPD2    C5 7826   1.369   1.614   1.136  0.3986  0.6390  0.8977
  527MPD2     H 7827   1.655   1.846   1.221 -0.5105  0.6571 -1.2660
  527MPD2    H1 7828   1.517   1.462   1.109  1.1360 -0.1080  0.6107
  527MPD2    H2 7829   1.245   1.770   1.208  0.1399  1.4085 -0.0082
  527MPD2    H3 7830   1.297   1.534   1.125  0.6508  0.3411  1.4101
  527MPD2     N 7831   1.741   1.610   1.127 -0.6840  0.4085 -0.1953
  527MPD2    H5 7832   1.804   1.688   1.142  0.3199 -0.4828  0.1598
  527MPD2    N1 7833   1.427   1.958   1.253  0.2416 -0.1107 -0.7914
  527MPD2    H7 7834   1.501   2.015   1.293 -1.2249  0.8254  0.5376
  528TMC3    C1 7835   1.327   2.162   1.286 -0.3273  0.0122 -0.8555
  528TMC3    C2 7836   1.404   2.184   1.397 -0.0667 -0.1127 -0.0071
  528TMC3    C3 7837   1.402   2.304   1.451  0.4728  0.1082  0.2712
  528TMC3    C4 7838   1.250   2.261   1.225  0.0076  0.2926 -0.0095
  528TMC3    C5 7839   1.246   2.382   1.288  0.4218 -0.1936 -0.8880
  528TMC3    C6 7840   1.326   2.409   1.400 -0.4089 -0.0972  0.2265
  528TMC3     C 7841   1.316   2.024   1.237  0.1760 -0.5166  0.2831
  528TMC3     O 7842   1.222   1.998   1.165 -0.2011 -0.5748 -0.3209
  528TMC3     H 7843   1.459   2.098   1.435  0.8288  1.3430  2.0304
  528TMC3    H1 7844   1.178   2.229   1.151 -1.4349  2.1262  0.5940
  528TMC3    H2 7845   1.332   2.510   1.437 -3.5918  0.5847 -1.1399
  528TMC3    C7 7846   1.120   2.449   1.287 -0.8477 -0.4315 -0.0562
  528TMC3    C8 7847   1.469   2.342   1.571  0.5605 -0.0664 -0.3657
  528TMC3    O1 7848   1.092   2.518   1.388  0.2188 -0.2779  0.3004
  528TMC3    O2 7849   1.464   2.457   1.616  0.4911 -0.4753  0.6534
  529MPD2     C 7850   3.139   0.027   0.326 -0.6970  0.6594 -0.1050
  529MPD2    C1 7851   3.243   0.096   0.387  0.0167 -0.2469  0.8630
  529MPD2    C2 7852   3.293   0.214   0.333 -0.5684  0.3261  0.5358
  529MPD2    C3 7853   3.224   0.270   0.226 -0.1656  0.0250  0.3546
  529MPD2    C4 7854   3.132   0.196   0.161  1.0222  0.5905  0.1937
  529MPD2    C5 7855   3.088   0.070   0.211  0.3173  0.3843 -0.1113
  529MPD2     H 7856   3.367   0.269   0.390  0.1945 -0.0938 -0.0631
  529MPD2    H1 7857   3.094   0.224   0.063  2.5911  0.4931 -0.4641
  529MPD2    H2 7858   3.109   4.651   0.351 -1.3602  1.3875  2.0584
  529MPD2    H3 7859   3.015   0.015   0.153 -0.1982 -0.7484  1.6319
  529MPD2     N 7860   3.265   0.386   0.153 -0.5027  0.4565 -1.0006
  529MPD2    H5 7861   3.225   0.399   0.061  0.4510 -1.4054 -1.6722
  529MPD2    N1 7862   3.288   0.058   0.514 -0.3925  0.3706 -0.6330
  529MPD2    H7 7863   3.347   0.124   0.564  0.4427 -0.0207 -1.1103
  530TMC3    C1 7864   3.326   4.646   0.710  0.3297  0.2680 -0.4129
  530TMC3    C2 7865   3.412   0.013   0.762 -0.5898  0.1266  0.1354
  530TMC3    C3 7866   3.490   4.694   0.864  0.8955  0.3966 -0.4029
  530TMC3    C4 7867   3.298   4.521   0.764 -0.1107 -0.9610  0.1162
  530TMC3    C5 7868   3.366   4.491   0.877  1.3151  0.4753  0.4742
  530TMC3    C6 7869   3.466   4.576   0.930 -0.0631 -0.2155  0.1620
  530TMC3     C 7870   3.269   4.657   0.573 -0.4085 -0.0945  0.2446
  530TMC3     O 7871   3.196   4.565   0.531 -0.7167 -0.8041 -0.3615
  530TMC3     H 7872   3.431   0.105   0.708 -0.7187  0.4766  0.6959
  530TMC3    H1 7873   3.241   4.442   0.715 -0.4682 -1.1399  0.8209
  530TMC3    H2 7874   3.534   4.537   1.005 -0.0162  0.5890  0.5282
  530TMC3    C7 7875   3.378   4.353   0.924 -0.0597  0.2597  0.6820
  530TMC3    C8 7876   3.591   0.065   0.915 -0.1864 -0.3075 -0.6203
  530TMC3    O1 7877   3.490   4.322   0.964  0.3162  0.3281 -0.5763
  530TMC3    O2 7878   3.598   0.177   0.861 -0.4607 -0.5819  0.5814
  531MPD2     C 7879   2.631   3.018  12.964 -0.9100 -0.1306  0.1177
  531MPD2    C1 7880   2.514   3.047  13.034 -0.6024 -0.7031  0.1225
  531MPD2    C2 7881   2.408   2.950  13.038 -0.4439  0.5662  0.7002
  531MPD2    C3 7882   2.423   2.831  12.970  0.0805  0.3182 -0.0871
  531MPD2    C4 7883   2.537   2.809  12.896  0.3887  0.1590 -1.4667
  531MPD2    C5 7884   2.637   2.903  12.891  0.0379  0.2741  0.1355
  531MPD2     H 7885   2.323   2.966  13.104  1.0568  2.0569  2.2702
  531MPD2    H1 7886   2.553   2.722  12.834 -0.0120  0.6129 -2.2090
  531MPD2    H2 7887   2.722   3.073  12.984  0.8202 -2.0743 -2.4700
  531MPD2    H3 7888   2.732   2.879  12.845  0.8076  2.1688  0.7345
  531MPD2     N 7889   2.322   2.728  12.972 -0.1651 -0.3373 -0.3817
  531MPD2    H5 7890   2.350   2.645  12.921  0.1656  1.3729 -3.0079
  531MPD2    N1 7891   2.511   3.164  13.109 -0.1636  0.7916  0.0746
  531MPD2    H7 7892   2.597   3.218  13.109  0.5961 -0.4030 -0.8449
  532TMC3    C1 7893   2.435   3.323  13.272 -0.1490 -0.3024  0.6460
  532TMC3    C2 7894   2.318   3.363  13.350  0.0584 -0.2775  0.9567
  532TMC3    C3 7895   2.329   3.348  13.486 -0.2000  0.5873 -0.4465
  532TMC3    C4 7896   2.545   3.288  13.340  0.6469 -0.7876  0.0267
  532TMC3    C5 7897   2.554   3.308  13.478  0.1369 -0.8556 -0.0083
  532TMC3    C6 7898   2.450   3.346  13.553  0.0781  0.1482  0.0879
  532TMC3     C 7899   2.406   3.223  13.178 -0.7912  0.8388 -0.0206
  532TMC3     O 7900   2.294   3.177  13.194 -0.1609 -0.3463  0.7621
  532TMC3     H 7901   2.223   3.380  13.301  0.8180 -4.1641 -1.8981
  532TMC3    H1 7902   2.631   3.244  13.292  1.4031  0.7390 -0.0126
  532TMC3    H2 7903   2.447   3.337  13.661 -2.4146  1.0844  0.0890
  532TMC3    C7 7904   2.674   3.268  13.552 -0.2085 -0.4374 -0.2619
  532TMC3    C8 7905   2.224   3.263  13.542 -0.0089  0.4506 -0.0191
  532TMC3    O1 7906   2.678   3.331  13.653 -0.3257  0.1235 -0.2486
  532TMC3    O2 7907   2.208   3.267  13.664 -0.0864  0.1586  0.4159
  533TMC3    C1 7908   3.245   0.225  14.273 -0.7441  0.5713  0.0058
  533TMC3    C2 7909   3.338   0.292  14.203 -0.4530 -0.0809  0.1348
  533TMC3    C3 7910   3.422   0.369  14.273  0.4883 -0.1199  0.1482
  533TMC3    C4 7911   3.221   0.253  14.406  0.7416  0.1830  0.2444
  533TMC3    C5 7912   3.318   0.321  14.478  0.1813  0.4230  0.5262
  533TMC3    C6 7913   3.420   0.378  14.410  0.3690  1.0974  0.2155
  533TMC3     C 7914   3.224   0.093  14.222  0.3347  0.0431 -0.1089
  533TMC3     O 7915   3.220   0.080  14.100  0.9586 -0.1957  0.0551
  533TMC3     H 7916   3.374   0.280  14.102 -3.9262 -2.3239 -0.8235
  533TMC3    H1 7917   3.145   0.203  14.466 -0.0219  0.6883 -0.3053
  533TMC3    H2 7918   3.487   0.445  14.462  0.0154  2.2443 -0.7823
  533TMC3    C7 7919   3.347   0.233  14.594  0.1414 -0.3739  0.2655
  533TMC3    C8 7920   3.544   0.404  14.197  1.0744 -0.4154 -0.3132
  533TMC3    O1 7921   3.319   0.112  14.574 -0.0145 -0.0531 -0.4662
  533TMC3    O2 7922   3.551   0.414  14.077 -0.1392  0.5157 -0.3506
  534MPD2     C 7923   0.988   1.702   2.120  0.2388  0.0721  0.3923
  534MPD2    C1 7924   0.951   1.720   1.986  0.1748 -0.2284 -0.2074
  534MPD2    C2 7925   0.898   1.615   1.918 -0.0277 -0.3148 -0.3712
  534MPD2    C3 7926   0.877   1.488   1.974  0.5401  0.2407 -0.0161
  534MPD2    C4 7927   0.898   1.478   2.106 -1.4035  0.8530 -0.2492
  534MPD2    C5 7928   0.963   1.574   2.177 -1.1935 -0.0051  0.3129
  534MPD2     H 7929   0.864   1.628   1.816  0.6338 -1.0928 -0.6945
  534MPD2    H1 7930   0.882   1.385   2.158 -2.8061  0.9188 -0.5610
  534MPD2    H2 7931   1.022   1.782   2.184  0.9150 -1.4234  1.8766
  534MPD2    H3 7932   0.990   1.554   2.280  1.0232 -1.8545 -0.6259
  534MPD2     N 7933   0.805   1.386   1.902  0.1351 -0.1930 -0.3157
  534MPD2    H5 7934   0.792   1.297   1.951 -0.2914  0.0194 -0.0404
  534MPD2    N1 7935   0.969   1.849   1.923 -0.2879  0.5052 -0.5965
  534MPD2    H7 7936   0.920   1.864   1.835 -2.2947  1.7621  0.7315
  535TMC3    C1 7937   0.694   1.271   1.719 -0.6024 -0.1480  0.3565
  535TMC3    C2 7938   0.583   1.257   1.790 -0.0193  0.4792 -1.1884
  535TMC3    C3 7939   0.466   1.219   1.728  0.1815  1.1797  0.1394
  535TMC3    C4 7940   0.698   1.255   1.588  0.3581  0.5446  0.0262
  535TMC3    C5 7941   0.583   1.212   1.532  0.0594 -0.9322 -0.3243
  535TMC3    C6 7942   0.470   1.183   1.594 -0.0680 -0.3881 -0.8841
  535TMC3     C 7943   0.785   1.379   1.768 -0.0509  0.0358  0.1097
  535TMC3     O 7944   0.839   1.447   1.679 -0.3618 -0.4371 -0.3726
  535TMC3     H 7945   0.571   1.295   1.891  1.5029  0.4221 -0.9881
  535TMC3    H1 7946   0.790   1.252   1.532  1.3528  1.0446  1.6240
  535TMC3    H2 7947   0.382   1.139   1.548 -2.5267  4.6902 -1.0237
  535TMC3    C7 7948   0.604   1.178   1.393  0.2911 -0.5627  0.4162
  535TMC3    C8 7949   0.354   1.162   1.805  0.1183  0.0182 -0.4492
  535TMC3    O1 7950   0.717   1.171   1.352  0.0785 -0.3946 -0.3660
  535TMC3    O2 7951   0.259   1.121   1.749  0.1024  0.1735 -0.6123
  536MPD2     C 7952   3.734   3.238  16.749 -0.3935 -0.5502  0.1158
  536MPD2    C1 7953   3.791   3.354  16.701 -1.2027  0.0877  0.5437
  536MPD2    C2 7954   3.761   3.404  16.576 -0.6408 -0.0109 -0.4603
  536MPD2    C3 7955   3.676   3.327  16.493  0.1445  0.8510  0.4838
  536MPD2    C4 7956   3.620   3.210  16.541 -0.1828 -0.0515 -0.8428
  536MPD2    C5 7957   3.653   3.167  16.667  0.4798 -0.6792 -0.2940
  536MPD2     H 7958   3.807   3.498  16.546  0.0842  0.1985  1.3219
  536MPD2    H1 7959   3.564   3.144  16.477 -2.0780  0.2823  0.4758
  536MPD2    H2 7960   3.756   3.197  16.847  0.4727  0.3676  0.3083
  536MPD2    H3 7961   3.610   3.074  16.703 -1.0700  0.2844  0.3314
  536MPD2     N 7962   3.651   3.345  16.358  0.3408  0.7887 -0.1887
  536MPD2    H5 7963   3.584   3.278  16.319  1.9618 -1.4852  0.9012
  536MPD2    N1 7964   3.878   3.417  16.790  0.2183 -0.1068 -0.1146
  536MPD2    H7 7965   3.866   3.381  16.884  1.2741 -2.1627 -0.7544
  537TMC3    C1 7966   4.067   3.533  16.875  0.4541  0.5608  0.5959
  537TMC3    C2 7967   4.143   3.648  16.873  0.1566 -0.3262  0.2715
  537TMC3    C3 7968   4.221   3.674  16.984  0.6849 -0.0647  0.1816
  537TMC3    C4 7969   4.062   3.439  16.978  0.7475  0.6159  0.7427
  537TMC3    C5 7970   4.139   3.472  17.082  0.2040 -0.1810 -0.2605
  537TMC3    C6 7971   4.215   3.587  17.088 -0.0475 -0.1085  0.5005
  537TMC3     C 7972   3.980   3.505  16.758 -0.3247  0.1569 -0.3432
  537TMC3     O 7973   4.029   3.537  16.651  0.4802 -0.4655  0.0856
  537TMC3     H 7974   4.117   3.726  16.803 -3.1193 -0.6272  1.1790
  537TMC3    H1 7975   4.026   3.339  16.960  1.4405  0.7474 -1.3369
  537TMC3    H2 7976   4.257   3.611  17.185 -0.9966  0.2061  0.8374
  537TMC3    C7 7977   4.139   3.386  17.197  0.1464  0.7973 -0.2107
  537TMC3    C8 7978   4.302   3.787  16.991  0.0236 -1.1944 -0.1074
  537TMC3    O1 7979   4.044   3.308  17.203 -0.3128  0.0353  0.1759
  537TMC3    O2 7980   4.351   3.822  17.097  0.3124  0.1125  0.0833
  538TMC3    C1 7981   1.486   2.734  11.450  0.0327 -0.5302 -0.3649
  538TMC3    C2 7982   1.566   2.660  11.364 -0.1456 -0.3118  0.5169
  538TMC3    C3 7983   1.535   2.655  11.235 -0.5032 -0.2221  0.2260
  538TMC3    C4 7984   1.378   2.807  11.408 -0.1560  0.3552 -0.0721
  538TMC3    C5 7985   1.348   2.788  11.271 -0.1044  0.2183  0.0031
  538TMC3    C6 7986   1.425   2.717  11.184 -0.3440 -0.1121 -0.4391
  538TMC3     C 7987   1.505   2.719  11.601 -0.0538  0.5900 -0.0700
  538TMC3     O 7988   1.416   2.757  11.680 -0.0102 -0.0218  0.6521
  538TMC3     H 7989   1.643   2.595  11.404  0.3766 -0.8217 -1.2722
  538TMC3    H1 7990   1.311   2.856  11.478 -0.4979 -1.0137  0.5632
  538TMC3    H2 7991   1.388   2.708  11.083  0.5906 -2.5041 -0.5704
  538TMC3    C7 7992   1.229   2.851  11.218  0.7900  0.4241  0.2430
  538TMC3    C8 7993   1.596   2.551  11.159 -0.7664  0.2917 -0.6885
  538TMC3    O1 7994   1.166   2.789  11.133 -0.0695  0.0141 -0.1107
  538TMC3    O2 7995   1.599   2.435  11.199  0.3193  0.7499  0.3380
  539MPD2     C 7996   1.053   2.537  12.032  0.1111  0.7484  0.4750
  539MPD2    C1 7997   0.968   2.428  12.005 -1.0768  0.1526  0.4696
  539MPD2    C2 7998   0.828   2.452  11.997  0.7805 -0.4289  0.5077
  539MPD2    C3 7999   0.782   2.588  12.011  0.2119 -0.2751  0.6030
  539MPD2    C4 8000   0.872   2.691  12.040  0.2319 -0.2764 -0.8399
  539MPD2    C5 8001   1.006   2.668  12.050  0.7213 -0.1940 -0.1481
  539MPD2     H 8002   0.760   2.371  11.972  0.9238 -0.5925  0.6505
  539MPD2    H1 8003   0.828   2.790  12.048 -1.2044 -0.9964  0.0567
  539MPD2    H2 8004   1.160   2.527  12.046  0.1915  0.0432 -0.6343
  539MPD2    H3 8005   1.081   2.737  12.087 -1.2037  0.9460  1.6016
  539MPD2     N 8006   0.651   2.621  11.996 -0.4812 -0.1346  1.6098
  539MPD2    H5 8007   0.630   2.719  11.979  1.3457 -0.0329 -0.2294
  539MPD2    N1 8008   1.020   2.301  11.975  0.1449 -0.1024 -0.4121
  539MPD2    H7 8009   0.950   2.235  11.943  1.5832 -0.7064 -2.3182
  540TMC3    C1 8010   0.434   2.593  11.922 -1.3139 -0.5954  0.2199
  540TMC3    C2 8011   0.440   2.602  11.785 -0.0000 -0.1676  1.0444
  540TMC3    C3 8012   0.403   2.718  11.728 -0.8614 -0.0753  0.1510
  540TMC3    C4 8013   0.391   2.702  11.995  0.0316  0.3123  0.3130
  540TMC3    C5 8014   0.346   2.814  11.930  0.0286 -0.0944 -0.2330
  540TMC3    C6 8015   0.365   2.828  11.797 -0.8863  0.1649 -0.2494
  540TMC3     C 8016   0.545   2.528  11.980  0.8868  0.3671  0.5315
  540TMC3     O 8017   0.543   2.409  11.996  0.3476 -0.0042  0.3836
  540TMC3     H 8018   0.488   2.527  11.723  0.7381 -0.2007  1.6647
  540TMC3    H1 8019   0.390   2.690  12.103  2.0077  0.8801  0.4001
  540TMC3    H2 8020   0.323   2.913  11.746  3.7534  1.0522 -2.4957
  540TMC3    C7 8021   0.214   2.843  11.980 -0.2237  0.3032  0.2866
  540TMC3    C8 8022   0.470   2.761  11.607  0.6658 -0.2163  0.5018
  540TMC3    O1 8023   0.171   2.762  12.063 -0.2772 -0.1670 -0.3262
  540TMC3    O2 8024   0.527   2.868  11.606 -0.1205 -0.4888  0.0217
  541MPD2     C 8025   3.729   3.535  12.948  0.6153 -0.1660 -0.0191
  541MPD2    C1 8026   3.755   3.464  12.837 -0.2567  0.1342 -0.4156
  541MPD2    C2 8027   3.768   3.527  12.718  0.4427  0.7269  0.3626
  541MPD2    C3 8028   3.762   3.670  12.710  0.1810 -0.5249  0.6787
  541MPD2    C4 8029   3.727   3.741  12.821 -0.1687 -0.5088 -0.0274
  541MPD2    C5 8030   3.721   3.672  12.937 -0.3194 -0.0643 -0.3874
  541MPD2     H 8031   3.795   3.469  12.630  0.0104 -0.4282  0.9970
  541MPD2    H1 8032   3.707   3.847  12.825  0.9655 -0.2067 -2.3659
  541MPD2    H2 8033   3.702   3.492  13.044  4.1821 -1.3526  0.4494
  541MPD2    H3 8034   3.683   3.722  13.026 -1.3436 -1.4038 -0.0853
  541MPD2     N 8035   3.769   3.737  12.590  0.3542  0.6919  0.3818
  541MPD2    H5 8036   3.759   3.838  12.588 -1.1782  0.5712  2.2460
  541MPD2    N1 8037   3.752   3.320  12.850  0.4871 -0.0736  0.1623
  541MPD2    H7 8038   3.737   3.291  12.947 -1.6783 -0.1997 -0.1961
  542TMC3    C1 8039   3.796   3.765  12.360  0.3119 -0.3271 -0.6111
  542TMC3    C2 8040   3.867   3.726  12.250  0.2883  0.5261  0.5775
  542TMC3    C3 8041   3.882   3.819  12.148 -0.6197  0.5943  0.6757
  542TMC3    C4 8042   3.753   3.900  12.374  0.1412 -0.2168 -0.4665
  542TMC3    C5 8043   3.763   3.982  12.261 -0.5084  0.0047 -0.6575
  542TMC3    C6 8044   3.841   3.946  12.154 -0.5524 -0.1577  0.9160
  542TMC3     C 8045   3.793   3.673  12.467 -0.0339  0.3635 -0.4250
  542TMC3     O 8046   3.820   3.552  12.437  0.4271 -0.7857  0.1709
  542TMC3     H 8047   3.889   3.621  12.231 -3.2111 -0.1315  0.1002
  542TMC3    H1 8048   3.680   3.927  12.449 -0.5797 -2.3443 -0.3919
  542TMC3    H2 8049   3.862   4.017  12.075 -0.7226  0.0123  1.0241
  542TMC3    C7 8050   3.736   4.117  12.291  0.2681  0.0531 -0.7014
  542TMC3    C8 8051   3.937   3.779  12.017  0.8690 -0.0571 -0.6568
  542TMC3    O1 8052   3.730   4.147  12.407 -0.0856  0.1149 -0.0081
  542TMC3    O2 8053   3.892   3.833  11.916 -0.5111 -0.2621 -0.4995
  543TMC3    C1 8054   3.267   4.597  17.253  0.4012 -0.5681  0.6179
  543TMC3    C2 8055   3.138   4.580  17.280  0.0333 -0.0578  0.1249
  543TMC3    C3 8056   3.100   4.599  17.409  0.2674 -0.3859  0.6960
  543TMC3    C4 8057   3.357   4.640  17.348  0.2401 -0.1168  0.6516
  543TMC3    C5 8058   3.308   4.668  17.476 -0.2341 -0.6308 -0.3224
  543TMC3    C6 8059   3.175   4.650  17.509 -0.3644  0.4536 -0.3832
  543TMC3     C 8060   3.312   4.595  17.111  0.0587  0.2784  1.3847
  543TMC3     O 8061   3.431   4.591  17.088 -0.2668  0.1989 -0.1990
  543TMC3     H 8062   3.068   4.532  17.213  1.7776 -0.4562 -1.4202
  543TMC3    H1 8063   3.463   4.639  17.326  0.1910  0.3141  0.4127
  543TMC3    H2 8064   3.138   4.680  17.606 -0.1249 -0.5956  0.0408
  543TMC3    C7 8065   3.398   0.008  17.572  0.5701 -0.2946  0.2791
  543TMC3    C8 8066   2.962   4.554  17.441  0.5462 -0.5644  0.3472
  543TMC3    O1 8067   3.386   4.687  17.685 -0.1235  0.3402  0.9524
  543TMC3    O2 8068   2.915   4.454  17.383  0.0475  0.4302 -0.1286
  544MPD2     C 8069   2.507   4.623  17.660 -0.4044  0.8630  0.1646
  544MPD2    C1 8070   2.558   4.509  17.605  0.1469  0.2906  0.9495
  544MPD2    C2 8071   2.685   4.511  17.551  0.6806 -0.6196  0.4191
  544MPD2    C3 8072   2.756   4.630  17.560  0.2866  0.5007 -0.4714
  544MPD2    C4 8073   2.710   0.011  17.633  0.2296 -0.0738 -0.0029
  544MPD2    C5 8074   2.581   0.010  17.680  0.6859  0.4799  0.5172
  544MPD2     H 8075   2.716   4.423  17.496  0.3095 -1.1231  1.0082
  544MPD2    H1 8076   2.764   0.103  17.650  2.2816 -1.0293 -1.2091
  544MPD2    H2 8077   2.409   4.620   0.005  0.4955  1.2079  2.1614
  544MPD2    H3 8078   2.550   0.108   0.014  2.2070  1.4712 -0.9728
  544MPD2     N 8079   2.883   4.650  17.505 -0.4287  0.2228  0.2619
  544MPD2    H5 8080   2.920   0.018  17.521 -1.0904  0.3624  0.9914
  544MPD2    N1 8081   2.471   4.399  17.604 -0.2406  0.1652 -0.3122
  544MPD2    H7 8082   2.389   4.402  17.664 -1.0023 -0.9186 -1.3170
  545TMC3    C1 8083   2.388   4.180  17.564 -0.2150 -0.3800  0.0949
  545TMC3    C2 8084   2.262   4.226  17.593 -1.0264  0.3062  0.3591
  545TMC3    C3 8085   2.160   4.133  17.627  0.5352 -0.3172  0.0396
  545TMC3    C4 8086   2.422   4.051  17.589 -0.2173  0.0290  0.4415
  545TMC3    C5 8087   2.322   3.968  17.635  0.2629 -0.0217  0.1589
  545TMC3    C6 8088   2.189   4.003  17.640  0.3478  0.4951  0.0503
  545TMC3     C 8089   2.498   4.274  17.556  0.5772  1.1655 -0.0646
  545TMC3     O 8090   2.601   4.242  17.500  0.0377 -0.3364 -0.1396
  545TMC3     H 8091   2.242   4.332  17.577 -0.1963  0.3441 -0.4535
  545TMC3    H1 8092   2.529   4.035  17.593 -0.0799  0.6815 -0.6921
  545TMC3    H2 8093   2.119   3.925  17.667  3.6381 -3.3679 -2.5917
  545TMC3    C7 8094   2.354   3.825  17.648  0.1100  0.3037  0.4209
  545TMC3    C8 8095   2.023   4.179  17.631 -0.0359 -0.1276  0.1478
  545TMC3    O1 8096   2.265   3.750  17.683 -0.0040  0.4729 -0.5507
  545TMC3    O2 8097   1.996   4.275  17.555  0.3235  0.0646 -0.3398
  546MPD2     C 8098   0.039   4.438  17.578 -0.1165 -0.4604  0.1331
  546MPD2    C1 8099   4.723   4.472  17.450 -0.3663  0.1775  0.2158
  546MPD2    C2 8100   0.049   4.592  17.396  0.0899  0.2703  0.7145
  546MPD2    C3 8101   0.129   4.681  17.472  1.2471 -0.3014 -0.4007
  546MPD2    C4 8102   0.160   4.641  17.600 -0.2749 -0.2239 -0.0846
  546MPD2    C5 8103   0.108   4.525  17.650  0.2382  0.2919 -0.0243
  546MPD2     H 8104   0.035   4.614  17.291 -2.3615 -1.3268  0.6951
  546MPD2    H1 8105   0.236   4.683  17.664 -0.5236  0.2934 -0.1361
  546MPD2    H2 8106   0.019   4.347  17.635 -0.0971 -0.7250 -0.2879
  546MPD2    H3 8107   0.145   4.506   0.051 -0.3015 -0.7694 -0.0281
  546MPD2     N 8108   0.188   0.078  17.433  0.9530  0.0113 -0.3181
  546MPD2    H5 8109   0.226   0.131  17.511 -0.1990 -0.1408  0.3496
  546MPD2    N1 8110   4.631   4.388  17.374 -0.7379  0.3329  0.1986
  546MPD2    H7 8111   4.589   4.307  17.418  0.0602 -0.3147 -0.2270
  547TMC3    C1 8112   4.497   4.328  17.184 -0.6685 -0.0636  0.1874
  547TMC3    C2 8113   4.485   4.325  17.042  0.7315 -0.4060 -0.1171
  547TMC3    C3 8114   4.381   4.250  16.999 -0.1852 -0.2642 -0.7215
  547TMC3    C4 8115   4.410   4.263  17.270  0.3119 -0.8461 -0.2541
  547TMC3    C5 8116   4.315   4.181  17.213  0.0720 -0.2299  0.0075
  547TMC3    C6 8117   4.289   4.177  17.076 -0.5944  0.0386  0.4001
  547TMC3     C 8118   4.612   4.403  17.239  0.4285 -0.2431 -0.7283
  547TMC3     O 8119   4.688   4.447  17.153  0.3524 -0.0358 -0.0067
  547TMC3     H 8120   4.555   4.376  16.978  0.4279 -0.7092 -0.6864
  547TMC3    H1 8121   4.410   4.280  17.377  2.0117 -0.3596 -0.3285
  547TMC3    H2 8122   4.221   4.106  17.029  1.2117 -1.5368  0.1617
  547TMC3    C7 8123   4.220   4.130  17.310 -0.3314  0.7191 -0.7839
  547TMC3    C8 8124   4.342   4.289  16.866 -0.3177 -0.4169 -0.2371
  547TMC3    O1 8125   4.248   4.123  17.432  0.2415 -0.0740  0.6118
  547TMC3    O2 8126   4.421   4.353  16.796  0.8877 -0.2394 -0.3106
  548MPD2     C 8127   4.471   0.345  12.000  0.2979 -0.7989  0.4893
  548MPD2    C1 8128   4.396   0.260  12.084  0.8101  0.2116 -1.0425
  548MPD2    C2 8129   4.419   0.124  12.068  0.0409 -0.1814 -0.1369
  548MPD2    C3 8130   4.489   0.075  11.958  0.0931 -0.2063 -0.2920
  548MPD2    C4 8131   4.536   0.159  11.863  0.1183 -0.7882 -0.4001
  548MPD2    C5 8132   4.543   0.295  11.890  0.4663  0.2546 -0.0202
  548MPD2     H 8133   4.372   0.062  12.144  1.4312  0.5795  1.3267
  548MPD2    H1 8134   4.583   0.123  11.771 -0.6169 -1.7596 -0.3957
  548MPD2    H2 8135   4.481   0.453  12.005  1.7863 -1.0541  3.2148
  548MPD2    H3 8136   4.578   0.364  11.814  0.8248 -1.9288 -1.8312
  548MPD2     N 8137   4.506   4.658  11.970 -0.7321 -0.4062 -0.1716
  548MPD2    H5 8138   4.468   4.612  12.052 -0.0215  3.3505  2.2754
  548MPD2    N1 8139   4.312   0.311  12.191 -0.0838  0.0876  0.0336
  548MPD2    H7 8140   4.289   0.409  12.181  0.2513  0.2409  0.7585
  549TMC3    C1 8141   4.149   0.316  12.371  0.1583 -0.5372  0.0893
  549TMC3    C2 8142   4.089   0.425  12.308 -0.2078  0.0168 -0.2889
  549TMC3    C3 8143   3.965   0.462  12.355  0.1372 -0.6776  0.3073
  549TMC3    C4 8144   4.087   0.245  12.473 -0.4840 -0.0774 -0.0505
  549TMC3    C5 8145   3.952   0.272  12.488 -0.3872 -0.4819 -0.8057
  549TMC3    C6 8146   3.891   0.389  12.447 -0.0168 -0.8156  0.2289
  549TMC3     C 8147   4.264   0.246  12.307 -0.6651  0.8780  0.1269
  549TMC3     O 8148   4.276   0.128  12.336 -0.2941 -0.3064  0.3329
  549TMC3     H 8149   4.146   0.479  12.232  0.7655  1.4466  1.4607
  549TMC3    H1 8150   4.148   0.176  12.530 -2.3589  0.1023  2.2087
  549TMC3    H2 8151   3.790   0.411  12.478  0.5488 -0.2109  1.6822
  549TMC3    C7 8152   3.865   0.159  12.512  0.0270 -0.0110  0.0054
  549TMC3    C8 8153   3.922   0.602  12.337 -0.9816  0.2175  1.0461
  549TMC3    O1 8154   3.743   0.174  12.514  0.0151  0.6836  0.4804
  549TMC3    O2 8155   3.812   0.632  12.377  0.2393 -0.4720  0.0849
  550TMC3    C1 8156   2.915   3.213  12.610  0.0233  0.3004 -0.9082
  550TMC3    C2 8157   2.838   3.274  12.704 -0.6351 -0.4637 -0.7129
  550TMC3    C3 8158   2.697   3.254  12.709  0.0303 -0.9005  0.3001
  550TMC3    C4 8159   2.855   3.154  12.503 -0.3748 -0.2319 -0.2077
  550TMC3    C5 8160   2.718   3.143  12.504 -0.5471 -0.0672  0.1224
  550TMC3    C6 8161   2.638   3.188  12.602 -0.0754  0.0870  0.3631
  550TMC3     C 8162   3.054   3.264  12.600  0.2156 -0.6059 -0.6103
  550TMC3     O 8163   3.101   3.305  12.704 -0.2476 -0.4380 -0.0405
  550TMC3     H 8164   2.876   3.343  12.779  2.6788 -1.1651 -1.7633
  550TMC3    H1 8165   2.909   3.108  12.421 -1.6297  0.9776 -1.7347
  550TMC3    H2 8166   2.532   3.169  12.594 -0.1732 -0.0628  2.0187
  550TMC3    C7 8167   2.652   3.081  12.395  1.2515 -0.2955  0.3768
  550TMC3    C8 8168   2.621   3.340  12.797  0.2864  0.0139  0.1123
  550TMC3    O1 8169   2.549   3.014  12.422  0.3809  0.4695  0.6585
  550TMC3    O2 8170   2.685   3.422  12.860 -0.5009 -0.8621 -0.0054
  551TMC3    C1 8171   0.895   0.944  13.368  0.1728 -0.0348 -0.8419
  551TMC3    C2 8172   0.999   0.856  13.346 -0.0048  0.0975 -0.0049
  551TMC3    C3 8173   1.090   0.835  13.447 -0.1335  0.4520  0.1123
  551TMC3    C4 8174   0.876   1.009  13.490 -0.0431  0.1771 -0.0831
  551TMC3    C5 8175   0.970   0.971  13.582 -0.0059 -0.1387  0.1250
  551TMC3    C6 8176   1.071   0.887  13.567  0.0774 -0.8542  0.3978
  551TMC3     C 8177   0.782   0.947  13.277  0.1237  0.7485 -0.2755
  551TMC3     O 8178   0.739   1.051  13.234 -0.3892 -0.0228  0.3223
  551TMC3     H 8179   1.022   0.792  13.261 -1.0619 -0.0721 -0.1709
  551TMC3    H1 8180   0.793   1.078  13.503 -1.7019 -1.6207 -1.1103
  551TMC3    H2 8181   1.149   0.886  13.643 -1.4355  0.5001  1.9502
  551TMC3    C7 8182   0.981   1.051  13.706 -0.1951 -0.4135  0.8978
  551TMC3    C8 8183   1.234   0.831  13.408 -0.5050  0.2312 -0.3481
  551TMC3    O1 8184   1.000   0.986  13.811 -0.2503  0.0619 -0.1442
  551TMC3    O2 8185   1.272   0.753  13.321  0.3087 -0.7390 -0.1753
  552MPD2     C 8186   2.716   3.142  13.941 -0.6040  0.4732 -0.0181
  552MPD2    C1 8187   2.739   3.009  13.938 -0.0671 -0.0214 -0.6136
  552MPD2    C2 8188   2.850   2.952  13.989  0.0592  0.8087  0.3803
  552MPD2    C3 8189   2.939   3.035  14.056  0.3934  0.1627  0.2477
  552MPD2    C4 8190   2.923   3.175  14.060 -0.1237 -0.3613  0.5086
  552MPD2    C5 8191   2.815   3.222  13.997 -0.5731  0.0228  0.1961
  552MPD2     H 8192   2.855   2.844  13.999  1.6699  0.7858 -0.8345
  552MPD2    H1 8193   3.000   3.235  14.108  1.1386 -2.6582  1.3681
  552MPD2    H2 8194   2.634   3.194  13.893 -0.4686 -0.3611 -1.1626
  552MPD2    H3 8195   2.804   3.330  13.989 -0.3628  0.0973  0.8422
  552MPD2     N 8196   3.044   2.983  14.134  0.0222  0.1220  0.2164
  552MPD2    H5 8197   3.102   3.044  14.190  2.6823  0.0329 -2.4495
  552MPD2    N1 8198   2.638   2.929  13.879  0.4572 -0.3162  0.1604
  552MPD2    H7 8199   2.655   2.829  13.873  1.1132 -0.2015  0.1875
  553TMC3    C1 8200   2.432   2.850  13.792 -0.2169  0.6978 -0.1764
  553TMC3    C2 8201   2.358   2.855  13.678 -0.2692  0.4282  0.4261
  553TMC3    C3 8202   2.294   2.738  13.637  0.6459  0.7868  0.1085
  553TMC3    C4 8203   2.468   2.733  13.847  0.4671 -0.0209  0.3630
  553TMC3    C5 8204   2.415   2.619  13.801 -0.2318 -0.2509 -0.0534
  553TMC3    C6 8205   2.309   2.624  13.713 -0.1573 -0.1789 -0.5576
  553TMC3     C 8206   2.514   2.964  13.827  0.3103 -0.0879 -0.3174
  553TMC3     O 8207   2.462   3.071  13.819 -0.6361 -0.4357 -0.5366
  553TMC3     H 8208   2.335   2.955  13.645  1.9519  0.2852 -1.5610
  553TMC3    H1 8209   2.517   2.722  13.943  0.1149  2.7310  0.8579
  553TMC3    H2 8210   2.255   2.536  13.680  0.7577 -1.1145  0.4971
  553TMC3    C7 8211   2.464   2.497  13.856 -0.9717 -0.1906 -0.6283
  553TMC3    C8 8212   2.314   2.723  13.487  0.0747 -0.2158  0.2070
  553TMC3    O1 8213   2.382   2.426  13.913  0.1678  0.3296 -0.3033
  553TMC3    O2 8214   2.386   2.808  13.441 -0.0386 -0.6074 -0.4866
  554TMC3    C1 8215   4.284   2.370  11.630 -0.8413  0.5059 -0.5474
  554TMC3    C2 8216   4.245   2.369  11.498 -0.2011  0.6824 -0.5267
  554TMC3    C3 8217   4.260   2.487  11.429  0.7005 -0.1698  0.4211
  554TMC3    C4 8218   4.326   2.488  11.693  1.2303  0.4922 -0.0455
  554TMC3    C5 8219   4.347   2.600  11.614 -0.3018  0.4241 -0.0519
  554TMC3    C6 8220   4.312   2.602  11.484  0.4546 -0.5856 -0.5688
  554TMC3     C 8221   4.298   2.241  11.692 -0.4744 -0.1408 -0.1071
  554TMC3     O 8222   4.225   2.154  11.646 -0.7806 -0.2922  0.1019
  554TMC3     H 8223   4.229   2.276  11.444 -2.2738  0.2244  0.8525
  554TMC3    H1 8224   4.381   2.489  11.786  1.0181 -0.2325  0.0878
  554TMC3    H2 8225   4.318   2.687  11.417  2.0699 -1.4627 -1.5432
  554TMC3    C7 8226   4.445   2.702  11.661  0.1715  0.4828 -0.5168
  554TMC3    C8 8227   4.262   2.480  11.283 -0.2843  0.1284 -0.2810
  554TMC3    O1 8228   4.447   2.721  11.783 -0.3465 -0.5885  0.0561
  554TMC3    O2 8229   4.324   2.561  11.216 -0.3480 -0.1609 -0.2322
  555TMC3    C1 8230   3.810   1.275  15.211 -0.4984 -0.3291 -0.1669
  555TMC3    C2 8231   3.769   1.354  15.305  0.7961 -0.4403 -0.1407
  555TMC3    C3 8232   3.778   1.320  15.438  0.4370 -0.3418  0.1910
  555TMC3    C4 8233   3.858   1.152  15.236  0.2180  0.8948  0.1657
  555TMC3    C5 8234   3.861   1.108  15.367  0.1411 -0.5962  0.1072
  555TMC3    C6 8235   3.820   1.194  15.468 -0.1418  0.2607 -0.3985
  555TMC3     C 8236   3.835   1.332  15.073  0.3488 -0.5889 -1.0943
  555TMC3     O 8237   3.920   1.275  15.003 -0.9899 -0.0989  0.0207
  555TMC3     H 8238   3.745   1.458  15.284  1.6283 -0.0752  0.7194
  555TMC3    H1 8239   3.907   1.091  15.162  0.5304  1.1798  0.1346
  555TMC3    H2 8240   3.825   1.152  15.568  0.2787 -3.0736 -1.8061
  555TMC3    C7 8241   3.888   0.966  15.384 -0.5913  0.3402 -0.6741
  555TMC3    C8 8242   3.820   1.436  15.515  0.2896 -0.0026 -0.3791
  555TMC3    O1 8243   3.817   0.919  15.475  0.4293 -0.1699  0.4400
  555TMC3    O2 8244   3.780   1.546  15.476 -0.2033  0.0220 -0.3191
  556MPD2     C 8245   2.392   3.477  10.655  0.3838 -0.6469  0.8453
  556MPD2    C1 8246   2.274   3.442  10.720 -0.4761 -0.4093 -0.3777
  556MPD2    C2 8247   2.201   3.339  10.666  0.1247 -0.9077 -0.4807
  556MPD2    C3 8248   2.241   3.259  10.558 -0.4179  0.5114  0.5474
  556MPD2    C4 8249   2.364   3.289  10.500 -0.1986 -0.9944  0.5676
  556MPD2    C5 8250   2.435   3.395  10.550 -0.2179 -0.2037 -0.5532
  556MPD2     H 8251   2.099   3.336  10.703  0.8707  1.7901  1.8100
  556MPD2    H1 8252   2.411   3.233  10.420 -0.7029 -0.4650 -0.0991
  556MPD2    H2 8253   2.463   3.556  10.674  0.1253  0.2709 -1.9820
  556MPD2    H3 8254   2.528   3.419  10.500  0.5923  1.2998  1.6376
  556MPD2     N 8255   2.155   3.158  10.513  0.0986 -0.2175 -0.6682
  556MPD2    H5 8256   2.076   3.142  10.574  0.6149 -2.7848 -0.6751
  556MPD2    N1 8257   2.222   3.511  10.831 -0.2658  0.0489  0.1731
  556MPD2    H7 8258   2.137   3.469  10.868 -0.8909  1.7853  0.6995
  557TMC3    C1 8259   2.100   2.964  10.393 -0.3295 -0.6202 -0.1562
  557TMC3    C2 8260   2.094   2.901  10.269  0.5357  0.3524 -0.1897
  557TMC3    C3 8261   2.061   2.771  10.276  0.0448 -0.0765 -0.0581
  557TMC3    C4 8262   2.050   2.911  10.503 -0.0839 -0.0023 -0.4101
  557TMC3    C5 8263   1.999   2.785  10.506  0.8239 -0.0830 -0.3525
  557TMC3    C6 8264   2.004   2.712  10.389 -0.3323  0.1373  0.3846
  557TMC3     C 8265   2.180   3.086  10.402  0.0779  0.4900  0.1006
  557TMC3     O 8266   2.268   3.092  10.320  0.1944  0.0214  0.8676
  557TMC3     H 8267   2.134   2.952  10.182 -0.8862 -0.5817 -1.3989
  557TMC3    H1 8268   2.059   2.957  10.600  0.3626 -1.1036  0.0758
  557TMC3    H2 8269   1.982   2.606  10.382 -1.6600  0.4561 -0.0969
  557TMC3    C7 8270   1.922   2.751  10.619 -0.2901 -0.5704  0.3759
  557TMC3    C8 8271   2.014   2.729  10.145 -0.0815 -0.8733 -0.0238
  557TMC3    O1 8272   1.887   2.840  10.695  0.1219 -0.0266 -0.2218
  557TMC3    O2 8273   1.988   2.820  10.070  0.3085 -0.2868 -0.0611
  558TMC3    C1 8274   0.139   1.084   9.642 -0.0673 -0.0943 -0.5658
  558TMC3    C2 8275   0.034   1.107   9.723 -0.2856  0.6406 -0.8902
  558TMC3    C3 8276   4.632   1.066   9.693 -0.5259 -0.0533  0.0595
  558TMC3    C4 8277   0.118   1.040   9.516  0.3523 -0.5058  0.1674
  558TMC3    C5 8278   4.711   0.997   9.481 -0.4193 -0.2077  0.4785
  558TMC3    C6 8279   4.604   1.011   9.566 -0.6812  0.7841 -0.0073
  558TMC3     C 8280   0.264   1.116   9.701  0.0757 -0.0973  0.1476
  558TMC3     O 8281   0.261   1.183   9.802  0.3197 -0.1700 -0.6898
  558TMC3     H 8282   0.047   1.157   9.819 -2.4206  1.0380 -0.7998
  558TMC3    H1 8283   0.204   1.009   9.458  1.9445  2.6374  0.9170
  558TMC3    H2 8284   4.501   0.984   9.544 -0.6781  1.8084 -1.2855
  558TMC3    C7 8285   4.715   0.891   9.387 -1.0395 -1.0176 -0.0522
  558TMC3    C8 8286   4.536   1.120   9.775 -0.7007  0.0863 -0.8591
  558TMC3    O1 8287   0.088   0.879   9.312 -0.1515 -0.2651  0.3447
  558TMC3    O2 8288   4.426   1.138   9.726 -0.3423 -0.2223 -0.0245
  559MPD2     C 8289   4.487   2.127  10.643 -0.3302  0.1017 -0.0631
  559MPD2    C1 8290   4.418   2.061  10.731 -0.0892 -0.6483  0.8563
  559MPD2    C2 8291   4.471   2.023  10.847 -0.6705 -0.2377  0.1534
  559MPD2    C3 8292   4.597   2.059  10.893  0.3058  0.0670  0.4519
  559MPD2    C4 8293   4.669   2.133  10.804 -0.1767 -0.0154  0.1260
  559MPD2    C5 8294   4.616   2.164  10.682  0.0167 -0.0375  0.4620
  559MPD2     H 8295   4.410   1.974  10.922 -1.8695 -1.3020 -1.5428
  559MPD2    H1 8296   0.043   2.171  10.827 -1.5598  3.0529  1.0182
  559MPD2    H2 8297   4.456   2.151  10.542  0.1894  3.6358  0.6091
  559MPD2    H3 8298   4.676   2.229  10.619  0.4782 -0.8575  0.0541
  559MPD2     N 8299   4.643   2.014  11.021 -0.0175  0.2698 -0.6618
  559MPD2    H5 8300   4.578   1.984  11.093  0.7853 -2.0429 -0.8940
  559MPD2    N1 8301   4.293   2.014  10.696  0.4280  0.5307 -0.0407
  559MPD2    H7 8302   4.257   2.051  10.609 -1.2013 -2.6432 -0.7033
  560TMC3    C1 8303   0.069   1.960  11.182 -0.1556 -0.5431 -0.0116
  560TMC3    C2 8304   0.010   1.833  11.198  0.6467 -0.3771  0.0137
  560TMC3    C3 8305   0.040   1.762  11.303 -0.4555  0.6795  0.0359
  560TMC3    C4 8306   0.149   2.016  11.280  0.1841 -0.4003 -0.3638
  560TMC3    C5 8307   0.166   1.943  11.396  0.7019 -0.1307  0.4053
  560TMC3    C6 8308   0.119   1.814  11.406  0.4923  0.1637 -0.0081
  560TMC3     C 8309   0.046   2.031  11.066 -0.0278  0.2585 -0.1436
  560TMC3     O 8310   0.146   2.075  11.004  0.4713  0.0274 -0.9301
  560TMC3     H 8311   4.686   1.789  11.111 -1.0278  1.1971  0.1637
  560TMC3    H1 8312   0.201   2.108  11.258 -2.9443  1.7233  0.9882
  560TMC3    H2 8313   0.128   1.756  11.497  3.4865  1.9285  0.8295
  560TMC3    C7 8314   0.244   1.989  11.503  0.2353 -0.2441  0.0826
  560TMC3    C8 8315   4.718   1.628  11.294  0.3922  0.3916 -0.0408
  560TMC3    O1 8316   0.201   1.965  11.615 -0.6242  0.2708 -0.0485
  560TMC3    O2 8317   4.605   1.609  11.252  0.1678 -0.2485 -0.9439
  561TMC3    C1 8318   2.034   0.911  11.255  0.0263  0.7523  0.2465
  561TMC3    C2 8319   1.920   0.902  11.335  0.1001  0.2608 -0.7986
  561TMC3    C3 8320   1.893   0.988  11.436  0.4057 -0.1744 -0.0635
  561TMC3    C4 8321   2.123   1.007  11.290 -0.0894 -0.0920  0.4916
  561TMC3    C5 8322   2.093   1.095  11.386 -0.6234 -0.8586 -0.4173
  561TMC3    C6 8323   1.975   1.090  11.467 -1.5185  0.1445 -0.1661
  561TMC3     C 8324   2.060   0.804  11.158 -0.4565 -0.0796  0.0400
  561TMC3     O 8325   1.958   0.758  11.111  0.0924 -0.4011 -0.0920
  561TMC3     H 8326   1.869   0.810  11.311  0.8922 -0.6820  1.1429
  561TMC3    H1 8327   2.214   1.022  11.233 -1.6761  0.5525 -1.8297
  561TMC3    H2 8328   1.962   1.148  11.558  1.4517 -0.6407  0.7639
  561TMC3    C7 8329   2.194   1.185  11.438  0.3134  0.2649 -0.4237
  561TMC3    C8 8330   1.830   0.916  11.551 -0.0445 -0.5060 -0.0512
  561TMC3    O1 8331   2.179   1.218  11.556 -0.0304  0.4633 -0.1342
  561TMC3    O2 8332   1.785   0.806  11.522 -0.0235  0.1069 -0.1394
  562TMC3    C1 8333   3.337   1.953  16.199  0.6281  0.0006 -0.1982
  562TMC3    C2 8334   3.212   2.001  16.165  0.0339  0.2001 -0.0566
  562TMC3    C3 8335   3.148   1.947  16.053 -0.0476 -0.3288  0.7804
  562TMC3    C4 8336   3.394   1.856  16.126 -0.5221 -0.3781 -0.3686
  562TMC3    C5 8337   3.323   1.810  16.020 -0.2134  0.1255 -0.2421
  562TMC3    C6 8338   3.202   1.850  15.981  0.1221  0.4468 -0.5831
  562TMC3     C 8339   3.389   1.993  16.333 -0.2624  0.0435 -1.0564
  562TMC3     O 8340   3.510   1.975  16.351 -0.6445 -0.1272 -0.4969
  562TMC3     H 8341   3.173   2.093  16.206  1.2378 -0.2098  2.0057
  562TMC3    H1 8342   3.491   1.811  16.143 -0.0680  0.3161 -1.1241
  562TMC3    H2 8343   3.142   1.796  15.909 -0.4500 -1.1454  1.1133
  562TMC3    C7 8344   3.348   1.677  15.980 -0.0097 -0.1916  0.1431
  562TMC3    C8 8345   3.038   2.029  15.996  0.2399 -0.3436 -0.3673
  562TMC3    O1 8346   3.282   1.631  15.890  0.0276 -0.3495 -0.2250
  562TMC3    O2 8347   2.979   2.096  16.078 -0.0601 -0.5276  0.0899
  563MPD2     C 8348   0.781   3.037  15.656 -0.0776 -0.0223 -0.0186
  563MPD2    C1 8349   0.836   3.117  15.748 -0.2634  0.2533 -0.4289
  563MPD2    C2 8350   0.957   3.082  15.809  0.4655  0.0869 -0.3894
  563MPD2    C3 8351   1.035   2.975  15.764 -0.3958 -0.1342 -1.0815
  563MPD2    C4 8352   0.978   2.885  15.671  0.0453  0.0592  0.1258
  563MPD2    C5 8353   0.858   2.931  15.614 -0.2261  0.2517  0.2749
  563MPD2     H 8354   0.994   3.141  15.892  1.4453 -0.1060 -0.6888
  563MPD2    H1 8355   1.022   2.803  15.616 -0.6562 -0.8255  0.8874
  563MPD2    H2 8356   0.687   3.050  15.604 -0.0874  1.6528  0.3959
  563MPD2    H3 8357   0.817   2.868  15.536  0.8903  1.2722 -1.1225
  563MPD2     N 8358   1.159   2.952  15.828 -0.0434  0.3261 -0.6362
  563MPD2    H5 8359   1.188   3.016  15.901  0.1211  0.1341 -0.5310
  563MPD2    N1 8360   0.752   3.217  15.798  0.1319 -0.8524 -0.8432
  563MPD2    H7 8361   0.653   3.213  15.777  0.4160  1.8730 -2.6665
  564TMC3    C1 8362   0.731   3.296  16.017  0.7803 -0.0498  0.1418
  564TMC3    C2 8363   0.604   3.252  16.012 -0.3768 -0.0110 -0.2103
  564TMC3    C3 8364   0.548   3.167  16.107  0.6722 -0.5753 -0.3396
  564TMC3    C4 8365   0.815   3.247  16.113 -0.3572  0.2492 -0.6729
  564TMC3    C5 8366   0.762   3.156  16.201  0.3481  0.4857  0.0136
  564TMC3    C6 8367   0.628   3.118  16.205 -0.5260  0.3308  0.1469
  564TMC3     C 8368   0.797   3.306  15.892 -0.4745  0.9658 -0.2236
  564TMC3     O 8369   0.908   3.356  15.894 -0.3216  0.5186  0.6813
  564TMC3     H 8370   0.526   3.292  15.948  0.6325  0.7494 -0.9616
  564TMC3    H1 8371   0.920   3.270  16.102  0.2301 -0.8984  2.4970
  564TMC3    H2 8372   0.610   3.041  16.279 -3.9031  1.3298  0.3666
  564TMC3    C7 8373   0.840   3.031  16.219 -0.2767 -0.8125 -0.7623
  564TMC3    C8 8374   0.440   3.080  16.070 -0.4670 -0.2791 -0.3806
  564TMC3    O1 8375   0.950   3.032  16.274  0.4455 -0.0107 -0.1150
  564TMC3    O2 8376   0.372   3.017  16.151  0.6221  0.3261  0.1940
  565TMC3    C1 8377   2.205   0.406  10.253 -0.5179 -0.7297 -0.0293
  565TMC3    C2 8378   2.157   0.300  10.326 -0.2945 -0.0402  0.4622
  565TMC3    C3 8379   2.022   0.279  10.332  0.1565  0.0109 -0.4654
  565TMC3    C4 8380   2.125   0.489  10.186 -0.3301  0.1654 -0.3727
  565TMC3    C5 8381   1.990   0.464  10.192 -0.3139  0.7974  0.2888
  565TMC3    C6 8382   1.940   0.357  10.253 -0.0773  0.2538  0.5401
  565TMC3     C 8383   2.343   0.449  10.252 -0.6852  0.4167 -0.0121
  565TMC3     O 8384   2.389   0.512  10.156 -0.4517 -0.1889 -0.4761
  565TMC3     H 8385   2.228   0.237  10.379 -1.8138 -1.5091  0.7598
  565TMC3    H1 8386   2.158   0.574  10.127 -0.5563  1.8398  1.8884
  565TMC3    H2 8387   1.834   0.360  10.276 -0.3342 -2.1106 -0.3382
  565TMC3    C7 8388   1.903   0.526  10.088 -0.7820  0.4336  0.3086
  565TMC3    C8 8389   1.976   0.151  10.386 -0.5820  0.3868  0.4672
  565TMC3    O1 8390   1.824   0.452  10.031 -0.3983  0.4992  0.1779
  565TMC3    O2 8391   2.052   0.097  10.467 -0.1630  0.5355  0.3994
  566MPD2     C 8392   3.429   1.411  14.564  0.5194  0.4339 -0.7648
  566MPD2    C1 8393   3.539   1.435  14.487  0.4856  0.2824 -0.4269
  566MPD2    C2 8394   3.525   1.486  14.362 -0.3106 -0.1691 -0.2102
  566MPD2    C3 8395   3.394   1.507  14.317 -0.7627  0.1591 -0.4628
  566MPD2    C4 8396   3.279   1.484  14.395 -0.2104 -0.2296  0.0587
  566MPD2    C5 8397   3.303   1.435  14.521  0.2373 -0.4422 -0.3912
  566MPD2     H 8398   3.610   1.504  14.297 -0.2822 -2.4487 -0.8102
  566MPD2    H1 8399   3.178   1.506  14.364 -0.8690 -0.8871  1.7472
  566MPD2    H2 8400   3.447   1.376  14.665 -0.3957 -0.1976 -0.8252
  566MPD2    H3 8401   3.225   1.419  14.594 -0.2132 -0.0435 -0.7853
  566MPD2     N 8402   3.382   1.544  14.184 -0.4369  0.4699 -0.2585
  566MPD2    H5 8403   3.465   1.563  14.127  0.0412  1.3542  0.7381
  566MPD2    N1 8404   3.667   1.398  14.527  0.5701  0.7206 -0.1996
  566MPD2    H7 8405   3.731   1.434  14.456 -0.5690  1.7217 -0.7123
  567TMC3    C1 8406   3.844   1.268  14.641 -0.1271  0.1308 -1.1289
  567TMC3    C2 8407   3.926   1.290  14.530  0.0326  0.0375 -0.0359
  567TMC3    C3 8408   4.044   1.213  14.529  0.4881  0.6349  0.4237
  567TMC3    C4 8409   3.854   1.161  14.719 -1.2899 -0.0439  0.3489
  567TMC3    C5 8410   3.956   1.076  14.698 -0.0790 -0.1153 -0.8351
  567TMC3    C6 8411   4.051   1.101  14.601  0.0018 -0.1173  0.9305
  567TMC3     C 8412   3.700   1.306  14.625  0.1166 -0.1237 -0.7154
  567TMC3     O 8413   3.625   1.223  14.671  0.0400 -0.5623  0.1130
  567TMC3     H 8414   3.909   1.375  14.466 -0.4041 -0.3630 -0.4530
  567TMC3    H1 8415   3.796   1.155  14.811  1.4353  1.0499  2.1495
  567TMC3    H2 8416   4.136   1.033  14.605  0.1839 -0.0816 -2.9602
  567TMC3    C7 8417   3.954   0.943  14.761 -0.4399  0.0308  0.2578
  567TMC3    C8 8418   4.133   1.250  14.424 -0.6375 -0.2882 -0.5470
  567TMC3    O1 8419   4.058   0.877  14.779  0.0177 -0.1286  0.0711
  567TMC3    O2 8420   4.079   1.308  14.329  0.3162  0.5577 -0.3883
  568MPD2     C 8421   0.375   1.647  16.402  0.1392 -0.2888  0.5711
  568MPD2    C1 8422   0.457   1.728  16.478 -0.5003  0.0590 -0.0470
  568MPD2    C2 8423   0.457   1.864  16.457  0.5644 -0.5490 -0.1633
  568MPD2    C3 8424   0.380   1.920  16.357  0.1070 -0.4011 -0.3152
  568MPD2    C4 8425   0.302   1.835  16.285  0.0129 -0.0748 -0.1230
  568MPD2    C5 8426   0.300   1.703  16.307  0.2725 -0.6298  0.1832
  568MPD2     H 8427   0.532   1.928  16.503  0.6121 -1.7391  1.4209
  568MPD2    H1 8428   0.239   1.862  16.201 -0.4043 -1.0239 -0.1063
  568MPD2    H2 8429   0.378   1.540  16.419 -2.6095 -0.5324 -0.4427
  568MPD2    H3 8430   0.253   1.637  16.234 -0.2612 -0.2998  0.2251
  568MPD2     N 8431   0.393   2.058  16.334 -0.3259 -0.7063  0.2936
  568MPD2    H5 8432   0.442   2.112  16.403 -0.6352 -1.4273  1.0796
  568MPD2    N1 8433   0.550   1.656  16.568 -0.1877 -0.5816 -0.6332
  568MPD2    H7 8434   0.527   1.560  16.590 -1.7104 -0.4126 -1.4740
  569TMC3    C1 8435   0.421   2.246  16.195 -0.9916  0.2354 -0.3724
  569TMC3    C2 8436   0.443   2.316  16.307 -0.0669 -0.4549  0.0050
  569TMC3    C3 8437   0.526   2.421  16.296  0.0722  0.0068 -0.4577
  569TMC3    C4 8438   0.493   2.261  16.079 -0.2772 -0.3227 -0.0093
  569TMC3    C5 8439   0.574   2.369  16.077  0.5783 -0.3563 -0.5041
  569TMC3    C6 8440   0.590   2.449  16.184  0.2169  0.1511  0.0955
  569TMC3     C 8441   0.363   2.116  16.214 -0.0989 -1.1882  0.4624
  569TMC3     O 8442   0.332   2.061  16.110 -0.9426 -0.1564  0.1295
  569TMC3     H 8443   0.369   2.316  16.386  0.6773  0.8762  0.7048
  569TMC3    H1 8444   0.465   2.217  15.984 -1.2567  0.1072  0.0794
  569TMC3    H2 8445   0.649   2.539  16.176 -1.8915  1.4238 -0.9728
  569TMC3    C7 8446   0.547   2.439  15.957 -0.6276  0.2929 -0.2058
  569TMC3    C8 8447   0.474   2.540  16.359 -0.1941 -0.3091  0.7181
  569TMC3    O1 8448   0.593   2.392  15.854  0.3639 -0.7104 -0.0801
  569TMC3    O2 8449   0.354   2.552  16.380  0.1737 -0.0980  0.1170
  570TMC3    C1 8450   4.722   0.658  16.136  0.3890  0.2650 -0.5201
  570TMC3    C2 8451   0.076   0.690  16.029  0.0766 -0.3847 -0.3780
  570TMC3    C3 8452   0.122   0.820  16.014  0.4528  0.7625  0.5642
  570TMC3    C4 8453   4.707   0.743  16.237  0.3526  0.5542 -0.1800
  570TMC3    C5 8454   0.033   0.873  16.222 -0.6977 -0.3950 -0.0160
  570TMC3    C6 8455   0.102   0.910  16.113 -0.7562  0.6387 -0.3330
  570TMC3     C 8456   4.648   0.540  16.137 -0.4262 -0.4794 -0.0454
  570TMC3     O 8457   4.644   0.475  16.034 -0.4544  0.2442  0.1377
  570TMC3     H 8458   0.062   0.624  15.943  0.0952 -0.6173 -0.2039
  570TMC3    H1 8459   4.659   0.715  16.330  0.0187 -1.9150 -1.0894
  570TMC3    H2 8460   0.146   1.009  16.104  1.5739 -0.3366  0.3217
  570TMC3    C7 8461   0.024   0.955  16.340  0.1302 -0.0412 -0.1440
  570TMC3    C8 8462   0.212   0.848  15.906  0.2221  0.1333 -0.4848
  570TMC3    O1 8463   0.053   0.893  16.440  0.2866  0.5024  0.6915
  570TMC3    O2 8464   0.242   0.965  15.901 -0.4946  0.1871  0.4553
  571MPD2     C 8465   2.614   1.696  17.315  0.6463 -0.3705 -0.1746
  571MPD2    C1 8466   2.600   1.595  17.404 -0.2270  0.8230  0.2327
  571MPD2    C2 8467   2.578   1.632  17.535 -0.5956  0.2389  0.8268
  571MPD2    C3 8468   2.576   1.763  17.582 -0.8420 -0.0232 -0.1957
  571MPD2    C4 8469   2.591   1.860  17.489  0.2753  0.1425  0.7334
  571MPD2    C5 8470   2.614   1.825  17.359  0.7436 -0.2249 -0.7281
  571MPD2     H 8471   2.571   1.546  17.601  0.7532  0.9367  1.8882
  571MPD2    H1 8472   2.576   1.963  17.521  1.1037  0.4412  0.1822
  571MPD2    H2 8473   2.616   1.667  17.211  2.8237 -1.0915  0.0655
  571MPD2    H3 8474   2.614   1.907  17.288  2.2034  0.2351 -0.1829
  571MPD2     N 8475   2.560   1.806   0.016 -0.5798  0.0178 -0.0676
  571MPD2    H5 8476   2.591   1.901   0.036  1.6074 -0.8516  0.7419
  571MPD2    N1 8477   2.614   1.467  17.352  1.0939  0.1923  0.3182
  571MPD2    H7 8478   2.655   1.465  17.260  0.7174 -0.3981  0.1636
  572TMC3    C1 8479   2.527   1.798   0.253 -0.0597  0.2110  0.0539
  572TMC3    C2 8480   2.520   1.726   0.369  0.3129 -0.7096 -0.2118
  572TMC3    C3 8481   2.473   1.785   0.485 -0.2097  0.7319 -0.1287
  572TMC3    C4 8482   2.452   1.917   0.247 -0.2989  0.3277 -0.2603
  572TMC3    C5 8483   2.407   1.968   0.364  0.7713 -0.2143 -0.8991
  572TMC3    C6 8484   2.406   1.902   0.484 -0.8716  0.0357  0.3957
  572TMC3     C 8485   2.531   1.725   0.127 -0.1779 -0.0058  0.0294
  572TMC3     O 8486   2.521   1.602   0.128  1.0926 -0.2507  0.5966
  572TMC3     H 8487   2.565   1.627   0.370 -1.9045 -1.7437 -2.0070
  572TMC3    H1 8488   2.446   1.968   0.151  4.3494 -0.6897 -1.1118
  572TMC3    H2 8489   2.343   1.940   0.563 -0.8512  1.7793 -0.4331
  572TMC3    C7 8490   2.332   2.093   0.350 -0.4369 -0.3726  0.3200
  572TMC3    C8 8491   2.480   1.703   0.602 -0.8820  0.2568 -0.1723
  572TMC3    O1 8492   2.314   2.133   0.236 -0.0434  0.0799 -0.0725
  572TMC3    O2 8493   2.514   1.585   0.597 -0.4093 -0.0153 -0.4982
  573MPD2     C 8494   3.823   3.027  17.526  0.1202 -0.2175 -0.0478
  573MPD2    C1 8495   3.729   3.065  17.616 -0.6990 -0.4718 -0.2898
  573MPD2    C2 8496   3.623   3.144  17.569  0.5001 -0.9070 -0.1923
  573MPD2    C3 8497   3.608   3.170  17.437  0.3808  1.4642 -0.2133
  573MPD2    C4 8498   3.695   3.121  17.356 -0.1140  0.8973  0.1406
  573MPD2    C5 8499   3.809   3.062  17.394 -0.1020  0.3035 -0.2636
  573MPD2     H 8500   3.559   3.182  17.647  1.5134  2.1448 -0.8646
  573MPD2    H1 8501   3.688   3.127  17.248  0.7783  1.0638  0.0989
  573MPD2    H2 8502   3.905   2.965  17.559 -0.3042 -1.0473 -0.5568
  573MPD2    H3 8503   3.886   3.026  17.326  0.7782 -1.4353  1.6214
  573MPD2     N 8504   3.493   3.232  17.387 -0.3273  0.0270 -0.0719
  573MPD2    H5 8505   3.484   3.248  17.288 -1.8197 -1.6270 -0.2197
  573MPD2    N1 8506   3.743   3.015   0.050  0.1743 -0.0873 -0.0752
  573MPD2    H7 8507   3.822   2.956   0.069  0.1451  0.0839  0.5703
  574TMC3    C1 8508   3.271   3.334  17.396  0.8731 -0.3076 -0.3833
  574TMC3    C2 8509   3.155   3.327  17.469 -0.0537 -0.0764  0.2425
  574TMC3    C3 8510   3.061   3.414  17.437  0.0314 -0.0439  0.6091
  574TMC3    C4 8511   3.294   3.420  17.290 -0.3076  0.0327  0.3831
  574TMC3    C5 8512   3.192   3.505  17.256 -0.6462 -0.0058 -0.2344
  574TMC3    C6 8513   3.071   3.504  17.331 -0.5444 -0.1768  0.5232
  574TMC3     C 8514   3.381   3.269  17.465  0.3121 -0.0701  0.1736
  574TMC3     O 8515   3.360   3.244  17.583  0.3976  0.6946  0.1152
  574TMC3     H 8516   3.131   3.254  17.546  1.5309 -0.9613 -0.1163
  574TMC3    H1 8517   3.386   3.418  17.233 -0.4185  3.0122  0.1264
  574TMC3    H2 8518   2.980   3.558  17.306 -0.2572  0.4576  0.8643
  574TMC3    C7 8519   3.184   3.566  17.122 -0.5338  0.1516 -0.6190
  574TMC3    C8 8520   2.935   3.392  17.502 -1.5902  0.6077 -0.2794
  574TMC3    O1 8521   3.264   3.526  17.039  0.1502  0.0848  0.1588
  574TMC3    O2 8522   2.898   3.277  17.496 -0.1004  0.0662 -0.4373
  575TMC3    C1 8523   2.154   4.082  10.606  0.2486  0.1045  0.2718
  575TMC3    C2 8524   2.070   4.013  10.685 -0.6773 -0.8323 -0.8871
  575TMC3    C3 8525   1.960   4.077  10.737  0.0248 -0.5988 -0.3455
  575TMC3    C4 8526   2.128   4.217  10.570 -1.0308 -0.1673  0.0072
  575TMC3    C5 8527   2.011   4.271  10.621 -0.1379 -0.3559 -0.5685
  575TMC3    C6 8528   1.938   4.210  10.717 -0.0480 -0.1870 -0.1374
  575TMC3     C 8529   2.297   4.043  10.603 -0.7696 -0.7844  0.1321
  575TMC3     O 8530   2.341   3.972  10.693 -0.0791  0.6483 -0.0955
  575TMC3     H 8531   2.097   3.909  10.701  1.5772  0.3823  3.1727
  575TMC3    H1 8532   2.189   4.268  10.497  0.9640 -1.2223  0.9204
  575TMC3    H2 8533   1.859   4.257  10.774  0.7548 -0.0582  0.8534
  575TMC3    C7 8534   1.966   4.397  10.569 -0.5756  0.1317 -0.0693
  575TMC3    C8 8535   1.869   4.007  10.825 -0.3265  0.0021  0.5301
  575TMC3    O1 8536   2.054   4.463  10.517 -0.2860 -0.0642  0.2904
  575TMC3    O2 8537   1.805   4.081  10.899 -0.6491  0.3258 -0.2166
  576MPD2     C 8538   1.333   1.078  12.946  0.9657  0.5711  0.0878
  576MPD2    C1 8539   1.323   1.188  12.863  0.4978  0.2255 -0.3825
  576MPD2    C2 8540   1.258   1.301  12.909  0.4281 -1.0975  0.1895
  576MPD2    C3 8541   1.193   1.295  13.026  0.2343  0.8887  0.1650
  576MPD2    C4 8542   1.197   1.185  13.113  0.0753  0.4580  0.5489
  576MPD2    C5 8543   1.277   1.079  13.070 -0.9150 -0.2251  0.4522
  576MPD2     H 8544   1.257   1.393  12.853  0.6550 -0.8379  0.6063
  576MPD2    H1 8545   1.135   1.168  13.200 -0.3499 -0.6942  0.0193
  576MPD2    H2 8546   1.387   0.986  12.927  0.0272 -0.0276  0.2926
  576MPD2    H3 8547   1.287   0.993  13.135 -1.3609  1.0448  2.2075
  576MPD2     N 8548   1.112   1.406  13.052 -0.3387  0.1603  0.1764
  576MPD2    H5 8549   1.130   1.479  12.983 -0.0803 -0.3957 -0.3521
  576MPD2    N1 8550   1.386   1.199  12.736  0.3179  0.1805 -0.5181
  576MPD2    H7 8551   1.367   1.292  12.700  0.8531  0.8128  0.8386
  577TMC3    C1 8552   1.542   1.154  12.555  0.7026  0.7482  0.1914
  577TMC3    C2 8553   1.598   1.061  12.476  0.4637  0.2832  0.0938
  577TMC3    C3 8554   1.639   1.104  12.356  0.3761 -0.1995  0.3451
  577TMC3    C4 8555   1.542   1.292  12.523  0.0346  0.5184 -0.1609
  577TMC3    C5 8556   1.600   1.331  12.404  0.2916 -0.2107 -0.1031
  577TMC3    C6 8557   1.639   1.237  12.312  0.1333 -0.3374 -0.9523
  577TMC3     C 8558   1.477   1.111  12.678 -0.5127 -0.1030 -0.9320
  577TMC3     O 8559   1.489   0.991  12.710 -0.2263  0.6475 -0.2888
  577TMC3     H 8560   1.616   0.959  12.508 -1.5476 -0.2663 -0.5365
  577TMC3    H1 8561   1.506   1.362  12.598 -0.1437  0.7344 -0.4494
  577TMC3    H2 8562   1.689   1.266  12.221 -0.5944 -2.4005 -2.0161
  577TMC3    C7 8563   1.591   1.471  12.350  0.1530 -0.9673  0.2308
  577TMC3    C8 8564   1.678   0.996  12.265 -0.0995  0.7251 -0.2566
  577TMC3    O1 8565   1.570   1.481  12.230 -0.0484 -0.5317 -0.1014
  577TMC3    O2 8566   1.681   0.881  12.307  0.4101  0.0663 -0.5342
  578MPD2     C 8567   4.376   0.989   1.393 -0.3191  0.1474 -0.3850
  578MPD2    C1 8568   4.403   0.863   1.344 -0.2107 -0.0319  0.2225
  578MPD2    C2 8569   4.427   0.763   1.443 -0.5051  0.7289  0.4416
  578MPD2    C3 8570   4.432   0.801   1.576  0.6767  0.3134 -0.5863
  578MPD2    C4 8571   4.404   0.926   1.625  0.2125  1.0308 -0.3316
  578MPD2    C5 8572   4.373   1.024   1.528  0.3181 -0.4023 -0.2532
  578MPD2     H 8573   4.450   0.664   1.407 -0.4682  0.6774  0.6063
  578MPD2    H1 8574   4.403   0.947   1.731  1.0324  0.4657 -0.2096
  578MPD2    H2 8575   4.346   1.067   1.324 -0.5103  1.4886  1.2123
  578MPD2    H3 8576   4.363   1.129   1.555 -1.5892 -1.2186  2.1690
  578MPD2     N 8577   4.483   0.714   1.675  0.8171 -0.0070  0.1548
  578MPD2    H5 8578   4.471   0.745   1.771  3.2051  1.4432 -0.0088
  578MPD2    N1 8579   4.389   0.829   1.201  0.1863  0.6062  0.4481
  578MPD2    H7 8580   4.381   0.907   1.136  0.9865 -0.1521 -0.5374
  579TMC3    C1 8581   4.594   0.546   1.781 -0.6660  0.4601  0.0472
  579TMC3    C2 8582   4.652   0.629   1.871  0.3243 -0.1559 -0.3730
  579TMC3    C3 8583   4.708   0.571   1.984 -2.0137  0.2357  0.3791
  579TMC3    C4 8584   4.587   0.412   1.802 -0.2456 -0.4278  0.5571
  579TMC3    C5 8585   4.628   0.363   1.925  0.2942  0.5791 -0.0026
  579TMC3    C6 8586   4.692   0.437   2.014 -0.4083 -0.4511  0.2578
  579TMC3     C 8587   4.539   0.590   1.656  0.3923  0.7805 -0.1198
  579TMC3     O 8588   4.516   0.508   1.566 -0.2098 -0.0955 -0.0155
  579TMC3     H 8589   4.675   0.734   1.851  0.6725  0.0079  0.8551
  579TMC3    H1 8590   4.522   0.356   1.735 -1.3742  2.6728 -0.9334
  579TMC3    H2 8591   0.001   0.393   2.108 -2.0984 -2.3212 -0.0370
  579TMC3    C7 8592   4.606   0.224   1.959 -0.2461  0.2792 -0.8516
  579TMC3    C8 8593   0.070   0.642   2.077 -0.0587  0.3733  0.4584
  579TMC3    O1 8594   4.592   0.195   2.076 -0.0633  0.4838  0.1752
  579TMC3    O2 8595   0.064   0.610   2.196 -0.9547 -0.2834 -0.1597
  580TMC3    C1 8596   4.112   0.121  11.700  0.1913  0.2810 -0.0865
  580TMC3    C2 8597   4.178   0.156  11.583 -0.1395  0.3147  0.1851
  580TMC3    C3 8598   4.282   0.071  11.541 -0.2214 -0.0008  0.7317
  580TMC3    C4 8599   4.135   0.006  11.770  0.2577  0.2453  0.0430
  580TMC3    C5 8600   4.231   4.651  11.709  0.5147 -0.3433  0.5597
  580TMC3    C6 8601   4.303   4.677  11.604 -0.0062 -0.8863  0.7367
  580TMC3     C 8602   4.098   0.234  11.793 -0.1105 -0.1363 -0.4641
  580TMC3     O 8603   3.994   0.243  11.855 -0.0311 -0.4288  0.2338
  580TMC3     H 8604   4.161   0.251  11.532  2.6535  0.7913  0.1010
  580TMC3    H1 8605   4.081   4.722  11.864 -0.5615 -0.7642 -0.5233
  580TMC3    H2 8606   4.388   4.618  11.572  0.1759 -0.4873  0.4882
  580TMC3    C7 8607   4.250   4.526  11.784  0.5972  0.0664  0.3076
  580TMC3    C8 8608   4.396   0.162  11.516  0.7646 -0.2006 -0.7354
  580TMC3    O1 8609   4.191   4.528  11.890  0.0160  0.6321 -0.5096
  580TMC3    O2 8610   4.392   0.272  11.567  0.2458 -0.6792  0.0135
  581MPD2     C 8611   2.024   4.477  15.030  0.3503  0.0341  0.3257
  581MPD2    C1 8612   1.914   4.396  15.058  0.8166  0.2601 -0.9340
  581MPD2    C2 8613   1.785   4.440  15.053 -0.5939 -0.3010 -1.2458
  581MPD2    C3 8614   1.770   4.571  15.007  0.4128  0.7541  0.0560
  581MPD2    C4 8615   1.874   4.650  14.989 -0.2098  0.0581 -0.3928
  581MPD2    C5 8616   2.001   4.603  14.998 -0.2376  0.7456 -0.5880
  581MPD2     H 8617   1.705   4.373  15.082 -3.6510  3.4195 -1.1074
  581MPD2    H1 8618   1.854   0.028  14.960  0.4443 -0.1575 -1.5779
  581MPD2    H2 8619   2.125   4.436  15.024  0.2993  0.2832 -1.9740
  581MPD2    H3 8620   2.079   4.670  14.966  1.2852 -0.6854  0.1657
  581MPD2     N 8621   1.641   4.631  14.975 -0.0324  0.4015  0.1712
  581MPD2    H5 8622   1.649   0.006  14.956 -0.3917  0.5068  0.5800
  581MPD2    N1 8623   1.955   4.258  15.094  0.1895  0.3760 -0.3119
  581MPD2    H7 8624   2.053   4.241  15.074  0.0158  1.3368 -2.0590
  582TMC3    C1 8625   1.924   4.040  15.187  0.2880 -0.0347 -0.1103
  582TMC3    C2 8626   2.024   4.039  15.280  0.6868  1.0236 -0.2321
  582TMC3    C3 8627   2.038   3.937  15.368 -0.0631 -0.2819 -0.1146
  582TMC3    C4 8628   1.824   3.949  15.207 -0.8766  0.0373  0.3274
  582TMC3    C5 8629   1.827   3.850  15.300 -0.6634 -0.5567  0.0296
  582TMC3    C6 8630   1.945   3.841  15.376  0.0616 -0.5123  0.0903
  582TMC3     C 8631   1.866   4.168  15.151  0.5672  0.6358 -0.2241
  582TMC3     O 8632   1.750   4.176  15.192  0.1692 -0.3186  1.2973
  582TMC3     H 8633   2.090   4.125  15.280  3.6779 -1.2721 -0.5264
  582TMC3    H1 8634   1.744   3.944  15.134 -1.1152  1.2210  0.5100
  582TMC3    H2 8635   1.954   3.764  15.453  0.2192  0.4370  1.0264
  582TMC3    C7 8636   1.713   3.848  15.383  0.2323  0.1139 -0.5882
  582TMC3    C8 8637   2.058   3.990  15.496  0.0265  0.4044  0.1815
  582TMC3    O1 8638   1.704   3.759  15.469 -0.7780 -0.3480 -0.2104
  582TMC3    O2 8639   1.976   3.954  15.573 -0.2355  0.4180  0.1067
  583MPD2     C 8640   1.948   0.851  16.595  0.6678 -0.6065 -0.1403
  583MPD2    C1 8641   1.946   0.977  16.534 -0.0501 -0.3197  0.0752
  583MPD2    C2 8642   1.882   1.078  16.608 -0.4110  0.2532  0.2292
  583MPD2    C3 8643   1.828   1.050  16.740  0.1949  0.2400  0.6369
  583MPD2    C4 8644   1.825   0.923  16.786 -0.0933 -0.3972 -0.2345
  583MPD2    C5 8645   1.897   0.829  16.724 -0.5614 -0.0264 -0.1620
  583MPD2     H 8646   1.877   1.183  16.582  0.8691  0.5249  1.1349
  583MPD2    H1 8647   1.782   0.908  16.884  0.2543  2.8773  0.4251
  583MPD2    H2 8648   1.985   0.761  16.547  1.4729  0.0490 -0.7389
  583MPD2    H3 8649   1.915   0.733  16.772  0.7062  0.9303  1.2883
  583MPD2     N 8650   1.763   1.160  16.800 -0.7190  0.9765  0.1127
  583MPD2    H5 8651   1.746   1.248  16.753 -1.7895  0.6147 -0.1814
  583MPD2    N1 8652   2.003   1.002  16.412  0.1968  0.0128 -0.6825
  583MPD2    H7 8653   1.977   1.095  16.379 -0.6284  0.2186  0.5530
  584TMC3    C1 8654   1.647   1.283  16.970  0.3607 -0.4036  0.0600
  584TMC3    C2 8655   1.611   1.385  16.884  0.0461  0.1387 -0.1621
  584TMC3    C3 8656   1.564   1.505  16.938 -0.5759 -0.6800  0.2656
  584TMC3    C4 8657   1.637   1.305  17.101 -0.8323  0.1851  0.6720
  584TMC3    C5 8658   1.589   1.422  17.148 -0.4579  0.1834 -0.4431
  584TMC3    C6 8659   1.566   1.530  17.067  0.0656  0.3632  0.4046
  584TMC3     C 8660   1.724   1.163  16.931 -0.4432 -0.1345 -0.4988
  584TMC3     O 8661   1.753   1.083  17.017 -0.7467  0.4832 -0.1097
  584TMC3     H 8662   1.608   1.361  16.778  1.9816  1.4003 -0.4926
  584TMC3    H1 8663   1.672   1.235  17.176  2.4110  0.5878 -0.4551
  584TMC3    H2 8664   1.535   1.629  17.099 -1.7988  0.3004 -1.2233
  584TMC3    C7 8665   1.563   1.427  17.293  0.5500 -0.5651  0.7105
  584TMC3    C8 8666   1.576   1.620  16.849 -0.5670  0.1879 -0.0743
  584TMC3    O1 8667   1.623   1.347  17.368  0.0067 -0.1147 -0.1813
  584TMC3    O2 8668   1.553   1.596  16.731 -0.6786  0.1884  0.2436
  585MPD2     C 8669   0.565   0.261   0.652  0.2964  0.4355 -0.4250
  585MPD2    C1 8670   0.681   0.308   0.617  0.1204  0.5945 -0.4194
  585MPD2    C2 8671   0.747   0.252   0.511 -0.1506  0.4741  0.4578
  585MPD2    C3 8672   0.680   0.164   0.430  0.2595  0.2400  0.8091
  585MPD2    C4 8673   0.559   0.113   0.469 -0.3811 -0.0288 -0.4461
  585MPD2    C5 8674   0.508   0.158   0.590  0.5696 -0.6889  0.3697
  585MPD2     H 8675   0.848   0.281   0.485  0.7877 -1.5173  1.8872
  585MPD2    H1 8676   0.502   0.040   0.412 -0.9460  1.2496 -1.5299
  585MPD2    H2 8677   0.523   0.294   0.746 -1.4490 -0.9810 -0.7087
  585MPD2    H3 8678   0.418   0.114   0.632  1.3710 -1.1502  1.6175
  585MPD2     N 8679   0.723   0.128   0.297  0.0060  0.8228 -0.0833
  585MPD2    H5 8680   0.653   0.085   0.237 -2.5142  4.1247  0.4758
  585MPD2    N1 8681   0.722   0.424   0.683  0.5252 -0.1883 -0.3422
  585MPD2    H7 8682   0.658   0.453   0.757  1.5641 -3.9496  2.0199
  586TMC3    C1 8683   0.865   0.140   0.113  0.2519 -1.2420  0.3585
  586TMC3    C2 8684   0.987   0.115   0.059  0.9047  0.0427 -0.2285
  586TMC3    C3 8685   1.008   0.125  17.625 -0.1772 -0.0004  0.4256
  586TMC3    C4 8686   0.751   0.151   0.036  0.1132  0.7219 -0.5287
  586TMC3    C5 8687   0.772   0.163  17.599 -0.3302  0.2666 -0.0663
  586TMC3    C6 8688   0.902   0.160  17.549 -0.6959  0.1515 -0.0782
  586TMC3     C 8689   0.856   0.147   0.255 -0.4141 -0.0487 -0.4174
  586TMC3     O 8690   0.956   0.151   0.323  0.5144 -0.3210 -0.5145
  586TMC3     H 8691   1.071   0.095   0.124  0.2783  0.2695  0.6520
  586TMC3    H1 8692   0.650   0.165   0.073 -0.1343  1.2534 -1.4133
  586TMC3    H2 8693   0.923   0.159  17.442  2.5140 -1.3263  0.5695
  586TMC3    C7 8694   0.662   0.111  17.518 -0.5002 -0.0328 -0.9541
  586TMC3    C8 8695   1.100   0.031  17.571 -0.2970 -0.6645 -0.0538
  586TMC3    O1 8696   0.586   0.038  17.583  0.2060 -0.5988  0.4803
  586TMC3    O2 8697   1.106   4.649  17.630 -0.1979 -0.0194  0.4549
  587TMC3    C1 8698   3.344   3.399  16.682  0.8050 -1.0383 -0.3560
  587TMC3    C2 8699   3.427   3.511  16.680  0.0163  0.0544 -0.2766
  587TMC3    C3 8700   3.507   3.531  16.789  0.1456  0.3752  0.2456
  587TMC3    C4 8701   3.351   3.304  16.783 -0.0924 -0.0016 -0.7658
  587TMC3    C5 8702   3.436   3.324  16.887  0.8549  0.4675 -0.4907
  587TMC3    C6 8703   3.518   3.436  16.891 -0.4857 -0.2576  0.3788
  587TMC3     C 8704   3.264   3.375  16.566  0.3195  0.1361 -0.2681
  587TMC3     O 8705   3.304   3.409  16.454 -0.0241  0.3284 -0.0620
  587TMC3     H 8706   3.434   3.567  16.588  0.3114 -1.5135 -1.2164
  587TMC3    H1 8707   3.294   3.213  16.771 -0.6919 -0.0251  2.3421
  587TMC3    H2 8708   3.574   3.462  16.980  1.2296  0.4939 -0.9129
  587TMC3    C7 8709   3.423   3.251  17.007 -0.2280 -0.2560  0.0619
  587TMC3    C8 8710   3.531   3.662  16.831 -0.5626  0.7520 -1.2587
  587TMC3    O1 8711   3.510   3.255  17.091 -0.1874 -0.3711 -0.1005
  587TMC3    O2 8712   3.629   3.675  16.905 -0.1257  0.1080 -0.0409
  588TMC3    C1 8713   1.367   2.015   9.679 -0.1346  1.3744  0.5784
  588TMC3    C2 8714   1.288   1.903   9.657  0.3412  0.3343 -0.8292
  588TMC3    C3 8715   1.330   1.784   9.710 -0.0991  1.0850 -0.3274
  588TMC3    C4 8716   1.479   2.010   9.768 -0.5489  0.2067 -0.2317
  588TMC3    C5 8717   1.509   1.891   9.816  0.0074  0.6506 -0.3409
  588TMC3    C6 8718   1.434   1.773   9.794 -0.0255 -0.0693 -1.4108
  588TMC3     C 8719   1.299   2.141   9.664 -0.0035  0.6218  0.0900
  588TMC3     O 8720   1.213   2.162   9.580  0.3813 -0.0343  0.8217
  588TMC3     H 8721   1.200   1.919   9.595 -1.8207  0.7583  2.3158
  588TMC3    H1 8722   1.546   2.095   9.782  0.2366 -0.7855  1.9889
  588TMC3    H2 8723   1.456   1.680   9.844 -0.3706  1.1274  0.9671
  588TMC3    C7 8724   1.604   1.892   9.914 -0.2018 -0.2164 -0.4412
  588TMC3    C8 8725   1.232   1.674   9.690 -0.3163 -0.5564 -0.1279
  588TMC3    O1 8726   1.685   1.798   9.919 -0.1347 -0.5996  0.5921
  588TMC3    O2 8727   1.131   1.701   9.627 -0.3690 -0.5815 -0.3930
  589TMC3    C1 8728   4.211   3.351   1.097 -0.0246 -0.0985  0.0690
  589TMC3    C2 8729   4.266   3.328   1.221 -0.3814  0.3678 -0.3461
  589TMC3    C3 8730   4.353   3.223   1.234 -0.4407  0.6420  0.2032
  589TMC3    C4 8731   4.227   3.262   0.995  0.1439 -0.7816 -0.3774
  589TMC3    C5 8732   4.306   3.154   1.009  0.1079  0.2333 -0.0350
  589TMC3    C6 8733   4.373   3.137   1.130 -0.0459 -0.1135  0.0538
  589TMC3     C 8734   4.143   3.478   1.068  0.2864 -0.4933 -0.1896
  589TMC3     O 8735   4.116   3.500   0.951 -0.5965 -0.0695 -0.2559
  589TMC3     H 8736   4.263   3.402   1.300  0.3072  1.3926 -1.2672
  589TMC3    H1 8737   4.166   3.271   0.906 -0.9979 -0.3105  0.4665
  589TMC3    H2 8738   4.447   3.057   1.133  0.7810  0.6328 -0.4314
  589TMC3    C7 8739   4.377   3.097   0.891 -0.5475  0.2818  0.5884
  589TMC3    C8 8740   4.460   3.241   1.325  0.1025 -0.0324  0.6060
  589TMC3    O1 8741   4.456   3.001   0.907  0.1978  0.0760  0.7433
  589TMC3    O2 8742   4.432   3.263   1.443  0.0419 -0.1261  0.5808
  590MPD2     C 8743   4.470   1.961  16.800  0.7878  0.3938 -0.3217
  590MPD2    C1 8744   4.414   2.022  16.699  0.5910 -0.0291  1.3587
  590MPD2    C2 8745   4.466   2.142  16.649  0.4199  1.0332 -0.1989
  590MPD2    C3 8746   4.575   2.200  16.718  0.1467  0.2689  0.6974
  590MPD2    C4 8747   4.626   2.144  16.832  0.3806  0.3960  0.3827
  590MPD2    C5 8748   4.574   2.023  16.871  0.0894 -0.0809  0.3981
  590MPD2     H 8749   4.428   2.187  16.558  1.8916 -1.5310 -2.0674
  590MPD2    H1 8750   4.707   2.189  16.889  0.4233  0.4156  0.3059
  590MPD2    H2 8751   4.426   1.866  16.829  0.4036  0.5063 -0.5407
  590MPD2    H3 8752   4.608   1.975  16.962  1.2573  0.7084  0.3823
  590MPD2     N 8753   4.628   2.325  16.657  0.7959 -0.6193  0.1446
  590MPD2    H5 8754   4.724   2.352  16.676  0.6930 -0.9787  1.1493
  590MPD2    N1 8755   4.314   1.952  16.638  0.2611 -0.4280 -0.4114
  590MPD2    H7 8756   4.298   1.858  16.675 -1.1929 -0.1557 -0.3320
  591TMC3    C1 8757   4.624   2.504  16.507  0.0203 -0.2389 -0.3690
  591TMC3    C2 8758   0.001   2.448  16.431 -0.8468 -0.6296 -0.0962
  591TMC3    C3 8759   0.058   2.529  16.333  0.5898 -0.3299  0.1408
  591TMC3    C4 8760   4.562   2.618  16.465 -0.0431  0.5196  0.2828
  591TMC3    C5 8761   4.620   2.695  16.376 -0.6499  1.0991 -0.2361
  591TMC3    C6 8762   0.011   2.662  16.315  0.2610  0.5332 -0.5822
  591TMC3     C 8763   4.546   2.417  16.592 -0.9127  0.5093 -0.4403
  591TMC3     O 8764   4.426   2.441  16.613  0.2837  0.3672 -0.1855
  591TMC3     H 8765   0.029   2.344  16.442  0.2140 -0.6944 -3.3373
  591TMC3    H1 8766   4.478   2.653  16.524  1.1670  1.8531  1.2026
  591TMC3    H2 8767   0.064   2.735  16.254  0.7823  0.2729 -0.4338
  591TMC3    C7 8768   4.522   2.768  16.297 -0.1723  0.2322  0.0142
  591TMC3    C8 8769   0.110   2.463  16.214  0.7088 -0.1863 -0.0204
  591TMC3    O1 8770   4.408   2.769  16.337 -0.2960 -0.1289  0.2640
  591TMC3    O2 8771   0.117   2.339  16.218  0.0985  0.3306  0.1953
  592MPD2     C 8772   0.427   4.365  10.906 -0.7415 -0.4005 -0.2244
  592MPD2    C1 8773   0.388   4.347  11.035 -0.6957 -1.4034 -0.0694
  592MPD2    C2 8774   0.279   4.263  11.062 -0.1261 -0.4444  0.3051
  592MPD2    C3 8775   0.192   4.222  10.962  0.4611 -0.1894 -0.1460
  592MPD2    C4 8776   0.219   4.270  10.835  0.3120 -0.1037  0.1035
  592MPD2    C5 8777   0.332   4.337  10.811  0.7865  0.2541  0.0837
  592MPD2     H 8778   0.251   4.238  11.164  1.2076 -1.0528  0.5244
  592MPD2    H1 8779   0.163   4.242  10.746  0.4712 -0.9010  0.2554
  592MPD2    H2 8780   0.522   4.402  10.868 -0.0608 -1.5159  0.4074
  592MPD2    H3 8781   0.345   4.367  10.708  2.0218  3.0170  1.0357
  592MPD2     N 8782   0.080   4.152  11.000  0.1296 -0.1267  0.1791
  592MPD2    H5 8783   0.073   4.126  11.098  1.4085 -0.0750  0.2842
  592MPD2    N1 8784   0.466   4.404  11.134 -0.2574  0.4581 -0.4205
  592MPD2    H7 8785   0.545   4.463  11.109  0.5853 -0.4807  0.0421
  593TMC3    C1 8786   0.512   4.487  11.347 -0.3003 -0.6879 -0.2356
  593TMC3    C2 8787   0.462   4.518  11.466  0.8735  0.2205  0.9379
  593TMC3    C3 8788   0.517   4.613  11.538 -1.0197  0.2371 -0.4836
  593TMC3    C4 8789   0.626   4.547  11.303 -0.0582  0.4209  0.2299
  593TMC3    C5 8790   0.685   4.646  11.379  0.1420  0.3459 -0.5354
  593TMC3    C6 8791   0.626   4.682  11.495  0.2963  0.5933 -0.3360
  593TMC3     C 8792   0.435   4.397  11.269  0.7296 -0.8342 -0.3194
  593TMC3     O 8793   0.336   4.353  11.329 -0.5512 -0.2329  0.0539
  593TMC3     H 8794   0.388   4.458  11.517  3.6082 -2.6075  1.5627
  593TMC3    H1 8795   0.688   4.505  11.224  1.4722  1.3960  0.9055
  593TMC3    H2 8796   0.655   0.040  11.559 -0.1764 -1.1732  2.1628
  593TMC3    C7 8797   0.766   0.032  11.319 -0.7076  0.1534  0.0910
  593TMC3    C8 8798   0.436   4.677  11.650  0.1166  0.2398  0.4555
  593TMC3    O1 8799   0.773   0.121  11.399 -0.1119 -0.3836  0.2459
  593TMC3    O2 8800   0.327   4.631  11.673  0.0815 -0.4674  0.0006
  594MPD2     C 8801   3.621   3.156  14.014 -0.2004 -0.9440  0.4349
  594MPD2    C1 8802   3.625   3.125  14.144 -0.2091 -0.4805 -0.8487
  594MPD2    C2 8803   3.732   3.177  14.221  0.5547  0.0275  0.0923
  594MPD2    C3 8804   3.816   3.275  14.184 -0.8421 -0.9861 -0.6173
  594MPD2    C4 8805   3.809   3.317  14.049 -0.1228 -0.3929  0.0299
  594MPD2    C5 8806   3.708   3.260  13.974  0.6467  0.0836  1.0098
  594MPD2     H 8807   3.743   3.143  14.323 -0.8985 -0.6113  0.0437
  594MPD2    H1 8808   3.865   3.400  14.007  0.4599 -1.9699 -2.2901
  594MPD2    H2 8809   3.541   3.122  13.949 -0.4015 -0.7083  0.5595
  594MPD2    H3 8810   3.696   3.307  13.877 -2.3765  1.4989  2.0774
  594MPD2     N 8811   3.912   3.317  14.280  0.3500  0.1067 -0.7476
  594MPD2    H5 8812   3.898   3.279  14.374 -0.4800  1.7451 -0.2119
  594MPD2    N1 8813   3.518   3.045  14.192  0.3536 -0.7356 -0.2608
  594MPD2    H7 8814   3.441   3.039  14.125  0.4621 -0.2203 -0.4291
  595TMC3    C1 8815   4.281   3.574  14.452 -0.1471 -0.0268  0.1573
  595TMC3    C2 8816   4.220   3.511  14.350  0.3162 -0.1872  0.1594
  595TMC3    C3 8817   4.094   3.457  14.367 -0.2164 -0.4607  0.2543
  595TMC3    C4 8818   4.217   3.596  14.576  0.1061  0.2409  0.2527
  595TMC3    C5 8819   4.085   3.564  14.579  0.0606 -0.4430  0.3531
  595TMC3    C6 8820   4.022   3.500  14.477 -0.1571  0.2698 -0.1228
  595TMC3     C 8821   4.415   3.612  14.436 -0.5353 -0.1297  0.6768
  595TMC3     O 8822   4.475   3.659  14.532 -0.4376  0.3878  0.1170
  595TMC3     H 8823   4.275   3.481  14.262  1.0946  1.8318 -0.0416
  595TMC3    H1 8824   4.265   3.636  14.664  2.0268 -0.0064 -0.6768
  595TMC3    H2 8825   3.918   3.471  14.485 -0.6165  2.6227  2.5738
  595TMC3    C7 8826   3.999   3.653  14.662 -0.5237  0.4424  0.1235
  595TMC3    C8 8827   4.010   3.413  14.250 -0.3131  0.0567  0.1523
  595TMC3    O1 8828   3.878   3.628  14.663 -0.0410 -0.4943  0.0663
  595TMC3    O2 8829   4.020   3.487  14.156  0.6545  0.2278  0.5726
  596MPD2     C 8830   2.705   0.662  16.385  0.2333  0.1738  0.4676
  596MPD2    C1 8831   2.761   0.789  16.379 -0.3193  0.1953 -0.2450
  596MPD2    C2 8832   2.809   0.842  16.264 -0.0648 -0.2418 -0.3264
  596MPD2    C3 8833   2.810   0.764  16.150  0.2248  0.0400  0.1081
  596MPD2    C4 8834   2.774   0.630  16.161  0.9564 -0.0848  0.1310
  596MPD2    C5 8835   2.725   0.578  16.275 -0.0617 -0.0633 -0.4223
  596MPD2     H 8836   2.840   0.946  16.270  0.0357 -0.1843 -2.0362
  596MPD2    H1 8837   2.774   0.570  16.071 -1.2650 -1.0844  0.8046
  596MPD2    H2 8838   2.664   0.623  16.477 -1.4760  0.6426 -0.0882
  596MPD2    H3 8839   2.714   0.470  16.282  2.0383 -0.4082 -2.5352
  596MPD2     N 8840   2.843   0.816  16.020  0.1406 -0.4075 -0.3934
  596MPD2    H5 8841   2.846   0.754  15.940 -1.6694 -0.8478 -0.1248
  596MPD2    N1 8842   2.749   0.885  16.482  0.1468 -0.4957 -0.1005
  596MPD2    H7 8843   2.768   0.980  16.452 -1.4836 -0.3172 -0.5574
  597TMC3    C1 8844   2.727   0.991  16.686  0.4516  0.9376 -0.6033
  597TMC3    C2 8845   2.806   1.092  16.625 -0.3097  0.5585  0.0221
  597TMC3    C3 8846   2.776   1.224  16.651  0.0168 -0.2512 -0.6726
  597TMC3    C4 8847   2.630   1.023  16.779  0.0046 -0.0263  0.2439
  597TMC3    C5 8848   2.622   1.150  16.819  0.3869 -0.4409  0.7959
  597TMC3    C6 8849   2.690   1.252  16.760  0.2263  0.1947 -0.0551
  597TMC3     C 8850   2.713   0.871  16.614 -0.4937  0.0709 -0.0126
  597TMC3     O 8851   2.671   0.769  16.675  0.8098  0.4575  0.1110
  597TMC3     H 8852   2.891   1.061  16.565  0.0311 -0.6270  1.1396
  597TMC3    H1 8853   2.571   0.943  16.820  2.7497 -2.0626  0.1815
  597TMC3    H2 8854   2.684   1.358  16.784 -2.5614  0.4482 -1.8755
  597TMC3    C7 8855   2.524   1.184  16.920 -0.5741 -0.8668  0.1177
  597TMC3    C8 8856   2.864   1.325  16.606 -0.0900  0.5745 -0.1324
  597TMC3    O1 8857   2.487   1.104  17.002 -0.2227 -0.9842 -0.4113
  597TMC3    O2 8858   2.853   1.440  16.646  0.0124  0.3682 -0.0091
  598TMC3    C1 8859   1.248   2.930  15.329 -0.1620 -0.2152  0.4986
  598TMC3    C2 8860   1.161   2.820  15.325  0.6601 -1.2241  0.3440
  598TMC3    C3 8861   1.067   2.816  15.223  0.3152  0.3546 -0.2644
  598TMC3    C4 8862   1.250   3.022  15.225 -0.5729  0.1292  0.0247
  598TMC3    C5 8863   1.149   3.011  15.129  0.3892 -0.5725 -0.3001
  598TMC3    C6 8864   1.061   2.903  15.120 -0.1057  0.2283  0.3484
  598TMC3     C 8865   1.350   2.926  15.437  0.5517 -0.6130 -0.4067
  598TMC3     O 8866   1.395   2.823  15.484  0.3324  0.5873  0.3508
  598TMC3     H 8867   1.155   2.745  15.402  0.7909 -1.8319 -0.2380
  598TMC3    H1 8868   1.342   3.079  15.213 -0.2112 -0.0697  1.7933
  598TMC3    H2 8869   0.988   2.909  15.040 -0.1544  1.7588  0.5063
  598TMC3    C7 8870   1.165   3.089  15.005  0.0812  0.2755 -0.2685
  598TMC3    C8 8871   0.957   2.715  15.247 -0.3947 -0.7629 -0.0663
  598TMC3    O1 8872   1.110   3.053  14.901 -0.6200  0.3210  0.7497
  598TMC3    O2 8873   0.948   2.666  15.358 -0.2111 -0.0511  0.4478
  599MPD2     C 8874   1.119   0.395  15.826 -0.4427 -0.6535 -1.5281
  599MPD2    C1 8875   1.032   0.293  15.834 -0.2186 -0.0477  0.2556
  599MPD2    C2 8876   0.897   0.307  15.859 -0.0283 -0.7364  0.1825
  599MPD2    C3 8877   0.849   0.438  15.878  0.3310  0.6847 -0.4445
  599MPD2    C4 8878   0.938   0.539  15.877 -0.1139 -1.1193 -0.1937
  599MPD2    C5 8879   1.064   0.522  15.840 -0.5810 -0.6356  0.3009
  599MPD2     H 8880   0.831   0.220  15.858 -0.0422 -0.7150 -0.5969
  599MPD2    H1 8881   0.898   0.637  15.901 -2.6307 -2.1654 -0.1963
  599MPD2    H2 8882   1.221   0.387  15.791  1.3619  6.0961  2.1063
  599MPD2    H3 8883   1.136   0.603  15.839  0.0880 -1.1874  3.0983
  599MPD2     N 8884   0.712   0.468  15.912  0.4706 -0.5702 -0.2545
  599MPD2    H5 8885   0.700   0.565  15.939  1.4059 -0.9382  1.5247
  599MPD2    N1 8886   1.099   0.166  15.809 -0.0664 -0.0435  0.1945
  599MPD2    H7 8887   1.193   0.187  15.780 -0.3806  1.2214  0.0958
  600TMC3    C1 8888   0.491   0.414  15.985  1.0033 -0.2440 -0.3598
  600TMC3    C2 8889   0.387   0.320  15.999 -0.2257  0.1150 -0.3344
  600TMC3    C3 8890   0.287   0.340  16.086  0.1838  0.2352 -0.2048
  600TMC3    C4 8891   0.489   0.525  16.060 -0.3151 -0.2571  1.3374
  600TMC3    C5 8892   0.386   0.536  16.158 -0.3393 -0.6364  0.0980
  600TMC3    C6 8893   0.280   0.453  16.166 -0.1729 -0.4530 -0.0658
  600TMC3     C 8894   0.604   0.380  15.898 -0.1688 -0.2538 -0.4372
  600TMC3     O 8895   0.603   0.269  15.850 -0.0022  0.1393  0.6635
  600TMC3     H 8896   0.393   0.229  15.940 -1.3876  0.9382 -1.7098
  600TMC3    H1 8897   0.572   0.595  16.065  0.2352 -0.7894 -0.3685
  600TMC3    H2 8898   0.194   0.471  16.230  1.1191 -1.5214  1.9831
  600TMC3    C7 8899   0.385   0.632  16.257 -0.0145 -1.3170 -0.4124
  600TMC3    C8 8900   0.179   0.242  16.105  0.3458 -0.0455 -0.2418
  600TMC3    O1 8901   0.298   0.626  16.348  0.6154  0.2220 -0.4840
  600TMC3    O2 8902   0.147   0.182  16.004  0.5580 -0.0004  0.5133
  601MPD2     C 8903   2.013   2.472   0.443  0.3342 -0.0757  0.7044
  601MPD2    C1 8904   2.031   2.403   0.331 -0.0209 -0.3173  0.2886
  601MPD2    C2 8905   2.104   2.289   0.336  0.1459 -0.4932  0.9453
  601MPD2    C3 8906   2.170   2.253   0.450 -0.5328  0.2536 -0.7681
  601MPD2    C4 8907   2.144   2.316   0.567 -0.2153  0.8584  0.4870
  601MPD2    C5 8908   2.064   2.428   0.558 -0.1398  0.3428 -0.0619
  601MPD2     H 8909   2.117   2.225   0.249 -1.2437  0.9653 -0.3353
  601MPD2    H1 8910   2.172   2.279   0.665 -0.2693  0.5880  0.3991
  601MPD2    H2 8911   1.951   2.561   0.447 -0.7209 -0.7041 -1.6229
  601MPD2    H3 8912   2.031   2.478   0.649 -2.5869 -0.5969 -0.4362
  601MPD2     N 8913   2.275   2.154   0.461 -0.1831 -0.1150  0.6113
  601MPD2    H5 8914   2.302   2.137   0.558  0.6066 -0.5261  0.3202
  601MPD2    N1 8915   1.992   2.442   0.203 -0.3365 -0.1954 -0.0165
  601MPD2    H7 8916   2.014   2.378   0.128 -0.3464 -0.5737  0.2985
  602TMC3    C1 8917   1.902   2.597   0.032  0.4906  0.1521 -0.7996
  602TMC3    C2 8918   2.017   2.584  17.657 -0.3602 -0.1173 -0.0911
  602TMC3    C3 8919   2.048   2.672  17.561 -0.4862 -0.1910  0.2584
  602TMC3    C4 8920   1.807   2.691   0.006  0.5730  0.0299  0.0637
  602TMC3    C5 8921   1.839   2.779  17.602 -0.1657  0.3066  0.0589
  602TMC3    C6 8922   1.962   2.785  17.538 -0.2214 -0.1323  0.1100
  602TMC3     C 8923   1.905   2.549   0.173 -1.0340 -0.2441  0.0011
  602TMC3     O 8924   1.846   2.621   0.253 -0.1915  0.0379  0.4033
  602TMC3     H 8925   2.092   2.516  17.696 -1.5914 -1.8436 -0.6863
  602TMC3    H1 8926   1.716   2.690   0.064 -0.4386  0.3037 -1.5262
  602TMC3    H2 8927   1.961   2.850  17.451  0.0811 -0.5736 -0.2201
  602TMC3    C7 8928   1.753   2.900  17.595  0.2643  0.1086  0.1167
  602TMC3    C8 8929   2.182   2.689  17.515 -0.5127 -0.4402  0.8410
  602TMC3    O1 8930   1.633   2.891  17.622  1.0234  0.1439 -0.2687
  602TMC3    O2 8931   2.246   2.597  17.469 -0.1409 -0.1249 -0.0599
  603TMC3    C1 8932   1.219   4.095  10.610  0.1560  0.1724 -0.2183
  603TMC3    C2 8933   1.214   4.093  10.742  0.1589  0.5751 -0.3818
  603TMC3    C3 8934   1.215   4.209  10.814  0.0891  0.6567  0.0406
  603TMC3    C4 8935   1.216   4.211  10.542  0.0267  0.0119 -0.6763
  603TMC3    C5 8936   1.219   4.326  10.618  0.2389  0.4703  0.4139
  603TMC3    C6 8937   1.233   4.324  10.749  0.7263  0.4213 -0.6777
  603TMC3     C 8938   1.205   3.964  10.544  0.5803  0.1434 -0.3121
  603TMC3     O 8939   1.236   3.863  10.602 -0.3392 -0.6339  0.4517
  603TMC3     H 8940   1.195   3.995  10.784 -2.9336  0.8887 -1.0433
  603TMC3    H1 8941   1.233   4.202  10.435 -2.2053 -1.0679 -0.9354
  603TMC3    H2 8942   1.194   4.412  10.801  0.3241 -0.6009  0.7517
  603TMC3    C7 8943   1.218   4.458  10.548  0.1813  0.1746  0.3257
  603TMC3    C8 8944   1.219   4.204  10.956 -0.0209 -0.1115  0.5429
  603TMC3    O1 8945   1.266   4.551  10.615 -0.0366  0.2193 -0.1151
  603TMC3    O2 8946   1.182   4.099  11.001 -0.2373  0.0014  0.5426
  604MPD2     C 8947   1.813   2.292  16.294  0.0686 -0.0394 -0.6394
  604MPD2    C1 8948   1.713   2.261  16.201 -0.0228 -0.1260  0.0185
  604MPD2    C2 8949   1.749   2.220  16.078  0.0176 -0.5658 -0.1293
  604MPD2    C3 8950   1.884   2.209  16.039  0.0548  0.4350  0.3989
  604MPD2    C4 8951   1.982   2.259  16.124 -0.2679  0.1722  0.3870
  604MPD2    C5 8952   1.946   2.286  16.253 -0.5890  0.2520  0.0720
  604MPD2     H 8953   1.674   2.178  16.013 -1.0098  1.3722 -0.2025
  604MPD2    H1 8954   2.087   2.270  16.102 -0.0865 -1.6600  0.3080
  604MPD2    H2 8955   1.796   2.328  16.395  1.3769  0.9826 -0.7926
  604MPD2    H3 8956   2.024   2.307  16.324 -0.1379 -1.2766  0.0308
  604MPD2     N 8957   1.904   2.155  15.912  0.2145 -0.5906 -0.1655
  604MPD2    H5 8958   1.829   2.118  15.854  0.4572  0.1803 -0.9705
  604MPD2    N1 8959   1.578   2.268  16.243  0.6447  0.0466  0.5877
  604MPD2    H7 8960   1.574   2.273  16.344 -1.8038  0.8162  0.4627
  605TMC3    C1 8961   1.350   2.265  16.255  0.3835 -0.2166  0.2309
  605TMC3    C2 8962   1.391   2.249  16.387  0.0766  0.6985 -0.7179
  605TMC3    C3 8963   1.350   2.337  16.481  0.1483 -0.7852  0.2692
  605TMC3    C4 8964   1.281   2.372  16.205 -0.4798 -0.0683 -0.2836
  605TMC3    C5 8965   1.246   2.462  16.307  0.4271 -0.9980 -0.0205
  605TMC3    C6 8966   1.271   2.448  16.441 -0.0218  0.1579  0.5839
  605TMC3     C 8967   1.457   2.242  16.167 -0.5709  0.3920  0.4219
  605TMC3     O 8968   1.443   2.221  16.046 -0.2004 -0.1611 -0.1797
  605TMC3     H 8969   1.431   2.156  16.428 -1.3261 -0.2476 -1.5082
  605TMC3    H1 8970   1.269   2.385  16.098  2.6853 -0.3512 -0.6568
  605TMC3    H2 8971   1.220   2.517  16.508  1.6471  1.3223  0.6493
  605TMC3    C7 8972   1.153   2.564  16.276  0.0213 -0.0039 -0.0400
  605TMC3    C8 8973   1.468   2.376  16.556 -0.0618  0.2301  0.2341
  605TMC3    O1 8974   1.087   2.620  16.365 -0.2757  0.5314  0.1582
  605TMC3    O2 8975   1.575   2.319  16.526 -0.3155  1.0073  0.0267
  606TMC3    C1 8976   3.005   0.699  16.650 -0.1270 -0.0932 -0.9010
  606TMC3    C2 8977   2.988   0.735  16.782 -0.1800  0.5045 -0.5987
  606TMC3    C3 8978   2.907   0.668  16.865  0.1389 -0.3777 -0.2144
  606TMC3    C4 8979   2.943   0.579  16.607 -0.4435 -0.1096  0.4587
  606TMC3    C5 8980   2.863   0.503  16.692  0.4223 -0.1681  0.0970
  606TMC3    C6 8981   2.837   0.555  16.816 -0.4705 -0.6543  0.2080
  606TMC3     C 8982   3.056   0.800  16.552 -0.2385 -0.5404  0.1829
  606TMC3     O 8983   3.051   0.920  16.587  0.4562  0.0045 -0.1735
  606TMC3     H 8984   3.046   0.816  16.825 -1.5415  1.2782 -0.1842
  606TMC3    H1 8985   2.937   0.554  16.502  1.5524  0.1640  0.2815
  606TMC3    H2 8986   2.767   0.506  16.883 -0.4808  0.4493  1.0032
  606TMC3    C7 8987   2.815   0.380  16.641  0.6121 -0.3723 -0.6582
  606TMC3    C8 8988   2.944   0.665  17.002  0.5891  0.5290  0.8195
  606TMC3    O1 8989   2.873   0.333  16.547 -0.3260  0.1443  0.0435
  606TMC3    O2 8990   3.054   0.708  17.039 -0.1861  0.8110 -0.1057
  607MPD2     C 8991   0.562   4.225  11.597 -0.2357 -0.0559  0.0515
  607MPD2    C1 8992   0.640   4.246  11.710  0.4526 -0.2484 -0.0482
  607MPD2    C2 8993   0.589   4.213  11.829  0.1499  0.1925 -0.0721
  607MPD2    C3 8994   0.461   4.166  11.846 -0.9775  0.1727 -0.5604
  607MPD2    C4 8995   0.377   4.165  11.738 -0.3571  0.3481  0.4268
  607MPD2    C5 8996   0.432   4.185  11.616 -0.4547  0.3240  0.0466
  607MPD2     H 8997   0.645   4.229  11.921  0.8675  0.8462 -0.6260
  607MPD2    H1 8998   0.273   4.133  11.739 -0.6743  1.4437  1.7863
  607MPD2    H2 8999   0.586   4.244  11.493 -0.2328  0.8485  0.2149
  607MPD2    H3 9000   0.368   4.179  11.529 -0.8985 -0.1141  0.4048
  607MPD2     N 9001   0.426   4.134  11.984 -0.7972  0.2309 -0.0247
  607MPD2    H5 9002   0.494   4.150  12.057  0.9976 -0.2235 -1.5684
  607MPD2    N1 9003   0.778   4.275  11.697 -0.0523 -1.1462  1.1890
  607MPD2    H7 9004   0.819   4.290  11.788  1.2190  0.2685  0.3837
  608TMC3    C1 9005   0.898   4.463  11.644  0.9388  0.6820  0.2945
  608TMC3    C2 9006   0.861   4.515  11.767 -0.3114  0.6730  0.5108
  608TMC3    C3 9007   0.895   4.640  11.793 -0.1327 -0.4717 -0.0353
  608TMC3    C4 9008   0.975   4.532  11.552 -0.0196  0.9482 -0.3893
  608TMC3    C5 9009   1.007   4.660  11.587  0.0853 -0.2347  0.3910
  608TMC3    C6 9010   0.963   4.716  11.701 -0.1994  0.2576  0.1760
  608TMC3     C 9011   0.827   4.348  11.598  0.3593 -0.2786 -0.3011
  608TMC3     O 9012   0.798   4.352  11.480  0.3518 -0.4175  0.2120
  608TMC3     H 9013   0.794   4.469  11.839 -2.0825  0.9022 -0.9744
  608TMC3    H1 9014   1.012   4.478  11.466 -0.0665  1.4407 -0.7193
  608TMC3    H2 9015   0.971   0.097  11.726  1.1828  0.5566 -1.5490
  608TMC3    C7 9016   1.067   0.011  11.477  0.1754 -0.3148 -0.0877
  608TMC3    C8 9017   0.817   4.717  11.893 -0.3899 -0.1966  0.4175
  608TMC3    O1 9018   1.092   4.667  11.376 -0.1181 -0.2136  0.4718
  608TMC3    O2 9019   0.773   0.103  11.861  0.1911 -0.1948  0.7804
  609TMC3    C1 9020   3.861   2.303   9.209 -0.0335  0.2259 -0.4095
  609TMC3    C2 9021   3.854   2.227   9.098  0.0998 -0.5038  0.2385
  609TMC3    C3 9022   3.961   2.149   9.048  0.0806  0.4939  1.0344
  609TMC3    C4 9023   3.982   2.320   9.272  0.6834 -0.6412  0.4887
  609TMC3    C5 9024   4.080   2.240   9.229 -0.0430  0.0464  0.1144
  609TMC3    C6 9025   4.081   2.157   9.113 -0.1849 -0.3011 -0.2938
  609TMC3     C 9026   3.745   2.378   9.252  0.5130  0.0403 -0.3541
  609TMC3     O 9027   3.640   2.341   9.199  0.1126  0.2371 -0.3687
  609TMC3     H 9028   3.754   2.213   9.057  0.2917 -2.0448  0.2903
  609TMC3    H1 9029   3.993   2.384   9.359 -0.4682 -0.4661  0.5041
  609TMC3    H2 9030   4.168   2.103   9.078  0.3491  1.3009 -1.3880
  609TMC3    C7 9031   4.202   2.239   9.310  0.8786 -0.1125 -0.2663
  609TMC3    C8 9032   3.950   2.084   8.919 -0.0988  0.3655  0.5575
  609TMC3    O1 9033   4.214   2.329   9.395  0.4537  0.1021 -0.7141
  609TMC3    O2 9034   3.882   2.150   8.843 -0.3435  0.0724 -0.2688
  610TMC3    C1 9035   0.690   4.113  12.743  1.2568 -0.4766 -0.0837
  610TMC3    C2 9036   0.765   4.197  12.664  0.8462  0.5405  0.4698
  610TMC3    C3 9037   0.906   4.182  12.661 -0.2218  0.3532  0.1531
  610TMC3    C4 9038   0.756   4.032  12.834  0.2986 -0.4563  0.3680
  610TMC3    C5 9039   0.895   4.029  12.844 -0.1653  0.7252  0.5222
  610TMC3    C6 9040   0.972   4.094  12.753 -0.2860  0.8697  0.1894
  610TMC3     C 9041   0.548   4.100  12.731  0.0190  0.6456  0.7912
  610TMC3     O 9042   0.483   4.005  12.778 -0.0723 -0.2084  0.0080
  610TMC3     H 9043   0.714   4.260  12.592 -0.5865 -2.0748 -0.7704
  610TMC3    H1 9044   0.697   3.965  12.896 -1.2746 -0.1469 -0.7892
  610TMC3    H2 9045   1.080   4.088  12.755 -0.4173 -1.0407  2.1940
  610TMC3    C7 9046   0.960   3.940  12.938 -0.8261  0.0975 -0.2771
  610TMC3    C8 9047   0.997   4.275  12.594  1.0691 -0.5052  0.7736
  610TMC3    O1 9048   1.074   3.907  12.906 -0.1645 -0.4076  0.4580
  610TMC3    O2 9049   1.113   4.273  12.634  0.2147  0.0107  0.3797
  611MPD2     C 9050   0.493   3.992  10.012 -0.6633  0.4450 -0.0478
  611MPD2    C1 9051   0.403   4.099   9.996 -0.1186 -0.4515  0.1339
  611MPD2    C2 9052   0.453   4.206   9.913  0.6318 -0.3898  0.5417
  611MPD2    C3 9053   0.586   4.237   9.895  0.4691  0.2945 -0.1329
  611MPD2    C4 9054   0.677   4.132   9.927 -0.0439  0.7832 -0.5210
  611MPD2    C5 9055   0.624   4.013   9.969 -0.3975  0.3565 -0.6119
  611MPD2     H 9056   0.380   4.275   9.872  1.9246 -0.3285 -1.6673
  611MPD2    H1 9057   0.784   4.137   9.912 -0.0480  1.6446 -0.2504
  611MPD2    H2 9058   0.455   3.892  10.031  1.0542 -0.1129  0.5110
  611MPD2    H3 9059   0.694   3.931   9.976  2.3437  2.8604  1.0363
  611MPD2     N 9060   0.639   4.355   9.839  0.2457  0.0308 -0.4195
  611MPD2    H5 9061   0.739   4.368   9.825  0.5620 -0.3839  1.3866
  611MPD2    N1 9062   0.271   4.092  10.037  0.2445  0.3751 -0.0635
  611MPD2    H7 9063   0.249   3.998  10.066 -0.9364  0.8457  0.5588
  612TMC3    C1 9064   0.656   4.570   9.768  0.0963 -0.2970  0.2638
  612TMC3    C2 9065   0.754   4.591   9.857  0.4318 -0.2055 -0.2015
  612TMC3    C3 9066   0.797   4.721   9.869 -0.3862 -0.3440  0.0105
  612TMC3    C4 9067   0.615   4.667   9.684  0.3822 -0.3375  1.2330
  612TMC3    C5 9068   0.657   0.076   9.704 -0.1205  0.7724  1.0976
  612TMC3    C6 9069   0.757   0.102   9.794 -0.5156 -0.0772  0.5124
  612TMC3     C 9070   0.570   4.460   9.793  0.6851  0.3801 -1.0361
  612TMC3     O 9071   0.457   4.477   9.743  0.0591  0.2571  0.1563
  612TMC3     H 9072   0.787   4.509   9.919 -1.2478 -0.5973  0.1986
  612TMC3    H1 9073   0.544   4.639   9.608 -0.5804  2.1417  1.2254
  612TMC3    H2 9074   0.787   0.204   9.813  3.9494 -1.0956 -1.2716
  612TMC3    C7 9075   0.607   0.176   9.622  0.4069  0.5721  0.4647
  612TMC3    C8 9076   0.908   0.031   9.953 -0.0324 -0.1001  0.7818
  612TMC3    O1 9077   0.674   0.278   9.616 -0.1476 -0.6614  0.4006
  612TMC3    O2 9078   0.974   0.130   9.927  0.0066  0.3066  0.5914
  613MPD2     C 9079   4.460   1.300  16.829 -0.2453 -0.3502  0.3317
  613MPD2    C1 9080   4.390   1.358  16.731 -0.0825 -0.2326 -0.8826
  613MPD2    C2 9081   4.273   1.295  16.681  0.0506 -0.0059 -0.6027
  613MPD2    C3 9082   4.237   1.167  16.726 -0.3596  0.1268 -0.9086
  613MPD2    C4 9083   4.315   1.105  16.814  0.0903  0.5536  0.3929
  613MPD2    C5 9084   4.423   1.174  16.871  0.4632  0.4966  0.4233
  613MPD2     H 9085   4.208   1.350  16.614 -0.6059 -0.6182 -0.4691
  613MPD2    H1 9086   4.289   1.005  16.849  1.9069  0.0854  0.4013
  613MPD2    H2 9087   4.548   1.347  16.873  0.4732  0.0455 -1.5060
  613MPD2    H3 9088   4.473   1.121  16.951  1.5960 -0.9920 -1.2772
  613MPD2     N 9089   4.114   1.098  16.678  0.2766 -0.5542  0.2355
  613MPD2    H5 9090   4.098   1.011  16.727 -1.1178 -0.9480 -0.9326
  613MPD2    N1 9091   4.437   1.479  16.679  0.2486 -0.1570  0.3862
  613MPD2    H7 9092   4.504   1.536  16.731 -1.6566 -0.0397  2.6985
  614TMC3    C1 9093   4.353   1.470  16.448  0.3063  0.7513 -0.9192
  614TMC3    C2 9094   4.421   1.354  16.412  0.2540 -0.4074  0.3746
  614TMC3    C3 9095   4.397   1.300  16.288 -0.3449 -0.1783 -0.2227
  614TMC3    C4 9096   4.274   1.532  16.362 -0.7038  0.2140  0.5554
  614TMC3    C5 9097   4.247   1.472  16.246  0.4627 -0.0145 -0.1044
  614TMC3    C6 9098   4.308   1.355  16.203 -0.1608 -1.3211  0.4690
  614TMC3     C 9099   4.379   1.549  16.574 -0.2383 -0.2736  0.0801
  614TMC3     O 9100   4.366   1.671  16.569 -0.2096 -0.3938  0.4419
  614TMC3     H 9101   4.499   1.324  16.481  0.6619  3.0063  1.3844
  614TMC3    H1 9102   4.224   1.624  16.391 -0.2478  0.9282 -0.9496
  614TMC3    H2 9103   4.278   1.309  16.110  0.5750  0.2305 -0.5291
  614TMC3    C7 9104   4.179   1.556  16.156  1.0500 -0.1647  0.3465
  614TMC3    C8 9105   4.375   1.149  16.285  0.8351  0.7086  0.5532
  614TMC3    O1 9106   4.203   1.677  16.171 -0.7910  0.6269 -0.5503
  614TMC3    O2 9107   4.304   1.105  16.194 -0.0051 -0.7599  0.7009
  615MPD2     C 9108   3.401   2.242  16.016 -0.0528 -0.0681  0.0483
  615MPD2    C1 9109   3.323   2.353  16.038  0.0426 -0.2769 -0.0424
  615MPD2    C2 9110   3.236   2.389  15.937  0.2586 -0.1320 -0.2384
  615MPD2    C3 9111   3.235   2.330  15.813  0.0756 -0.1913  1.2233
  615MPD2    C4 9112   3.324   2.225  15.797 -0.1544 -0.6389 -0.2168
  615MPD2    C5 9113   3.395   2.170  15.902  0.7292 -0.7829 -0.4359
  615MPD2     H 9114   3.167   2.471  15.952 -0.9090 -1.0644 -0.4424
  615MPD2    H1 9115   3.326   2.171  15.703 -1.1945 -1.9878  0.5406
  615MPD2    H2 9116   3.458   2.182  16.087  0.4611 -0.9641 -1.1277
  615MPD2    H3 9117   3.453   2.079  15.889 -1.0504 -1.8507 -0.8815
  615MPD2     N 9118   3.141   2.366  15.710  0.1524 -0.4180  0.2074
  615MPD2    H5 9119   3.142   2.311  15.625 -2.4615 -0.1451  0.0226
  615MPD2    N1 9120   3.319   2.415  16.168  0.3784 -0.0773  0.1914
  615MPD2    H7 9121   3.239   2.471  16.192  0.0742 -1.3229  2.0784
  616TMC3    C1 9122   3.393   2.475  16.388  0.3727  0.6964 -0.0638
  616TMC3    C2 9123   3.492   2.529  16.457 -0.0665  0.1550  0.5470
  616TMC3    C3 9124   3.473   2.567  16.583 -0.2217  0.1571 -0.6357
  616TMC3    C4 9125   3.269   2.457  16.430 -0.4552 -0.5898 -0.0805
  616TMC3    C5 9126   3.249   2.523  16.553 -0.4372  0.3995 -0.0486
  616TMC3    C6 9127   3.346   2.586  16.630  0.3182 -0.6679  0.2918
  616TMC3     C 9128   3.418   2.402  16.265 -0.1507 -0.7140 -0.0814
  616TMC3     O 9129   3.529   2.350  16.255  0.1303 -0.0322  0.2477
  616TMC3     H 9130   3.578   2.540  16.391 -1.8408  1.6307 -1.5533
  616TMC3    H1 9131   3.189   2.422  16.365 -0.4418 -0.2575 -0.2712
  616TMC3    H2 9132   3.319   2.655  16.708  1.5786  2.0483 -1.6850
  616TMC3    C7 9133   3.124   2.531  16.619 -0.3279  0.5531 -0.4773
  616TMC3    C8 9134   3.575   2.648  16.641  0.7957 -0.4225  0.4820
  616TMC3    O1 9135   3.126   2.550  16.740 -0.0225 -0.1842  0.1427
  616TMC3    O2 9136   3.666   2.662  16.558  0.2171  0.5836  0.3155
  617MPD2     C 9137   1.623   1.140  13.833 -0.0681 -0.3633  0.4310
  617MPD2    C1 9138   1.632   1.042  13.931  0.0339 -0.6071 -0.4282
  617MPD2    C2 9139   1.511   0.982  13.974  0.4168  0.9122  0.9178
  617MPD2    C3 9140   1.390   1.007  13.910  0.4328 -0.9573  0.4725
  617MPD2    C4 9141   1.392   1.085  13.801 -0.7305 -0.3717  0.0287
  617MPD2    C5 9142   1.502   1.166  13.772  0.2841 -0.3540 -0.0636
  617MPD2     H 9143   1.520   0.918  14.061  0.9475 -0.3775 -0.0899
  617MPD2    H1 9144   1.297   1.109  13.754 -0.8785 -3.3037 -1.2227
  617MPD2    H2 9145   1.711   1.192  13.799 -1.3485  2.2133  1.0606
  617MPD2    H3 9146   1.495   1.249  13.703 -0.1916 -0.3171  0.0274
  617MPD2     N 9147   1.265   0.960  13.956 -0.4393 -0.2281 -0.1712
  617MPD2    H5 9148   1.180   0.996  13.914 -0.3107 -1.3771 -1.4302
  617MPD2    N1 9149   1.760   0.997  13.973  0.2593 -0.5541  0.2349
  617MPD2    H7 9150   1.835   1.022  13.910 -0.2566 -0.4077 -0.3256
  618TMC3    C1 9151   1.933   0.899  14.083 -0.4441 -0.3060  0.6709
  618TMC3    C2 9152   1.971   0.829  13.975 -0.2628 -0.6435 -0.2145
  618TMC3    C3 9153   2.104   0.802  13.955  0.5087 -0.3851  0.0661
  618TMC3    C4 9154   2.024   0.947  14.169  0.4569  0.0157 -0.1174
  618TMC3    C5 9155   2.154   0.919  14.148  0.2242  0.0920  0.0344
  618TMC3    C6 9156   2.204   0.838  14.047  0.7659  0.1421 -0.4576
  618TMC3     C 9157   1.792   0.940  14.094 -0.1198  0.2117  0.1837
  618TMC3     O 9158   1.736   0.951  14.198  0.1487  0.3823 -0.0725
  618TMC3     H 9159   1.891   0.790  13.913  0.9807  0.0692 -2.2433
  618TMC3    H1 9160   1.991   1.019  14.242  2.2260  1.3796 -0.6929
  618TMC3    H2 9161   2.310   0.819  14.038  0.8188 -0.6476  1.8279
  618TMC3    C7 9162   2.261   0.984  14.226  0.1318 -0.2754 -0.3207
  618TMC3    C8 9163   2.141   0.795  13.820 -0.0196  0.4050  0.3165
  618TMC3    O1 9164   2.257   0.971  14.349  0.2159  0.1499 -0.0846
  618TMC3    O2 9165   2.051   0.763  13.741  0.2377 -0.0041  0.3016
  619MPD2     C 9166   3.001   2.235  13.650  0.6345 -0.5245 -0.1251
  619MPD2    C1 9167   2.899   2.294  13.575 -0.2760 -0.1001  0.7447
  619MPD2    C2 9168   2.764   2.271  13.611  0.3692  0.6830 -0.0673
  619MPD2    C3 9169   2.741   2.195  13.726 -0.0776  0.3503 -0.6590
  619MPD2    C4 9170   2.850   2.143  13.799 -0.4630 -0.1492  0.6796
  619MPD2    C5 9171   2.975   2.164  13.760  0.5454 -0.7482  0.7456
  619MPD2     H 9172   2.686   2.316  13.550  0.7471  1.9107  0.3446
  619MPD2    H1 9173   2.832   2.087  13.890  1.1437  0.7785  1.5705
  619MPD2    H2 9174   3.105   2.248  13.621  0.5743  0.4205  0.0941
  619MPD2    H3 9175   3.065   2.135  13.813 -0.3925 -2.3524  1.4575
  619MPD2     N 9176   2.615   2.153  13.766 -0.1906 -0.8298  0.5674
  619MPD2    H5 9177   2.614   2.095  13.850 -3.9188 -2.4010 -0.5354
  619MPD2    N1 9178   2.920   2.377  13.465  0.2867  0.2308  0.1091
  619MPD2    H7 9179   2.836   2.423  13.434 -1.2540 -1.8978  1.0848
  620TMC3    C1 9180   3.027   2.502  13.308 -0.1812  0.4549  0.2031
  620TMC3    C2 9181   2.928   2.485  13.216 -0.2027  0.1676 -0.3732
  620TMC3    C3 9182   2.882   2.587  13.144  0.1847 -0.7748  0.1282
  620TMC3    C4 9183   3.098   2.620  13.316 -0.2845 -0.0289  0.1355
  620TMC3    C5 9184   3.057   2.721  13.234  0.3525  0.1482 -0.0836
  620TMC3    C6 9185   2.955   2.705  13.141 -0.0714 -0.5314  0.3011
  620TMC3     C 9186   3.048   2.400  13.406 -0.2423  0.2781  0.5550
  620TMC3     O 9187   3.161   2.379  13.442  0.0843  0.2240  0.6782
  620TMC3     H 9188   2.873   2.392  13.204 -0.1892  0.1854 -0.5590
  620TMC3    H1 9189   3.187   2.630  13.377 -0.2168 -0.2842  0.0759
  620TMC3    H2 9190   2.899   2.785  13.095 -0.6652 -0.7655  0.6094
  620TMC3    C7 9191   3.076   2.860  13.272  0.0260 -0.2753  0.2679
  620TMC3    C8 9192   2.741   2.615  13.171  0.2785  0.0641 -0.9566
  620TMC3    O1 9193   3.055   2.946  13.188  0.1021 -0.0727 -0.1578
  620TMC3    O2 9194   2.698   2.720  13.208  0.4258  0.5339  0.1079
  621MPD2     C 9195   3.378   2.823   9.839 -0.0858 -0.3058 -0.5258
  621MPD2    C1 9196   3.475   2.847   9.929  0.3310  0.1019 -0.0385
  621MPD2    C2 9197   3.510   2.973   9.969  0.7436 -0.0079 -0.0935
  621MPD2    C3 9198   3.451   3.079   9.912  0.4302 -0.7050  1.0180
  621MPD2    C4 9199   3.354   3.061   9.821  0.2171  0.2085 -0.9381
  621MPD2    C5 9200   3.320   2.935   9.782  0.0050 -0.4288 -0.1745
  621MPD2     H 9201   3.590   2.985  10.041 -1.4811  2.9098  1.8754
  621MPD2    H1 9202   3.299   3.138   9.769  1.2167  1.8893  0.4675
  621MPD2    H2 9203   3.340   2.726   9.808  0.4631 -0.9609  0.8665
  621MPD2    H3 9204   3.245   2.916   9.705  1.3224  0.2594 -1.6190
  621MPD2     N 9205   3.500   3.212   9.934 -0.2004  0.3543 -0.0617
  621MPD2    H5 9206   3.586   3.227   9.986 -0.0871  1.9582 -0.6864
  621MPD2    N1 9207   3.528   2.731   9.981  0.8347  0.1095  0.3602
  621MPD2    H7 9208   3.482   2.641   9.974  2.9737 -0.9103 -0.7188
  622TMC3    C1 9209   3.634   2.597  10.143  0.1754  1.0420  0.1269
  622TMC3    C2 9210   3.522   2.574  10.214 -0.1354  0.1432  0.1438
  622TMC3    C3 9211   3.507   2.458  10.281  0.2348  0.1094 -0.4167
  622TMC3    C4 9212   3.728   2.498  10.117  0.0393  0.2677 -0.2295
  622TMC3    C5 9213   3.706   2.377  10.173 -0.9880  0.3205  0.1190
  622TMC3    C6 9214   3.597   2.354  10.255 -0.3756 -0.0777 -0.2245
  622TMC3     C 9215   3.640   2.717  10.065  0.6274 -0.5086 -0.5739
  622TMC3     O 9216   3.731   2.796  10.086 -0.2222 -0.5503 -0.3362
  622TMC3     H 9217   3.445   2.651  10.217 -1.9637 -1.6927  0.2830
  622TMC3    H1 9218   3.804   2.521  10.043  0.4865  1.8165  0.7284
  622TMC3    H2 9219   3.570   2.255  10.289  0.2823  0.0182  0.5603
  622TMC3    C7 9220   3.748   2.257  10.106  0.5952 -0.6913  0.7160
  622TMC3    C8 9221   3.406   2.439  10.385 -0.5519  0.9641 -0.3458
  622TMC3    O1 9222   3.870   2.239  10.094 -0.6391 -0.0513  0.6009
  622TMC3    O2 9223   3.424   2.354  10.469  0.2671  0.5409  1.0264
  623MPD2     C 9224   1.976   2.684  15.928 -0.1823 -0.5355  0.1080
  623MPD2    C1 9225   1.882   2.636  16.018 -0.3455 -0.2452  0.4057
  623MPD2    C2 9226   1.928   2.607  16.148  0.2576  0.2151 -0.2042
  623MPD2    C3 9227   2.060   2.626  16.192 -0.0258 -0.1339 -0.4370
  623MPD2    C4 9228   2.150   2.668  16.093 -0.4142  0.0478  0.1767
  623MPD2    C5 9229   2.105   2.704  15.964 -0.7111  0.0161  0.3745
  623MPD2     H 9230   1.853   2.578  16.221  0.2868  1.5520  0.3564
  623MPD2    H1 9231   2.256   2.686  16.110 -0.9947  1.9302  1.8755
  623MPD2    H2 9232   1.960   2.718  15.826 -1.1904  0.1267  0.4921
  623MPD2    H3 9233   2.170   2.752  15.892 -1.0315 -2.5091 -1.5982
  623MPD2     N 9234   2.103   2.594  16.322  0.3300 -0.3652 -0.3423
  623MPD2    H5 9235   2.030   2.578  16.390  0.6095  0.3235  0.1322
  623MPD2    N1 9236   1.746   2.643  16.001 -0.1523 -0.1650 -0.6135
  623MPD2    H7 9237   1.694   2.622  16.085 -0.8021  0.9772 -0.7282
  624TMC3    C1 9238   2.301   2.369  16.638  0.4724  0.0970  0.2627
  624TMC3    C2 9239   2.200   2.395  16.723  0.1851  0.4643 -0.0797
  624TMC3    C3 9240   2.113   2.499  16.689  0.2350  0.4644 -0.2816
  624TMC3    C4 9241   2.322   2.441  16.522 -0.1432  0.9953 -0.6798
  624TMC3    C5 9242   2.236   2.546  16.500  0.2033 -0.2657  0.7183
  624TMC3    C6 9243   2.126   2.575  16.576 -0.0095  1.0372 -0.3057
  624TMC3     C 9244   2.431   2.305  16.684  0.4541 -0.8420  0.3209
  624TMC3     O 9245   2.456   2.304  16.803 -0.3253 -0.3122 -0.0651
  624TMC3     H 9246   2.180   2.325  16.803  2.4816  0.0014  0.0759
  624TMC3    H1 9247   2.404   2.419  16.455 -0.7765  0.3704 -1.2485
  624TMC3    H2 9248   2.059   2.656  16.550  0.5136  1.9286  1.1036
  624TMC3    C7 9249   2.232   2.576  16.360  0.2268  0.1985  0.3665
  624TMC3    C8 9250   1.968   2.495  16.732  0.0389 -0.1703 -0.8496
  624TMC3    O1 9251   2.336   2.566  16.285  0.1328  0.2280 -0.4988
  624TMC3    O2 9252   1.926   2.382  16.751  0.0958  0.4893  0.1375
  625MPD2     C 9253   2.418   3.617   0.668  0.5309  0.8158  0.8778
  625MPD2    C1 9254   2.456   3.752   0.642  0.9114  0.0204 -0.1254
  625MPD2    C2 9255   2.589   3.786   0.649 -0.4740  0.2593 -0.2069
  625MPD2    C3 9256   2.682   3.685   0.666 -0.6513  0.4611  0.6088
  625MPD2    C4 9257   2.647   3.556   0.675 -0.2562  0.0317  0.1306
  625MPD2    C5 9258   2.514   3.526   0.681  0.1871  0.1461 -0.6235
  625MPD2     H 9259   2.620   3.888   0.628 -0.7709  0.3486 -0.2119
  625MPD2    H1 9260   2.721   3.477   0.671 -0.2900 -0.0994  2.1728
  625MPD2    H2 9261   2.311   3.596   0.669  0.5417  0.5826 -2.2107
  625MPD2    H3 9262   2.490   3.420   0.682 -0.3132  0.2714  0.9825
  625MPD2     N 9263   2.818   3.723   0.682  0.2645 -0.4963 -0.5106
  625MPD2    H5 9264   2.846   3.817   0.657  0.8759 -0.7514 -0.7896
  625MPD2    N1 9265   2.352   3.845   0.616 -0.0522  0.0569 -0.1399
  625MPD2    H7 9266   2.256   3.814   0.624 -0.0884  0.0390 -0.6436
  626TMC3    C1 9267   2.238   4.043   0.569 -0.2082  0.2055  1.0245
  626TMC3    C2 9268   2.221   4.135   0.468  0.0091 -0.5425  0.6866
  626TMC3    C3 9269   2.099   4.198   0.456 -0.8183  0.4856 -0.0903
  626TMC3    C4 9270   2.140   4.015   0.654 -0.6335  0.2584 -0.6245
  626TMC3    C5 9271   2.020   4.091   0.648 -0.5581 -0.1194  0.1585
  626TMC3    C6 9272   1.996   4.177   0.547 -0.2731 -0.6269 -0.4819
  626TMC3     C 9273   2.369   3.970   0.567  0.0161  0.0220  0.0784
  626TMC3     O 9274   2.468   4.036   0.527 -0.8846 -0.3393  0.1698
  626TMC3     H 9275   2.301   4.158   0.399 -1.3529  0.4632 -0.5687
  626TMC3    H1 9276   2.160   3.950   0.739  1.3880  1.8641  0.1379
  626TMC3    H2 9277   1.899   4.222   0.526  0.5668  1.3027 -0.2282
  626TMC3    C7 9278   1.940   4.089   0.771  0.2551 -0.1369  0.5585
  626TMC3    C8 9279   2.087   4.287   0.349  0.0290 -0.7556  0.2554
  626TMC3    O1 9280   1.940   3.989   0.843  0.2806 -0.1716 -0.3168
  626TMC3    O2 9281   2.149   4.253   0.250 -0.4926  0.2659  0.0147
  627MPD2     C 9282   1.106   4.444  14.336 -0.7764 -0.1902  0.5263
  627MPD2    C1 9283   1.125   4.390  14.461  1.1747  0.4499  0.4309
  627MPD2    C2 9284   1.067   4.273  14.490 -0.7367  0.5813 -0.1977
  627MPD2    C3 9285   0.998   4.196  14.401  0.2666  0.3901 -0.2063
  627MPD2    C4 9286   0.978   4.252  14.273 -0.0556 -0.1013 -0.2502
  627MPD2    C5 9287   1.036   4.375  14.241  0.5194  0.0815  0.6399
  627MPD2     H 9288   1.089   4.234  14.589  0.0629  0.0971 -0.5604
  627MPD2    H1 9289   0.916   4.199  14.202  2.7203 -2.9942 -0.5117
  627MPD2    H2 9290   1.136   4.543  14.306 -0.6214 -0.1507  0.8052
  627MPD2    H3 9291   1.020   4.426  14.146 -1.5808  0.4195  1.1788
  627MPD2     N 9292   0.940   4.076  14.448  0.1790  0.2003  0.0347
  627MPD2    H5 9293   0.934   4.067  14.549  1.4938 -1.3085 -0.0163
  627MPD2    N1 9294   1.187   4.458  14.566 -0.5522  0.0685  0.1543
  627MPD2    H7 9295   1.188   4.415  14.657  1.5629  0.3475  0.2808
  628TMC3    C1 9296   1.293   4.642  14.683 -0.1851 -0.1800 -0.1558
  628TMC3    C2 9297   1.338   4.568  14.790  0.4194  0.0803  1.1403
  628TMC3    C3 9298   1.425   4.629  14.880 -0.4038  0.2293  0.4997
  628TMC3    C4 9299   1.304   0.047  14.682 -0.2386  0.0135 -0.3078
  628TMC3    C5 9300   1.358   0.107  14.790 -0.2839 -0.0849 -0.0093
  628TMC3    C6 9301   1.433   0.038  14.888 -0.1781  0.3226 -0.8227
  628TMC3     C 9302   1.257   4.580  14.555  0.5439  0.0616 -0.5481
  628TMC3     O 9303   1.272   4.649  14.455 -0.1471 -0.0544 -0.4398
  628TMC3     H 9304   1.331   4.460  14.777  2.0594  0.2208 -0.8333
  628TMC3    H1 9305   1.264   0.096  14.593  2.1542  2.5944  0.0446
  628TMC3    H2 9306   1.457   0.093  14.978 -1.9130  2.9892 -1.9757
  628TMC3    C7 9307   1.350   0.255  14.807  0.1001 -0.3863  0.2234
  628TMC3    C8 9308   1.524   4.555  14.943 -0.0439 -1.0492  0.5389
  628TMC3    O1 9309   1.434   0.296  14.882 -0.5966 -0.3408  0.1002
  628TMC3    O2 9310   1.510   4.436  14.935  0.4173  0.1910 -0.1055
  629MPD2     C 9311   3.826   2.907  17.012  0.2744  0.0293  0.5752
  629MPD2    C1 9312   3.840   2.907  16.878 -0.0105  0.0535  0.1595
  629MPD2    C2 9313   3.755   2.829  16.801 -0.1510  0.2183  0.0071
  629MPD2    C3 9314   3.653   2.756  16.854  0.6348  0.0858  0.4232
  629MPD2    C4 9315   3.626   2.776  16.989 -0.2555  0.6405  0.1716
  629MPD2    C5 9316   3.712   2.847  17.066 -0.4868 -1.0891  0.1539
  629MPD2     H 9317   3.769   2.825  16.693  0.2974  0.6903  0.0455
  629MPD2    H1 9318   3.535   2.739  17.036  0.4663 -0.4781  0.6935
  629MPD2    H2 9319   3.885   2.965  17.082  0.2673 -0.6517  1.1462
  629MPD2    H3 9320   3.699   2.845  17.174  2.3471 -3.0860  0.4623
  629MPD2     N 9321   3.559   2.677  16.774  0.4375  0.5970 -0.8276
  629MPD2    H5 9322   3.479   2.636  16.821  1.2237 -0.0449 -0.0502
  629MPD2    N1 9323   3.941   2.986  16.830  0.3070 -0.7293 -0.3685
  629MPD2    H7 9324   4.015   3.016  16.892  0.0403 -1.5597  0.3607
  630TMC3    C1 9325   4.074   3.107  16.669 -0.1504 -0.8023  0.0355
  630TMC3    C2 9326   4.058   3.184  16.555  0.1971  0.1277  0.4767
  630TMC3    C3 9327   4.167   3.256  16.518  0.8227 -0.0421  0.0304
  630TMC3    C4 9328   4.184   3.118  16.755 -0.7435  0.8610  0.4121
  630TMC3    C5 9329   4.286   3.202  16.717  0.2217 -0.4473  0.3855
  630TMC3    C6 9330   4.275   3.269  16.600  0.2516  0.1628 -0.2933
  630TMC3     C 9331   3.972   3.006  16.696  0.2111  0.0968 -0.5182
  630TMC3     O 9332   3.913   2.969  16.595 -0.0430  0.4716 -0.8111
  630TMC3     H 9333   3.978   3.173  16.484  0.9343  3.1161 -0.8382
  630TMC3    H1 9334   4.195   3.042  16.832 -1.2631 -0.6308 -1.0047
  630TMC3    H2 9335   4.353   3.334  16.563  0.0024  0.4560 -0.3030
  630TMC3    C7 9336   4.405   3.193  16.796 -0.4522 -0.4846 -0.4539
  630TMC3    C8 9337   4.169   3.334  16.403 -0.1970 -0.8104 -0.5289
  630TMC3    O1 9338   4.398   3.126  16.898  0.2744 -0.1860  0.4005
  630TMC3    O2 9339   4.213   3.449  16.414  0.1841 -0.9369 -0.0358
  631MPD2     C 9340   2.274   2.917  15.437 -0.4350 -0.0806 -0.5374
  631MPD2    C1 9341   2.361   2.920  15.331  0.1620  0.3448 -0.0779
  631MPD2    C2 9342   2.452   2.817  15.324  0.1299 -0.1588 -0.4963
  631MPD2    C3 9343   2.473   2.732  15.425 -0.6047  0.2160 -0.3393
  631MPD2    C4 9344   2.386   2.728  15.533  0.0045  0.4930  0.3543
  631MPD2    C5 9345   2.276   2.812  15.529  0.0876 -0.3014 -0.3464
  631MPD2     H 9346   2.529   2.820  15.248 -0.7043  0.5674 -1.3302
  631MPD2    H1 9347   2.402   2.668  15.621  0.5335 -1.6954 -1.2522
  631MPD2    H2 9348   2.199   2.993  15.457 -0.6640 -0.4480 -0.0145
  631MPD2    H3 9349   2.212   2.811  15.617  3.2072  0.1626  1.9365
  631MPD2     N 9350   2.584   2.652  15.408  0.1957  0.2151 -0.1782
  631MPD2    H5 9351   2.630   2.658  15.318  0.1619 -1.8810 -0.3365
  631MPD2    N1 9352   2.344   3.012  15.230 -0.2124  0.8320  0.0854
  631MPD2    H7 9353   2.279   3.090  15.239  1.2450  2.2601 -1.6801
  632TMC3    C1 9354   2.424   3.131  15.049  0.0524  0.2679 -0.5521
  632TMC3    C2 9355   2.439   3.244  15.133  0.4759 -0.5037  0.4752
  632TMC3    C3 9356   2.461   3.366  15.064 -0.9589 -0.1936 -0.7368
  632TMC3    C4 9357   2.437   3.138  14.911  1.3593 -0.0808 -0.0376
  632TMC3    C5 9358   2.473   3.254  14.853 -0.0766 -0.5196  0.3522
  632TMC3    C6 9359   2.489   3.374  14.928 -0.2892  0.1700 -0.6790
  632TMC3     C 9360   2.401   3.007  15.107  0.1259 -0.4520 -0.9473
  632TMC3     O 9361   2.453   2.916  15.049 -0.2835 -0.4613  0.0072
  632TMC3     H 9362   2.419   3.238  15.239 -2.8069 -1.0677 -0.1959
  632TMC3    H1 9363   2.418   3.049  14.853  0.9518 -0.1648  0.2259
  632TMC3    H2 9364   2.526   3.467  14.888  0.4231 -1.1104 -2.9778
  632TMC3    C7 9365   2.445   3.269  14.713 -0.7725  0.0654 -0.0742
  632TMC3    C8 9366   2.451   3.491  15.142 -0.6294  0.1112  0.3103
  632TMC3    O1 9367   2.453   3.383  14.669 -0.8533  0.4806  0.1495
  632TMC3    O2 9368   2.499   3.587  15.084  0.3615  0.0946  0.1080
  633MPD2     C 9369   2.053   0.729  17.173  0.0236  0.6175  0.4374
  633MPD2    C1 9370   2.066   0.703  17.041  0.0725  0.4159 -0.4233
  633MPD2    C2 9371   2.038   0.573  16.997 -0.3375  0.8930 -0.3475
  633MPD2    C3 9372   2.008   0.468  17.080 -0.1195  1.1407 -0.4818
  633MPD2    C4 9373   2.008   0.495  17.216 -0.1369  0.1094 -0.2417
  633MPD2    C5 9374   2.015   0.627  17.257 -0.3120 -0.0382 -0.2678
  633MPD2     H 9375   2.056   0.559  16.891  0.4548  2.2838 -0.3910
  633MPD2    H1 9376   2.008   0.426  17.300  4.4317  0.2983 -0.0855
  633MPD2    H2 9377   2.068   0.830  17.211 -2.6634  1.4714 -0.7781
  633MPD2    H3 9378   2.008   0.648  17.363 -0.9415  0.6155 -0.4379
  633MPD2     N 9379   2.018   0.337  17.036 -0.3558  0.3670 -0.0466
  633MPD2    H5 9380   2.006   0.259  17.101  0.4270  0.4437  0.1794
  633MPD2    N1 9381   2.122   0.793  16.944  0.0633  0.0023  0.4496
  633MPD2    H7 9382   2.125   0.759  16.849 -0.6594 -0.6904  0.6712
  634TMC3    C1 9383   2.239   0.980  16.857 -0.9223 -0.1080  0.0549
  634TMC3    C2 9384   2.293   0.893  16.762  0.4675 -0.2875 -1.0924
  634TMC3    C3 9385   2.309   0.939  16.632 -0.6498  0.5053 -0.5342
  634TMC3    C4 9386   2.212   1.108  16.818 -0.9297 -0.2166  0.2037
  634TMC3    C5 9387   2.225   1.144  16.687 -0.4249 -0.2331  0.1593
  634TMC3    C6 9388   2.271   1.056  16.591  0.3051  0.6549  0.3492
  634TMC3     C 9389   2.164   0.919  16.973  0.1570  0.1263 -0.2018
  634TMC3     O 9390   2.138   0.992  17.066 -0.0750  0.2593 -0.2708
  634TMC3     H 9391   2.314   0.791  16.794 -1.6053 -1.0092 -2.0314
  634TMC3    H1 9392   2.175   1.177  16.893 -0.9751  0.6494 -0.6158
  634TMC3    H2 9393   2.244   1.069  16.487 -0.8470 -1.2649  0.4020
  634TMC3    C7 9394   2.195   1.279  16.643  0.0105  0.2717  0.2337
  634TMC3    C8 9395   2.352   0.846  16.531  0.3699 -0.3763  0.4290
  634TMC3    O1 9396   2.238   1.313  16.533  0.4242 -0.5501  0.0181
  634TMC3    O2 9397   2.358   0.725  16.551 -0.0994 -0.1697 -0.4407
  635TMC3    C1 9398   2.645   1.242  17.341  0.8088 -0.9308 -0.1954
  635TMC3    C2 9399   2.754   1.242  17.259  0.0660  0.4016  0.5153
  635TMC3    C3 9400   2.783   1.129  17.189 -0.3245  0.5395  0.0248
  635TMC3    C4 9401   2.555   1.141  17.348  0.4721 -0.0883  0.3787
  635TMC3    C5 9402   2.596   1.026  17.287  0.9928 -1.0251 -0.6475
  635TMC3    C6 9403   2.711   1.015  17.209  0.4638 -0.0704 -0.2466
  635TMC3     C 9404   2.607   1.353  17.423 -0.0362 -0.0378 -0.6799
  635TMC3     O 9405   2.548   1.336  17.530 -0.4769 -0.0982  0.4252
  635TMC3     H 9406   2.823   1.325  17.265 -1.9801  2.4150 -3.1913
  635TMC3    H1 9407   2.459   1.144  17.397 -0.8397  0.4155 -2.1930
  635TMC3    H2 9408   2.759   0.921  17.185  2.1914  0.7808 -0.1313
  635TMC3    C7 9409   2.501   0.918  17.270 -0.1407 -0.0797 -0.2945
  635TMC3    C8 9410   2.897   1.119  17.104  0.5136 -0.1960  0.3685
  635TMC3    O1 9411   2.395   0.923  17.337  0.1377  0.4029 -0.2080
  635TMC3    O2 9412   2.935   1.008  17.071 -0.1234  0.1089  0.3431
  636MPD2     C 9413   3.426   1.379  15.927  0.1876  0.2799  0.4093
  636MPD2    C1 9414   3.473   1.466  16.027  0.1256 -0.0395 -0.3959
  636MPD2    C2 9415   3.562   1.406  16.116 -0.1045  0.0761 -0.6527
  636MPD2    C3 9416   3.591   1.268  16.107 -0.1097 -0.1239  0.0216
  636MPD2    C4 9417   3.539   1.186  16.014  0.3964  0.1974 -0.5378
  636MPD2    C5 9418   3.455   1.244  15.928 -0.1056  0.0335  0.0551
  636MPD2     H 9419   3.614   1.465  16.191  0.3756  0.5853 -1.3941
  636MPD2    H1 9420   3.554   1.079  16.004 -0.3096  0.0090  0.4035
  636MPD2    H2 9421   3.354   1.406  15.850  0.9537 -2.2866 -1.2173
  636MPD2    H3 9422   3.410   1.185  15.849 -0.4412  0.8831 -0.3826
  636MPD2     N 9423   3.686   1.214  16.204  0.0029 -0.5148 -0.1502
  636MPD2    H5 9424   3.722   1.287  16.264 -2.4068  0.2975  0.3160
  636MPD2    N1 9425   3.435   1.600  16.055 -0.0419  0.0774 -0.1887
  636MPD2    H7 9426   3.477   1.635  16.141  1.2893  0.2268 -0.8956
  637TMC3    C1 9427   3.828   1.035  16.315 -0.3850  0.5801  0.2921
  637TMC3    C2 9428   3.847   1.107  16.432  0.2822 -0.0325 -0.5535
  637TMC3    C3 9429   3.929   1.055  16.531  0.0398 -0.4424  0.1448
  637TMC3    C4 9430   3.878   0.912  16.296  0.1736 -0.4670  0.0768
  637TMC3    C5 9431   3.963   0.860  16.394  0.2850 -0.0102  0.5705
  637TMC3    C6 9432   3.980   0.931  16.513  0.0870  0.8546  0.1416
  637TMC3     C 9433   3.735   1.085  16.205  0.3113 -0.0691  0.2118
  637TMC3     O 9434   3.745   0.998  16.119  0.4612 -0.0831 -0.3504
  637TMC3     H 9435   3.795   1.201  16.447 -2.6767 -1.5648 -1.2951
  637TMC3    H1 9436   3.876   0.853  16.205 -0.9375  0.0184 -0.2188
  637TMC3    H2 9437   4.047   0.884  16.584 -0.4632 -0.6837 -0.3696
  637TMC3    C7 9438   4.003   0.724  16.373  0.1556 -0.5116 -0.3488
  637TMC3    C8 9439   4.026   1.149  16.583 -0.3496  0.3447  0.0831
  637TMC3    O1 9440   3.922   0.648  16.322 -0.4030  0.3340  0.4043
  637TMC3    O2 9441   4.039   1.247  16.512 -0.4067 -0.4233  0.7175
  638MPD2     C 9442   3.567   0.299  14.877 -0.3635 -0.0177  0.2311
  638MPD2    C1 9443   3.466   0.240  14.813 -0.1660 -0.6015  0.4143
  638MPD2    C2 9444   3.411   0.125  14.860 -0.3827  0.1593  0.4221
  638MPD2    C3 9445   3.456   0.069  14.976 -0.6034 -0.5093 -0.0540
  638MPD2    C4 9446   3.561   0.128  15.040 -0.5004 -0.2549 -0.0593
  638MPD2    C5 9447   3.618   0.242  14.992 -0.0049 -0.1541  0.3492
  638MPD2     H 9448   3.338   0.067  14.804 -1.5877  3.3512 -1.3148
  638MPD2    H1 9449   3.600   0.102  15.138  0.6162 -2.6072 -1.1507
  638MPD2    H2 9450   3.607   0.394  14.846  1.2742 -0.4919  0.9038
  638MPD2    H3 9451   3.689   0.300  15.050  0.4538 -2.1385  1.7614
  638MPD2     N 9452   3.394   4.677  15.022 -0.8334 -0.2469 -0.8227
  638MPD2    H5 9453   3.320   4.640  14.964 -1.6175 -1.3131  0.8525
  638MPD2    N1 9454   3.424   0.299  14.690 -0.7344 -0.2447  0.5716
  638MPD2    H7 9455   3.453   0.396  14.681  1.3889 -0.9548 -0.2049
  639TMC3    C1 9456   3.333   4.503  15.155  0.0393 -0.2395 -0.6051
  639TMC3    C2 9457   3.206   4.499  15.093  0.3938  0.0121  1.0121
  639TMC3    C3 9458   3.130   4.385  15.106  1.4375 -0.1210 -0.5691
  639TMC3    C4 9459   3.386   4.396  15.215  1.1271  0.2867 -0.9940
  639TMC3    C5 9460   3.305   4.285  15.230 -0.3481  0.6510 -0.0017
  639TMC3    C6 9461   3.179   4.272  15.173  0.4256 -0.0456 -0.6289
  639TMC3     C 9462   3.426   4.610  15.136  0.5384 -0.4793  0.4276
  639TMC3     O 9463   3.529   4.621  15.204  0.5547 -0.1890 -0.8211
  639TMC3     H 9464   3.169   4.585  15.039  2.7780  0.0469 -0.5998
  639TMC3    H1 9465   3.476   4.410  15.274 -0.0472  0.1531  0.8411
  639TMC3    H2 9466   3.136   4.173  15.175  0.3011  0.0368  0.6197
  639TMC3    C7 9467   3.363   4.168  15.295  0.1335 -0.7114 -0.6256
  639TMC3    C8 9468   3.058   4.352  14.996  0.7434 -0.3414  0.1748
  639TMC3    O1 9469   3.286   4.094  15.352  0.4935  0.3939 -0.3926
  639TMC3    O2 9470   3.125   4.343  14.894  0.2502 -0.0825  0.7976
  640MPD2     C 9471   3.399   3.359   9.491 -0.2389  0.1094 -0.6327
  640MPD2    C1 9472   3.532   3.381   9.520 -0.4279  0.2708 -0.3357
  640MPD2    C2 9473   3.574   3.504   9.555  0.0917  0.2189  0.2465
  640MPD2    C3 9474   3.488   3.612   9.560 -0.5290  1.0952 -0.4147
  640MPD2    C4 9475   3.357   3.586   9.528  0.2911 -0.2060  0.3579
  640MPD2    C5 9476   3.312   3.465   9.484  0.0463 -0.2741 -0.0042
  640MPD2     H 9477   3.676   3.523   9.583  0.2962 -1.2983  0.5222
  640MPD2    H1 9478   3.283   3.664   9.539  2.3669  1.5590  1.5914
  640MPD2    H2 9479   3.362   3.261   9.464 -1.8496  1.0381 -1.7602
  640MPD2    H3 9480   3.211   3.453   9.447  0.6149 -0.3592 -1.5337
  640MPD2     N 9481   3.520   3.751   9.585  0.2576 -0.9148 -0.4574
  640MPD2    H5 9482   3.447   3.821   9.587  0.9808 -0.1402 -1.4782
  640MPD2    N1 9483   3.617   3.266   9.523  0.2629  0.3792 -0.3860
  640MPD2    H7 9484   3.562   3.184   9.497 -0.7687  0.3317  1.9006
  641TMC3    C1 9485   3.804   3.125   9.537  0.2515  0.2717  0.7261
  641TMC3    C2 9486   3.925   3.101   9.598  0.4703  0.6008  0.3388
  641TMC3    C3 9487   4.003   3.005   9.540  0.1898 -1.1637  0.6374
  641TMC3    C4 9488   3.758   3.062   9.430  0.8785 -0.1528 -0.1779
  641TMC3    C5 9489   3.830   2.956   9.386 -0.2323 -0.0546  0.2561
  641TMC3    C6 9490   3.953   2.927   9.441  0.3156  0.1825  0.6094
  641TMC3     C 9491   3.746   3.260   9.561 -0.1458  0.7402  0.4215
  641TMC3     O 9492   3.813   3.349   9.615 -0.0526  0.1110 -0.0708
  641TMC3     H 9493   3.955   3.168   9.678  0.9816 -0.4681  1.0428
  641TMC3    H1 9494   3.665   3.076   9.377  0.5872 -1.7406 -0.0887
  641TMC3    H2 9495   4.006   2.840   9.405  0.7332  0.7369 -0.1223
  641TMC3    C7 9496   3.781   2.892   9.266  0.4741  0.2343  0.3310
  641TMC3    C8 9497   4.140   2.970   9.579 -0.1545 -0.5631  0.2930
  641TMC3    O1 9498   3.681   2.943   9.212  0.5869 -0.9681  0.2899
  641TMC3    O2 9499   4.197   2.870   9.530  0.0569  0.0337  0.0191
  642TMC3    C1 9500   4.604   4.446  11.934  0.2698 -0.1172 -0.2455
  642TMC3    C2 9501   4.559   4.400  12.053  0.1420 -0.1841 -0.1801
  642TMC3    C3 9502   4.581   4.265  12.077 -0.0437  0.7242  0.4687
  642TMC3    C4 9503   4.666   4.366  11.845 -0.8266 -0.0906 -0.0522
  642TMC3    C5 9504   4.687   4.234  11.872  0.1900 -0.6514 -0.0987
  642TMC3    C6 9505   4.632   4.179  11.987  0.6596  0.2218 -0.4942
  642TMC3     C 9506   4.580   4.579  11.884 -0.2292  0.4491  0.3526
  642TMC3     O 9507   4.619   4.617  11.772 -0.1624 -0.1019 -0.1267
  642TMC3     H 9508   4.515   4.465  12.128  1.6183  1.8482 -1.0738
  642TMC3    H1 9509   4.704   4.412  11.753  2.7000 -0.8184  1.0347
  642TMC3    H2 9510   4.667   4.079  12.014 -2.8962 -0.5952  1.0999
  642TMC3    C7 9511   4.711   4.153  11.752 -0.2631 -0.3443  0.2453
  642TMC3    C8 9512   4.582   4.225  12.217 -0.1655  0.4306  0.0562
  642TMC3    O1 9513   0.010   4.209  11.642 -0.2776  0.1562  0.1717
  642TMC3    O2 9514   4.570   4.315  12.302  0.6330 -0.5325 -0.1905
  643TMC3    C1 9515   3.876   4.061   0.267 -0.7497 -0.2408 -0.7176
  643TMC3    C2 9516   3.746   4.086   0.237  0.6057  1.2200  0.0109
  643TMC3    C3 9517   3.678   3.994   0.166  0.7218 -0.3330 -0.1687
  643TMC3    C4 9518   3.943   3.955   0.213 -0.1429 -0.0347  0.4115
  643TMC3    C5 9519   3.874   3.869   0.128 -0.3752  0.2594  0.5044
  643TMC3    C6 9520   3.741   3.884   0.114 -0.5263  0.2070 -0.0680
  643TMC3     C 9521   3.922   4.119   0.390 -0.2021 -0.3061 -0.0935
  643TMC3     O 9522   3.861   4.216   0.428  0.4604  0.3687 -0.5421
  643TMC3     H 9523   3.692   4.165   0.285 -2.0009 -0.3180 -0.3969
  643TMC3    H1 9524   4.051   3.952   0.216 -0.0108  1.5315 -3.4397
  643TMC3    H2 9525   3.691   3.797   0.075 -0.5123  1.1123 -2.0919
  643TMC3    C7 9526   3.932   3.857  17.692 -0.2030  0.4235 -0.5574
  643TMC3    C8 9527   3.606   4.058   0.051 -0.4972 -0.0023 -0.0878
  643TMC3    O1 9528   4.054   3.849  17.683  0.0571  0.3000  0.3094
  643TMC3    O2 9529   3.570   3.987  17.659 -0.0013 -0.4435 -0.3062
  644MPD2     C 9530   3.950   3.213   9.150 -0.2234 -0.2253 -0.5788
  644MPD2    C1 9531   4.067   3.225   9.211  0.2014 -0.5563 -0.2610
  644MPD2    C2 9532   4.166   3.120   9.201 -0.3547  0.0136 -0.0085
  644MPD2    C3 9533   4.147   3.006   9.125 -0.2010  0.2309 -0.4021
  644MPD2    C4 9534   4.029   3.002   9.052  0.2692 -0.2304  1.0279
  644MPD2    C5 9535   3.935   3.103   9.069 -0.8441  0.0899  0.3472
  644MPD2     H 9536   4.256   3.123   9.261  0.8811 -1.1523 -1.8024
  644MPD2    H1 9537   4.005   2.916   8.990 -0.5129 -1.8780  3.5880
  644MPD2    H2 9538   3.881   3.296   9.147 -0.4076 -0.4634 -3.3342
  644MPD2    H3 9539   3.840   3.093   9.019 -0.1828 -1.2626 -0.6241
  644MPD2     N 9540   4.246   2.910   9.129 -0.2340 -0.9804  0.1338
  644MPD2    H5 9541   4.319   2.909   9.200  1.9834  1.1472 -2.1134
  644MPD2    N1 9542   4.092   3.353   9.272 -0.2495 -0.8517  0.3623
  644MPD2    H7 9543   4.017   3.421   9.281  0.1584 -0.1292 -1.7017
  645TMC3    C1 9544   4.361   2.715   9.057 -0.2561  0.4922 -0.3766
  645TMC3    C2 9545   4.467   2.743   9.128 -0.9221 -0.0233 -0.1985
  645TMC3    C3 9546   4.556   2.640   9.153  0.0071 -0.2256  0.3485
  645TMC3    C4 9547   4.328   2.588   9.011  0.2418 -0.4256 -0.5063
  645TMC3    C5 9548   4.417   2.489   9.042  0.5285  0.2956  0.2492
  645TMC3    C6 9549   4.535   2.517   9.108 -0.0367  0.6924 -0.3064
  645TMC3     C 9550   4.262   2.816   9.033 -0.0374  0.2880  0.2964
  645TMC3     O 9551   4.202   2.806   8.929  0.6108 -0.1102  0.6433
  645TMC3     H 9552   4.490   2.847   9.147 -2.0326  0.3303 -0.8079
  645TMC3    H1 9553   4.245   2.574   8.942  0.8984 -1.5821 -1.0401
  645TMC3    H2 9554   4.586   2.429   9.145  1.4014  1.7819  0.2784
  645TMC3    C7 9555   4.399   2.372   8.959 -0.4068 -0.4556  0.4477
  645TMC3    C8 9556   4.681   2.667   9.222  0.2368  0.2253 -0.4120
  645TMC3    O1 9557   4.294   2.369   8.905  0.2018 -0.0545 -0.2235
  645TMC3    O2 9558   0.039   2.576   9.223  0.0131  0.2771 -0.1070
  646MPD2     C 9559   3.441   3.731  14.554 -1.1602 -0.5193  0.6971
  646MPD2    C1 9560   3.330   3.685  14.623  0.0305 -0.6972 -0.5398
  646MPD2    C2 9561   3.205   3.694  14.565  0.1471 -0.2526 -0.1175
  646MPD2    C3 9562   3.189   3.755  14.434  1.1557  0.3884 -0.0309
  646MPD2    C4 9563   3.306   3.798  14.363 -0.2657  0.1723 -0.1800
  646MPD2    C5 9564   3.422   3.787  14.435 -0.1370 -0.0627  0.2844
  646MPD2     H 9565   3.120   3.655  14.619  0.3604 -0.5188  0.0321
  646MPD2    H1 9566   3.308   3.853  14.269 -0.2545 -1.4325 -1.1246
  646MPD2    H2 9567   3.538   3.729  14.603 -0.2020 -2.5181 -1.2941
  646MPD2    H3 9568   3.512   3.831  14.393  0.8049 -1.5494  0.7226
  646MPD2     N 9569   3.052   3.771  14.394 -0.1230 -0.5340 -0.3356
  646MPD2    H5 9570   2.979   3.756  14.462  0.3880  1.5928  0.6808
  646MPD2    N1 9571   3.374   3.609  14.734 -0.1598  0.0195  0.0636
  646MPD2    H7 9572   3.471   3.580  14.740  0.4339  1.7294 -1.0778
  647TMC3    C1 9573   3.346   3.439  14.906 -0.2207  0.4533  0.2509
  647TMC3    C2 9574   3.269   3.337  14.957 -1.0128  0.3976 -0.1322
  647TMC3    C3 9575   3.330   3.246  15.043 -0.2274  0.2449  0.2185
  647TMC3    C4 9576   3.476   3.449  14.928 -0.1620  0.1481 -0.9727
  647TMC3    C5 9577   3.535   3.357  15.017 -0.0771 -0.1459  0.1181
  647TMC3    C6 9578   3.468   3.242  15.065 -1.2315 -0.0579 -0.2731
  647TMC3     C 9579   3.286   3.526  14.806 -0.4199 -0.3848  0.3348
  647TMC3     O 9580   3.166   3.517  14.803 -0.1783 -0.0550 -0.1962
  647TMC3     H 9581   3.165   3.322  14.931 -1.3321 -0.0264  1.3717
  647TMC3    H1 9582   3.548   3.522  14.891  1.0688 -0.4688  0.1739
  647TMC3    H2 9583   3.518   3.171  15.129  0.1299  1.7674  0.6633
  647TMC3    C7 9584   3.681   3.353  15.029 -0.8681 -0.1668 -0.2076
  647TMC3    C8 9585   3.242   3.164  15.124  0.0804  0.4275  0.1489
  647TMC3    O1 9586   3.717   3.247  15.070  0.4218  0.2465  0.0250
  647TMC3    O2 9587   3.137   3.209  15.163  0.4113 -0.3310  0.4889
  648TMC3    C1 9588   2.861   0.982  15.854  0.0558 -0.7359  0.6527
  648TMC3    C2 9589   2.886   0.876  15.774  0.2240 -0.7601 -1.2349
  648TMC3    C3 9590   2.833   0.869  15.647  0.3235 -0.0127 -0.3373
  648TMC3    C4 9591   2.771   1.079  15.817 -0.4406  0.2302 -0.8475
  648TMC3    C5 9592   2.724   1.077  15.692  0.3595 -0.6450  0.2064
  648TMC3    C6 9593   2.748   0.969  15.610 -0.2312 -0.3138 -0.3539
  648TMC3     C 9594   2.857   0.953  15.992  0.5312  0.1491  0.3438
  648TMC3     O 9595   2.855   1.043  16.071  0.2194 -0.1183 -0.1650
  648TMC3     H 9596   2.947   0.794  15.810  0.5073  0.0021  0.0080
  648TMC3    H1 9597   2.770   1.168  15.879 -0.0420 -0.2304 -0.1760
  648TMC3    H2 9598   2.710   0.973  15.509  0.7196 -0.7700 -0.7259
  648TMC3    C7 9599   2.653   1.189  15.631 -0.2652  0.7038  0.2156
  648TMC3    C8 9600   2.853   0.760  15.559  0.0425  0.7972  0.1534
  648TMC3    O1 9601   2.646   1.202  15.510 -0.2504 -0.1898 -0.1293
  648TMC3    O2 9602   2.777   0.747  15.467  0.1233 -0.1350 -0.5686
  649TMC3    C1 9603   1.442   2.499  12.997  0.2575  0.4214  0.6709
  649TMC3    C2 9604   1.525   2.430  12.910  0.2539 -0.2162 -0.4008
  649TMC3    C3 9605   1.631   2.356  12.959  0.0758 -0.1437  0.4144
  649TMC3    C4 9606   1.458   2.490  13.132 -0.7432 -0.3589  0.3620
  649TMC3    C5 9607   1.552   2.407  13.175  0.4539 -0.5670  0.6728
  649TMC3    C6 9608   1.643   2.348  13.091 -0.1585  0.0911 -0.1931
  649TMC3     C 9609   1.322   2.570  12.956 -0.7721 -0.3579 -0.0628
  649TMC3     O 9610   1.278   2.655  13.035  0.4043 -0.2167  0.2936
  649TMC3     H 9611   1.513   2.454  12.805  0.1668  0.1920 -0.2956
  649TMC3    H1 9612   1.385   2.535  13.199  0.2864  0.1378  1.1486
  649TMC3    H2 9613   1.707   2.272  13.135 -0.9977 -0.2865  0.3798
  649TMC3    C7 9614   1.524   2.329  13.297 -0.3336 -0.2423  0.0435
  649TMC3    C8 9615   1.733   2.282  12.882  0.0692  0.0652 -0.0868
  649TMC3    O1 9616   1.534   2.393  13.402 -0.0061  0.6686  0.4397
  649TMC3    O2 9617   1.813   2.214  12.948  0.4973  0.0416  0.7724
  650TMC3    C1 9618   4.149   3.918  12.478 -0.3373  0.0867 -0.2576
  650TMC3    C2 9619   4.114   4.046  12.517 -0.0039  0.5846 -0.2950
  650TMC3    C3 9620   4.137   4.153  12.438 -0.2156  0.5129 -0.1308
  650TMC3    C4 9621   4.210   3.903  12.361  0.1794  0.4598  0.0146
  650TMC3    C5 9622   4.232   4.008  12.283 -0.2391  0.1260  0.2088
  650TMC3    C6 9623   4.206   4.136  12.323  0.0071 -0.0331 -0.4341
  650TMC3     C 9624   4.187   3.840  12.588 -0.0124  0.2348  0.8182
  650TMC3     O 9625   4.163   3.880  12.703 -0.2764 -0.1495  0.3959
  650TMC3     H 9626   4.077   4.061  12.618  0.4992  2.7713 -0.4302
  650TMC3    H1 9627   4.219   3.810  12.307 -0.5902  0.0062  0.6519
  650TMC3    H2 9628   4.232   4.227  12.270 -0.9218  0.5239  0.0562
  650TMC3    C7 9629   4.264   3.968  12.143 -0.0400  0.2211 -0.1857
  650TMC3    C8 9630   4.113   4.292  12.475 -0.0842  0.0484 -0.6544
  650TMC3    O1 9631   4.308   3.859  12.114  0.0156 -0.1502 -0.2071
  650TMC3    O2 9632   4.181   4.379  12.424  0.0700 -0.3447  0.4434
  651MPD2     C 9633   3.375   1.621  11.132  0.5527 -0.1514 -0.9798
  651MPD2    C1 9634   3.336   1.670  11.003 -0.8946  0.0453 -0.7576
  651MPD2    C2 9635   3.435   1.708  10.916  0.3925  0.6145  0.0086
  651MPD2    C3 9636   3.567   1.697  10.956  0.8289  0.0456  0.2331
  651MPD2    C4 9637   3.602   1.643  11.082 -0.5034  0.4102 -0.0284
  651MPD2    C5 9638   3.505   1.602  11.166  0.0187 -0.3262 -0.0218
  651MPD2     H 9639   3.407   1.743  10.818 -0.8196 -0.9824 -0.2270
  651MPD2    H1 9640   3.706   1.623  11.106 -1.3527 -2.4678  1.1701
  651MPD2    H2 9641   3.299   1.580  11.196 -0.4673  2.1110 -0.7560
  651MPD2    H3 9642   3.544   1.544  11.249  0.2336 -0.9485 -0.5558
  651MPD2     N 9643   3.665   1.744  10.862  0.0512  0.3354  0.4329
  651MPD2    H5 9644   3.629   1.773  10.771 -0.7784  1.3754  1.0858
  651MPD2    N1 9645   3.205   1.656  10.958 -0.4712  0.1074 -0.3261
  651MPD2    H7 9646   3.180   1.694  10.867 -1.0222 -3.9817 -1.8594
  652TMC3    C1 9647   4.075   1.916  10.721 -0.3964  0.9507  0.0798
  652TMC3    C2 9648   4.000   1.824  10.788 -0.3041 -0.3830 -0.2118
  652TMC3    C3 9649   3.867   1.845  10.801  0.3408  0.3148  0.3578
  652TMC3    C4 9650   4.018   2.025  10.657  0.3410  0.5092  0.4005
  652TMC3    C5 9651   3.878   2.031  10.655  0.0146  0.0124 -0.0598
  652TMC3    C6 9652   3.800   1.946  10.727  0.2296 -0.1707 -0.5193
  652TMC3     C 9653   4.212   1.929  10.769  0.1892 -0.7722 -0.1303
  652TMC3     O 9654   4.230   1.854  10.865 -0.8446  0.0233 -0.0899
  652TMC3     H 9655   4.041   1.732  10.828  0.7675 -1.0494 -2.8836
  652TMC3    H1 9656   4.076   2.097  10.600 -1.1751  1.5021  0.1324
  652TMC3    H2 9657   3.693   1.943  10.709  0.2680  4.0972 -1.3125
  652TMC3    C7 9658   3.810   2.157  10.621 -0.4615 -0.6077 -0.7545
  652TMC3    C8 9659   3.798   1.745  10.885 -0.3940 -0.0892  0.2984
  652TMC3    O1 9660   3.719   2.177  10.699 -0.1802  0.5247  0.6297
  652TMC3    O2 9661   3.874   1.679  10.961  0.3929  0.2829  0.0399
  653MPD2     C 9662   1.789   0.910  17.600 -0.4952  0.3653 -0.0378
  653MPD2    C1 9663   1.846   0.992  17.499  0.0748  1.0315 -0.1208
  653MPD2    C2 9664   1.826   0.966  17.368 -0.0757 -1.2099  0.2990
  653MPD2    C3 9665   1.748   0.859  17.325  0.0768  0.4376  0.2455
  653MPD2    C4 9666   1.709   0.768  17.428 -0.4511  0.5620 -0.1642
  653MPD2    C5 9667   1.727   0.801  17.558  0.2888  0.2594  0.0682
  653MPD2     H 9668   1.868   1.027  17.289  1.0451  0.1803  1.9973
  653MPD2    H1 9669   1.673   0.671  17.393 -1.7680  1.4744 -1.3380
  653MPD2    H2 9670   1.788   0.930   0.008 -2.1059 -0.6434  0.1358
  653MPD2    H3 9671   1.673   0.744  17.633  0.8460 -1.9583 -1.2014
  653MPD2     N 9672   1.724   0.836  17.188  0.1745  0.6338 -0.1772
  653MPD2    H5 9673   1.759   0.900  17.118  0.3345 -0.0504 -0.7253
  653MPD2    N1 9674   1.931   1.101  17.532  0.2877 -0.2739  0.4770
  653MPD2    H7 9675   1.986   1.148  17.461 -1.1782  1.5856  0.5757
  654TMC3    C1 9676   1.654   0.730  16.994  0.1498 -0.1948 -0.0176
  654TMC3    C2 9677   1.562   0.824  16.969 -0.1887 -0.1541  0.1484
  654TMC3    C3 9678   1.485   0.807  16.861 -0.1332 -0.3688  0.8475
  654TMC3    C4 9679   1.662   0.612  16.923  0.0981 -0.4149 -0.1282
  654TMC3    C5 9680   1.566   0.581  16.827 -0.2295  0.2672 -0.0314
  654TMC3    C6 9681   1.485   0.686  16.785  0.1562  0.5837  0.3625
  654TMC3     C 9682   1.672   0.721  17.132  0.8575 -0.0718 -0.0044
  654TMC3     O 9683   1.641   0.614  17.189 -0.0313  0.3934 -0.1733
  654TMC3     H 9684   1.544   0.913  17.028 -0.3055 -0.7857  1.0681
  654TMC3    H1 9685   1.721   0.530  16.960 -0.7158 -0.3101  1.4022
  654TMC3    H2 9686   1.397   0.651  16.732 -1.3827  0.4238  3.0391
  654TMC3    C7 9687   1.552   0.448  16.771  0.9473 -0.3686  0.2568
  654TMC3    C8 9688   1.377   0.901  16.838  0.3962  0.4479  0.3595
  654TMC3    O1 9689   1.484   0.431  16.670 -0.3215 -0.2743 -0.2684
  654TMC3    O2 9690   1.360   0.997  16.913 -0.1967  0.3027 -0.2886
  655MPD2     C 9691   3.184   1.018  15.760 -0.6177 -0.5806 -0.2042
  655MPD2    C1 9692   3.150   1.111  15.668 -0.1303  0.3866 -0.5164
  655MPD2    C2 9693   3.159   1.074  15.532  0.0465 -0.2291  0.2871
  655MPD2    C3 9694   3.180   0.944  15.493  0.2175 -0.9864 -0.6945
  655MPD2    C4 9695   3.212   0.852  15.587  0.2171  0.0224 -0.2849
  655MPD2    C5 9696   3.216   0.891  15.714  0.5148  0.0380 -0.4798
  655MPD2     H 9697   3.133   1.149  15.458 -0.4080 -0.5942  0.0781
  655MPD2    H1 9698   3.249   0.754  15.558 -2.6216 -0.8001 -1.1382
  655MPD2    H2 9699   3.207   1.048  15.861 -0.2121 -0.6962 -0.2630
  655MPD2    H3 9700   3.254   0.827  15.792  0.8810  2.7498  1.5834
  655MPD2     N 9701   3.168   0.902  15.353  0.4021  0.6454 -0.2910
  655MPD2    H5 9702   3.186   0.809  15.317 -4.0222  0.0867 -1.1560
  655MPD2    N1 9703   3.105   1.237  15.695  0.4201 -0.8530  0.3143
  655MPD2    H7 9704   3.077   1.291  15.614 -0.3331  1.7327  2.2994
  656TMC3    C1 9705   3.030   1.412  15.832  0.2682 -0.0628  0.2375
  656TMC3    C2 9706   2.976   1.435  15.954 -0.1622  0.8592 -0.2057
  656TMC3    C3 9707   2.882   1.534  15.961  0.2317  0.2997 -0.5649
  656TMC3    C4 9708   3.003   1.488  15.721  0.0389 -0.0419 -0.4984
  656TMC3    C5 9709   2.918   1.597  15.738 -0.1529 -0.2748  0.4871
  656TMC3    C6 9710   2.851   1.616  15.855  0.4308  0.4676 -0.7075
  656TMC3     C 9711   3.098   1.286  15.827 -0.4942  0.1077 -0.0475
  656TMC3     O 9712   3.138   1.237  15.930  0.1561 -0.0462 -0.4180
  656TMC3     H 9713   2.992   1.367  16.037  0.7849 -1.2048 -2.0944
  656TMC3    H1 9714   3.054   1.458  15.631 -0.4777  0.4063 -0.9371
  656TMC3    H2 9715   2.777   1.694  15.869 -1.1252 -1.1188  0.0541
  656TMC3    C7 9716   2.852   1.650  15.616 -0.4734  0.2451 -1.5695
  656TMC3    C8 9717   2.767   1.482  16.023  0.6044  0.3380 -0.2075
  656TMC3    O1 9718   2.892   1.601  15.514 -0.4402  0.0638  0.1013
  656TMC3    O2 9719   2.748   1.359  16.031  0.5270 -0.1382  0.1536
  657TMC3    C1 9720   1.908   0.883  14.597  0.3768  0.5658  0.4166
  657TMC3    C2 9721   1.911   0.875  14.735 -0.4800 -0.1591 -0.0437
  657TMC3    C3 9722   1.870   0.994  14.800  0.1322 -0.9037 -1.0453
  657TMC3    C4 9723   1.847   0.993  14.541 -0.0638  0.0749  0.2030
  657TMC3    C5 9724   1.789   1.096  14.607  0.2773  0.2588 -1.1787
  657TMC3    C6 9725   1.802   1.099  14.744 -0.1903  0.2154 -0.7873
  657TMC3     C 9726   1.965   0.778  14.518 -0.1150 -0.5735  0.8142
  657TMC3     O 9727   1.935   0.770  14.397 -0.2457 -0.1717 -0.3801
  657TMC3     H 9728   1.935   0.788  14.796  0.8954  0.2197 -0.0564
  657TMC3    H1 9729   1.839   0.988  14.433  0.8436  1.9125  0.0490
  657TMC3    H2 9730   1.776   1.186  14.802  0.4130  1.1911 -1.9728
  657TMC3    C7 9731   1.732   1.212  14.545  0.2419  0.2908 -0.2436
  657TMC3    C8 9732   1.881   0.996  14.945 -0.9816  0.1650  0.1976
  657TMC3    O1 9733   1.705   1.303  14.624 -0.1088  0.6767 -0.0398
  657TMC3    O2 9734   1.819   1.085  15.001 -0.0137 -0.7144  0.5547
  658MPD2     C 9735   3.657   0.624  15.031 -0.0515 -0.3966 -0.5940
  658MPD2    C1 9736   3.581   0.711  14.956 -0.1526 -0.1348  0.0395
  658MPD2    C2 9737   3.639   0.805  14.880 -0.8074 -0.6561  0.2321
  658MPD2    C3 9738   3.775   0.807  14.861 -0.3378 -0.4371 -0.2143
  658MPD2    C4 9739   3.848   0.725  14.927 -0.4063 -0.5539 -0.8926
  658MPD2    C5 9740   3.794   0.631  15.018  0.4113  0.2436  0.8343
  658MPD2     H 9741   3.584   0.871  14.814 -1.4862 -2.5166 -1.0947
  658MPD2    H1 9742   3.955   0.727  14.910 -0.4896 -2.6725 -1.6863
  658MPD2    H2 9743   3.607   0.548  15.089 -2.7165  2.7054  1.1668
  658MPD2    H3 9744   3.861   0.570  15.077  0.8534  0.9575  1.0740
  658MPD2     N 9745   3.828   0.904  14.777 -0.1210  0.4991 -0.3485
  658MPD2    H5 9746   3.763   0.966  14.730 -1.1619 -1.1024 -1.0236
  658MPD2    N1 9747   3.441   0.702  14.960  0.2755 -0.2927  0.2427
  658MPD2    H7 9748   3.401   0.653  15.039  1.9325 -0.3315  1.0452
  659TMC3    C1 9749   3.224   0.795  14.941 -1.1075  0.2623  0.5541
  659TMC3    C2 9750   3.218   0.838  15.074  0.4031 -0.3998 -0.0578
  659TMC3    C3 9751   3.115   0.915  15.119 -0.4662 -0.3302 -0.2010
  659TMC3    C4 9752   3.114   0.826  14.856 -0.2470 -0.7341  0.0675
  659TMC3    C5 9753   3.007   0.888  14.910  0.3545 -0.6553 -0.5451
  659TMC3    C6 9754   3.002   0.934  15.037 -0.7549 -0.2486  0.8508
  659TMC3     C 9755   3.349   0.762  14.874 -0.0197  0.0811  0.2395
  659TMC3     O 9756   3.361   0.796  14.758 -0.5372  0.9441  0.1073
  659TMC3     H 9757   3.309   0.846  15.133  0.1787 -0.8214  0.3451
  659TMC3    H1 9758   3.115   0.791  14.753 -4.3996 -0.0544 -0.2445
  659TMC3    H2 9759   2.914   0.984  15.075 -0.0230  2.0977 -0.5539
  659TMC3    C7 9760   2.893   0.920  14.827 -0.2248  0.4531 -0.4464
  659TMC3    C8 9761   3.113   0.981  15.254  0.3429 -0.7716  0.0058
  659TMC3    O1 9762   2.831   1.020  14.863  0.1379  0.2979 -0.3282
  659TMC3    O2 9763   3.064   1.095  15.256  0.2399 -0.5222  0.5732
  660MPD2     C 9764   0.796   0.440  12.701  0.0645 -0.3584  0.0428
  660MPD2    C1 9765   0.675   0.447  12.632 -0.1025 -0.0583 -0.4418
  660MPD2    C2 9766   0.569   0.368  12.677  0.0208 -0.3426  0.6575
  660MPD2    C3 9767   0.590   0.270  12.779 -0.4341  0.1779 -0.0441
  660MPD2    C4 9768   0.712   0.257  12.837  0.9510 -0.5491 -0.4343
  660MPD2    C5 9769   0.810   0.348  12.802 -0.1611 -0.1353 -0.4937
  660MPD2     H 9770   0.476   0.366  12.621 -0.1096  2.7071  0.7867
  660MPD2    H1 9771   0.748   0.174  12.896  0.0972 -1.4542 -1.1923
  660MPD2    H2 9772   0.886   0.492  12.672 -0.2716 -1.7090 -3.3530
  660MPD2    H3 9773   0.908   0.330  12.845 -0.3810  2.3744  1.0541
  660MPD2     N 9774   0.482   0.188  12.830  0.3360  0.0413  0.1309
  660MPD2    H5 9775   0.507   0.115  12.897 -0.5722  0.4977  0.9674
  660MPD2    N1 9776   0.674   0.524  12.516 -0.3913  0.5751  0.0138
  660MPD2    H7 9777   0.748   0.593  12.503 -0.7715  1.0005  0.1249
  661TMC3    C1 9778   0.593   0.621  12.317  0.1998 -0.2065 -0.0688
  661TMC3    C2 9779   0.718   0.645  12.275 -0.0198 -0.4518  0.1975
  661TMC3    C3 9780   0.729   0.675  12.146 -0.5451  0.0794  0.1272
  661TMC3    C4 9781   0.484   0.632  12.243 -0.2146  0.0757 -0.3248
  661TMC3    C5 9782   0.501   0.657  12.114  0.1928  0.5691 -0.2290
  661TMC3    C6 9783   0.626   0.672  12.059  0.1383 -0.0405  0.3014
  661TMC3     C 9784   0.574   0.520  12.424 -0.4983 -0.4368  0.3888
  661TMC3     O 9785   0.482   0.443  12.406  0.6283  0.0623  0.7967
  661TMC3     H 9786   0.804   0.617  12.334 -0.2473  1.0449  1.2527
  661TMC3    H1 9787   0.390   0.623  12.298 -0.4009  2.2700 -0.2978
  661TMC3    H2 9788   0.645   0.698  11.956 -1.0201 -2.5034 -0.5310
  661TMC3    C7 9789   0.404   0.592  12.029 -0.1766 -0.5029  0.4573
  661TMC3    C8 9790   0.858   0.722  12.081  0.4059  0.4000  0.2807
  661TMC3    O1 9791   0.291   0.613  12.074  0.0396 -0.2094  0.5848
  661TMC3    O2 9792   0.883   0.694  11.965  0.2312 -0.3830  0.0090
  662MPD2     C 9793   1.460   4.578  17.239 -1.1742 -0.0211 -0.4933
  662MPD2    C1 9794   1.400   4.512  17.344 -0.2236  0.1340 -1.1090
  662MPD2    C2 9795   1.306   4.582  17.421  0.5443 -0.1766  0.1308
  662MPD2    C3 9796   1.272   4.716  17.391 -0.1011 -0.6288  0.3247
  662MPD2    C4 9797   1.333   0.051  17.283  0.9145  0.2058  0.3370
  662MPD2    C5 9798   1.435   4.709  17.216 -0.1977 -0.2584 -0.2047
  662MPD2     H 9799   1.247   4.532  17.497  0.2446  1.4835  0.9986
  662MPD2    H1 9800   1.313   0.154  17.257  0.3714  0.0895  0.2988
  662MPD2    H2 9801   1.535   4.534  17.175 -0.3217  1.3489 -0.4477
  662MPD2    H3 9802   1.502   0.031  17.144 -1.5953  0.4929 -1.0280
  662MPD2     N 9803   1.159   0.064  17.454  0.3605 -0.7624  0.3989
  662MPD2    H5 9804   1.140   0.156  17.415 -0.2340 -0.4718  1.3554
  662MPD2    N1 9805   1.440   4.382  17.379 -0.0778  0.0059 -0.2230
  662MPD2    H7 9806   1.397   4.349  17.465 -3.1688 -0.2489 -1.8602
  663TMC3    C1 9807   1.527   4.168  17.382 -0.1930 -0.4302  0.5076
  663TMC3    C2 9808   1.452   4.158  17.496 -0.3348 -0.5873  0.1296
  663TMC3    C3 9809   1.480   4.057  17.577 -0.2658  0.1183 -0.1561
  663TMC3    C4 9810   1.633   4.092  17.349 -0.0882  0.4297  0.1439
  663TMC3    C5 9811   1.662   3.992  17.434  0.1522 -0.7160 -0.1090
  663TMC3    C6 9812   1.584   3.971  17.546  0.2439 -0.2858 -0.1917
  663TMC3     C 9813   1.517   4.296  17.308  0.6591  0.6271 -1.2034
  663TMC3     O 9814   1.585   4.307  17.209  0.1355 -0.8884 -0.0173
  663TMC3     H 9815   1.348   4.189  17.496  0.2778  1.4812 -4.7196
  663TMC3    H1 9816   1.681   4.095  17.252  2.9426  0.6850  1.6351
  663TMC3    H2 9817   1.610   3.892  17.616  1.5808 -1.1741 -1.6984
  663TMC3    C7 9818   1.678   3.868  17.359 -0.5366  0.4498 -0.2940
  663TMC3    C8 9819   1.367   3.978  17.625  0.4092 -0.5216  0.1422
  663TMC3    O1 9820   1.745   3.877  17.258 -1.1504 -0.2812 -0.1820
  663TMC3    O2 9821   1.376   3.857  17.623  0.1424 -0.3399  0.3606
  664MPD2     C 9822   4.583   2.542  17.513 -0.1163 -0.3274 -0.5149
  664MPD2    C1 9823   4.607   2.651  17.595 -0.6336 -0.3373  0.5004
  664MPD2    C2 9824   4.565   2.651   0.030 -0.1115 -0.5740 -0.2531
  664MPD2    C3 9825   4.504   2.538   0.072  1.1462 -0.1075 -0.2447
  664MPD2    C4 9826   4.475   2.428  17.687  0.7365  0.7263 -0.0574
  664MPD2    C5 9827   4.518   2.432  17.556  0.4115  0.1632 -0.3242
  664MPD2     H 9828   4.586   2.731   0.101 -0.0241  0.7705 -1.8014
  664MPD2    H1 9829   4.430   2.333   0.014  1.1452  0.5455 -0.0205
  664MPD2    H2 9830   4.600   2.557  17.407 -1.0928  2.1211 -0.3217
  664MPD2    H3 9831   4.488   2.361  17.480  0.5231  0.2484 -0.4479
  664MPD2     N 9832   4.449   2.547   0.197 -0.1278  0.0528  0.0273
  664MPD2    H5 9833   4.476   2.629   0.251  1.5666  0.5072 -1.5187
  664MPD2    N1 9834   4.691   2.757  17.549  0.1678  0.4455  0.2567
  664MPD2    H7 9835   4.721   2.825  17.618 -0.8057  2.3796 -1.2307
  665TMC3    C1 9836   4.328   2.511   0.383 -0.1635 -0.3338 -0.4131
  665TMC3    C2 9837   4.307   2.420   0.480 -0.2243 -0.2655  0.5644
  665TMC3    C3 9838   4.223   2.467   0.585 -0.2675 -0.4336  0.1631
  665TMC3    C4 9839   4.255   2.624   0.368  0.3380 -0.2344  0.0515
  665TMC3    C5 9840   4.166   2.657   0.465  0.3297  0.2714  0.6765
  665TMC3    C6 9841   4.151   2.580   0.576  0.3833 -0.8195  0.0437
  665TMC3     C 9842   4.364   2.458   0.258 -0.0183  0.1184 -0.0926
  665TMC3     O 9843   4.321   2.347   0.223 -0.1130  0.5560 -0.0352
  665TMC3     H 9844   4.350   2.320   0.472 -1.5043 -0.7907  0.3166
  665TMC3    H1 9845   4.249   2.686   0.279  0.1715  0.3925  0.5047
  665TMC3    H2 9846   4.104   2.616   0.667  2.2135 -2.4558  1.6275
  665TMC3    C7 9847   4.127   2.796   0.457 -0.5726  0.1665 -0.1072
  665TMC3    C8 9848   4.262   2.434   0.723  0.2604 -0.9117 -0.5948
  665TMC3    O1 9849   4.118   2.857   0.349 -0.1783 -0.1649 -0.5774
  665TMC3    O2 9850   4.182   2.452   0.815 -0.1100  0.1372 -0.7655
  666TMC3    C1 9851   3.507   3.449   9.919 -0.8751 -1.2267  0.3209
  666TMC3    C2 9852   3.646   3.439   9.904 -0.3030  0.0774 -0.4816
  666TMC3    C3 9853   3.710   3.560   9.902 -1.0095 -0.0331  0.4647
  666TMC3    C4 9854   3.440   3.568   9.929  0.1604  0.0812 -0.4106
  666TMC3    C5 9855   3.506   3.683   9.930 -0.1944  0.4801 -0.3521
  666TMC3    C6 9856   3.643   3.683   9.901  0.4555 -0.3569  0.0688
  666TMC3     C 9857   3.428   3.328   9.913  0.4922  0.1799  0.1012
  666TMC3     O 9858   3.314   3.342   9.869 -0.3841 -0.6150  0.7696
  666TMC3     H 9859   3.701   3.350   9.931  1.5303  0.9511 -1.2727
  666TMC3    H1 9860   3.335   3.568   9.955 -0.1424 -1.6758 -1.7155
  666TMC3    H2 9861   3.701   3.775   9.899 -0.1349  0.0097 -0.0271
  666TMC3    C7 9862   3.446   3.792  10.005 -0.7707  0.8690 -0.5074
  666TMC3    C8 9863   3.844   3.561   9.956 -0.3659 -0.4519  0.2645
  666TMC3    O1 9864   3.327   3.771  10.023 -0.4272 -0.2957  0.1044
  666TMC3    O2 9865   3.858   3.652  10.040  0.3802 -0.2056 -0.5666
  667MPD2     C 9866   0.110   3.196  14.751  0.6421  0.2361  0.1748
  667MPD2    C1 9867   0.066   3.067  14.771 -0.3473 -0.3000 -0.3096
  667MPD2    C2 9868   4.721   3.011  14.664  0.4043  0.3620 -0.0148
  667MPD2    C3 9869   4.678   3.079  14.550  0.6712 -1.0215  1.1826
  667MPD2    C4 9870   4.706   3.213  14.543  0.8832  0.6705 -1.4366
  667MPD2    C5 9871   0.069   3.263  14.642 -0.1155 -0.2373 -0.6695
  667MPD2     H 9872   4.705   2.904  14.667 -0.6042  0.5733  1.8436
  667MPD2    H1 9873   4.664   3.267  14.459  1.4022  1.4531 -1.1876
  667MPD2    H2 9874   0.177   3.244  14.822 -0.4095  1.5021  0.3242
  667MPD2    H3 9875   0.095   3.367  14.631 -0.0878 -0.3066 -1.2726
  667MPD2     N 9876   4.624   3.018  14.437  0.0962  0.1554  0.0618
  667MPD2    H5 9877   4.612   3.078  14.356 -0.1344 -1.4966 -1.1131
  667MPD2    N1 9878   0.105   2.997  14.887  0.4236  0.7123 -0.0052
  667MPD2    H7 9879   0.166   3.050  14.948  0.8976 -0.6036  0.6570
  668TMC3    C1 9880   0.119   2.817  15.039 -0.0579  0.3268  0.1190
  668TMC3    C2 9881   0.243   2.872  15.060  0.1659  0.5833  0.3526
  668TMC3    C3 9882   0.295   2.866  15.184 -0.9049  0.0405 -0.0366
  668TMC3    C4 9883   0.045   2.750  15.132 -0.1870  0.0010  0.4266
  668TMC3    C5 9884   0.101   2.742  15.260  0.3464 -0.0768  0.7995
  668TMC3    C6 9885   0.221   2.804  15.283 -0.9808  0.0321 -0.4587
  668TMC3     C 9886   0.054   2.872  14.923  0.0667  0.3766 -0.1196
  668TMC3     O 9887   4.684   2.809  14.885  0.2959 -0.0396  0.2247
  668TMC3     H 9888   0.301   2.931  14.990 -1.1474  0.3872 -0.9076
  668TMC3    H1 9889   4.679   2.704  15.095 -0.5402 -0.3550  1.7671
  668TMC3    H2 9890   0.268   2.799  15.381 -2.0587 -1.6149 -0.0267
  668TMC3    C7 9891   0.043   2.662  15.362  0.2289 -0.0129 -0.4348
  668TMC3    C8 9892   0.429   2.906  15.216  0.1121 -0.0769 -0.8856
  668TMC3    O1 9893   0.103   2.663  15.466  0.2359  0.9643 -0.1945
  668TMC3    O2 9894   0.470   2.856  15.321  0.2089 -0.1639 -0.3135
  669TMC3    C1 9895   3.275   2.736  14.434  1.0774  0.8593 -0.3725
  669TMC3    C2 9896   3.171   2.749  14.339 -0.2165 -0.3362  0.1686
  669TMC3    C3 9897   3.187   2.836  14.240 -0.8063  1.1614  0.0417
  669TMC3    C4 9898   3.378   2.825  14.430  1.2565 -0.8750 -0.3658
  669TMC3    C5 9899   3.385   2.926  14.336  0.1562 -0.0130 -0.1658
  669TMC3    C6 9900   3.284   2.933  14.244  0.5922 -0.5774  0.4000
  669TMC3     C 9901   3.242   2.655  14.543 -0.2390 -0.4701 -0.3666
  669TMC3     O 9902   3.122   2.635  14.569 -0.4311  0.6472 -0.0744
  669TMC3     H 9903   3.087   2.681  14.342 -1.0614  0.6977 -0.2198
  669TMC3    H1 9904   3.454   2.816  14.506 -0.4820 -0.4988  1.4191
  669TMC3    H2 9905   3.274   3.021  14.181  0.7496  0.4468  1.8228
  669TMC3    C7 9906   3.514   2.984  14.309 -0.1650  0.5634  0.1415
  669TMC3    C8 9907   3.075   2.852  14.151 -0.4722  0.5705 -0.3561
  669TMC3    O1 9908   3.612   2.957  14.378  0.1377  0.2432  0.3704
  669TMC3    O2 9909   3.012   2.752  14.126  0.1479 -0.2658  0.0972
  670MPD2     C 9910   1.508   0.621  13.556  0.8086  0.1860  0.4531
  670MPD2    C1 9911   1.561   0.702  13.653 -0.3418 -0.2169  0.2722
  670MPD2    C2 9912   1.507   0.687  13.776 -0.0490  0.4727  0.3028
  670MPD2    C3 9913   1.398   0.606  13.807 -0.2003  0.6478 -0.5073
  670MPD2    C4 9914   1.348   0.528  13.704  0.2050 -0.0653  0.2296
  670MPD2    C5 9915   1.399   0.541  13.581  0.5624  0.5092  0.4369
  670MPD2     H 9916   1.545   0.741  13.861  0.8205 -0.4650  0.5063
  670MPD2    H1 9917   1.266   0.457  13.710  0.6072 -0.5609 -0.2073
  670MPD2    H2 9918   1.549   0.609  13.456  1.2861 -0.5208  0.7410
  670MPD2    H3 9919   1.353   0.490  13.498 -0.9556 -1.3060  2.3914
  670MPD2     N 9920   1.355   0.590  13.938  0.8597 -0.3398  0.4998
  670MPD2    H5 9921   1.405   0.646  14.005 -0.4693  0.0269  1.1845
  670MPD2    N1 9922   1.675   0.784  13.631  0.6491  0.5121 -0.0565
  670MPD2    H7 9923   1.702   0.846  13.707 -0.3030  0.7534  0.0778
  671TMC3    C1 9924   1.241   0.481  14.121 -0.0783  0.6376  0.1409
  671TMC3    C2 9925   1.353   0.497  14.195 -0.3073 -0.2540  0.4109
  671TMC3    C3 9926   1.365   0.421  14.307  0.1945  0.0091 -0.5594
  671TMC3    C4 9927   1.164   0.371  14.147  0.6264  0.5775  0.5908
  671TMC3    C5 9928   1.182   0.290  14.251 -1.1067  0.2065  0.3973
  671TMC3    C6 9929   1.287   0.308  14.333  0.3694  0.8917  0.5252
  671TMC3     C 9930   1.245   0.516  13.981 -0.7959  0.0772  0.2625
  671TMC3     O 9931   1.165   0.460  13.902 -0.2170 -0.2710  0.0453
  671TMC3     H 9932   1.420   0.581  14.181 -0.6537 -0.0940 -0.2895
  671TMC3    H1 9933   1.078   0.357  14.082  1.5696  3.7410 -1.3612
  671TMC3    H2 9934   1.312   0.228  14.401  0.1251  0.1105 -0.2985
  671TMC3    C7 9935   1.169   0.158  14.194  0.3497  0.0054 -0.7378
  671TMC3    C8 9936   1.500   0.401  14.356 -0.4257 -0.0935  0.1780
  671TMC3    O1 9937   1.245   0.118  14.109  0.1867 -0.4126  0.0439
  671TMC3    O2 9938   1.588   0.439  14.281 -0.4567  0.6076  0.1277
  672MPD2     C 9939   2.047   0.203   1.137 -0.1234  0.0207  0.5671
  672MPD2    C1 9940   2.056   0.333   1.100  1.0268  0.1320 -0.5299
  672MPD2    C2 9941   2.167   0.403   1.146  0.4154  0.1221  0.0454
  672MPD2    C3 9942   2.270   0.343   1.221 -0.2312 -0.0912  0.4009
  672MPD2    C4 9943   2.255   0.212   1.253 -0.3028  0.2757  0.5863
  672MPD2    C5 9944   2.145   0.148   1.216  0.7515  0.6200 -0.6070
  672MPD2     H 9945   2.176   0.501   1.102  0.3762  0.8841  1.7021
  672MPD2    H1 9946   2.329   0.169   1.320 -0.6482 -1.9206 -0.4233
  672MPD2    H2 9947   1.959   0.144   1.115 -0.9023  1.4784 -0.2205
  672MPD2    H3 9948   2.119   0.051   1.257  0.2816  0.7371 -0.6277
  672MPD2     N 9949   2.377   0.416   1.264 -0.1495 -1.1795  0.2867
  672MPD2    H5 9950   2.447   0.360   1.312  0.7839  0.2804  0.6261
  672MPD2    N1 9951   1.978   0.400   1.005 -0.1776 -0.1321 -0.1914
  672MPD2    H7 9952   1.990   0.501   0.997 -0.2796 -0.2527 -1.7587
  673TMC3    C1 9953   1.860   0.449   0.821 -0.3381  0.4548  0.2532
  673TMC3    C2 9954   1.927   0.442   0.706 -0.3653  0.1164 -0.1751
  673TMC3    C3 9955   1.973   0.560   0.656  0.0775  0.6456  0.0932
  673TMC3    C4 9956   1.820   0.565   0.874  0.3820  0.0583 -0.4402
  673TMC3    C5 9957   1.845   0.681   0.803 -0.6046 -1.2096 -0.0454
  673TMC3    C6 9958   1.924   0.683   0.694  0.4715  0.0336 -0.1768
  673TMC3     C 9959   1.895   0.339   0.913 -0.2484  0.0902  0.4639
  673TMC3     O 9960   1.893   0.220   0.881 -0.1956  0.5485  0.0752
  673TMC3     H 9961   1.973   0.348   0.675 -1.4872 -0.1831 -0.9227
  673TMC3    H1 9962   1.765   0.564   0.967  0.4579  0.2647 -0.3938
  673TMC3    H2 9963   1.963   0.776   0.653  2.3955  0.6435  3.1153
  673TMC3    C7 9964   1.773   0.795   0.846 -0.4350 -0.3583  0.2008
  673TMC3    C8 9965   2.055   0.571   0.528 -0.5624 -0.0536  0.1435
  673TMC3    O1 9966   1.687   0.774   0.934  0.1306  0.1161 -0.7400
  673TMC3    O2 9967   2.058   0.676   0.463 -0.5877  0.3606  0.2269
  674MPD2     C 9968   1.506   1.066   0.488  0.1504 -0.3350  0.3503
  674MPD2    C1 9969   1.507   0.926   0.497 -0.3018  0.4385 -0.0639
  674MPD2    C2 9970   1.395   0.867   0.545  0.1122  0.9748  0.2220
  674MPD2    C3 9971   1.286   0.946   0.588  0.2707  0.3493  0.4026
  674MPD2    C4 9972   1.299   1.083   0.589  0.4362 -0.4606  0.0841
  674MPD2    C5 9973   1.406   1.142   0.533  0.8650 -0.6206 -0.8777
  674MPD2     H 9974   1.379   0.762   0.566 -1.2096  1.2216  0.4866
  674MPD2    H1 9975   1.230   1.158   0.626  0.3877 -1.4281  1.9179
  674MPD2    H2 9976   1.591   1.119   0.447 -0.3593  0.5080  0.3781
  674MPD2    H3 9977   1.420   1.249   0.532  1.6194 -0.7339 -2.9205
  674MPD2     N 9978   1.174   0.878   0.629  0.8478  0.4366  0.2568
  674MPD2    H5 9979   1.185   0.778   0.641  1.6246  0.5725  0.6494
  674MPD2    N1 9980   1.622   0.856   0.448 -0.1927  0.2676 -0.0782
  674MPD2    H7 9981   1.687   0.912   0.394 -1.5440  2.5624  0.6614
  675TMC3    C1 9982   1.715   0.654   0.349 -0.3352  0.0664  0.1649
  675TMC3    C2 9983   1.658   0.538   0.302  0.9788  0.2096 -0.0311
  675TMC3    C3 9984   1.711   0.488   0.184 -0.4384 -0.5322 -0.1848
  675TMC3    C4 9985   1.820   0.720   0.291 -0.2194 -0.2180 -0.8089
  675TMC3    C5 9986   1.868   0.664   0.177 -0.0198  0.3955 -0.2831
  675TMC3    C6 9987   1.810   0.553   0.116 -0.4811 -0.1836 -0.4906
  675TMC3     C 9988   1.643   0.718   0.460 -1.3000  0.4299 -0.6323
  675TMC3     O 9989   1.590   0.632   0.535  0.6841 -0.1684  0.1179
  675TMC3     H 9990   1.559   0.511   0.338  0.5846  0.9407 -0.5671
  675TMC3    H1 9991   1.853   0.817   0.326 -0.2504 -1.3609  2.4067
  675TMC3    H2 9992   1.841   0.523   0.017 -2.6166 -0.2672 -1.1396
  675TMC3    C7 9993   1.987   0.717   0.113 -0.3646  0.1581  0.2322
  675TMC3    C8 9994   1.641   0.372   0.126 -0.7093  0.4330 -0.1671
  675TMC3    O1 9995   2.028   0.670   0.011 -0.2270  0.2968  0.3019
  675TMC3    O2 9996   1.659   0.353   0.005  0.3230 -0.5641  0.0973
  676MPD2     C 9997   4.122   4.275  10.564 -0.2235 -0.7513 -0.1853
  676MPD2    C1 9998   4.043   4.238  10.667 -0.4274 -0.5328 -0.4735
  676MPD2    C2 9999   4.025   4.102  10.676 -0.1872  0.2706  0.3879
  676MPD2    C310000   4.069   4.014  10.574  0.0829  0.6931  0.8402
  676MPD2    C410001   4.133   4.061  10.465 -0.1483 -0.0820 -0.3166
  676MPD2    C510002   4.169   4.190  10.463 -0.1974  0.1750  0.2152
  676MPD2     H10003   3.976   4.056  10.762 -0.5864  0.3014  0.1795
  676MPD2    H110004   4.179   3.998  10.390 -0.6152 -0.3959 -0.3318
  676MPD2    H210005   4.158   4.377  10.551 -1.4970 -0.4849 -1.5690
  676MPD2    H310006   4.231   4.229  10.383  0.3839  1.9042  1.4955
  676MPD2     N10007   4.044   3.879  10.575  0.7331 -0.2276 -0.2471
  676MPD2    H510008   4.082   3.813  10.508  2.2577 -0.7130  1.0954
  676MPD2    N110009   3.994   4.328  10.762  0.2846 -0.2736  0.0650
  676MPD2    H710010   3.933   4.287  10.833 -2.5624  0.2793 -2.0478
  677TMC3    C110011   3.989   4.517  10.898 -0.2841 -0.9303 -1.1435
  677TMC3    C210012   3.897   4.445  10.972 -0.5074 -0.1169 -0.4486
  677TMC3    C310013   3.875   4.496  11.100 -0.0873 -0.2069  0.1973
  677TMC3    C410014   4.072   4.616  10.952  0.4234 -0.5150  0.1087
  677TMC3    C510015   4.036   4.660  11.077 -0.1666 -0.2869 -0.0562
  677TMC3    C610016   3.942   4.592  11.154 -0.3581 -0.0696 -0.3524
  677TMC3     C10017   4.038   4.455  10.777 -0.6148 -0.6790 -0.0057
  677TMC3     O10018   4.127   4.514  10.718  0.0500  0.1119  0.9278
  677TMC3     H10019   3.839   4.359  10.940  0.9999 -1.9626  1.8116
  677TMC3    H110020   4.147   4.675  10.901  0.0270 -0.3661 -0.3086
  677TMC3    H210021   3.907   4.628  11.250  0.0611 -1.3065  0.2540
  677TMC3    C710022   4.128   0.025  11.147  0.6533 -0.5446 -1.5997
  677TMC3    C810023   3.764   4.444  11.166 -0.2551  0.1488  0.1290
  677TMC3    O110024   4.082   0.105  11.229 -0.0855 -0.0983  0.1942
  677TMC3    O210025   3.657   4.490  11.131 -0.0412 -0.6347 -0.0940
  678MPD2     C10026   0.238   3.208   1.420  0.2367 -0.0659  0.6181
  678MPD2    C110027   0.224   3.236   1.287 -0.3718  0.1108  0.1276
  678MPD2    C210028   0.097   3.241   1.236 -0.1128 -0.5432  0.0794
  678MPD2    C310029   4.704   3.222   1.313  0.2817  0.2128 -0.1208
  678MPD2    C410030   4.723   3.185   1.446  0.2911  0.1575  0.7174
  678MPD2    C510031   0.125   3.183   1.494 -0.0969  0.4149 -0.1691
  678MPD2     H10032   0.086   3.269   1.132 -2.6935  0.4040  0.6136
  678MPD2    H110033   4.647   3.175   1.522 -1.2468 -0.0992 -0.8507
  678MPD2    H210034   0.338   3.185   1.455  1.1869  1.4269 -1.0888
  678MPD2    H310035   0.128   3.156   1.599  0.4534 -1.2369 -0.6051
  678MPD2     N10036   4.574   3.244   1.258  0.3132  0.1995  0.2291
  678MPD2    H510037   4.569   3.257   1.158  0.6172  0.5060  0.2525
  678MPD2    N110038   0.327   3.268   1.199 -0.0568 -0.4179 -0.4263
  678MPD2    H710039   0.304   3.288   1.103  1.6351  1.0091 -0.5327
  679TMC3    C110040   0.755   3.380   1.014 -0.4559  0.0695  0.5121
  679TMC3    C210041   0.679   3.336   1.120  0.2926  0.2255  0.1707
  679TMC3    C310042   0.540   3.340   1.114 -0.0233  0.1765 -0.3283
  679TMC3    C410043   0.698   3.434   0.901 -0.1209  0.2876  0.1176
  679TMC3    C510044   0.563   3.449   0.898 -0.8058  0.3178 -0.5001
  679TMC3    C610045   0.481   3.404   1.004 -0.1859  0.2376  0.2171
  679TMC3     C10046   0.891   3.374   1.023 -0.0173  0.2204 -0.2194
  679TMC3     O10047   0.939   3.346   1.130 -0.1089  0.3865 -0.3064
  679TMC3     H10048   0.724   3.285   1.203  0.0737  1.6303  1.1584
  679TMC3    H110049   0.746   3.510   0.841 -1.5349  0.8559 -0.2984
  679TMC3    H210050   0.375   3.423   1.005 -0.2939 -0.2594 -1.2532
  679TMC3    C710051   0.503   3.569   0.831 -0.3947 -0.0076 -0.8018
  679TMC3    C810052   0.466   3.279   1.223 -0.5531  0.4325  0.4222
  679TMC3    O110053   0.559   3.602   0.728 -0.3869 -0.3582 -0.4055
  679TMC3    O210054   0.526   3.267   1.329 -0.2958 -0.3442 -0.4779
  680MPD2     C10055   1.150   2.636  13.903  0.1035 -0.2653  0.5147
  680MPD2    C110056   1.238   2.562  13.982 -0.3914 -0.3043 -0.0177
  680MPD2    C210057   1.335   2.638  14.045  0.3426  0.4486 -0.7707
  680MPD2    C310058   1.346   2.778  14.028 -0.2254  0.8225  0.6968
  680MPD2    C410059   1.248   2.845  13.961  0.2769  0.3425  0.1056
  680MPD2    C510060   1.146   2.774  13.908  0.5134 -0.2931  0.2576
  680MPD2     H10061   1.400   2.582  14.111  2.8055  2.9971 -1.0340
  680MPD2    H110062   1.249   2.953  13.952  2.1829  0.3129 -0.0969
  680MPD2    H210063   1.074   2.596  13.838 -0.4926  1.5638  0.0820
  680MPD2    H310064   1.064   2.821  13.855  0.0690 -1.7308 -0.3442
  680MPD2     N10065   1.450   2.851  14.092 -0.1538 -0.2356  0.1319
  680MPD2    H510066   1.440   2.950  14.072  2.3108  0.1121  0.6211
  680MPD2    N110067   1.215   2.423  13.983 -0.4105  0.0041  0.1510
  680MPD2    H710068   1.157   2.382  13.910  2.0599 -2.0795 -0.6274
  681TMC3    C110069   1.244   2.199  14.051 -0.0139 -0.8824 -0.6843
  681TMC3    C210070   1.243   2.125  14.166  0.4182  0.0936  0.7568
  681TMC3    C310071   1.242   1.991  14.141 -0.4535  0.1908  0.0102
  681TMC3    C410072   1.254   2.147  13.922 -0.5726 -0.2936 -0.4708
  681TMC3    C510073   1.263   2.008  13.917  0.1296 -0.7994 -0.0047
  681TMC3    C610074   1.253   1.929  14.026 -0.4661  0.5384 -0.0767
  681TMC3     C10075   1.269   2.344  14.076  0.3847  0.0494  0.0037
  681TMC3     O10076   1.342   2.368  14.165  0.1019 -0.3746  0.2249
  681TMC3     H10077   1.213   2.169  14.261  2.3244  2.4355  0.2834
  681TMC3    H110078   1.254   2.209  13.833  1.3964  2.9292  1.7610
  681TMC3    H210079   1.265   1.822  14.022 -0.0001  0.5899 -0.0752
  681TMC3    C710080   1.308   1.944  13.795 -0.1871 -0.4210  0.0390
  681TMC3    C810081   1.216   1.903  14.256 -0.2570  0.1695  0.2612
  681TMC3    O110082   1.323   1.823  13.794  0.5638 -0.4029  0.2534
  681TMC3    O210083   1.188   1.784  14.239  0.1746  0.3546  0.0049
  682MPD2     C10084   2.614   4.380  10.933  0.3958  0.0283 -0.1879
  682MPD2    C110085   2.732   4.358  10.868 -0.0202  0.6203 -0.4352
  682MPD2    C210086   2.841   4.305  10.932  0.3317  0.6155 -0.0205
  682MPD2    C310087   2.834   4.289  11.066 -0.4073 -0.4485  0.7403
  682MPD2    C410088   2.717   4.320  11.132  0.7920 -0.1641 -0.5747
  682MPD2    C510089   2.607   4.367  11.064  0.4046  0.5370  0.8540
  682MPD2     H10090   2.931   4.277  10.879  0.8732 -1.4406  2.0015
  682MPD2    H110091   2.718   4.305  11.239  1.8016  0.2726 -0.5253
  682MPD2    H210092   2.526   4.407  10.876  0.3318 -0.2159 -0.2071
  682MPD2    H310093   2.512   4.380  11.116 -0.7095 -2.3142 -0.4524
  682MPD2     N10094   2.940   4.238  11.146  0.3779 -0.0075  0.0516
  682MPD2    H510095   2.928   4.234  11.247 -1.6260 -2.6174 -0.2956
  682MPD2    N110096   2.724   4.380  10.725 -0.6471 -0.6487  0.4686
  682MPD2    H710097   2.647   4.432  10.685  0.4957 -0.4827 -1.5037
  683TMC3    C110098   3.175   4.063  11.422 -0.2655  0.3668  0.2499
  683TMC3    C210099   3.247   3.949  11.391  0.0387 -0.4145 -0.1307
  683TMC3    C310100   3.262   3.915  11.257 -0.2291 -0.0435 -0.5214
  683TMC3    C410101   3.122   4.141  11.329 -0.0261  0.3737 -0.4858
  683TMC3    C510102   3.138   4.108  11.196 -0.4792 -0.4336 -0.7662
  683TMC3    C610103   3.208   3.994  11.159 -0.1140 -0.6323  0.4771
  683TMC3     C10104   3.191   4.111  11.555 -0.0928  0.1060 -0.2549
  683TMC3     O10105   3.191   4.233  11.561  0.4053 -0.2417 -0.2112
  683TMC3     H10106   3.299   3.896  11.470 -0.6878  0.1305  0.7038
  683TMC3    H110107   3.086   4.242  11.346 -0.0387  0.7094 -2.4841
  683TMC3    H210108   3.200   3.957  11.057 -2.1789 -0.9331  0.7444
  683TMC3    C710109   3.049   4.176  11.098 -0.6643  0.2240  0.4058
  683TMC3    C810110   3.344   3.803  11.213  0.1909 -0.3644  0.2036
  683TMC3    O110111   3.074   4.153  10.981 -0.3978  0.4831  0.0298
  683TMC3    O210112   3.385   3.816  11.095  0.5946  0.7748  0.3290
  684MPD2     C10113   1.364   2.934  16.518 -0.4876 -0.1684  0.5679
  684MPD2    C110114   1.344   3.005  16.402 -0.3686  0.1114  0.1494
  684MPD2    C210115   1.338   3.141  16.408 -0.3015  0.3170 -0.4155
  684MPD2    C310116   1.360   3.207  16.526  0.9663  0.6620 -0.7397
  684MPD2    C410117   1.390   3.131  16.636  0.6568  0.2487  0.8071
  684MPD2    C510118   1.390   2.995  16.633 -0.3317  0.2003 -0.1595
  684MPD2     H10119   1.330   3.193  16.313 -2.4902  0.2246 -0.2791
  684MPD2    H110120   1.429   3.170  16.729  2.3716 -1.9948  1.0222
  684MPD2    H210121   1.383   2.828  16.523 -1.3997 -0.5068 -2.9012
  684MPD2    H310122   1.423   2.938  16.719  1.2944 -0.9034 -1.5090
  684MPD2     N10123   1.377   3.347  16.545  0.2751 -0.4524 -0.3605
  684MPD2    H510124   1.414   3.383  16.632 -0.3739  3.2447 -1.6120
  684MPD2    N110125   1.344   2.938  16.275 -0.4259 -0.0067  0.0039
  684MPD2    H710126   1.325   2.996  16.194  1.4444 -0.0539 -0.4688
  685TMC3    C110127   1.400   2.785  16.096  0.0659 -0.0453  0.7100
  685TMC3    C210128   1.329   2.857  16.012  0.5686  0.4726 -0.5195
  685TMC3    C310129   1.361   2.843  15.881 -0.0955  0.0746  0.2395
  685TMC3    C410130   1.503   2.703  16.057  0.4705 -0.0930 -0.1784
  685TMC3    C510131   1.539   2.711  15.928 -0.7122 -0.2436  0.6526
  685TMC3    C610132   1.466   2.777  15.835 -0.5811  0.0639  0.4495
  685TMC3     C10133   1.379   2.811  16.239 -0.1491  0.2999  1.2446
  685TMC3     O10134   1.411   2.719  16.311  0.0465  0.3667 -0.5978
  685TMC3     H10135   1.236   2.907  16.035  0.7631  1.5004 -2.0311
  685TMC3    H110136   1.544   2.628  16.123  1.5005  0.2152 -0.4677
  685TMC3    H210137   1.490   2.767  15.730  1.6709 -1.5462  1.0917
  685TMC3    C710138   1.674   2.681  15.891  0.3086  0.1622  0.2378
  685TMC3    C810139   1.244   2.846  15.798 -0.4035 -0.2951 -0.6696
  685TMC3    O110140   1.721   2.702  15.779 -0.1891 -0.2361  0.8209
  685TMC3    O210141   1.231   2.762  15.713  0.5329  0.2939 -0.1604
  686MPD2     C10142   2.759   2.979  15.227 -0.4500 -0.5685  0.1855
  686MPD2    C110143   2.815   2.923  15.336  0.7611  0.0691  0.1334
  686MPD2    C210144   2.906   2.822  15.321 -0.4363  0.0341  0.8932
  686MPD2    C310145   2.941   2.776  15.201  0.2652 -0.3544 -0.5414
  686MPD2    C410146   2.890   2.838  15.089  0.5992 -0.3425 -0.3116
  686MPD2    C510147   2.800   2.941  15.103 -0.8439 -0.1298 -0.1679
  686MPD2     H10148   2.938   2.770  15.411 -0.8916  1.2694  1.7741
  686MPD2    H110149   2.905   2.802  14.988 -1.0051 -2.6941  0.2840
  686MPD2    H210150   2.681   3.053  15.243 -0.5613 -0.4996 -0.6704
  686MPD2    H310151   2.760   2.995  15.018  0.5717  2.9085  1.0577
  686MPD2     N10152   3.027   2.663  15.183  0.0687  0.1983 -0.0022
  686MPD2    H510153   3.085   2.665  15.099 -0.3083  0.0534 -0.2679
  686MPD2    N110154   2.760   2.953  15.461  0.3942  0.0310 -0.1908
  686MPD2    H710155   2.688   3.025  15.461  1.3709  1.0212  2.2758
  687TMC3    C110156   2.980   2.531  15.382 -0.2193 -0.4489  0.0878
  687TMC3    C210157   2.845   2.549  15.374 -0.9243 -0.3359  0.0940
  687TMC3    C310158   2.773   2.517  15.483 -0.0458 -0.2486 -0.3903
  687TMC3    C410159   3.052   2.477  15.487  0.0429  0.1530 -0.0227
  687TMC3    C510160   2.970   2.464  15.596  0.1974 -0.1861 -0.0623
  687TMC3    C610161   2.838   2.486  15.597 -0.1417  0.1361  0.4294
  687TMC3     C10162   3.069   2.570  15.267 -0.2018 -0.7419  0.4954
  687TMC3     O10163   3.154   2.483  15.254  0.1723  0.1479  0.2851
  687TMC3     H10164   2.795   2.580  15.283  3.1051  0.3413 -1.9086
  687TMC3    H110165   3.156   2.503  15.498  0.2744  0.2296 -2.3671
  687TMC3    H210166   2.786   2.453  15.686  0.7521  0.3778  1.0344
  687TMC3    C710167   3.036   2.451  15.724 -0.4680 -0.4269 -0.3513
  687TMC3    C810168   2.642   2.569  15.510  0.2065  0.7201 -0.7628
  687TMC3    O110169   2.986   2.510  15.817  0.3327  0.5759 -0.1155
  687TMC3    O210170   2.606   2.550  15.623 -0.0193 -0.4386  0.5310
  688MPD2     C10171   2.300   1.591  17.159  0.0392 -0.3362  0.5070
  688MPD2    C110172   2.299   1.454  17.200  0.0381 -0.3383 -0.1566
  688MPD2    C210173   2.347   1.358  17.114  0.1625 -0.1748 -0.2607
  688MPD2    C310174   2.397   1.391  16.991  0.4164 -0.0632 -0.3606
  688MPD2    C410175   2.398   1.524  16.956 -0.9001  0.0354  0.4603
  688MPD2    C510176   2.342   1.619  17.034 -0.1922  0.3815 -0.3607
  688MPD2     H10177   2.351   1.256  17.152 -1.4093  0.1597  0.7885
  688MPD2    H110178   2.447   1.556  16.865  0.2088  1.2851  1.5048
  688MPD2    H210179   2.255   1.675  17.210  2.4317  1.9255 -1.1784
  688MPD2    H310180   2.338   1.722  17.000 -0.0646  0.8088  0.9257
  688MPD2     N10181   2.481   1.316  16.904 -0.7171  0.1498 -0.1220
  688MPD2    H510182   2.511   1.371  16.825 -0.8002  1.4320  0.7352
  688MPD2    N110183   2.262   1.415  17.336 -0.4352  0.5945 -0.7456
  688MPD2    H710184   2.255   1.315  17.354  1.2921  0.3395 -1.4776
  689TMC3    C110185   2.207   1.413  17.557 -0.2828 -1.4606  0.2142
  689TMC3    C210186   2.238   1.460  17.676 -0.2950 -0.0836  0.5101
  689TMC3    C310187   2.196   1.398   0.089 -1.0541  0.5227 -0.2194
  689TMC3    C410188   2.123   1.305  17.547  0.0722 -0.0028 -0.3358
  689TMC3    C510189   2.069   1.250  17.657  0.5277 -0.1283  0.0612
  689TMC3    C610190   2.096   1.302   0.080  0.8580 -0.0986  0.2818
  689TMC3     C10191   2.239   1.492  17.445 -0.2633 -0.6914  0.1664
  689TMC3     O10192   2.230   1.611  17.461 -0.0533  0.7893  0.0533
  689TMC3     H10193   2.304   1.545  17.683  0.6048 -0.7690  0.4357
  689TMC3    H110194   2.084   1.266  17.453 -0.7214  1.0533 -0.4546
  689TMC3    H210195   2.055   1.266   0.173 -1.9225 -1.6256 -1.5646
  689TMC3    C710196   1.958   1.153  17.658 -0.3183 -0.2862 -0.3976
  689TMC3    C810197   2.192   1.464   0.218  0.2054 -0.0264  0.3137
  689TMC3    O110198   1.904   1.132   0.066 -0.1450 -0.5746 -0.1843
  689TMC3    O210199   2.189   1.400   0.320 -0.0627  0.6993  0.2604
  690MPD2     C10200   4.412   3.839  15.747 -0.1803 -0.2006 -0.2545
  690MPD2    C110201   4.468   3.765  15.647 -0.5044  0.1573 -0.3529
  690MPD2    C210202   4.603   3.783  15.616  0.7204 -0.0133 -0.3355
  690MPD2    C310203   4.679   3.877  15.687 -0.2722 -0.4454 -0.0621
  690MPD2    C410204   4.622   3.955  15.787 -0.5590  0.4685 -0.3826
  690MPD2    C510205   4.493   3.923  15.821 -0.8403 -0.1853  0.5187
  690MPD2     H10206   4.649   3.727  15.535  1.4718  0.6108 -0.3450
  690MPD2    H110207   4.678   4.027  15.846  1.2534  0.4083 -2.0181
  690MPD2    H210208   4.311   3.826  15.784 -0.4023 -0.4811 -0.9670
  690MPD2    H310209   4.438   3.983  15.892 -0.6000  1.6176 -0.8084
  690MPD2     N10210   0.094   3.881  15.654 -0.1419  0.3528 -0.8557
  690MPD2    H510211   0.131   3.826  15.577  0.2790  1.7115 -1.6349
  690MPD2    N110212   4.396   3.660  15.584  0.3341 -0.0789  0.0289
  690MPD2    H710213   4.447   3.595  15.525  3.6111  3.2284 -0.8090
  691TMC3    C110214   4.201   3.517  15.548 -0.3050  0.6100 -0.2127
  691TMC3    C210215   4.070   3.514  15.507 -0.6316 -0.0913  0.0249
  691TMC3    C310216   4.023   3.395  15.445  0.1333 -0.6940 -0.7051
  691TMC3    C410217   4.289   3.408  15.530 -0.0831 -0.3710 -0.1847
  691TMC3    C510218   4.235   3.298  15.482  0.5617 -0.0850  0.4283
  691TMC3    C610219   4.107   3.287  15.444  0.0099  0.2924 -0.0889
  691TMC3     C10220   4.259   3.643  15.610  0.2825 -0.5972  0.0399
  691TMC3     O10221   4.169   3.721  15.643  0.1024  0.5273  0.3572
  691TMC3     H10222   4.018   3.608  15.515 -3.8003 -1.8139 -0.5558
  691TMC3    H110223   4.389   3.416  15.570 -0.2909 -1.2910  0.5277
  691TMC3    H210224   4.068   3.208  15.381  1.2008 -0.3549 -0.0247
  691TMC3    C710225   4.289   3.171  15.528 -0.1639 -0.3736  0.3795
  691TMC3    C810226   3.884   3.368  15.424 -0.3013 -0.7112 -0.8883
  691TMC3    O110227   4.401   3.161  15.574 -0.3467  0.0349  0.6978
  691TMC3    O210228   3.863   3.262  15.361 -0.1116  0.4657 -0.4125
  692TMC3    C110229   1.166   4.662  15.825 -0.4667 -0.2721  0.1754
  692TMC3    C210230   1.286   4.710  15.859  0.0568 -0.0582 -0.9714
  692TMC3    C310231   1.375   4.635  15.929 -0.2749 -0.3459 -0.0173
  692TMC3    C410232   1.117   4.548  15.876 -0.4546  0.2350 -0.1837
  692TMC3    C510233   1.208   4.470  15.934 -0.1244 -0.4306 -1.0528
  692TMC3    C610234   1.343   4.507  15.965  0.2332 -1.1599 -0.2704
  692TMC3     C10235   1.058   0.040  15.850  0.0206 -0.8043 -0.0222
  692TMC3     O10236   0.968   0.005  15.922 -0.1329 -0.2098  0.1673
  692TMC3     H10237   1.339   0.051  15.791 -0.2951  1.5984  0.3275
  692TMC3    H110238   1.014   4.520  15.857 -0.6504  0.8318  0.0064
  692TMC3    H210239   1.399   4.458  16.044  0.2058 -3.1591 -1.4805
  692TMC3    C710240   1.160   4.338  15.955  0.7069 -0.8407 -0.0979
  692TMC3    C810241   1.448   4.701  16.025 -0.1524 -0.6890 -0.3469
  692TMC3    O110242   1.040   4.314  15.947  0.3096  0.1731 -0.6815
  692TMC3    O210243   1.519   4.640  16.104 -0.9573  0.5533 -0.2477
  693MPD2     C10244   0.861   3.201  11.322  0.6390  0.0836  0.3925
  693MPD2    C110245   0.857   3.101  11.232 -0.5915  0.3658  0.2633
  693MPD2    C210246   0.968   3.012  11.210 -0.2480  0.6269  0.1419
  693MPD2    C310247   1.080   3.043  11.292  0.1222  0.5618 -0.0382
  693MPD2    C410248   1.081   3.143  11.390  0.4639  0.6488 -0.8558
  693MPD2    C510249   0.969   3.220  11.399 -0.2161 -0.3032 -0.2721
  693MPD2     H10250   0.967   2.931  11.139 -2.6790  1.2075 -0.4790
  693MPD2    H110251   1.169   3.170  11.447  0.3971  1.2592 -1.0415
  693MPD2    H210252   0.773   3.260  11.345 -0.3768 -0.7398 -1.3466
  693MPD2    H310253   0.966   3.305  11.466  0.3563  0.4936 -1.2623
  693MPD2     N10254   1.198   2.963  11.285  0.4767  0.7977 -0.4048
  693MPD2    H510255   1.278   2.996  11.337  0.3071  0.0144  0.3564
  693MPD2    N110256   0.740   3.093  11.158  0.3018  0.3398 -0.1655
  693MPD2    H710257   0.671   3.166  11.172  0.4512  0.5361 -0.4440
  694TMC3    C110258   0.562   2.992  11.050  0.3348  0.5595 -0.4731
  694TMC3    C210259   0.518   2.892  10.967 -0.2661  0.3619 -0.6598
  694TMC3    C310260   0.393   2.842  10.979  0.1229  0.2972 -0.0223
  694TMC3    C410261   0.479   3.040  11.152  0.5410 -0.1469  0.7069
  694TMC3    C510262   0.355   2.974  11.172  0.0152 -0.1241  0.4075
  694TMC3    C610263   0.313   2.882  11.083 -0.2680 -0.0972  0.3266
  694TMC3     C10264   0.709   3.000  11.068  0.0456 -0.5596  0.0555
  694TMC3     O10265   0.780   2.922  11.007  0.1107 -0.2537  0.0647
  694TMC3     H10266   0.592   2.853  10.898 -1.7066 -1.7532 -1.0171
  694TMC3    H110267   0.511   3.110  11.228 -0.7287  0.3036  0.8348
  694TMC3    H210268   0.213   2.842  11.086 -0.3082  0.2540  3.5256
  694TMC3    C710269   0.272   3.021  11.281 -1.6749  0.1306  0.0327
  694TMC3    C810270   0.334   2.768  10.878 -0.2545 -0.8021  0.2013
  694TMC3    O110271   0.302   3.128  11.334 -0.1905  0.2921  0.8059
  694TMC3    O210272   0.210   2.770  10.873 -0.7937  0.5523  0.9049
  695MPD2     C10273   1.834   0.177  13.484 -0.0153 -0.8276 -0.8481
  695MPD2    C110274   1.780   0.114  13.598 -0.3134  0.0879  0.3480
  695MPD2    C210275   1.642   0.082  13.598  0.1326  0.8028 -0.1934
  695MPD2    C310276   1.557   0.113  13.499 -0.4085 -0.2503  0.1123
  695MPD2    C410277   1.605   0.169  13.383 -0.0867  0.0085 -0.1488
  695MPD2    C510278   1.739   0.199  13.379  0.0799  0.0758 -0.4539
  695MPD2     H10279   1.603   0.040  13.690  1.4557 -1.3482 -0.5950
  695MPD2    H110280   1.546   0.184  13.294 -0.1875 -0.7585 -0.2117
  695MPD2    H210281   1.937   0.195  13.456  0.4426  0.5799  1.8130
  695MPD2    H310282   1.775   0.245  13.288  0.3070  1.2474  0.2367
  695MPD2     N10283   1.418   0.077  13.512  0.2957 -0.1412 -0.0358
  695MPD2    H510284   1.390   0.037  13.601  1.2330  2.2052  1.3250
  695MPD2    N110285   1.862   0.065  13.705 -0.4423 -0.1424 -0.2016
  695MPD2    H710286   1.815   0.025  13.785  1.6267  1.4647  1.8477
  696TMC3    C110287   1.190   0.036  13.476 -0.0403  0.0709  0.2998
  696TMC3    C210288   1.197   4.679  13.587  0.4680 -0.4830 -0.2562
  696TMC3    C310289   1.076   4.651  13.649  0.1640 -0.4965  0.2029
  696TMC3    C410290   1.070   0.088  13.440 -0.4422  1.0787  0.0234
  696TMC3    C510291   0.960   0.063  13.509  0.4211 -0.3541 -0.0192
  696TMC3    C610292   0.952   4.707  13.612  0.6490 -0.1385 -0.0546
  696TMC3     C10293   1.319   0.095  13.420 -0.1172  0.3227  0.6611
  696TMC3     O10294   1.312   0.157  13.312  0.0353 -0.3186 -0.2249
  696TMC3     H10295   1.287   4.625  13.614 -0.5525 -2.5426 -1.0156
  696TMC3    H110296   1.064   0.159  13.357 -0.4509 -0.1726 -1.0383
  696TMC3    H210297   0.861   4.696  13.669 -0.7603 -0.7072 -2.4117
  696TMC3    C710298   0.866   0.165  13.496  0.2025  0.0515  0.4996
  696TMC3    C810299   1.082   4.598  13.780 -0.2886 -0.0975 -1.1753
  696TMC3    O110300   0.812   0.178  13.383 -0.1589  0.2696 -0.9324
  696TMC3    O210301   1.189   4.577  13.831 -0.7090 -0.0389  0.0959
  697MPD2     C10302   0.878   1.843  15.667  0.4862 -0.3938  0.9230
  697MPD2    C110303   0.850   1.776  15.553 -0.8844 -0.6901  0.2270
  697MPD2    C210304   0.850   1.846  15.434  0.1712  0.4012  0.3775
  697MPD2    C310305   0.895   1.974  15.423  0.4127  0.2836  0.4261
  697MPD2    C410306   0.924   2.035  15.542  0.2312 -0.5790  0.5610
  697MPD2    C510307   0.918   1.967  15.656 -0.4307 -0.0828  0.4363
  697MPD2     H10308   0.820   1.793  15.344 -0.8470 -0.5988  1.3061
  697MPD2    H110309   0.965   2.136  15.546 -0.3878 -0.3331  0.7154
  697MPD2    H210310   0.886   1.793  15.763 -1.5774  1.6074  2.1359
  697MPD2    H310311   0.934   2.019  15.750  1.3271 -0.3812  0.2931
  697MPD2     N10312   0.907   2.033  15.299  0.1769 -0.2201  0.2677
  697MPD2    H510313   0.862   1.986  15.221 -0.0357  1.4999 -0.6459
  697MPD2    N110314   0.805   1.640  15.555  0.1540 -0.1092  0.0516
  697MPD2    H710315   0.772   1.600  15.468  1.1065 -1.6367  0.3910
  698TMC3    C110316   1.008   2.163  15.128 -0.1243 -0.5691  0.0268
  698TMC3    C210317   1.057   2.286  15.095 -0.2297 -0.7768 -0.2756
  698TMC3    C310318   1.042   2.325  14.967 -0.2450 -0.1402  0.4965
  698TMC3    C410319   0.953   2.078  15.034  0.1764 -0.5269 -0.5013
  698TMC3    C510320   0.955   2.122  14.905  0.9526  0.1019  0.0579
  698TMC3    C610321   0.994   2.249  14.872  0.1279  0.0018  0.1682
  698TMC3     C10322   0.990   2.141  15.270 -0.6009  0.0209  0.2285
  698TMC3     O10323   1.052   2.213  15.349  0.0310  0.7748  0.1445
  698TMC3     H10324   1.084   2.356  15.173 -3.3710 -0.4180  0.4944
  698TMC3    H110325   0.930   1.976  15.062  0.6568 -1.2471 -2.7445
  698TMC3    H210326   1.002   2.280  14.768 -3.1956  3.3172  0.8995
  698TMC3    C710327   0.920   2.033  14.794  0.2774 -0.1618 -0.3652
  698TMC3    C810328   1.082   2.457  14.922  0.5722 -0.8311  0.5098
  698TMC3    O110329   0.931   2.086  14.681  0.4257  0.8770 -0.2284
  698TMC3    O210330   1.048   2.492  14.814 -0.7515 -0.1691  0.0450
  699TMC3    C110331   0.271   0.095  12.838  0.2033 -0.1568  0.1980
  699TMC3    C210332   0.316   4.722  12.925  0.2981 -0.1831 -0.1734
  699TMC3    C310333   0.224   4.650  12.997 -0.7366 -0.6925 -0.5630
  699TMC3    C410334   0.133   0.119  12.829  0.0780  0.6431  0.3347
  699TMC3    C510335   0.047   0.039  12.899 -0.3308 -0.3179 -0.2369
  699TMC3    C610336   0.090   4.666  12.988  0.1369  0.3557 -0.2065
  699TMC3     C10337   0.349   0.212  12.805 -0.5333  0.2668  0.1567
  699TMC3     O10338   0.288   0.302  12.744 -0.6584  0.0036 -0.5291
  699TMC3     H10339   0.421   4.698  12.935 -0.2771 -2.4332  0.2745
  699TMC3    H110340   0.094   0.191  12.757  0.2608 -0.2262 -0.6315
  699TMC3    H210341   0.028   4.610  13.057  0.9529 -2.0491 -1.4227
  699TMC3    C710342   4.627   0.078  12.909  0.0794 -0.2397 -0.1144
  699TMC3    C810343   0.264   4.555  13.102  0.5365 -0.2484 -0.6402
  699TMC3    O110344   4.592   0.158  12.822 -0.4229 -0.2619  0.5213
  699TMC3    O210345   0.178   4.479  13.133 -0.9904  0.7094  0.1640
  700TMC3    C110346   0.174   2.121  17.521 -0.3738  0.5244  1.4675
  700TMC3    C210347   0.256   2.017  17.472  0.5605  0.1114  0.3504
  700TMC3    C310348   0.387   2.024  17.504  0.2954 -0.3016 -0.3368
  700TMC3    C410349   0.217   2.225  17.604  0.1956  0.2246  0.8176
  700TMC3    C510350   0.352   2.224  17.631 -0.1391  0.1686  0.1197
  700TMC3    C610351   0.438   2.138  17.568  0.0455  0.0564  0.0281
  700TMC3     C10352   0.049   2.150  17.447  0.4447 -0.0048  0.3313
  700TMC3     O10353   4.672   2.079  17.454 -0.7298 -0.5485 -0.3764
  700TMC3     H10354   0.202   1.940  17.418  0.5960  0.0504  0.4013
  700TMC3    H110355   0.160   2.313  17.632 -0.7249 -0.6146  1.5799
  700TMC3    H210356   0.546   2.153  17.567  0.3900 -2.4752 -1.4002
  700TMC3    C710357   0.409   2.330   0.014  0.6961  0.1907  0.3070
  700TMC3    C810358   0.475   1.921  17.438 -0.9583  0.8433 -0.2392
  700TMC3    O110359   0.331   2.420   0.051  0.1120 -0.6810 -0.0321
  700TMC3    O210360   0.421   1.858  17.344  0.2995  0.4174 -0.1913
  701TMC3    C110361   0.016   0.899  15.584  0.0097 -1.2263 -0.9434
  701TMC3    C210362   0.026   0.873  15.451 -0.0161 -0.5015  0.7981
  701TMC3    C310363   0.079   0.965  15.367  0.1338  0.0152  0.0324
  701TMC3    C410364   0.047   1.017  15.645  0.6646  0.7703 -0.3041
  701TMC3    C510365   0.113   1.101  15.561  0.0325  0.7028 -0.0422
  701TMC3    C610366   0.138   1.072  15.427  0.0155 -0.4586 -0.0142
  701TMC3     C10367   4.669   0.802  15.665 -0.5027  0.7329 -0.0400
  701TMC3     O10368   4.662   0.690  15.612  0.3673 -0.0560  0.1551
  701TMC3     H10369   4.720   0.774  15.421  1.4742 -0.5567 -0.5305
  701TMC3    H110370   0.024   1.042  15.748 -0.4876  1.1952 -0.6650
  701TMC3    H210371   0.202   1.135  15.366  1.3593 -0.4381  1.4256
  701TMC3    C710372   0.190   1.221  15.606  1.0402  0.2656  0.3546
  701TMC3    C810373   0.116   0.933  15.234  0.9053  0.2396  0.7699
  701TMC3    O110374   0.211   1.308  15.522  0.0087  0.7129 -0.0128
  701TMC3    O210375   0.226   0.970  15.200 -0.7991 -0.0250 -0.7676
  702MPD2     C10376   4.562   3.484  10.473 -0.2316  0.1525  0.0284
  702MPD2    C110377   4.452   3.571  10.454 -0.4209  0.2159  1.1764
  702MPD2    C210378   4.471   3.685  10.385  0.2680  0.1876  0.3809
  702MPD2    C310379   4.597   3.726  10.357 -0.0555  0.5356  0.2699
  702MPD2    C410380   4.708   3.649  10.378 -0.0296  0.1239  0.6681
  702MPD2    C510381   4.691   3.525  10.430 -0.2671 -0.9806 -0.4108
  702MPD2     H10382   4.390   3.756  10.373  1.5145  1.3424 -1.1220
  702MPD2    H110383   0.081   3.684  10.345 -0.3623 -0.9247 -1.4724
  702MPD2    H210384   4.547   3.385  10.514 -1.4010  0.5720  0.6001
  702MPD2    H310385   0.045   3.453  10.451 -0.3687 -0.7826  0.6414
  702MPD2     N10386   4.628   3.854  10.302 -0.3806  1.0732  0.4779
  702MPD2    H510387   4.723   3.881  10.276 -0.3962  0.6032 -0.0653
  702MPD2    N110388   4.327   3.551  10.513  0.3345 -0.5575 -0.3277
  702MPD2    H710389   4.254   3.619  10.494  2.5108  1.7281 -0.4831
  703TMC3    C110390   4.596   4.065  10.201 -0.1235  0.6209  0.8564
  703TMC3    C210391   4.505   4.164  10.172  0.2151  0.2601 -0.5443
  703TMC3    C310392   4.547   4.274  10.105 -0.0840  0.3677 -0.5575
  703TMC3    C410393   0.006   4.068  10.164  0.0753  0.2372 -0.2084
  703TMC3    C510394   0.047   4.183  10.090  0.7831 -0.1020  0.3872
  703TMC3    C610395   4.674   4.280  10.063 -0.0664 -0.1854  0.0587
  703TMC3     C10396   4.540   3.948  10.263  0.1761  0.2550  0.0300
  703TMC3     O10397   4.420   3.938  10.242  0.7078 -0.2095  0.6955
  703TMC3     H10398   4.405   4.157  10.213  0.8218 -0.3923  0.8330
  703TMC3    H110399   0.075   3.994  10.203 -0.1407 -0.6051 -1.4311
  703TMC3    H210400   4.699   4.361   9.996  0.3548 -0.6746 -0.3815
  703TMC3    C710401   0.178   4.199  10.029  0.0074  1.0238  0.5065
  703TMC3    C810402   4.490   4.404  10.126  0.5163 -0.4721 -0.7233
  703TMC3    O110403   0.191   4.312   9.997 -0.3775 -0.9638  0.2442
  703TMC3    O210404   4.560   4.505  10.113  0.0532 -0.4468 -0.2623
  704TMC3    C110405   2.060   1.648  12.881 -0.0603  0.6301 -0.0656
  704TMC3    C210406   2.175   1.665  12.811  0.3224 -0.4105  0.1912
  704TMC3    C310407   2.289   1.604  12.852  0.0879 -0.4015 -0.6165
  704TMC3    C410408   2.045   1.562  12.982 -0.0169 -0.6237 -0.7257
  704TMC3    C510409   2.154   1.486  13.010 -0.4169  0.9567 -0.3419
  704TMC3    C610410   2.277   1.513  12.958  0.2116 -0.1571  0.3730
  704TMC3     C10411   1.948   1.607  12.798  0.5815  0.1702  0.4674
  704TMC3     O10412   1.859   1.546  12.853 -0.0026  0.4681 -0.3499
  704TMC3     H10413   2.192   1.743  12.737  0.8262  1.2998  2.1404
  704TMC3    H110414   1.962   1.552  13.051  0.5706  1.5293  0.2856
  704TMC3    H210415   2.358   1.449  12.990  1.2155  1.1271  0.4147
  704TMC3    C710416   2.127   1.342  13.001  0.2408 -0.0393  0.0991
  704TMC3    C810417   2.408   1.599  12.759 -0.0073  0.8517  0.1219
  704TMC3    O110418   2.217   1.264  12.985  0.6264  0.7406  0.9094
  704TMC3    O210419   2.416   1.692  12.677 -0.5069 -0.7180 -0.2377
  705MPD2     C10420   1.462   4.249  16.371 -0.2861 -0.0740  0.6263
  705MPD2    C110421   1.470   4.378  16.313  0.0191 -0.1006  0.8905
  705MPD2    C210422   1.348   4.447  16.300  0.1985  0.4361  0.0262
  705MPD2    C310423   1.225   4.387  16.328 -0.4986 -0.6170 -0.1056
  705MPD2    C410424   1.227   4.256  16.363 -0.1638 -0.2636  0.0806
  705MPD2    C510425   1.345   4.190  16.386  1.1267 -0.0736  0.8558
  705MPD2     H10426   1.354   4.551  16.269  0.4382  0.4283  0.0404
  705MPD2    H110427   1.133   4.203  16.351 -0.5267  0.5267 -0.6145
  705MPD2    H210428   1.551   4.193  16.394 -1.0872 -1.3198  0.6966
  705MPD2    H310429   1.328   4.092  16.430  0.4982  0.1449  1.0928
  705MPD2     N10430   1.103   4.452  16.311  0.1478  0.2418 -0.8081
  705MPD2    H510431   1.027   4.388  16.334  0.4952  0.5759  1.2550
  705MPD2    N110432   1.591   4.444  16.279  0.5188  0.0324  0.3385
  705MPD2    H710433   1.581   4.534  16.234  1.9784 -0.9594 -1.9835
  706TMC3    C110434   1.961   4.522  16.042 -0.6613 -0.1921 -0.3804
  706TMC3    C210435   1.950   4.655  16.060 -0.2663  0.3719 -0.1993
  706TMC3    C310436   1.877   4.708  16.162 -0.3002  0.6874 -0.3238
  706TMC3    C410437   1.904   4.436  16.133 -0.1822  0.4933  0.2477
  706TMC3    C510438   1.817   4.485  16.229 -0.4163  0.0699  0.7477
  706TMC3    C610439   1.806   4.626  16.248 -0.1057 -0.0791  0.4584
  706TMC3     C10440   2.072   4.473  15.964  0.2273  0.2238  0.5178
  706TMC3     O10441   2.170   4.546  15.955  0.0666  0.0002 -0.6011
  706TMC3     H10442   2.000   4.719  15.988 -0.4576 -1.1316 -1.6646
  706TMC3    H110443   1.928   4.330  16.135 -3.0847 -0.1374  0.7495
  706TMC3    H210444   1.741   4.660  16.328 -0.1767 -1.8678  1.1779
  706TMC3    C710445   1.723   4.395  16.279  0.1673 -0.3410 -0.8881
  706TMC3    C810446   1.842   0.122  16.152 -0.3510  0.5117 -0.3162
  706TMC3    O110447   1.761   4.283  16.305 -0.4523 -0.1331 -0.4951
  706TMC3    O210448   1.819   0.177  16.046  0.8833 -0.0103  0.5895
  707TMC3    C110449   3.464   3.166   1.303 -0.5712  0.0128 -0.4443
  707TMC3    C210450   3.520   3.086   1.401 -0.5695 -0.6709 -0.8264
  707TMC3    C310451   3.465   3.090   1.525  0.3043 -0.6374  0.3935
  707TMC3    C410452   3.384   3.276   1.331  0.7894  0.5635 -0.1730
  707TMC3    C510453   3.338   3.283   1.463  0.4101 -0.3354  0.1025
  707TMC3    C610454   3.368   3.186   1.553  0.2953 -0.1093  0.2673
  707TMC3     C10455   3.478   3.131   1.161 -0.5746 -0.3299 -0.3008
  707TMC3     O10456   3.558   3.043   1.128 -0.3358 -0.0166 -0.1901
  707TMC3     H10457   3.592   3.013   1.366 -0.8374 -1.1600 -0.3513
  707TMC3    H110458   3.381   3.354   1.256  1.4564  1.0611  0.3192
  707TMC3    H210459   3.322   3.170   1.650  0.7473  2.6087  0.9403
  707TMC3    C710460   3.251   3.382   1.512 -0.6487 -0.7408 -0.2132
  707TMC3    C810461   3.531   3.046   1.643 -0.3797 -0.0175  0.2724
  707TMC3    O110462   3.193   3.356   1.620  0.8535  0.5781  0.1131
  707TMC3    O210463   3.496   3.077   1.755  0.5904  0.0787 -0.1675
  708MPD2     C10464   4.496   3.463  13.681  0.0556 -0.3501 -0.0518
  708MPD2    C110465   4.503   3.365  13.586 -0.0592 -0.0152  0.7297
  708MPD2    C210466   4.615   3.283  13.573  0.4246 -0.0347  0.6422
  708MPD2    C310467   4.720   3.296  13.662 -0.1714  0.0839 -0.5552
  708MPD2    C410468   4.715   3.388  13.760 -0.5633  0.2265 -0.5281
  708MPD2    C510469   4.598   3.462  13.774  0.2545 -0.1320  0.6223
  708MPD2     H10470   4.608   3.195  13.510  0.2806  0.2849  0.2083
  708MPD2    H110471   0.067   3.394  13.837  2.1918 -1.0470 -3.1506
  708MPD2    H210472   4.406   3.519  13.702  0.9910  1.2187 -0.2093
  708MPD2    H310473   4.596   3.542  13.847  1.7231 -0.9448  1.5371
  708MPD2     N10474   0.096   3.194  13.672  0.2317  0.4285 -0.0043
  708MPD2    H510475   0.151   3.191  13.758  1.5254 -2.0461 -0.9005
  708MPD2    N110476   4.381   3.332  13.523 -0.0618 -0.3533 -0.7544
  708MPD2    H710477   4.298   3.373  13.566  0.0835  0.7129 -1.4967
  709TMC3    C110478   4.241   3.166  13.433 -0.0129  0.2351 -0.0228
  709TMC3    C210479   4.223   3.082  13.327 -0.2511 -0.4111 -0.8153
  709TMC3    C310480   4.196   2.946  13.349 -0.0751  0.2113 -0.3299
  709TMC3    C410481   4.229   3.112  13.563 -0.1974 -0.1443  0.3232
  709TMC3    C510482   4.205   2.978  13.579 -1.1081  0.3799  0.1259
  709TMC3    C610483   4.185   2.890  13.473  0.5090 -0.2825  0.3569
  709TMC3     C10484   4.367   3.234  13.431 -0.2403 -0.2629  0.0485
  709TMC3     O10485   4.450   3.190  13.350  0.9899 -0.0496 -0.0935
  709TMC3     H10486   4.239   3.128  13.230  0.0183 -0.8222 -0.9692
  709TMC3    H110487   4.254   3.156  13.658  1.4124  0.1895 -0.2640
  709TMC3    H210488   4.171   2.782  13.481  0.0517 -0.2748 -0.3789
  709TMC3    C710489   4.259   2.919  13.705 -0.5226  0.6789 -0.5558
  709TMC3    C810490   4.201   2.852  13.243  0.8626 -0.3973  0.4186
  709TMC3    O110491   4.341   2.980  13.776  0.0004 -0.0595 -0.0999
  709TMC3    O210492   4.167   2.738  13.260  0.2849 -0.1806  0.2458
  710TMC3    C110493   0.674   4.373   0.546 -0.7303  0.2212  0.1891
  710TMC3    C210494   0.766   4.358   0.444  0.7476 -0.5752  0.2917
  710TMC3    C310495   0.763   4.236   0.384  0.1268 -0.0575  0.1818
  710TMC3    C410496   0.606   4.266   0.600  0.0727 -0.6452  0.5291
  710TMC3    C510497   0.603   4.151   0.530  0.3748  0.2994  0.5187
  710TMC3    C610498   0.677   4.136   0.418 -0.0368  0.1436 -0.5018
  710TMC3     C10499   0.675   4.500   0.617  0.2940  0.6931  0.5578
  710TMC3     O10500   0.749   4.587   0.575 -0.4779  0.2644  0.3261
  710TMC3     H10501   0.829   4.437   0.406  0.0992 -1.5868 -2.9280
  710TMC3    H110502   0.548   4.279   0.691  0.0368  0.9764  0.2684
  710TMC3    H210503   0.670   4.042   0.365 -0.9126 -0.6776  1.0837
  710TMC3    C710504   0.532   4.038   0.580 -0.6685 -0.0227  0.1130
  710TMC3    C810505   0.868   4.213   0.291  0.8629  0.5178  0.1760
  710TMC3    O110506   0.583   3.928   0.554 -0.0676  0.0710  0.7630
  710TMC3    O210507   0.918   4.299   0.222 -0.1304 -0.7322 -0.2383
  711TMC3    C110508   0.785   0.747  14.969  0.6727  0.1085 -0.5466
  711TMC3    C210509   0.805   0.821  15.075 -0.4382  0.0420 -0.1584
  711TMC3    C310510   0.920   0.804  15.147 -0.4558  0.7708  0.5578
  711TMC3    C410511   0.872   0.645  14.923  0.2145  0.3524 -0.2530
  711TMC3    C510512   0.995   0.633  15.001 -0.8373  0.3322  0.1449
  711TMC3    C610513   1.026   0.718  15.105  0.4219 -0.3138 -0.7214
  711TMC3     C10514   0.650   0.696  14.959  0.6080 -0.7665 -0.7742
  711TMC3     O10515   0.609   0.628  14.868  0.2928 -0.2814  0.8714
  711TMC3     H10516   0.732   0.898  15.100  0.2236  0.5641  0.1678
  711TMC3    H110517   0.855   0.593  14.830 -0.2369 -0.0246  0.0386
  711TMC3    H210518   1.116   0.704  15.164 -1.6513  1.2198  2.8325
  711TMC3    C710519   1.041   0.498  15.035  0.0937 -0.2281 -0.1735
  711TMC3    C810520   0.906   0.852  15.281  0.1408  0.4758 -0.0407
  711TMC3    O110521   1.133   0.488  15.117 -0.1701 -0.3390 -0.0226
  711TMC3    O210522   0.795   0.883  15.321  0.3492  0.5529 -0.4257
  712MPD2     C10523   2.466   1.428  14.183  0.0843  0.6072  0.0462
  712MPD2    C110524   2.337   1.463  14.177 -0.5935 -0.2653 -0.6505
  712MPD2    C210525   2.303   1.586  14.130 -0.7973  0.6829  0.1023
  712MPD2    C310526   2.403   1.671  14.082 -0.0773  0.2022  0.2488
  712MPD2    C410527   2.531   1.632  14.083  0.2854  0.2299  0.1813
  712MPD2    C510528   2.567   1.513  14.137  0.0879  0.5881 -0.0305
  712MPD2     H10529   2.205   1.625  14.154 -1.1969  0.3511 -0.9621
  712MPD2    H110530   2.611   1.702  14.059  1.0211 -0.6668  0.0410
  712MPD2    H210531   2.492   1.330  14.222 -1.4806  0.0716 -0.2830
  712MPD2    H310532   2.668   1.476  14.141  0.2873  1.1408  0.0779
  712MPD2     N10533   2.381   1.792  14.006 -0.0224 -0.3198 -0.8665
  712MPD2    H510534   2.464   1.839  13.970  0.9374  0.2999  2.1979
  712MPD2    N110535   2.252   1.363  14.235 -0.4020 -0.0380 -0.5136
  712MPD2    H710536   2.301   1.280  14.265  1.2967  0.6837 -1.2824
  713TMC3    C110537   2.272   1.963  13.881 -0.5818 -0.3144 -0.5831
  713TMC3    C210538   2.396   2.017  13.844 -0.3393  0.0236 -0.5980
  713TMC3    C310539   2.389   2.133  13.776 -0.1427 -0.4248  0.8668
  713TMC3    C410540   2.158   2.032  13.861 -0.4006 -0.1984  0.3367
  713TMC3    C510541   2.171   2.153  13.800  0.0491  0.6425  0.2743
  713TMC3    C610542   2.282   2.207  13.756  0.0451 -0.2681  0.5328
  713TMC3     C10543   2.262   1.840  13.969 -0.4873  0.1154  0.8435
  713TMC3     O10544   2.151   1.790  13.993  0.2739  0.3563 -0.1526
  713TMC3     H10545   2.484   1.954  13.831 -1.9272 -2.2696 -0.3333
  713TMC3    H110546   2.058   2.001  13.889  0.0320 -1.1076  0.8436
  713TMC3    H210547   2.280   2.299  13.700  0.6659 -1.1909 -0.9991
  713TMC3    C710548   2.069   2.251  13.818 -0.1121  0.0926  0.1187
  713TMC3    C810549   2.496   2.174  13.696 -0.1017 -0.4510 -0.3535
  713TMC3    O110550   1.950   2.216  13.814  0.9573  0.2126 -0.6892
  713TMC3    O210551   2.470   2.243  13.596  0.1749  0.0137  0.0916
  714MPD2     C10552   3.966   0.172   1.247  0.3289  0.8784  0.1576
  714MPD2    C110553   3.931   0.035   1.252 -0.3521  0.0814 -1.1474
  714MPD2    C210554   3.844   4.702   1.168 -0.1372 -0.0601  0.2963
  714MPD2    C310555   3.774   0.062   1.083  0.1365  0.1478  0.8789
  714MPD2    C410556   3.799   0.202   1.088  0.0270 -0.2159 -0.1809
  714MPD2    C510557   3.888   0.249   1.165 -0.4834  0.4937 -0.3640
  714MPD2     H10558   3.830   4.595   1.174 -0.4943  0.1014  2.3458
  714MPD2    H110559   3.736   0.264   1.025 -0.6349  0.1209  0.8245
  714MPD2    H210560   4.051   0.224   1.289 -0.4244  0.7407  1.8474
  714MPD2    H310561   3.906   0.356   1.169 -1.8279  0.7898 -2.0995
  714MPD2     N10562   3.677   0.001   0.998  0.5853 -0.3069 -0.0384
  714MPD2    H510563   3.674   4.624   0.997  0.7138 -0.3061 -0.5247
  714MPD2    N110564   3.997   4.675   1.341 -0.5916  0.3961 -0.4804
  714MPD2    H710565   3.968   4.577   1.339 -2.0008  0.8328 -1.1267
  715TMC3    C110566   4.131   4.600   1.519  0.1366  0.2389 -0.0930
  715TMC3    C210567   4.137   4.470   1.470  0.2139 -0.3186  0.0465
  715TMC3    C310568   4.213   4.383   1.537 -1.0226 -0.4532 -0.2168
  715TMC3    C410569   4.184   4.627   1.639 -0.0438 -0.0238  0.0578
  715TMC3    C510570   4.231   4.523   1.711 -0.3711 -0.2499 -0.0600
  715TMC3    C610571   4.252   4.396   1.664 -0.4316 -0.5830  0.4732
  715TMC3     C10572   4.086   4.713   1.438 -0.6159  0.2123  0.4533
  715TMC3     O10573   4.136   0.095   1.471 -0.4033 -0.1703 -0.4919
  715TMC3     H10574   4.111   4.449   1.368  0.7550  2.8562 -0.7572
  715TMC3    H110575   4.174   0.002   1.681 -1.5388  1.1688 -3.1450
  715TMC3    H210576   4.335   4.339   1.705  0.2939 -0.3912 -0.7087
  715TMC3    C710577   4.245   4.546   1.848 -0.7295 -0.1322 -0.3239
  715TMC3    C810578   4.235   4.251   1.486 -0.0551 -0.3870 -1.0275
  715TMC3    O110579   4.280   4.655   1.882 -0.1930  0.1043  0.0174
  715TMC3    O210580   4.216   4.250   1.363 -0.3328  0.2583  0.4330
  716MPD2     C10581   4.384   3.189   9.757  0.2866 -0.0859  0.0518
  716MPD2    C110582   4.332   3.070   9.707 -0.6578 -0.2455  0.3539
  716MPD2    C210583   4.404   2.954   9.723  0.3929  0.1045 -0.3838
  716MPD2    C310584   4.527   2.958   9.788 -0.4409 -0.0589  0.5175
  716MPD2    C410585   4.575   3.075   9.835  0.6542 -0.4666 -0.1750
  716MPD2    C510586   4.501   3.186   9.828  0.4778 -0.3200  0.5369
  716MPD2     H10587   4.370   2.856   9.691  2.2387  0.1440 -2.4755
  716MPD2    H110588   4.667   3.075   9.892  0.0826  3.3743  0.6968
  716MPD2    H210589   4.321   3.275   9.739 -1.8732 -1.5319  0.7292
  716MPD2    H310590   4.539   3.272   9.882  1.7596 -0.2218 -0.5205
  716MPD2     N10591   4.601   2.844   9.783 -0.6700 -0.6420 -0.0762
  716MPD2    H510592   4.556   2.760   9.748  0.1219 -0.9540 -0.3552
  716MPD2    N110593   4.202   3.070   9.650  0.3690 -0.3565 -1.1237
  716MPD2    H710594   4.150   3.157   9.646  1.3005  0.2073 -1.0016
  717TMC3    C110595   0.060   2.713   9.752 -0.1995 -0.0036 -0.1805
  717TMC3    C210596   4.701   2.644   9.663  0.4845 -0.3269 -0.4635
  717TMC3    C310597   0.033   2.546   9.582  0.6730  0.8743  0.0116
  717TMC3    C410598   0.192   2.690   9.758  0.7160 -0.3630 -0.2032
  717TMC3    C510599   0.246   2.594   9.679 -0.0693  0.0712 -0.3423
  717TMC3    C610600   0.170   2.515   9.594  0.8137  0.2868  0.0521
  717TMC3     C10601   0.015   2.837   9.805  0.2394 -0.3477  0.3699
  717TMC3     O10602   0.097   2.905   9.867  0.1316 -0.0836  0.0205
  717TMC3     H10603   4.595   2.662   9.656  1.0565  2.7536 -1.3952
  717TMC3    H110604   0.242   2.731   9.845 -0.7497  0.2327  0.3411
  717TMC3    H210605   0.215   2.433   9.539 -2.0486 -2.1665  1.3060
  717TMC3    C710606   0.384   2.578   9.673  0.6487  0.2545 -0.4263
  717TMC3    C810607   4.659   2.459   9.509 -0.7883  0.0520  0.2350
  717TMC3    O110608   0.421   2.495   9.588 -0.3810  0.0281  0.2260
  717TMC3    O210609   4.548   2.513   9.490 -0.2659 -0.1502  0.7314
  718MPD2     C10610   3.295   2.294  12.880  0.0417  0.5438 -0.0224
  718MPD2    C110611   3.386   2.194  12.855  0.6873 -0.5287  0.1078
  718MPD2    C210612   3.464   2.156  12.960  0.2189  0.0000  0.1424
  718MPD2    C310613   3.456   2.213  13.086 -0.4721 -0.3884 -0.1113
  718MPD2    C410614   3.349   2.295  13.116 -0.4216  0.5207  0.4539
  718MPD2    C510615   3.269   2.339  13.010 -0.2007  0.3501  0.3306
  718MPD2     H10616   3.544   2.085  12.942  1.9301  1.0622  3.5002
  718MPD2    H110617   3.327   2.321  13.219 -0.6783 -0.5667  0.6735
  718MPD2    H210618   3.226   2.333  12.806 -0.7335 -0.5071  0.1519
  718MPD2    H310619   3.194   2.416  13.025  1.8739  2.7237 -1.4389
  718MPD2     N10620   3.550   2.161  13.173  0.1150  0.2263 -0.3894
  718MPD2    H510621   3.612   2.090  13.133  1.1519  1.4784 -1.0141
  718MPD2    N110622   3.399   2.118  12.738  0.0510  0.3346  0.0654
  718MPD2    H710623   3.446   2.029  12.751 -1.0082 -0.0361  1.3059
  719TMC3    C110624   3.392   2.060  12.515  0.4479  0.3776 -0.1629
  719TMC3    C210625   3.414   1.934  12.569  0.6347  0.0871  0.2368
  719TMC3    C310626   3.531   1.866  12.548  0.0117 -0.6425  0.5671
  719TMC3    C410627   3.486   2.104  12.432  0.7333  0.3388 -0.1468
  719TMC3    C510628   3.599   2.034  12.400  0.1948  0.2991 -0.4802
  719TMC3    C610629   3.620   1.915  12.459  0.8045 -0.1743 -0.0690
  719TMC3     C10630   3.352   2.160  12.612 -0.5218 -0.4087 -0.1016
  719TMC3     O10631   3.303   2.264  12.574 -0.7219  0.1297  0.2511
  719TMC3     H10632   3.346   1.896  12.645  2.1572 -1.5353  0.7856
  719TMC3    H110633   3.482   2.208  12.401 -0.3923  0.4528  0.3735
  719TMC3    H210634   3.714   1.863  12.444  1.9383  0.8884  3.2910
  719TMC3    C710635   3.707   2.108  12.333  0.6042 -0.1951  0.4460
  719TMC3    C810636   3.582   1.810  12.668  0.6467 -0.7547 -0.3905
  719TMC3    O110637   3.687   2.227  12.314  0.5293 -0.3490  0.3984
  719TMC3    O210638   3.513   1.825  12.767 -0.2303 -0.6703 -0.2223
  720MPD2     C10639   1.595   4.187  14.033  0.9278  0.2280 -0.1985
  720MPD2    C110640   1.597   4.115  13.914 -0.1350  0.1132 -0.2234
  720MPD2    C210641   1.670   3.992  13.909  0.3971  0.4330  0.2732
  720MPD2    C310642   1.729   3.944  14.023 -0.1257  0.4580 -0.0640
  720MPD2    C410643   1.699   4.000  14.143 -0.1746  0.2531  0.5596
  720MPD2    C510644   1.637   4.118  14.148  0.1720  0.4365 -0.0959
  720MPD2     H10645   1.676   3.938  13.816  0.3843  1.7671 -0.5021
  720MPD2    H110646   1.718   3.951  14.238  1.1863  1.4219  0.8932
  720MPD2    H210647   1.522   4.267  14.033 -0.9095 -1.4441 -0.0386
  720MPD2    H310648   1.603   4.148  14.246  0.4856 -0.7390  0.3751
  720MPD2     N10649   1.812   3.831  14.013  0.0976 -0.5042 -0.8182
  720MPD2    H510650   1.843   3.792  13.925  2.0983 -2.5367  0.8090
  720MPD2    N110651   1.558   4.182  13.794  0.3756  0.2791  0.6370
  720MPD2    H710652   1.515   4.273  13.812 -0.7086 -0.2745  0.8622
  721TMC3    C110653   1.978   3.666  14.088  0.6668  0.0909 -0.0288
  721TMC3    C210654   2.027   3.596  14.192 -0.5153 -0.1468 -0.5751
  721TMC3    C310655   2.127   3.505  14.166  0.2186  0.3015 -0.3221
  721TMC3    C410656   2.042   3.655  13.969  0.4381 -0.4060 -0.4502
  721TMC3    C510657   2.151   3.579  13.947  0.2278 -0.1020 -0.7188
  721TMC3    C610658   2.190   3.497  14.047 -0.2599 -0.8781 -0.0325
  721TMC3     C10659   1.885   3.780  14.115  0.5295 -0.0586 -0.7111
  721TMC3     O10660   1.888   3.820  14.231 -0.5642  0.2550 -0.7507
  721TMC3     H10661   1.986   3.621  14.289 -0.8874  0.0802 -0.7917
  721TMC3    H110662   1.999   3.716  13.890  1.7115  2.5149  1.1028
  721TMC3    H210663   2.279   3.434  14.041  1.0187  0.9063  0.0607
  721TMC3    C710664   2.246   3.609  13.846  0.7354 -0.3225  0.3274
  721TMC3    C810665   2.174   3.425  14.276  0.0469  0.7582 -0.1649
  721TMC3    O110666   2.357   3.558  13.863  0.5453 -0.0091  0.4774
  721TMC3    O210667   2.146   3.461  14.390  0.8026  0.0633 -0.4150
  722MPD2     C10668   1.143   2.319  13.422 -0.4644  0.2403  0.4036
  722MPD2    C110669   1.147   2.452  13.393  0.2012 -0.1246  0.1734
  722MPD2    C210670   1.084   2.507  13.284  0.6235 -0.7209  0.0546
  722MPD2    C310671   1.029   2.418  13.191 -0.1194 -0.2498  0.1170
  722MPD2    C410672   1.024   2.285  13.220 -0.1421  0.1440  0.3553
  722MPD2    C510673   1.077   2.233  13.334  0.2438  0.9029 -0.3736
  722MPD2     H10674   1.089   2.613  13.261  1.9898 -0.3905  1.8667
  722MPD2    H110675   0.991   2.217  13.142  1.7666 -0.4312  0.0630
  722MPD2    H210676   1.188   2.277  13.511  1.4553  0.6630 -0.3450
  722MPD2    H310677   1.089   2.125  13.342 -2.1821  0.6285 -0.6024
  722MPD2     N10678   0.967   2.475  13.075  0.7529  0.2798 -0.2648
  722MPD2    H510679   0.942   2.573  13.089 -0.2647  0.0564 -0.5507
  722MPD2    N110680   1.232   2.543  13.461 -0.7675 -0.3680  0.3483
  722MPD2    H710681   1.234   2.638  13.423 -0.8293 -1.2072 -1.7876
  723TMC3    C110682   0.817   2.478  12.879  0.2537  0.1143 -0.0114
  723TMC3    C210683   0.771   2.402  12.775  0.2893  0.2551 -0.7035
  723TMC3    C310684   0.684   2.464  12.681 -0.2852 -0.0296  0.2409
  723TMC3    C410685   0.774   2.606  12.893 -0.0447  0.1081 -0.3848
  723TMC3    C510686   0.690   2.657  12.798 -0.4803  0.5926  0.1402
  723TMC3    C610687   0.640   2.590  12.688 -0.2002  0.0807  0.3364
  723TMC3     C10688   0.917   2.407  12.966  0.3571  0.9228 -0.0415
  723TMC3     O10689   0.927   2.285  12.942  0.2774 -0.4686 -0.9146
  723TMC3     H10690   0.819   2.308  12.751 -1.3152 -0.5918 -0.5572
  723TMC3    H110691   0.814   2.669  12.972 -1.7260 -0.3801  0.8670
  723TMC3    H210692   0.564   2.636  12.626 -0.2448  0.4082  0.6353
  723TMC3    C710693   0.618   2.772  12.848 -0.0578  0.3339 -0.5809
  723TMC3    C810694   0.581   2.381  12.627  0.2751 -0.0739 -0.4005
  723TMC3    O110695   0.598   2.781  12.966  0.4918 -0.4681 -0.2032
  723TMC3    O210696   0.503   2.418  12.537  0.1936  0.8350 -0.0222
  724TMC3    C110697   1.381   1.623   8.980  0.4990 -0.1104 -0.5611
  724TMC3    C210698   1.371   1.491   8.931  0.5877  0.0125  0.4377
  724TMC3    C310699   1.482   1.410   8.944 -0.2716  0.5892 -0.0197
  724TMC3    C410700   1.496   1.665   9.040 -0.0131  0.0183 -0.0100
  724TMC3    C510701   1.604   1.582   9.038 -0.1148  0.8036  0.5250
  724TMC3    C610702   1.601   1.456   8.982 -0.3319  0.7404 -0.2864
  724TMC3     C10703   1.262   1.701   8.976 -0.9422 -0.0232  0.5527
  724TMC3     O10704   1.161   1.656   8.926  0.0467 -0.5522 -0.2685
  724TMC3     H10705   1.272   1.448   8.925  0.5829 -0.1685  1.6933
  724TMC3    H110706   1.495   1.761   9.091 -0.8414  0.8683 -1.5888
  724TMC3    H210707   1.694   1.403   8.967 -0.6855 -0.0925  0.4360
  724TMC3    C710708   1.728   1.611   9.117  0.3273  0.2204  0.2499
  724TMC3    C810709   1.457   1.288   9.012  0.4951 -0.3378 -0.1727
  724TMC3    O110710   1.804   1.517   9.142 -0.0999  0.9218  0.2446
  724TMC3    O210711   1.355   1.233   8.986 -0.1150 -0.3654  0.3480
  725TMC3    C110712   2.566   4.135  13.005  0.3349  0.1000  0.0769
  725TMC3    C210713   2.461   4.192  12.939  0.2472  0.1793  0.1918
  725TMC3    C310714   2.352   4.118  12.907 -0.0543 -0.1259  0.0805
  725TMC3    C410715   2.558   4.005  13.057 -0.6888 -0.3116 -0.5383
  725TMC3    C510716   2.443   3.934  13.023 -0.3653  0.0737 -0.3971
  725TMC3    C610717   2.335   3.991  12.954 -0.5536 -0.0429  0.0166
  725TMC3     C10718   2.672   4.218  13.036  0.1405 -0.2180 -1.1011
  725TMC3     O10719   2.659   4.331  13.002  0.0991 -0.1658  0.3921
  725TMC3     H10720   2.456   4.297  12.913  2.3676  0.0959 -0.5599
  725TMC3    H110721   2.623   3.964  13.133  0.6119  3.7974  0.5436
  725TMC3    H210722   2.244   3.938  12.927 -0.7255 -0.1634  0.8402
  725TMC3    C710723   2.464   3.789  13.018 -0.0796  0.7039 -0.5006
  725TMC3    C810724   2.272   4.141  12.793  0.9772  0.1417 -0.0037
  725TMC3    O110725   2.583   3.759  13.022  0.0771 -0.5013  0.4844
  725TMC3    O210726   2.157   4.094  12.801  0.9834  0.0032 -0.0580
  726MPD2     C10727   1.312   1.167  10.352  0.2248  0.2410  0.2324
  726MPD2    C110728   1.217   1.151  10.247 -0.3672 -0.2252 -0.3939
  726MPD2    C210729   1.153   1.027  10.246 -0.0624  0.3225  0.6751
  726MPD2    C310730   1.145   0.939  10.355  1.2749  0.5743 -0.7569
  726MPD2    C410731   1.233   0.967  10.457  0.5143 -0.3586  0.1101
  726MPD2    C510732   1.321   1.073  10.449 -0.1955  0.2101  0.4700
  726MPD2     H10733   1.088   1.013  10.160  1.0423 -1.6538  0.1774
  726MPD2    H110734   1.238   0.903  10.544  1.2156  1.2383  1.2437
  726MPD2    H210735   1.379   1.252  10.363  0.2117 -0.0213  2.3337
  726MPD2    H310736   1.399   1.089  10.523 -0.1453  1.2613  0.1801
  726MPD2     N10737   1.046   0.832  10.372  0.0369  0.0586  0.1834
  726MPD2    H510738   1.048   0.786  10.463 -0.7459 -0.2665  0.0399
  726MPD2    N110739   1.171   1.248  10.151  0.3000  0.3553 -0.3544
  726MPD2    H710740   1.109   1.219  10.075 -0.3149  0.6096  0.0501
  727TMC3    C110741   1.142   1.484  10.092 -0.7164  1.2208  0.4211
  727TMC3    C210742   1.156   1.609  10.146  0.4352 -0.2556  0.4492
  727TMC3    C310743   1.080   1.713  10.103  0.0236 -0.0153 -0.1157
  727TMC3    C410744   1.050   1.459   9.988  0.0241 -0.5786  0.1190
  727TMC3    C510745   0.973   1.564   9.941 -0.4027  0.2380  0.9788
  727TMC3    C610746   0.997   1.689   9.993 -0.8493 -0.5097 -0.1503
  727TMC3     C10747   1.221   1.379  10.163 -0.0957 -0.5878 -0.4681
  727TMC3     O10748   1.304   1.424  10.242 -0.0112  0.0252  0.4874
  727TMC3     H10749   1.227   1.624  10.227 -0.7785 -1.1707  1.6777
  727TMC3    H110750   1.037   1.359   9.948  2.2242 -0.7451 -0.1749
  727TMC3    H210751   0.958   1.780   9.948  1.0116  0.5732  0.3930
  727TMC3    C710752   0.849   1.528   9.869 -0.2001 -0.4776  0.2050
  727TMC3    C810753   1.151   1.835  10.102  0.0879  0.6272 -0.0074
  727TMC3    O110754   0.845   1.421   9.810  0.0284 -0.3432  0.3177
  727TMC3    O210755   1.269   1.828  10.070 -0.3793  0.3526 -0.5966
  728TMC3    C110756   0.303   3.984  15.618 -0.1325  0.0557 -0.1441
  728TMC3    C210757   0.375   4.093  15.638 -0.1389  0.0107 -0.6108
  728TMC3    C310758   0.455   4.150  15.531 -0.5471 -0.9691 -0.1627
  728TMC3    C410759   0.301   3.922  15.485  0.8321  0.0741 -0.2134
  728TMC3    C510760   0.379   3.985  15.385 -0.1468 -0.5875  0.0943
  728TMC3    C610761   0.448   4.097  15.410 -0.4914  0.4590 -0.5025
  728TMC3     C10762   0.184   3.979  15.701  0.1995 -0.0135  0.1871
  728TMC3     O10763   0.162   4.070  15.781 -0.5883 -0.4489 -0.0513
  728TMC3     H10764   0.382   4.122  15.742 -1.3993 -1.7009 -0.0579
  728TMC3    H110765   0.240   3.834  15.467  0.4838 -0.0423  1.4900
  728TMC3    H210766   0.510   4.133  15.329  0.1963  2.2629  0.8093
  728TMC3    C710767   0.315   3.979  15.258 -0.1691  0.4314  0.4063
  728TMC3    C810768   0.477   4.290  15.538  0.5038 -0.5136  0.5431
  728TMC3    O110769   0.274   3.869  15.221  0.4104 -0.6441  0.1934
  728TMC3    O210770   0.541   4.326  15.437 -0.6276  0.1945  0.2836
  729MPD2     C10771   2.251   4.455  16.260  0.0746 -0.0055 -0.8711
  729MPD2    C110772   2.208   4.589  16.274  0.5727 -0.9857  0.6457
  729MPD2    C210773   2.111   4.614  16.365 -0.0017  0.1632 -0.2031
  729MPD2    C310774   2.061   4.518  16.453 -0.3409  0.5713  0.7898
  729MPD2    C410775   2.108   4.389  16.434 -0.7144  0.0283  0.1353
  729MPD2    C510776   2.200   4.360  16.340 -0.0545 -0.2153 -0.0654
  729MPD2     H10777   2.074   4.715  16.377  1.1732  1.1097 -4.4850
  729MPD2    H110778   2.070   4.314  16.501 -1.3670 -1.1830 -1.5967
  729MPD2    H210779   2.323   4.431  16.183 -1.1923 -0.2821 -1.9483
  729MPD2    H310780   2.234   4.260  16.316  1.7816  0.9522 -2.3329
  729MPD2     N10781   1.990   4.547  16.567  0.1986 -0.3125 -0.1791
  729MPD2    H510782   1.974   4.459  16.616 -2.1113 -0.3410 -0.9618
  729MPD2    N110783   2.278   4.686  16.195  0.3501 -0.2799 -0.2183
  729MPD2    H710784   2.354   4.654  16.135 -0.3074  1.0856 -1.7938
  730TMC3    C110785   1.981   4.699  16.742 -0.0056  0.7466  0.1346
  730TMC3    C210786   2.068   4.617  16.814 -0.1091  0.7819  0.2832
  730TMC3    C310787   2.146   4.680  16.908  0.0937 -0.2477  0.3122
  730TMC3    C410788   1.953   0.110  16.772  0.2012 -0.2236 -0.0265
  730TMC3    C510789   2.018   0.155  16.881 -0.6314  0.1392  0.0707
  730TMC3    C610790   2.130   0.092  16.937 -0.2213  0.5869 -0.5619
  730TMC3     C10791   1.938   4.666  16.605 -0.5191  0.4767  0.1147
  730TMC3     O10792   1.919   0.038  16.529  0.4772  0.2648 -0.1643
  730TMC3     H10793   2.075   4.510  16.797  2.8726  1.3799 -2.1920
  730TMC3    H110794   1.878   0.167  16.718  1.1243  0.6849 -0.3471
  730TMC3    H210795   2.184   0.146  17.014  0.1454  0.2891 -0.6099
  730TMC3    C710796   2.003   0.298  16.907 -0.1985  0.5027  0.4765
  730TMC3    C810797   2.285   4.644  16.879  0.0747 -0.5932 -0.1683
  730TMC3    O110798   1.960   0.364  16.814 -0.3017  0.0951 -0.4575
  730TMC3    O210799   2.313   4.528  16.842  0.4296 -0.3452 -0.8305
  731MPD2     C10800   1.655   2.774  12.352  0.4895 -0.1427 -0.7941
  731MPD2    C110801   1.782   2.742  12.342  0.4879 -0.2972  0.0013
  731MPD2    C210802   1.852   2.704  12.459  0.0999  0.1042  0.1785
  731MPD2    C310803   1.785   2.695  12.583 -0.0206 -0.5241 -0.1113
  731MPD2    C410804   1.645   2.709  12.583 -1.2343  0.2003  0.1434
  731MPD2    C510805   1.589   2.744  12.464 -0.2845  0.1078  0.4801
  731MPD2     H10806   1.952   2.662  12.461  0.6759  1.4880  0.4540
  731MPD2    H110807   1.579   2.710  12.668  0.4990  1.7444  1.4691
  731MPD2    H210808   1.597   2.813  12.269 -0.0309  0.6215 -0.0718
  731MPD2    H310809   1.481   2.755  12.456 -0.0202  1.7196 -0.7084
  731MPD2     N10810   1.856   2.665  12.699 -0.7301 -0.4356  0.4524
  731MPD2    H510811   1.957   2.665  12.693 -1.0293  0.0736 -4.4843
  731MPD2    N110812   1.846   2.766  12.213 -0.2819 -0.5524 -0.1823
  731MPD2    H710813   1.781   2.777  12.136  1.3479 -1.5359 -1.7249
  732TMC3    C110814   2.009   2.754  12.038  0.1405 -0.3014  0.8896
  732TMC3    C210815   1.910   2.817  11.960 -0.3334  0.8322  0.3751
  732TMC3    C310816   1.967   2.877  11.847  0.1134  0.0086  0.0239
  732TMC3    C410817   2.142   2.761  12.003  0.7226 -0.2533  0.0310
  732TMC3    C510818   2.186   2.821  11.885 -0.5930 -0.9788 -0.0119
  732TMC3    C610819   2.097   2.870  11.800 -0.0153 -0.2913  1.4227
  732TMC3     C10820   1.984   2.751  12.182 -0.3555 -0.8402 -0.2202
  732TMC3     O10821   2.076   2.741  12.264  0.3478  0.6847  0.6784
  732TMC3     H10822   1.806   2.822  11.987 -0.4191  0.9515  0.0246
  732TMC3    H110823   2.216   2.718  12.070 -0.3551 -1.3957  0.4787
  732TMC3    H210824   2.124   2.937  11.719 -0.2962 -1.4298  0.3916
  732TMC3    C710825   2.318   2.864  11.871  0.6377  0.3629 -0.5498
  732TMC3    C810826   1.874   2.943  11.746 -0.2764 -0.3371 -0.5185
  732TMC3    O110827   2.351   2.891  11.754  0.5689 -0.1810  0.1088
  732TMC3    O210828   1.919   2.959  11.632 -0.1641  0.1905 -0.1627
  733TMC3    C110829   3.736   1.985  13.526  0.4088 -0.3310 -0.1412
  733TMC3    C210830   3.672   2.099  13.490  0.3203  0.9552  0.0348
  733TMC3    C310831   3.688   2.143  13.366 -0.6950  0.1564  0.4643
  733TMC3    C410832   3.822   1.918  13.455 -0.5730  0.8055 -0.1707
  733TMC3    C510833   3.850   1.976  13.333  0.2183 -0.7830 -0.7099
  733TMC3    C610834   3.767   2.075  13.280 -0.0190  0.2605 -0.2346
  733TMC3     C10835   3.628   1.907  13.584  0.0834 -0.9836  0.1479
  733TMC3     O10836   3.552   1.953  13.669 -0.6412 -0.2625  0.1931
  733TMC3     H10837   3.607   2.145  13.564 -1.1273 -0.6428 -0.2459
  733TMC3    H110838   3.865   1.822  13.483 -1.6280 -0.1931 -2.0393
  733TMC3    H210839   3.801   2.116  13.186 -0.1542  0.9058 -0.0062
  733TMC3    C710840   3.919   1.895  13.236 -0.0914 -0.3660 -0.3875
  733TMC3    C810841   3.569   2.200  13.306  0.0762  0.6832 -0.5622
  733TMC3    O110842   4.009   1.827  13.274 -1.0075  0.0648 -0.3536
  733TMC3    O210843   3.491   2.269  13.373 -0.0580  0.0182  0.8145
  734MPD2     C10844   0.413   4.667  12.201  0.1451  0.1698 -0.7121
  734MPD2    C110845   0.494   4.563  12.218  0.2398  0.9080 -0.8553
  734MPD2    C210846   0.620   4.557  12.161  0.2500  0.2222  0.1036
  734MPD2    C310847   0.656   4.660  12.080  0.3600 -0.4127 -0.1558
  734MPD2    C410848   0.567   0.042  12.054 -0.1813  0.4547  0.1125
  734MPD2    C510849   0.444   0.044  12.119  0.1198  0.4372 -0.7486
  734MPD2     H10850   0.683   4.470  12.176  0.4735  0.6145  1.4726
  734MPD2    H110851   0.582   0.121  11.981 -0.1683 -0.7238 -1.1634
  734MPD2    H210852   0.313   4.679  12.242  1.4910 -0.2902  2.7136
  734MPD2    H310853   0.374   0.125  12.101 -2.0684 -0.8607  2.0159
  734MPD2     N10854   0.772   4.640  11.996  0.1731 -0.0885  0.6144
  734MPD2    H510855   0.825   4.555  12.011 -0.1557 -0.2862  0.6504
  734MPD2    N110856   0.443   4.446  12.282  0.4584  0.6476  0.0871
  734MPD2    H710857   0.345   4.430  12.265  0.8246 -0.7573 -0.7058
  735TMC3    C110858   0.439   4.209  12.326  0.4607 -0.3256  0.8042
  735TMC3    C210859   0.342   4.201  12.230 -0.7024 -0.7930  0.0268
  735TMC3    C310860   0.310   4.078  12.173 -0.0779 -0.3312 -0.3241
  735TMC3    C410861   0.503   4.098  12.368  0.2881  0.2195 -0.7633
  735TMC3    C510862   0.472   3.980  12.309 -0.2211 -0.3901 -0.0086
  735TMC3    C610863   0.374   3.967  12.214 -0.0821  0.0186 -0.8566
  735TMC3     C10864   0.514   4.334  12.321 -0.5021  0.3659 -0.5029
  735TMC3     O10865   0.633   4.329  12.352 -0.2263  0.2556 -0.3036
  735TMC3     H10866   0.306   4.282  12.168  1.2683 -0.7859 -1.1028
  735TMC3    H110867   0.582   4.093  12.442 -0.3750  0.0218 -0.0622
  735TMC3    H210868   0.357   3.878  12.154 -3.0834  0.5367 -0.7812
  735TMC3    C710869   0.595   3.936  12.242  0.5828  0.0123  0.3438
  735TMC3    C810870   0.310   4.082  12.028 -0.2874 -0.4568 -0.0863
  735TMC3    O110871   0.667   4.020  12.192 -0.0874 -0.1888  0.2715
  735TMC3    O210872   0.209   4.041  11.967 -0.3540  0.1655  0.5986
  736MPD2     C10873   0.621   3.589  12.143 -0.3635  0.3797 -0.0636
  736MPD2    C110874   0.657   3.721  12.144 -0.1178 -0.1139 -0.1871
  736MPD2    C210875   0.767   3.769  12.080  0.1784 -0.3297  0.1288
  736MPD2    C310876   0.834   3.689  11.994  0.1255  0.6414 -0.5222
  736MPD2    C410877   0.797   3.553  11.987 -0.3905 -0.5141 -0.4725
  736MPD2    C510878   0.700   3.507  12.069  0.1524  0.3241  0.1291
  736MPD2     H10879   0.802   3.870  12.094 -1.7903  0.0650  2.2316
  736MPD2    H110880   0.850   3.470  11.943  1.6378 -0.8434  2.5477
  736MPD2    H210881   0.533   3.552  12.196 -0.4927 -1.2853 -1.4349
  736MPD2    H310882   0.681   3.400  12.076  0.7993  0.3027  1.6741
  736MPD2     N10883   0.943   3.730  11.915  0.2095 -0.2756  0.0280
  736MPD2    H510884   0.998   3.658  11.870  0.2590 -0.4003  0.2866
  736MPD2    N110885   0.577   3.801  12.228 -0.1851 -0.3050 -1.1356
  736MPD2    H710886   0.502   3.755  12.279  2.2841 -2.5646  0.4519
  737TMC3    C110887   1.103   3.882  11.820 -0.1059 -0.1861  0.4129
  737TMC3    C210888   1.116   4.009  11.772 -0.4337 -0.6601 -0.0835
  737TMC3    C310889   1.215   4.029  11.680 -0.2150  0.3178  0.1364
  737TMC3    C410890   1.180   3.775  11.779  0.1180  0.2803 -0.0072
  737TMC3    C510891   1.283   3.800  11.689  0.4856  0.1769  0.6018
  737TMC3    C610892   1.298   3.926  11.633 -0.3298  0.6385 -0.2540
  737TMC3     C10893   0.991   3.856  11.915 -0.3891 -0.1656 -0.1311
  737TMC3     O10894   0.935   3.956  11.947  0.6677  0.1327  0.6181
  737TMC3     H10895   1.046   4.086  11.803  0.3692  0.1683 -0.3484
  737TMC3    H110896   1.171   3.676  11.822 -2.8925  0.2522 -0.7040
  737TMC3    H210897   1.356   3.948  11.545  0.4211 -0.5168 -0.0459
  737TMC3    C710898   1.367   3.689  11.651 -0.5931  0.3273  0.0136
  737TMC3    C810899   1.212   4.159  11.608  1.2769  0.2504 -0.6324
  737TMC3    O110900   1.335   3.585  11.706 -0.4977  0.5540  0.0449
  737TMC3    O210901   1.163   4.251  11.670 -0.0633  0.3442 -0.0604
  738MPD2     C10902   1.234   2.706  14.869  0.0708 -0.5535 -0.2290
  738MPD2    C110903   1.256   2.621  14.972  0.6457 -0.3574 -0.1601
  738MPD2    C210904   1.359   2.649  15.054 -0.4507  0.1248  0.3991
  738MPD2    C310905   1.463   2.739  15.021 -0.2843 -0.6108  0.2864
  738MPD2    C410906   1.431   2.824  14.919  0.3646 -0.2204  0.3795
  738MPD2    C510907   1.324   2.809  14.843  0.5247  0.4576 -0.1678
  738MPD2     H10908   1.371   2.581  15.137  1.2395  1.2640  1.0919
  738MPD2    H110909   1.503   2.904  14.904  0.4291 -0.4086 -0.3305
  738MPD2    H210910   1.138   2.708  14.819  0.5431 -0.7081 -1.1510
  738MPD2    H310911   1.289   2.879  14.768  0.1998 -0.5458 -0.9589
  738MPD2     N10912   1.580   2.764  15.097  0.9090  0.3349  0.9233
  738MPD2    H510913   1.655   2.819  15.055  1.0417 -1.2283 -0.8317
  738MPD2    N110914   1.166   2.518  15.010 -0.6650 -0.0422  0.3963
  738MPD2    H710915   1.201   2.466  15.090  0.2828 -0.3854 -0.2533
  739TMC3    C110916   1.729   2.777  15.259  0.5197 -0.5583  0.3290
  739TMC3    C210917   1.754   2.891  15.204  0.1582 -0.6110  0.0200
  739TMC3    C310918   1.878   2.930  15.167 -0.0418 -0.4578  0.0457
  739TMC3    C410919   1.832   2.688  15.283  0.4384 -0.3001 -0.5296
  739TMC3    C510920   1.956   2.730  15.252 -1.0051  0.0273 -0.4076
  739TMC3    C610921   1.986   2.845  15.187  0.6759 -0.2844 -0.2401
  739TMC3     C10922   1.610   2.717  15.223 -0.1509 -0.1575 -0.1154
  739TMC3     O10923   1.550   2.653  15.304 -0.2290 -0.3601  0.0784
  739TMC3     H10924   1.678   2.967  15.192 -0.7278 -1.6361 -0.9007
  739TMC3    H110925   1.820   2.591  15.330 -0.1634 -0.4379 -0.9575
  739TMC3    H210926   2.084   2.873  15.148  0.4077  0.2466 -0.5283
  739TMC3    C710927   2.070   2.648  15.292  0.0149 -0.6916  1.0027
  739TMC3    C810928   1.869   2.993  15.038 -0.4853 -0.1844 -0.8786
  739TMC3    O110929   2.159   2.637  15.206  0.3772  0.0435  0.0145
  739TMC3    O210930   1.769   2.966  14.970  0.1396 -0.2760 -0.3117
  740TMC3    C110931   2.019   4.226  14.147  0.0931  0.2459 -0.3064
  740TMC3    C210932   2.113   4.154  14.215  0.4102  0.1025  0.2093
  740TMC3    C310933   2.169   4.041  14.159 -0.2888 -0.1944 -0.1197
  740TMC3    C410934   1.989   4.195  14.017  0.4011  0.0114  0.0563
  740TMC3    C510935   2.053   4.088  13.959  0.4892  0.0375 -0.2185
  740TMC3    C610936   2.150   4.011  14.027  0.5582 -0.2211 -0.1674
  740TMC3     C10937   1.931   4.315  14.224  0.4865 -1.0015 -0.0758
  740TMC3     O10938   1.874   4.394  14.147  0.1171 -1.1475  0.3251
  740TMC3     H10939   2.141   4.201  14.308  3.7676 -2.3759  0.4451
  740TMC3    H110940   1.903   4.245  13.972  1.1057  0.0608 -1.2272
  740TMC3    H210941   2.187   3.924  13.973 -0.1198  0.6261 -1.9606
  740TMC3    C710942   2.005   4.028  13.839 -0.0722 -0.3103 -0.8365
  740TMC3    C810943   2.253   3.970  14.245  0.0665  0.0430 -0.0179
  740TMC3    O110944   2.045   3.911  13.814  0.4446  0.7341  0.2710
  740TMC3    O210945   2.259   3.993  14.365  0.1507 -0.2610  0.2112
  741TMC3    C110946   1.637   3.420  14.465 -0.5691 -0.2615 -0.1149
  741TMC3    C210947   1.603   3.293  14.429  0.5075  0.3869 -0.5712
  741TMC3    C310948   1.601   3.190  14.522 -0.1376  0.2803 -0.2199
  741TMC3    C410949   1.691   3.446  14.582  0.5893 -0.8696 -0.0694
  741TMC3    C510950   1.691   3.346  14.674 -0.0032 -0.7642  0.7939
  741TMC3    C610951   1.645   3.216  14.653 -0.7257 -0.7729 -0.3633
  741TMC3     C10952   1.607   3.534  14.385 -0.6077 -0.1431  0.0499
  741TMC3     O10953   1.575   3.639  14.438 -0.0398  0.0473  0.8213
  741TMC3     H10954   1.546   3.282  14.338 -1.8132 -0.9791  1.0320
  741TMC3    H110955   1.707   3.552  14.597  0.3239 -0.6381 -1.4423
  741TMC3    H210956   1.654   3.141  14.731  2.4102 -0.8368 -0.7851
  741TMC3    C710957   1.734   3.395  14.806 -0.0039  0.1580 -0.1621
  741TMC3    C810958   1.500   3.080  14.498 -0.2593  0.2947 -0.3698
  741TMC3    O110959   1.788   3.500  14.806  0.1882 -0.0457 -0.0400
  741TMC3    O210960   1.442   3.088  14.390  0.4331 -0.4234  0.4860
  742TMC3    C110961   1.546   1.594  15.437  0.6590  0.1815 -0.3569
  742TMC3    C210962   1.441   1.588  15.352 -0.5078  0.1722  0.5669
  742TMC3    C310963   1.463   1.662  15.239  1.1004 -0.0029 -0.6433
  742TMC3    C410964   1.676   1.641  15.411 -0.5092  0.0907  0.5810
  742TMC3    C510965   1.697   1.692  15.287 -0.0146 -0.4229 -0.6698
  742TMC3    C610966   1.592   1.708  15.204 -0.4852 -0.4317 -0.0618
  742TMC3     C10967   1.534   1.518  15.565 -0.3694  0.3338 -0.0060
  742TMC3     O10968   1.613   1.546  15.653  0.3690  0.3671 -0.0706
  742TMC3     H10969   1.339   1.564  15.381 -0.6370  1.3979  1.1127
  742TMC3    H110970   1.757   1.613  15.478  0.7885  1.9889 -0.1958
  742TMC3    H210971   1.606   1.757  15.109 -1.4393  0.0080  0.0160
  742TMC3    C710972   1.822   1.689  15.217 -0.5289 -0.2885  0.5332
  742TMC3    C810973   1.367   1.649  15.131 -0.5951  1.2458  0.4923
  742TMC3    O110974   1.821   1.684  15.095 -0.2618 -0.3764 -0.3938
  742TMC3    O210975   1.405   1.682  15.016  0.1058  0.5076 -0.2975
  743MPD2     C10976   4.560   2.690   2.021 -0.3193  0.4598  0.2103
  743MPD2    C110977   4.593   2.676   1.888  0.0990  0.7004 -0.3020
  743MPD2    C210978   4.717   2.719   1.847  0.4100  0.2379 -0.7241
  743MPD2    C310979   0.081   2.788   1.931  0.4981 -0.4826  0.2073
  743MPD2    C410980   0.050   2.800   2.065 -0.0729  0.2431 -0.1497
  743MPD2    C510981   4.656   2.742   2.115  0.7516  0.3389 -0.2320
  743MPD2     H10982   0.023   2.704   1.744  1.4447  0.8104 -0.5038
  743MPD2    H110983   0.114   2.854   2.133 -1.8328 -3.1140  4.1536
  743MPD2    H210984   4.476   2.637   2.063 -0.6816  1.2493  0.4622
  743MPD2    H310985   4.657   2.728   2.222 -2.3404 -1.1480 -0.3749
  743MPD2     N10986   0.202   2.845   1.881 -0.5674  0.0198 -0.5622
  743MPD2    H510987   0.280   2.864   1.943 -0.7947 -5.0377  1.3121
  743MPD2    N110988   4.493   2.623   1.802 -0.0195 -0.6384 -0.0440
  743MPD2    H710989   4.406   2.587   1.840 -0.1204 -1.0212 -0.6364
  744TMC3    C110990   4.397   2.545   1.605 -0.9790  0.2754 -0.2606
  744TMC3    C210991   4.276   2.600   1.647  1.0180  0.0605 -0.5340
  744TMC3    C310992   4.170   2.580   1.561 -0.1001 -0.3052  0.7580
  744TMC3    C410993   4.420   2.485   1.484 -0.2262  0.4364  0.4253
  744TMC3    C510994   4.311   2.469   1.405 -1.2132 -0.4849  0.7106
  744TMC3    C610995   4.182   2.515   1.435 -0.1372  0.4263 -0.0473
  744TMC3     C10996   4.517   2.598   1.666  0.0342 -0.1648  1.2076
  744TMC3     O10997   4.613   2.615   1.592 -0.0875 -0.2309  0.2390
  744TMC3     H10998   4.269   2.659   1.738 -1.3549  2.0426 -2.0218
  744TMC3    H110999   4.515   2.443   1.454 -1.4736 -1.1617 -1.2794
  744TMC3    H211000   4.098   2.497   1.368 -1.8147  0.7183  1.9980
  744TMC3    C711001   4.327   2.442   1.259  0.2141  0.6268 -0.6682
  744TMC3    C811002   4.039   2.630   1.597 -0.3271 -0.2292  0.3822
  744TMC3    O111003   4.225   2.406   1.202 -0.2879 -0.3127 -0.1442
  744TMC3    O211004   3.965   2.636   1.501  0.3542 -0.5105  0.4851
  745TMC3    C111005   2.037   1.418  14.145  1.3223  0.5413  0.5319
  745TMC3    C211006   1.912   1.449  14.187  0.7423 -0.6618  0.3963
  745TMC3    C311007   1.829   1.513  14.096  0.0431 -1.2352 -0.2550
  745TMC3    C411008   2.075   1.421  14.012 -0.2338  0.6555 -0.1863
  745TMC3    C511009   1.990   1.486  13.935  0.5126  0.2028 -0.1774
  745TMC3    C611010   1.863   1.525  13.962 -0.3094  0.1485 -0.1018
  745TMC3     C11011   2.120   1.349  14.246  0.4609  0.6089 -0.0110
  745TMC3     O11012   2.062   1.266  14.318 -0.5372 -0.0570  0.3137
  745TMC3     H11013   1.895   1.447  14.294  1.6908 -0.6283  0.5449
  745TMC3    H111014   2.177   1.394  13.985 -0.4540 -1.6373  1.2810
  745TMC3    H211015   1.799   1.583  13.897  0.5312  0.8170 -0.3382
  745TMC3    C711016   2.032   1.500  13.801  0.2309 -0.0954 -0.0275
  745TMC3    C811017   1.799   1.647  14.152  0.2071  0.0589  0.4995
  745TMC3    O111018   1.944   1.511  13.717 -0.2355 -0.0796 -0.2564
  745TMC3    O211019   1.849   1.660  14.265 -0.5020 -0.5217  0.1246
  746TMC3    C111020   3.993   3.672  10.661  0.3761  0.2159  0.4843
  746TMC3    C211021   4.120   3.628  10.637 -0.2465  0.2991  0.0129
  746TMC3    C311022   4.152   3.493  10.660  0.0317 -0.1740 -0.1862
  746TMC3    C411023   3.899   3.586  10.709 -0.3469  0.2904 -0.0715
  746TMC3    C511024   3.936   3.451  10.736  0.4384  0.3826  0.0396
  746TMC3    C611025   4.062   3.403  10.711  0.5314  0.2638 -0.0328
  746TMC3     C11026   3.963   3.810  10.665  0.9065  0.4527  0.2263
  746TMC3     O11027   3.871   3.848  10.743 -0.2239 -0.0399 -0.0071
  746TMC3     H11028   4.197   3.698  10.608 -0.8250  0.9773  0.1031
  746TMC3    H111029   3.803   3.629  10.734 -0.6059  0.1904 -0.8877
  746TMC3    H211030   4.089   3.299  10.725  0.1175  0.2965  1.0027
  746TMC3    C711031   3.833   3.369  10.803 -0.5088  0.7127 -0.2334
  746TMC3    C811032   4.289   3.458  10.612  0.7875 -0.5261 -0.0814
  746TMC3    O111033   3.727   3.428  10.814  0.2970  0.1021  0.2300
  746TMC3    O211034   4.352   3.378  10.678  0.0176 -0.3272 -0.6958
  747TMC3    C111035   2.203   3.693  10.986  0.4211  0.2087  0.6249
  747TMC3    C211036   2.121   3.612  11.065  0.7271  0.3598  0.3133
  747TMC3    C311037   2.047   3.675  11.160 -1.1512  1.2215  0.0869
  747TMC3    C411038   2.204   3.831  10.997  1.0886 -0.3523 -0.6076
  747TMC3    C511039   2.136   3.884  11.102  0.3016 -0.1615  0.2013
  747TMC3    C611040   2.058   3.807  11.179  0.0495  0.8678  0.2311
  747TMC3     C11041   2.266   3.634  10.871 -0.5699  0.0432 -0.0947
  747TMC3     O11042   2.366   3.694  10.833 -0.7239  0.0983 -0.3768
  747TMC3     H11043   2.131   3.505  11.052 -1.4212  0.0842  0.9468
  747TMC3    H111044   2.254   3.890  10.921  2.2448  0.9339  1.1433
  747TMC3    H211045   2.009   3.860  11.261  0.5916  1.1410  0.3814
  747TMC3    C711046   2.096   4.023  11.094  0.1975  0.1557  0.2444
  747TMC3    C811047   1.946   3.590  11.225 -0.9083 -0.0175 -0.1981
  747TMC3    O111048   1.985   4.048  11.134 -0.2011 -0.6748  0.4636
  747TMC3    O211049   1.963   3.469  11.196 -0.0664 -0.0572 -0.0344
  748MPD2     C11050   2.753   4.408   1.310  0.2214 -0.5960  0.3415
  748MPD2    C111051   2.759   4.269   1.302 -0.0702  0.7459  0.3803
  748MPD2    C211052   2.893   4.213   1.314  0.0287 -0.2199 -0.5080
  748MPD2    C311053   3.001   4.292   1.339 -0.8059  0.5771  0.2429
  748MPD2    C411054   2.992   4.430   1.352 -0.8256  0.2211 -0.3180
  748MPD2    C511055   2.863   4.476   1.346  0.4382 -0.0472 -0.7753
  748MPD2     H11056   2.906   4.105   1.316  2.4064  0.1043  1.6252
  748MPD2    H111057   3.067   4.502   1.383  0.0309 -0.1614 -1.5060
  748MPD2    H211058   2.664   4.469   1.298 -0.6378 -1.8073  0.5930
  748MPD2    H311059   2.851   4.582   1.363  0.7988 -0.2365  0.5863
  748MPD2     N11060   3.126   4.233   1.353  0.4199 -0.0612 -0.6106
  748MPD2    H511061   3.126   4.132   1.342  1.1708 -0.3727  2.2806
  748MPD2    N111062   2.639   4.201   1.286  0.2570  0.0273 -0.3022
  748MPD2    H711063   2.557   4.255   1.259 -1.3822 -2.2398  0.1589
  749TMC3    C111064   3.367   4.200   1.339 -0.2390 -0.4424  0.0478
  749TMC3    C211065   3.351   4.086   1.411 -0.2105 -0.2319 -0.0337
  749TMC3    C311066   3.464   4.003   1.415 -0.2324  0.0579 -0.4098
  749TMC3    C411067   3.479   4.243   1.282 -1.0062 -0.4361  0.2717
  749TMC3    C511068   3.581   4.149   1.280 -0.2539  0.0293  0.0727
  749TMC3    C611069   3.584   4.031   1.353 -0.2130 -0.2050 -1.4541
  749TMC3     C11070   3.250   4.297   1.355 -0.5319  0.6462 -0.4039
  749TMC3     O11071   3.268   4.412   1.335  0.0126 -0.3296  0.0258
  749TMC3     H11072   3.269   4.066   1.480  0.6583  0.1939  1.1222
  749TMC3    H111073   3.486   4.336   1.228 -1.1971 -0.0369  0.9466
  749TMC3    H211074   3.670   3.965   1.359 -0.2546 -0.2169 -1.0093
  749TMC3    C711075   3.711   4.201   1.232 -0.2008  0.1363 -0.1256
  749TMC3    C811076   3.448   3.886   1.497  0.1038  0.9535  0.2353
  749TMC3    O111077   3.802   4.177   1.308  0.5440 -0.4085  0.6941
  749TMC3    O211078   3.367   3.895   1.590  0.2186  0.5487  0.3908
  750MPD2     C11079   0.236   0.795  11.124  0.2662 -0.3433  0.7429
  750MPD2    C111080   0.107   0.785  11.172 -0.0752 -0.4101 -0.4265
  750MPD2    C211081   0.017   0.708  11.102  0.0423  0.2757 -0.1981
  750MPD2    C311082   0.066   0.647  10.988  0.7092 -0.0468 -0.2849
  750MPD2    C411083   0.197   0.663  10.943  0.3034  0.6231 -0.6050
  750MPD2    C511084   0.286   0.731  11.019 -0.5583 -0.3363 -0.3931
  750MPD2     H11085   4.642   0.691  11.141  0.0874 -0.3740 -0.3767
  750MPD2    H111086   0.232   0.615  10.853 -0.9499  1.9623 -1.8153
  750MPD2    H211087   0.309   0.847  11.183 -1.8811  1.4395  1.8362
  750MPD2    H311088   0.389   0.752  10.992  0.2854 -1.3210  2.1023
  750MPD2     N11089   4.715   0.555  10.910 -0.0578  0.2098 -0.1391
  750MPD2    H511090   0.036   0.501  10.837  2.2969 -0.0454  1.5028
  750MPD2    N111091   0.094   0.842  11.300  0.2218 -0.0025  0.3862
  750MPD2    H711092   0.170   0.894  11.342 -0.4607 -0.6159  2.3691
  751TMC3    C111093   4.536   0.427  10.830 -0.2688 -1.1692 -0.4797
  751TMC3    C211094   4.405   0.429  10.806 -0.2017 -0.5165  0.3001
  751TMC3    C311095   4.342   0.321  10.738  0.0086  0.6950 -0.5218
  751TMC3    C411096   4.614   0.321  10.782 -0.5895  0.3774 -0.2682
  751TMC3    C511097   4.563   0.228  10.704  0.3027 -0.2972  0.2151
  751TMC3    C611098   4.430   0.228  10.683 -0.4510  0.3691 -0.0072
  751TMC3     C11099   4.578   0.529  10.921 -0.3917  0.3209 -0.0516
  751TMC3     O11100   4.496   0.590  10.989  0.0019 -0.1431 -0.3246
  751TMC3     H11101   4.347   0.505  10.858  0.0200 -0.0923 -0.0821
  751TMC3    H111102   4.717   0.309  10.814 -0.8689  0.1267  0.5395
  751TMC3    H211103   4.385   0.149  10.624 -1.4353  0.8060  0.1420
  751TMC3    C711104   4.648   0.117  10.661  0.3469  0.2478 -0.3465
  751TMC3    C811105   4.200   0.287  10.734  0.1437 -0.0352 -0.8184
  751TMC3    O111106   0.044   0.124  10.659  0.1249 -0.2428 -1.0018
  751TMC3    O211107   4.162   0.216  10.638  0.0655  0.6863  0.5817
  752TMC3    C111108   3.273   0.133  16.638 -0.0783  0.3511 -0.2611
  752TMC3    C211109   3.188   0.212  16.708  0.5253 -0.0652 -0.1509
  752TMC3    C311110   3.214   0.227  16.846 -0.1844 -0.6554  0.1930
  752TMC3    C411111   3.394   0.094  16.690 -0.5396  0.3874  0.0340
  752TMC3    C511112   3.419   0.115  16.825  0.3280 -0.2132 -0.2163
  752TMC3    C611113   3.334   0.187  16.900  0.0623  0.6755 -0.4158
  752TMC3     C11114   3.250   0.102  16.495  0.2710  0.2202 -0.5250
  752TMC3     O11115   3.340   0.048  16.430 -0.0298 -0.0148 -0.0477
  752TMC3     H11116   3.096   0.246  16.662  0.8868  0.1220 -0.7301
  752TMC3    H111117   3.459   0.028  16.633 -1.2073  0.8625 -1.2706
  752TMC3    H211118   3.366   0.199  17.003  0.1912 -0.6805 -0.3032
  752TMC3    C711119   3.556   0.110  16.868  0.1201 -0.1872 -0.8056
  752TMC3    C811120   3.096   0.256  16.926 -0.1923  0.2234  0.3395
  752TMC3    O111121   3.582   0.166  16.975 -0.1042 -0.5102  0.0598
  752TMC3    O211122   2.994   0.290  16.870  0.1554  0.0984  0.4272
  753TMC3    C111123   0.332   1.270  13.208  0.5367  0.3477 -0.2547
  753TMC3    C211124   0.424   1.225  13.299 -0.3754 -0.2180  0.7724
  753TMC3    C311125   0.443   1.087  13.311 -0.5400 -0.4707 -0.3542
  753TMC3    C411126   0.267   1.181  13.132 -0.3920  0.3189 -0.3278
  753TMC3    C511127   0.283   1.049  13.144 -0.4037  0.0342  0.2397
  753TMC3    C611128   0.380   1.001  13.226 -0.3016  0.3821 -0.3432
  753TMC3     C11129   0.336   1.406  13.168 -0.0833  0.3867 -0.2625
  753TMC3     O11130   0.232   1.445  13.112  0.4800 -0.4113 -0.8167
  753TMC3     H11131   0.468   1.290  13.373  2.1630  0.4761 -1.3529
  753TMC3    H111132   0.194   1.213  13.058 -0.5487 -0.1848 -0.3865
  753TMC3    H211133   0.392   0.893  13.231  2.0155  0.5848 -1.2818
  753TMC3    C711134   0.227   0.957  13.047 -0.1542 -0.0961  0.0384
  753TMC3    C811135   0.487   1.028  13.438 -0.4598 -0.0988 -0.3196
  753TMC3    O111136   0.287   0.851  13.018  0.2920  0.1487 -0.0337
  753TMC3    O211137   0.499   0.907  13.448  0.0843 -0.6027  0.0985
  754MPD2     C11138   3.979   0.089  12.889  0.2567 -0.2062 -0.1105
  754MPD2    C111139   3.902   4.701  12.898  0.0801  0.8148  0.3701
  754MPD2    C211140   3.765   4.718  12.907  0.5892  0.0348 -0.4546
  754MPD2    C311141   3.705   0.118  12.900  0.7129  0.6369 -0.2061
  754MPD2    C411142   3.784   0.232  12.897  0.4890  0.0870  0.7101
  754MPD2    C511143   3.923   0.216  12.902 -0.5180 -1.2422  0.2193
  754MPD2     H11144   3.702   4.630  12.922 -2.0550  2.2072  1.0917
  754MPD2    H111145   3.737   0.330  12.908  0.1477  0.0753 -0.6844
  754MPD2    H211146   4.086   0.081  12.877  0.4994  0.6060  1.5125
  754MPD2    H311147   3.983   0.306  12.898  0.8459 -2.1518  0.2340
  754MPD2     N11148   3.561   0.138  12.910  0.2647  0.2952  0.5325
  754MPD2    H511149   3.528   0.235  12.907 -1.8654 -0.4009  1.1695
  754MPD2    N111150   3.967   4.575  12.919 -0.0397  0.0802 -0.0090
  754MPD2    H711151   4.067   4.586  12.907 -0.0680  1.7131  1.2607
  755MPD2     C11152   3.206   0.882  13.078 -0.9410  0.4952  0.1999
  755MPD2    C111153   3.153   0.810  13.179 -0.2300 -0.2758 -0.1308
  755MPD2    C211154   3.152   0.670  13.160  0.2615 -0.4562  0.1104
  755MPD2    C311155   3.215   0.608  13.053 -0.3274  0.5895  0.1987
  755MPD2    C411156   3.261   0.687  12.948  0.2628 -0.3257  0.4534
  755MPD2    C511157   3.248   0.821  12.964 -0.0437 -0.6296  0.4135
  755MPD2     H11158   3.103   0.619  13.242 -0.6126 -0.0403 -0.1506
  755MPD2    H111159   3.303   0.647  12.857 -0.5437 -1.1732  0.4547
  755MPD2    H211160   3.221   0.988  13.063 -0.5734  0.2383 -1.1733
  755MPD2    H311161   3.273   0.887  12.882  2.7052 -0.5628  1.2918
  755MPD2     N11162   3.221   0.467  13.044 -0.2046  1.0263 -0.1323
  755MPD2    H511163   3.271   0.436  12.960 -3.2824 -0.6345 -1.3618
  755MPD2    N111164   3.085   0.874  13.291 -0.3992  0.3299  0.1615
  755MPD2    H711165   3.037   0.828  13.367  1.1338 -1.1952  0.2157
  756MPD2     C11166   4.661   0.634   9.240  0.0185  0.1318  0.1560
  756MPD2    C111167   4.585   0.682   9.347  0.0768 -0.1143  0.2736
  756MPD2    C211168   4.491   0.593   9.408  0.2362 -0.1844  0.1812
  756MPD2    C311169   4.463   0.467   9.350 -0.8293 -0.4831  0.1951
  756MPD2    C411170   4.529   0.432   9.235  0.2012 -0.6200  0.1329
  756MPD2    C511171   4.626   0.513   9.178 -0.3880  0.2561  0.3550
  756MPD2     H11172   4.439   0.620   9.499  0.8597 -0.1380  0.5185
  756MPD2    H111173   4.514   0.338   9.182 -0.8446 -0.7515  0.6561
  756MPD2    H211174   0.020   0.690   9.199  0.9417 -1.6620 -0.4370
  756MPD2    H311175   4.681   0.480   9.090 -2.0507  0.3157 -0.7188
  756MPD2     N11176   4.378   0.383   9.424 -0.0053  0.3742  0.0948
  756MPD2    H511177   4.333   0.430   9.501  2.2077  1.7030  0.5834
  756MPD2    N111178   4.614   0.802   9.417 -0.1713  0.3189  0.4688
  756MPD2    H711179   4.559   0.820   9.500 -2.1000  1.5209 -1.0770
  757MPD2     C11180   3.683   0.388  10.130 -0.2908 -0.2097  0.0220
  757MPD2    C111181   3.636   0.304  10.032 -0.7384  1.2539  0.7028
  757MPD2    C211182   3.722   0.262   9.931 -0.1990 -0.3443 -0.0576
  757MPD2    C311183   3.854   0.316   9.921  0.3847 -0.9455 -0.3074
  757MPD2    C411184   3.905   0.382  10.029 -0.3735 -0.0517 -0.4987
  757MPD2    C511185   3.815   0.423  10.133  0.4285  0.5508 -0.2826
  757MPD2     H11186   3.686   0.195   9.854 -1.1097 -1.9605  1.7569
  757MPD2    H111187   4.011   0.402  10.041  0.5817 -4.8999 -0.6803
  757MPD2    H211188   3.619   0.408  10.216  0.3505  1.1907  0.1843
  757MPD2    H311189   3.850   0.485  10.215 -0.6551  0.3775  0.3067
  757MPD2     N11190   3.925   0.264   9.813  0.1315 -0.0102  0.1541
  757MPD2    H511191   3.869   0.231   9.735  1.2611  0.2668 -0.7673
  757MPD2    N111192   3.505   0.264  10.044  0.1907  0.5485 -0.3265
  757MPD2    H711193   3.470   0.270  10.139 -0.5332 -2.6854 -0.3870
  758MPD2     C11194   3.102   3.569  16.199 -0.0878  0.4596 -0.6578
  758MPD2    C111195   3.231   3.611  16.170  0.0188 -0.3595  0.4679
  758MPD2    C211196   3.284   3.714  16.244  0.4740 -0.6377  0.7956
  758MPD2    C311197   3.213   3.768  16.347  0.0444  0.2447 -0.2087
  758MPD2    C411198   3.082   3.731  16.373  0.3644  0.3909  0.8754
  758MPD2    C511199   3.034   3.631  16.297 -0.3828 -0.6873  0.9449
  758MPD2     H11200   3.388   3.740  16.232  0.3357  0.5524  2.1339
  758MPD2    H111201   3.019   3.778  16.449 -0.9213  0.3999 -0.2023
  758MPD2    H211202   3.042   3.492  16.153 -0.6474  0.7489 -0.4218
  758MPD2    H311203   2.941   3.581  16.320 -0.8320 -0.1032  0.4103
  758MPD2     N11204   3.272   3.874  16.421 -0.1385  0.6371  0.0239
  758MPD2    H511205   3.214   3.925  16.487  1.1653  0.8031  1.0675
  758MPD2    N111206   3.305   3.531  16.081 -0.4982  0.1664  0.5100
  758MPD2    H711207   3.274   3.434  16.072 -2.1354  0.9542 -2.2865
  759MPD2     C11208   2.408   2.944   9.722  0.0031 -0.0965  0.1766
  759MPD2    C111209   2.513   2.897   9.792  0.5148  0.6604 -0.2096
  759MPD2    C211210   2.609   2.829   9.716 -0.4000 -0.0153  0.2838
  759MPD2    C311211   2.592   2.801   9.586  0.0760  0.1184  0.3939
  759MPD2    C411212   2.473   2.832   9.526 -0.4640  0.2338  0.7912
  759MPD2    C511213   2.377   2.906   9.595  0.5623  0.1241  0.1911
  759MPD2     H11214   2.707   2.804   9.757 -0.7345 -1.4693  0.1971
  759MPD2    H111215   2.454   2.800   9.424 -0.4557  1.9300  0.2512
  759MPD2    H211216   2.335   2.996   9.783  0.9679  0.5037  0.8247
  759MPD2    H311217   2.291   2.949   9.545 -0.3571 -1.3416  0.5294
  759MPD2     N11218   2.700   2.731   9.519  0.2916  0.1613  0.1179
  759MPD2    H511219   2.779   2.711   9.579 -0.3121 -0.5727  0.6641
  759MPD2    N111220   2.526   2.932   9.926 -0.0606  0.6022  0.4564
  759MPD2    H711221   2.441   2.955   9.976 -2.4166 -2.7913 -1.9344
  760MPD2     C11222   2.120   0.641  11.804 -0.3694  0.3005  0.1747
  760MPD2    C111223   2.256   0.637  11.812  0.6370  0.0322  0.4054
  760MPD2    C211224   2.319   0.528  11.873  0.3665  0.2170 -0.3353
  760MPD2    C311225   2.248   0.415  11.906 -0.1177  0.0005 -0.0105
  760MPD2    C411226   2.113   0.418  11.883 -0.0218  0.2008 -0.0404
  760MPD2    C511227   2.050   0.530  11.837 -0.7252 -1.0921 -0.5850
  760MPD2     H11228   2.425   0.537  11.892  0.5951  1.1781 -2.0305
  760MPD2    H111229   2.044   0.337  11.907  0.5937  0.0672  1.2858
  760MPD2    H211230   2.065   0.722  11.758  0.0457 -0.3608 -1.5038
  760MPD2    H311231   1.947   0.514  11.809 -1.4121  3.4434 -0.6553
  760MPD2     N11232   2.304   0.301  11.972 -0.1567  0.0448 -0.1841
  760MPD2    H511233   2.235   0.231  11.996 -1.2284  0.0600 -3.1615
  760MPD2    N111234   2.341   0.744  11.776 -0.6066 -0.1664  0.5269
  760MPD2    H711235   2.440   0.738  11.798 -0.4152 -4.1965 -1.3635
  761MPD2     C11236   3.748   0.213  10.955 -0.2792  0.3712 -0.3258
  761MPD2    C111237   3.814   0.142  10.855  0.4403  0.6396  0.5137
  761MPD2    C211238   3.942   0.177  10.820  0.2757  0.1792 -0.2889
  761MPD2    C311239   3.993   0.295  10.874  0.0693 -0.6879  0.4042
  761MPD2    C411240   3.933   0.354  10.986 -0.3788 -0.4919  0.9757
  761MPD2    C511241   3.806   0.320  11.016  0.3629 -0.0307 -0.1386
  761MPD2     H11242   3.989   0.116  10.743 -0.3521 -1.1222  0.3629
  761MPD2    H111243   3.975   0.428  11.053  0.6970 -1.2872  1.1833
  761MPD2    H211244   3.654   0.173  10.989  0.6355 -1.2763  0.2423
  761MPD2    H311245   3.754   0.362  11.101  3.3989  1.0637  1.1999
  761MPD2     N11246   4.125   0.340  10.837 -0.2568 -0.2005 -0.4537
  761MPD2    H511247   4.167   0.410  10.897 -2.0757 -0.7404  1.4565
  761MPD2    N111248   3.734   0.039  10.800  0.0515  0.2751  0.3502
  761MPD2    H711249   3.645   0.022  10.845 -0.0214 -0.9626 -0.2605
  762MPD2     C11250   4.153   4.652  10.423  0.1514  0.3001 -0.4129
  762MPD2    C111251   4.085   4.546  10.364  0.5015  0.8059  0.1271
  762MPD2    C211252   4.147   4.465  10.273 -0.1441 -0.1082 -0.0916
  762MPD2    C311253   4.287   4.486  10.244 -0.4772 -0.9214 -0.9234
  762MPD2    C411254   4.356   4.582  10.319 -0.2420  0.4384 -0.0535
  762MPD2    C511255   4.284   4.668  10.402 -0.1787  1.0774 -0.7475
  762MPD2     H11256   4.095   4.390  10.215 -0.1254  0.4679 -0.8519
  762MPD2    H111257   4.461   4.602  10.298  0.8222  0.2191  4.9195
  762MPD2    H211258   4.112   0.001  10.491 -1.0750 -1.3110  0.5769
  762MPD2    H311259   4.338   0.029  10.441  1.1466 -0.3566  0.5319
  762MPD2     N11260   4.356   4.396  10.156 -0.4965  0.5124  0.0767
  762MPD2    H511261   4.304   4.318  10.118 -0.0455  0.1805  0.1534
  762MPD2    N111262   3.956   4.532  10.411  0.5054 -0.1912  0.2017
  762MPD2    H711263   3.922   4.587  10.490  1.6953 -0.4405  0.8744
  763MPD2     C11264   0.507   4.660  16.132 -0.1766  0.6385 -0.2287
  763MPD2    C111265   0.632   4.700  16.089 -0.0150 -0.2087  0.4503
  763MPD2    C211266   0.695   0.088  16.134 -0.2293 -0.4758  0.1549
  763MPD2    C311267   0.631   0.163  16.232  0.3464  0.5116  0.5794
  763MPD2    C411268   0.505   0.127  16.271  0.1712 -0.1538  0.0270
  763MPD2    C511269   0.442   0.016  16.218 -0.1324  0.5915 -0.5411
  763MPD2     H11270   0.791   0.113  16.091  0.7349 -3.6828  0.4673
  763MPD2    H111271   0.447   0.180  16.345  0.7359  1.1774 -0.4826
  763MPD2    H211272   0.455   4.572  16.096 -0.2924  0.1030  1.2733
  763MPD2    H311273   0.343   4.715  16.257  0.0416 -0.1242 -0.5569
  763MPD2     N11274   0.704   0.283  16.261 -0.0364 -0.0616 -0.1906
  763MPD2    H511275   0.796   0.291  16.220  0.0746 -0.2765  0.0172
  763MPD2    N111276   0.701   4.629  15.983  0.5345  0.1874  0.2904
  763MPD2    H711277   0.786   4.677  15.956  0.9724 -1.8101 -1.8079
  764MPD2     C11278   3.881   1.212  17.499  0.1369  0.6832 -0.1764
  764MPD2    C111279   3.759   1.208  17.433 -0.7534  0.2750 -0.3209
  764MPD2    C211280   3.664   1.113  17.468  0.2807 -0.6811  0.1830
  764MPD2    C311281   3.692   1.021  17.569 -0.5220  0.7055  0.8412
  764MPD2    C411282   3.805   1.030  17.646  0.2244 -0.2098 -0.1106
  764MPD2    C511283   3.892   1.128  17.611  0.8516 -0.2005 -0.0382
  764MPD2     H11284   3.569   1.112  17.416  0.1297 -0.5258  0.4554
  764MPD2    H111285   3.834   0.962   0.025 -1.0921  0.5676  1.0555
  764MPD2    H211286   3.958   1.284  17.478  1.7305 -1.0011 -0.0769
  764MPD2    H311287   3.988   1.133  17.661  1.3325 -0.7911 -0.8912
  764MPD2     N11288   3.599   0.920  17.587  0.3226 -0.0728  0.4845
  764MPD2    H511289   3.519   0.911  17.526 -0.0470  0.4559  0.8836
  764MPD2    N111290   3.729   1.290  17.320 -0.6367 -0.2888 -0.0739
  764MPD2    H711291   3.632   1.288  17.290 -0.1459 -0.9726 -1.6386
  765MPD2     C11292   3.377   3.428  15.484 -0.2336  0.2943 -0.5578
  765MPD2    C111293   3.445   3.539  15.541 -0.3302 -0.5022  0.1583
  765MPD2    C211294   3.580   3.543  15.532 -0.5826  0.8099  0.3820
  765MPD2    C311295   3.654   3.444  15.469  0.3328  0.1760 -0.0500
  765MPD2    C411296   3.582   3.349  15.400  0.2609  0.0778  0.0272
  765MPD2    C511297   3.452   3.333  15.420 -0.6178  0.0716  0.1157
  765MPD2     H11298   3.633   3.614  15.595  0.0981 -0.1816  0.9218
  765MPD2    H111299   3.630   3.268  15.346  1.4589  1.8788 -1.6296
  765MPD2    H211300   3.269   3.418  15.486 -0.2187 -0.2455 -2.4823
  765MPD2    H311301   3.398   3.246  15.385 -1.6173  0.1361  1.5207
  765MPD2     N11302   3.792   3.458  15.472  0.2972  0.6130  0.1535
  765MPD2    H511303   3.826   3.540  15.521  0.1963 -1.4312  3.6740
  765MPD2    N111304   3.369   3.636  15.608  0.0373 -0.5080  0.6274
  765MPD2    H711305   3.271   3.623  15.633  0.1284  0.0862  1.2880
  766MPD2     C11306   2.851   3.927  15.330 -0.0547 -0.9361 -0.1099
  766MPD2    C111307   2.990   3.932  15.333 -0.5371 -0.1874 -0.6052
  766MPD2    C211308   3.059   3.927  15.212  0.4065 -0.2807 -0.4282
  766MPD2    C311309   3.003   3.921  15.086  0.2992  0.3951  0.1304
  766MPD2    C411310   2.866   3.925  15.092 -0.5052  0.3296 -0.6982
  766MPD2    C511311   2.789   3.928  15.209 -0.1217  0.1147  0.1169
  766MPD2     H11312   3.167   3.924  15.220  0.2461 -0.2067  1.5903
  766MPD2    H111313   2.813   3.925  14.997 -3.1018  1.5104  0.7631
  766MPD2    H211314   2.791   3.917  15.419 -0.4564  0.7969 -0.1889
  766MPD2    H311315   2.681   3.929  15.197 -0.0354 -0.9128 -0.7429
  766MPD2     N11316   3.069   3.911  14.964 -0.4018  0.6503  0.6884
  766MPD2    H511317   3.017   3.908  14.877 -0.4104  0.3160  0.7076
  766MPD2    N111318   3.073   3.935  15.451  0.0921 -0.1596 -0.2217
  766MPD2    H711319   3.171   3.911  15.444 -0.3889 -2.0039 -0.7122
  767MPD2     C11320   2.703   4.241  15.010 -0.1216 -0.5017  0.1403
  767MPD2    C111321   2.827   4.266  14.952  0.0376 -0.0650 -0.3482
  767MPD2    C211322   2.850   4.220  14.828 -1.2808 -0.2111 -0.1480
  767MPD2    C311323   2.751   4.148  14.759  0.3855 -0.1466  0.6586
  767MPD2    C411324   2.626   4.130  14.813  0.2230  0.0952 -0.0939
  767MPD2    C511325   2.605   4.172  14.940  0.3128  0.0997  0.1879
  767MPD2     H11326   2.947   4.214  14.779 -1.8642  1.4004 -1.4711
  767MPD2    H111327   2.551   4.070  14.763  3.4666 -1.5629 -2.9829
  767MPD2    H211328   2.678   4.285  15.106  1.8022  0.6731  0.1048
  767MPD2    H311329   2.509   4.155  14.988  0.6863  0.2970  1.0046
  767MPD2     N11330   2.786   4.107  14.628 -0.2104  0.2568  0.4453
  767MPD2    H511331   2.886   4.108  14.607  0.1555  0.5921  2.1890
  767MPD2    N111332   2.931   4.318  15.033 -0.0869  0.5243  0.3065
  767MPD2    H711333   2.906   4.342  15.129  0.9482 -0.0663  0.7294
  768MPD2     C11334   3.529   3.140  10.586  0.0038  0.4134 -0.1193
  768MPD2    C111335   3.505   3.048  10.684  0.0942  0.0894 -0.1017
  768MPD2    C211336   3.611   2.965  10.723 -0.9182  0.4482  0.0696
  768MPD2    C311337   3.738   2.976  10.665 -0.4359 -0.9478  0.6828
  768MPD2    C411338   3.757   3.080  10.577  0.2040  0.2891 -0.8401
  768MPD2    C511339   3.656   3.166  10.541 -0.6125 -0.1868  0.3338
  768MPD2     H11340   3.583   2.898  10.804  2.0670 -0.3443  0.4525
  768MPD2    H111341   3.857   3.108  10.544  0.3159 -0.9808 -1.5941
  768MPD2    H211342   3.443   3.191  10.544 -0.7101  1.1602  2.2639
  768MPD2    H311343   3.686   3.247  10.474  0.0800 -2.7028 -2.3768
  768MPD2     N11344   3.850   2.907  10.707  0.6148 -0.2589 -0.2850
  768MPD2    H511345   3.931   2.918  10.647  0.4583 -0.4538 -0.5288
  768MPD2    N111346   3.386   3.033  10.760 -0.1194  0.0313  0.0233
  768MPD2    H711347   3.390   2.964  10.834  0.2621 -0.8471 -0.8071
  769MPD2     C11348   0.091   0.635  14.821  0.5727 -0.4473  0.2092
  769MPD2    C111349   4.702   0.616  14.895 -0.8075  0.1572  0.1474
  769MPD2    C211350   4.688   0.689  15.016 -0.4303 -0.3675  0.3875
  769MPD2    C311351   0.056   0.782  15.052  0.0207 -0.0323 -0.0428
  769MPD2    C411352   0.172   0.797  14.972 -0.6812  0.0620 -0.6732
  769MPD2    C511353   0.189   0.723  14.858  0.1411 -0.9540  1.2469
  769MPD2     H11354   4.594   0.675  15.068 -0.7049  0.4257  0.0995
  769MPD2    H111355   0.256   0.858  15.002  1.7369 -2.1367 -2.9855
  769MPD2    H211356   0.110   0.577  14.731  0.3664  1.5893 -1.1696
  769MPD2    H311357   0.270   0.737  14.787 -1.9458  1.2448 -0.7271
  769MPD2     N11358   0.027   0.843  15.174  0.1874 -0.3788 -1.0276
  769MPD2    H511359   4.662   0.823  15.218  0.7754 -3.2075 -1.1218
  769MPD2    N111360   4.601   0.535  14.843 -0.1472 -0.3844 -0.4504
  769MPD2    H711361   4.612   0.504  14.747 -0.8094  1.9988 -1.2815
  770MPD2     C11362   3.938   4.523  15.158  0.0939 -0.6112  0.1467
  770MPD2    C111363   4.071   4.510  15.157 -0.4490  0.4107 -0.1053
  770MPD2    C211364   4.136   4.625  15.123 -0.4308  0.2231 -0.2568
  770MPD2    C311365   4.073   0.015  15.076  0.1720  0.2063 -0.5941
  770MPD2    C411366   3.931   0.025  15.089 -0.1904 -0.2724 -0.0022
  770MPD2    C511367   3.866   4.640  15.130 -0.1474 -0.2956  0.3375
  770MPD2     H11368   4.244   4.615  15.115 -0.6119 -1.7051 -0.2036
  770MPD2    H111369   3.867   0.109  15.065 -0.1279 -0.8051 -2.0447
  770MPD2    H211370   3.886   4.434  15.192 -3.4560  0.5982 -2.1395
  770MPD2    H311371   3.758   4.648  15.132 -0.1295  0.4119 -1.8159
  770MPD2     N11372   4.152   0.110  15.012  1.0601  0.8290  0.0451
  770MPD2    H511373   4.251   0.090  15.012  0.6460 -1.2235 -0.9052
  770MPD2    N111374   4.149   4.393  15.181  0.0106  0.5276  0.4379
  770MPD2    H711375   4.250   4.400  15.187  0.0727 -0.0864  0.0567
  771MPD2     C11376   0.271   3.678  13.730 -0.3689 -0.0903  0.5146
  771MPD2    C111377   0.164   3.740  13.671 -0.0490  0.2361  0.1780
  771MPD2    C211378   0.118   3.672  13.553  0.3903  0.7384  0.4977
  771MPD2    C311379   0.166   3.546  13.518 -1.2699  0.0257 -0.7757
  771MPD2    C411380   0.274   3.490  13.584 -0.9824 -0.7450  0.3531
  771MPD2    C511381   0.326   3.553  13.693 -0.1910  0.0339 -0.7727
  771MPD2     H11382   0.039   3.716  13.494 -1.4054 -3.5270 -0.2615
  771MPD2    H111383   0.324   3.400  13.549  0.3960  0.9287 -1.9411
  771MPD2    H211384   0.318   3.729  13.813 -1.9087  1.9198  0.1693
  771MPD2    H311385   0.412   3.513  13.745 -0.7281  0.2245  0.2690
  771MPD2     N11386   0.108   3.486  13.403 -0.1611 -0.2140 -0.1572
  771MPD2    H511387   0.020   3.527  13.374 -0.2230 -1.0446 -1.1339
  771MPD2    N111388   0.109   3.861  13.714  0.2094  0.1775 -1.0350
  771MPD2    H711389   0.033   3.895  13.655  1.5453  2.3990 -1.4510
  772MPD2     C11390   4.222   4.294  13.635 -0.2671  0.7716 -0.4015
  772MPD2    C111391   4.274   4.187  13.711 -0.5114 -0.1120 -0.6433
  772MPD2    C211392   4.183   4.087  13.756 -0.0605  0.3005  0.2208
  772MPD2    C311393   4.047   4.105  13.747  0.6185  1.0086  0.6635
  772MPD2    C411394   3.999   4.212  13.680  0.2061  0.1380 -0.5805
  772MPD2    C511395   4.084   4.308  13.634 -0.2076 -0.2880  0.5275
  772MPD2     H11396   4.226   4.009  13.818  0.9050  2.0046  1.7059
  772MPD2    H111397   3.892   4.233  13.672 -0.1328 -1.1219  0.7125
  772MPD2    H211398   4.286   4.371  13.591 -2.8201  4.1457  1.7811
  772MPD2    H311399   4.032   4.393  13.591 -0.0360  0.0791  1.0481
  772MPD2     N11400   3.950   4.023  13.804  0.2230  0.3186  0.1496
  772MPD2    H511401   3.854   4.057  13.801 -0.0131 -0.2690  0.9281
  772MPD2    N111402   4.417   4.163  13.735  0.1592  0.5064  0.1347
  772MPD2    H711403   4.440   4.082  13.792 -0.2239  1.1888  1.2386
  773MPD2     C11404   4.126   0.127   0.383 -0.3033  0.3290  0.2473
  773MPD2    C111405   4.132   0.032   0.282 -0.6139 -0.3686  0.3356
  773MPD2    C211406   4.184   4.631   0.317 -0.4649  0.3190  0.3782
  773MPD2    C311407   4.258   4.612   0.434 -0.3030  0.4112 -0.3607
  773MPD2    C411408   4.272   4.723   0.514  0.5043 -0.2230 -0.3199
  773MPD2    C511409   4.196   0.103   0.495  0.1725  0.4830  0.2095
  773MPD2     H11410   4.204   4.554   0.244 -0.9667  0.2771  0.2792
  773MPD2    H111411   4.337   4.724   0.601  0.9206 -1.7715 -0.6057
  773MPD2    H211412   4.073   0.219   0.363 -1.3614 -0.3295  0.0019
  773MPD2    H311413   4.205   0.183   0.567 -2.1165 -2.0025  3.2601
  773MPD2     N11414   4.323   4.488   0.451 -0.0089 -1.3217  0.1666
  773MPD2    H511415   4.300   4.406   0.397 -1.2830 -1.7041  1.3013
  773MPD2    N111416   4.080   0.060   0.149 -0.1338 -0.0763 -0.3740
  773MPD2    H711417   4.071   4.698   0.096 -0.7900  0.4083 -1.0596
  774MPD2     C11418   3.236   3.720  12.914 -0.0826 -0.2677  0.2094
  774MPD2    C111419   3.211   3.792  13.033 -0.2873  1.0606 -0.3285
  774MPD2    C211420   3.301   3.895  13.069  0.1023 -0.1211  0.0299
  774MPD2    C311421   3.391   3.945  12.980  0.2513 -0.1393  0.0845
  774MPD2    C411422   3.415   3.866  12.868 -0.0608 -0.8196  0.4455
  774MPD2    C511423   3.336   3.761  12.835 -0.1013 -0.6318 -0.8915
  774MPD2     H11424   3.279   3.948  13.161 -0.2692 -2.4041  1.2556
  774MPD2    H111425   3.501   3.882  12.805 -0.9204 -1.5465 -0.9214
  774MPD2    H211426   3.188   3.627  12.887 -0.5887 -0.1879  0.8439
  774MPD2    H311427   3.356   3.713  12.740 -0.1736  1.6290 -2.0348
  774MPD2     N11428   3.471   4.056  13.015 -0.0416 -0.5116 -0.1055
  774MPD2    H511429   3.445   4.097  13.104  1.6485  1.7423 -0.6511
  774MPD2    N111430   3.119   3.745  13.131 -0.3853  1.0441 -0.2346
  774MPD2    H711431   3.123   3.778  13.227 -0.0847 -1.2866  0.5605
  775MPD2     C11432   0.414   0.639  15.688  0.0805  0.6370  0.1759
  775MPD2    C111433   0.375   0.753  15.744 -0.1937 -0.2474 -0.0329
  775MPD2    C211434   0.449   0.870  15.713 -0.6727 -0.1669  1.1433
  775MPD2    C311435   0.551   0.870  15.614 -0.1941 -0.7061  0.0738
  775MPD2    C411436   0.596   0.747  15.567 -0.5490 -0.2948 -0.1949
  775MPD2    C511437   0.521   0.639  15.601 -0.5442 -0.6819 -0.1057
  775MPD2     H11438   0.427   0.959  15.771 -0.3766  0.1597  0.7602
  775MPD2    H111439   0.676   0.738  15.493 -0.5589 -1.8345 -0.0135
  775MPD2    H211440   0.352   0.550  15.688 -2.1214  2.1893 -0.0954
  775MPD2    H311441   0.562   0.546  15.563  0.3407 -0.7268  0.9635
  775MPD2     N11442   0.626   0.988  15.588  0.5383  0.0549 -0.4532
  775MPD2    H511443   0.692   0.983  15.511 -1.1897 -1.7435 -1.8290
  775MPD2    N111444   0.265   0.744  15.838  0.2481  0.0068 -0.1917
  775MPD2    H711445   0.226   0.650  15.848  0.7423 -0.4560 -2.4494
  776MPD2     C11446   0.099   1.408  11.965  0.0467 -0.3278 -0.5677
  776MPD2    C111447   0.045   1.386  11.840  0.1018 -0.5884  0.2155
  776MPD2    C211448   4.722   1.496  11.765  0.4989  0.7052  0.3559
  776MPD2    C311449   4.716   1.620  11.823  0.4359 -0.7377 -0.4669
  776MPD2    C411450   0.041   1.635  11.949 -0.5358 -0.2705 -0.4923
  776MPD2    C511451   0.094   1.531  12.016 -0.7836  0.7514 -0.0297
  776MPD2     H11452   4.688   1.483  11.663  0.0635  2.9019  0.2193
  776MPD2    H111453   0.026   1.731  11.996  0.7412  0.4398 -1.5315
  776MPD2    H211454   0.157   1.343  12.029 -2.2933 -2.4965 -0.6558
  776MPD2    H311455   0.119   1.556  12.119  0.1161 -2.5824  0.5676
  776MPD2     N11456   4.655   1.732  11.763 -0.0935  0.4718  0.2699
  776MPD2    H511457   4.676   1.820  11.809  0.4054  0.9758 -0.9135
  776MPD2    N111458   0.057   1.258  11.793 -0.1765 -0.0616  0.2160
  776MPD2    H711459   0.068   1.190  11.868 -0.2977 -2.1916 -1.6750
  777MPD2     C11460   3.980   3.200   0.730  0.0750  0.1892 -0.0536
  777MPD2    C111461   3.980   3.086   0.810  0.3016  0.0627  0.3701
  777MPD2    C211462   4.023   2.962   0.756  0.1931  0.1133  0.0130
  777MPD2    C311463   4.056   2.965   0.623 -0.4767  0.1770 -0.3957
  777MPD2    C411464   4.055   3.075   0.543 -0.6005 -0.3194  0.4170
  777MPD2    C511465   4.023   3.196   0.596 -0.0378 -0.3146 -0.2368
  777MPD2     H11466   4.031   2.869   0.810  3.3614 -0.8130 -2.0936
  777MPD2    H111467   4.080   3.068   0.438  0.4918  0.4131  0.6260
  777MPD2    H211468   3.966   3.298   0.773  2.1674  0.5308 -0.1403
  777MPD2    H311469   4.016   3.288   0.537  3.8311  0.5523  0.6735
  777MPD2     N11470   4.077   2.838   0.577  0.0626  0.8018 -0.3240
  777MPD2    H511471   4.073   2.764   0.646  0.6326 -0.4238 -1.6056
  777MPD2    N111472   3.933   3.102   0.941  0.2146 -0.1863 -0.0964
  777MPD2    H711473   3.901   3.193   0.972  2.2992 -0.3005  2.3717
  778MPD2     C11474   0.689   3.036  15.260  0.5566  0.4066 -0.9555
  778MPD2    C111475   0.620   3.042  15.141  0.0858  0.5318 -0.2623
  778MPD2    C211476   0.683   3.123  15.041 -1.0074 -0.2839  0.8777
  778MPD2    C311477   0.797   3.193  15.063  0.1611 -0.1741  0.0708
  778MPD2    C411478   0.862   3.184  15.185  0.1833  0.3028  0.1842
  778MPD2    C511479   0.803   3.106  15.285 -0.1888  0.4251 -0.0510
  778MPD2     H11480   0.640   3.128  14.942 -0.8869  1.9012  0.9391
  778MPD2    H111481   0.952   3.234  15.219  1.2773  0.0841 -2.3867
  778MPD2    H211482   0.652   2.990  15.350  1.1984 -0.6182 -1.2057
  778MPD2    H311483   0.850   3.117  15.382 -0.7154 -2.7485  0.5611
  778MPD2     N11484   0.844   3.286  14.963  0.3763 -0.1621 -0.0957
  778MPD2    H511485   0.800   3.290  14.872 -0.6223 -0.5082  0.3674
  778MPD2    N111486   0.489   2.989  15.122  0.1464  0.0451  0.0566
  778MPD2    H711487   0.444   3.013  15.034 -0.2173 -1.2636 -0.1143
  779MPD2     C11488   0.952   2.101  13.789  0.9583  0.1764  0.1362
  779MPD2    C111489   0.909   2.084  13.926  0.1716 -0.3115  0.0572
  779MPD2    C211490   0.891   2.201  14.009  0.0394  0.0379  0.0681
  779MPD2    C311491   0.885   2.328  13.947 -0.7410  0.1640 -0.0033
  779MPD2    C411492   0.909   2.338  13.813  0.0831 -0.3158  0.0110
  779MPD2    C511493   0.957   2.231  13.739  0.0789 -0.4654  0.0198
  779MPD2     H11494   0.883   2.198  14.117 -0.7924  0.5253  0.0244
  779MPD2    H111495   0.889   2.428  13.755 -0.4004 -0.8446 -0.6495
  779MPD2    H211496   0.970   2.021  13.718 -1.5898 -0.2521 -0.0123
  779MPD2    H311497   0.964   2.244  13.632 -0.5680 -1.7878 -0.1871
  779MPD2     N11498   0.869   2.448  14.031 -0.2495 -0.4662 -0.2227
  779MPD2    H511499   0.874   2.427  14.130 -1.5719  1.2107  0.2052
  779MPD2    N111500   0.908   1.954  13.984 -0.4392 -0.4533  0.2168
  779MPD2    H711501   0.885   1.949  14.083 -0.3055  0.5366  0.3027
  780MPD2     C11502   0.119   2.084   1.176  0.7982  0.1143 -0.5088
  780MPD2    C111503   0.057   2.059   1.052  0.7797  0.1487 -0.3426
  780MPD2    C211504   0.124   2.095   0.938  0.7130 -0.1628  0.7656
  780MPD2    C311505   0.247   2.162   0.948  0.2067 -0.0871 -0.6937
  780MPD2    C411506   0.301   2.185   1.077 -0.5662 -0.0055 -0.4667
  780MPD2    C511507   0.238   2.153   1.187  0.4314  0.3169  0.0299
  780MPD2     H11508   0.071   2.073   0.846 -0.2658 -1.0181  1.5263
  780MPD2    H111509   0.398   2.231   1.088 -0.4074 -0.5651  0.4199
  780MPD2    H211510   0.070   2.055   1.268 -0.4105 -2.5277 -1.9848
  780MPD2    H311511   0.294   2.157   1.280  0.8389  0.6568 -0.2278
  780MPD2     N11512   0.309   2.206   0.828  0.3342  0.1799  0.2948
  780MPD2    H511513   0.278   2.163   0.741  2.3329  1.1559 -0.9139
  780MPD2    N111514   4.650   2.003   1.061  0.0088 -0.3077 -0.1438
  780MPD2    H711515   4.608   1.996   1.153 -1.1667 -0.1733 -0.6654
  781MPD2     C11516   1.407   0.037  11.821 -0.4082  0.0577 -0.5279
  781MPD2    C111517   1.460   4.644  11.778  0.2710  0.4175 -0.5366
  781MPD2    C211518   1.511   4.637  11.650 -0.2138  0.2453 -0.1878
  781MPD2    C311519   1.507   0.020  11.566 -0.3380 -0.3696 -0.1086
  781MPD2    C411520   1.464   0.138  11.617  0.4175 -0.6799 -0.4398
  781MPD2    C511521   1.411   0.148  11.742 -0.4440  0.3185 -0.4502
  781MPD2     H11522   1.556   4.545  11.615 -2.5607  0.0936 -2.8243
  781MPD2    H111523   1.458   0.221  11.548 -0.6064 -0.0324  0.4273
  781MPD2    H211524   1.367   0.041  11.921  1.5888  3.0130  0.1465
  781MPD2    H311525   1.375   0.242  11.784  0.6743  0.2776  0.6235
  781MPD2     N11526   1.559   0.020  11.431 -0.2482 -0.2368  0.6998
  781MPD2    H511527   1.564   0.110  11.385 -0.2053  0.1830  1.5274
  781MPD2    N111528   1.470   4.537  11.867 -0.2948  0.5068 -0.2208
  781MPD2    H711529   1.447   4.556  11.964 -0.6927 -0.4360 -0.1297
  782MPD2     C11530   0.400   0.060   9.949  0.4266 -0.6640  1.0490
  782MPD2    C111531   0.475   0.007  10.046  0.5310  0.4674 -0.1728
  782MPD2    C211532   0.557   0.093  10.123  0.4779  0.0328 -0.5202
  782MPD2    C311533   0.559   0.227  10.097 -0.3990 -0.4829  0.4212
  782MPD2    C411534   0.473   0.279   9.999  0.0458  0.7960 -0.0062
  782MPD2    C511535   0.406   0.195   9.923 -0.1669  0.1828 -0.0413
  782MPD2     H11536   0.618   0.061  10.206 -0.1357  0.7990  0.2269
  782MPD2    H111537   0.471   0.384   9.972 -1.8603 -0.2104 -3.6426
  782MPD2    H211538   0.345   4.719   9.882 -1.1268  1.3344  0.3510
  782MPD2    H311539   0.341   0.240   9.849 -0.7726 -0.7289 -0.0520
  782MPD2     N11540   0.641   0.313  10.179  0.6478  0.3054  0.2947
  782MPD2    H511541   0.699   0.276  10.253 -0.1273 -2.3324 -0.3909
  782MPD2    N111542   0.467   4.597  10.072 -0.7707  0.1938 -0.5475
  782MPD2    H711543   0.373   4.563  10.053 -2.2309  3.1126  1.4865
  783MPD2     C11544   4.537   4.507  10.566 -0.1743  0.1017 -0.0009
  783MPD2    C111545   4.630   4.605  10.590 -0.2003 -0.5209  0.0136
  783MPD2    C211546   0.036   4.583  10.547 -0.6815  0.3246  0.5248
  783MPD2    C311547   0.081   4.457  10.512  0.3317  0.7520 -0.2204
  783MPD2    C411548   4.709   4.358  10.501  0.3599 -0.5427  0.0459
  783MPD2    C511549   4.576   4.387  10.518 -0.0526  0.0769 -0.2243
  783MPD2     H11550   0.114   4.659  10.546  0.4829 -0.8781 -0.1562
  783MPD2    H111551   4.722   4.254  10.472 -0.5433 -0.9134  0.9659
  783MPD2    H211552   4.435   4.520  10.601 -0.1581  1.7975 -0.5999
  783MPD2    H311553   4.503   4.307  10.513 -1.2421  1.0183  2.3370
  783MPD2     N11554   0.210   4.438  10.480 -0.0084  0.0706  0.6168
  783MPD2    H511555   0.265   4.523  10.474 -1.7024  1.2868  2.3832
  783MPD2    N111556   4.578   4.724  10.649 -0.1697 -0.1653  0.4860
  783MPD2    H711557   4.488   0.000  10.696  0.0114  0.4086  0.8246
  784MPD2     C11558   2.426   0.378   0.232  0.8230 -0.1641 -0.1425
  784MPD2    C111559   2.417   0.298   0.345 -0.4587 -0.0068  0.2003
  784MPD2    C211560   2.316   0.326   0.436  0.1298 -0.5787 -0.3061
  784MPD2    C311561   2.235   0.440   0.422 -0.0326  0.3394 -0.0430
  784MPD2    C411562   2.249   0.518   0.309 -0.0643  0.8107 -0.0976
  784MPD2    C511563   2.345   0.490   0.223  0.2674  0.4882  0.2827
  784MPD2     H11564   2.294   0.255   0.514 -0.7388  0.4452  0.3735
  784MPD2    H111565   2.181   0.596   0.276  0.6060  1.3993 -0.0815
  784MPD2    H211566   2.498   0.362   0.153  0.8781 -0.1526 -0.0947
  784MPD2    H311567   2.340   0.547   0.131 -0.0827 -0.0861 -0.0524
  784MPD2     N11568   2.138   0.458   0.522 -0.0066  0.0803 -0.0923
  784MPD2    H511569   2.142   0.395   0.601 -0.7867  2.0428  1.5055
  784MPD2    N111570   2.510   0.188   0.372  0.7469  0.2655 -0.2009
  784MPD2    H711571   2.492   0.133   0.456  0.6594  0.0104 -0.3857
  785MPD2     C11572   2.115   3.582   9.800  0.5243 -0.0664  0.4802
  785MPD2    C111573   2.040   3.556   9.914 -0.2730 -0.0391 -0.0416
  785MPD2    C211574   1.903   3.545   9.903 -0.3447  0.5677 -0.9894
  785MPD2    C311575   1.832   3.550   9.788 -0.0560 -0.3046 -0.3346
  785MPD2    C411576   1.909   3.567   9.669  0.0612 -0.2228  0.0345
  785MPD2    C511577   2.047   3.584   9.685 -0.1346  0.8372 -0.1220
  785MPD2     H11578   1.845   3.519   9.991 -0.3463 -2.1192 -1.8026
  785MPD2    H111579   1.873   3.574   9.567  0.7176  4.1569  0.0928
  785MPD2    H211580   2.217   3.618   9.800  0.3474  0.4331  1.2913
  785MPD2    H311581   2.113   3.610   9.603  1.3645 -0.7255  0.5890
  785MPD2     N11582   1.694   3.548   9.791  0.2313  0.0958  0.1413
  785MPD2    H511583   1.655   3.539   9.885  1.3165  0.2101  0.6089
  785MPD2    N111584   2.114   3.543  10.034  0.3594  0.4290  0.2458
  785MPD2    H711585   2.213   3.561  10.022  1.2422 -4.2056  0.3865
  786MPD2     C11586   0.929   1.538  14.915  0.4030  0.4877  0.4659
  786MPD2    C111587   1.056   1.511  14.870  0.2496 -0.3948  0.1756
  786MPD2    C211588   1.157   1.557  14.950 -0.5523 -0.3335  0.0285
  786MPD2    C311589   1.134   1.599  15.076 -0.1995  0.3605  0.0819
  786MPD2    C411590   1.008   1.616  15.129 -0.0636 -0.0376 -0.1378
  786MPD2    C511591   0.899   1.587  15.042 -0.7415 -0.6749  0.5895
  786MPD2     H11592   1.255   1.525  14.916  0.0526  1.3438  0.1454
  786MPD2    H111593   0.990   1.661  15.225  2.2868 -0.3902  0.4674
  786MPD2    H211594   0.843   1.523  14.851  0.0802 -0.6556  1.1621
  786MPD2    H311595   0.801   1.610  15.083 -0.9246  1.2523 -0.9387
  786MPD2     N11596   1.242   1.618  15.168  0.1532  0.3595  0.1949
  786MPD2    H511597   1.231   1.637  15.267  0.4395 -4.0525  1.0815
  786MPD2    N111598   1.087   1.438  14.752  0.2933 -0.0835 -0.2555
  786MPD2    H711599   1.185   1.421  14.733  0.6040  0.3175  0.9913
  787MPD2     C11600   1.485   0.999  14.819 -0.5721  0.0160  0.6431
  787MPD2    C111601   1.450   0.978  14.681  0.1378 -0.1689 -0.2848
  787MPD2    C211602   1.496   0.853  14.625  0.2692  0.1077  0.9672
  787MPD2    C311603   1.575   0.765  14.706 -0.3010 -0.4211 -0.7576
  787MPD2    C411604   1.596   0.789  14.841 -0.4812 -0.2993 -0.6463
  787MPD2    C511605   1.547   0.906  14.896 -1.0314  0.0486 -0.5189
  787MPD2     H11606   1.484   0.828  14.520  0.0569 -1.5428  1.3789
  787MPD2    H111607   1.661   0.724  14.898 -1.5604 -0.2356  0.6560
  787MPD2    H211608   1.453   1.091  14.866 -0.8520  0.0122  0.4605
  787MPD2    H311609   1.575   0.934  14.997 -4.1048  0.2150  0.2918
  787MPD2     N11610   1.635   0.647  14.644 -0.2079 -0.4753  0.0069
  787MPD2    H511611   1.642   0.650  14.543 -0.7523  0.0809 -0.0131
  787MPD2    N111612   1.396   1.086  14.615 -0.2958  0.2768  0.4101
  787MPD2    H711613   1.398   1.168  14.674 -1.8586  0.1865  0.5859
  788MPD2     C11614   3.492   4.250   0.657  0.2925  0.0087 -0.1503
  788MPD2    C111615   3.385   4.185   0.597  0.0810 -0.0900  0.0458
  788MPD2    C211616   3.359   4.227   0.465  0.0303 -0.4182 -0.1102
  788MPD2    C311617   3.441   4.316   0.398 -0.0073 -0.1942 -0.0440
  788MPD2    C411618   3.541   4.386   0.465 -0.3634 -0.0375  0.2511
  788MPD2    C511619   3.566   4.351   0.594  0.0131  0.3896  0.4653
  788MPD2     H11620   3.270   4.198   0.410 -1.3288  2.0440  0.7703
  788MPD2    H111621   3.586   4.474   0.421  2.1828 -2.0258 -1.0947
  788MPD2    H211622   3.529   4.225   0.756  1.6565 -1.1067 -0.9359
  788MPD2    H311623   3.645   4.406   0.644  1.6962 -1.1966 -0.4331
  788MPD2     N11624   3.406   4.349   0.269  0.0827  0.2329 -0.3650
  788MPD2    H511625   3.449   4.428   0.221 -0.7568  0.0978 -1.3514
  788MPD2    N111626   3.316   4.086   0.668 -0.1075 -0.3999 -1.5225
  788MPD2    H711627   3.349   4.064   0.761 -2.9479  0.4068 -0.3359
  789MPD2     C11628   3.513   3.946  16.904  0.9195 -0.2070  0.5946
  789MPD2    C111629   3.422   3.881  16.831  0.5190 -0.4552 -0.5502
  789MPD2    C211630   3.313   3.953  16.791 -0.1577  0.1205 -0.0992
  789MPD2    C311631   3.291   4.087  16.818 -0.4387 -0.0440 -0.2401
  789MPD2    C411632   3.387   4.155  16.885  0.1408  0.4230  0.2143
  789MPD2    C511633   3.495   4.079  16.933  0.3127  0.1190  0.6186
  789MPD2     H11634   3.240   3.895  16.735 -0.8973  0.5110  0.4591
  789MPD2    H111635   3.380   4.260  16.912  1.2711  0.5831 -0.1075
  789MPD2    H211636   3.607   3.899  16.931  2.7573  2.1853 -1.6453
  789MPD2    H311637   3.572   4.125  16.994  1.3581 -2.2919  1.1189
  789MPD2     N11638   3.175   4.153  16.785 -0.2870  0.1423 -0.4678
  789MPD2    H511639   3.149   4.238  16.835  0.6639 -0.3736  0.9046
  789MPD2    N111640   3.428   3.745  16.798 -0.0444 -0.0339  0.6218
  789MPD2    H711641   3.354   3.691  16.754  0.7072 -1.3867  1.0211
  790MPD2     C11642   4.438   0.953  13.601 -0.2838 -0.5754 -0.3712
  790MPD2    C111643   4.530   0.948  13.499  0.3271  0.4634 -0.3263
  790MPD2    C211644   4.503   1.014  13.373  0.0070  0.8445 -0.7021
  790MPD2    C311645   4.379   1.057  13.353 -0.2619 -0.2344 -0.3246
  790MPD2    C411646   4.289   1.063  13.456 -0.0063  0.2596  0.2870
  790MPD2    C511647   4.322   1.020  13.579 -0.5295  0.4599 -0.8392
  790MPD2     H11648   4.581   1.033  13.300 -0.4898  0.3059 -1.3821
  790MPD2    H111649   4.194   1.113  13.443 -1.5901 -2.9385 -0.4017
  790MPD2    H211650   4.452   0.912  13.701 -0.7684  0.7056  0.2151
  790MPD2    H311651   4.242   1.027  13.652  1.1781 -0.8876  1.1740
  790MPD2     N11652   4.355   1.115  13.230 -0.2799 -0.2061 -0.3689
  790MPD2    H511653   4.437   1.126  13.171  0.3576  0.1858  0.5987
  790MPD2    N111654   4.657   0.891  13.535  0.1748  0.3091  0.7003
  790MPD2    H711655   4.668   0.843  13.624  0.7803 -1.8618 -0.5615
  791MPD2     C11656   3.782   1.367  12.515 -0.5297  0.1941 -0.4707
  791MPD2    C111657   3.805   1.284  12.621  0.1840  0.4095  0.8061
  791MPD2    C211658   3.701   1.210  12.674 -0.0880  0.0428 -0.3102
  791MPD2    C311659   3.581   1.199  12.604  0.2731  0.0358  0.1056
  791MPD2    C411660   3.555   1.283  12.500 -0.2711 -0.2385 -0.6498
  791MPD2    C511661   3.655   1.368  12.458 -0.5178  0.6973  0.2787
  791MPD2     H11662   3.711   1.146  12.761 -1.6091  2.3424  1.5353
  791MPD2    H111663   3.466   1.277  12.439 -0.4146 -3.4517 -0.0948
  791MPD2    H211664   3.861   1.431  12.476 -1.0515  0.5042 -1.0101
  791MPD2    H311665   3.647   1.448  12.385  0.3476  0.5017 -0.0263
  791MPD2     N11666   3.484   1.104  12.632 -0.2976  0.0853 -0.0202
  791MPD2    H511667   3.508   1.029  12.697 -0.4487 -1.0853 -1.3131
  791MPD2    N111668   3.939   1.281  12.669  0.0766 -0.1490 -0.3652
  791MPD2    H711669   4.007   1.346  12.631  0.5467  0.5246  1.6121
  792MPD2     C11670   0.229   1.352  11.305 -0.0062  0.2502  0.4944
  792MPD2    C111671   0.113   1.420  11.268  0.2700 -0.5305  0.8589
  792MPD2    C211672   0.035   1.363  11.169  0.7558 -0.9305  0.1281
  792MPD2    C311673   0.058   1.235  11.114  0.4104  0.4016  0.3997
  792MPD2    C411674   0.174   1.164  11.158 -0.7856 -0.2587 -0.4493
  792MPD2    C511675   0.250   1.227  11.253 -0.1492  0.0373  0.3183
  792MPD2     H11676   4.667   1.407  11.134  0.0967 -2.3744  0.0639
  792MPD2    H111677   0.205   1.064  11.133 -2.5342 -0.6642 -1.0356
  792MPD2    H211678   0.290   1.385  11.388 -1.4793 -0.4249  1.8508
  792MPD2    H311679   0.341   1.178  11.286 -0.3057  0.3160  1.1645
  792MPD2     N11680   4.713   1.177  11.010  0.0603  0.5826  0.0895
  792MPD2    H511681   0.028   1.092  10.971 -0.1288  0.1272  0.9009
  792MPD2    N111682   0.100   1.545  11.325  0.0173 -0.5381  0.2684
  792MPD2    H711683   0.172   1.581  11.387  0.7104 -0.0002 -0.8453
  793MPD2     C11684   4.417   1.314   9.970 -0.1480 -0.0838 -0.2999
  793MPD2    C111685   4.500   1.206  10.008 -0.3627  0.5459 -0.2276
  793MPD2    C211686   4.515   1.174  10.138  0.4917 -0.2614  0.5503
  793MPD2    C311687   4.462   1.257  10.236  0.0920 -0.5301  0.5018
  793MPD2    C411688   4.396   1.365  10.205  0.2094 -0.0389 -1.0008
  793MPD2    C511689   4.368   1.396  10.074 -0.1657  0.4627  0.1253
  793MPD2     H11690   4.576   1.094  10.178 -0.9604 -0.3104  2.6516
  793MPD2    H111691   4.360   1.431  10.284  0.2256 -2.6535  1.1798
  793MPD2    H211692   4.397   1.337   9.866  0.8218 -0.8612 -0.6612
  793MPD2    H311693   4.302   1.481  10.061  0.8559  1.2413  0.0471
  793MPD2     N11694   4.491   1.214  10.368  0.5255 -0.4041  0.0903
  793MPD2    H511695   4.545   1.128  10.370  1.2354  0.0290 -1.0257
  793MPD2    N111696   4.564   1.119   9.910  1.0011  0.1393 -0.0206
  793MPD2    H711697   4.639   1.060   9.945  0.8722 -0.0583 -0.0824
  794MPD2     C11698   4.296   0.316  17.079  0.5326  0.3181  0.4329
  794MPD2    C111699   4.167   0.351  17.109  0.0002 -0.7444 -1.1683
  794MPD2    C211700   4.078   0.405  17.019  0.1746  0.4730  0.1504
  794MPD2    C311701   4.120   0.427  16.892  0.4291  0.1243  0.6406
  794MPD2    C411702   4.252   0.395  16.859 -0.1115 -0.3667  0.1758
  794MPD2    C511703   4.336   0.342  16.952  0.3950 -0.3101 -0.5936
  794MPD2     H11704   3.972   0.413  17.039  0.4621 -1.4389  2.4049
  794MPD2    H111705   4.290   0.396  16.757 -2.1367 -0.7625 -0.5680
  794MPD2    H211706   4.364   0.257  17.140  0.5842 -1.1435 -1.0590
  794MPD2    H311707   4.436   0.306  16.928 -0.4048 -3.3125  0.5330
  794MPD2     N11708   4.035   0.482  16.789 -0.2372 -1.1250 -0.3837
  794MPD2    H511709   4.075   0.468  16.697 -0.0795  1.2276 -0.6857
  794MPD2    N111710   4.107   0.312  17.231 -0.4728 -0.9390  0.6263
  794MPD2    H711711   4.007   0.324  17.246 -0.5014 -1.0481  0.5233
  795MPD2     C11712   1.920   2.726  13.953  0.3137 -0.6998  0.5380
  795MPD2    C111713   1.864   2.635  13.863 -0.0190 -0.8610  0.2677
  795MPD2    C211714   1.933   2.513  13.841 -0.0632 -0.8379  0.1858
  795MPD2    C311715   2.054   2.487  13.902 -0.0403 -0.4214  0.8493
  795MPD2    C411716   2.114   2.586  13.978  0.3174 -0.1314 -0.0342
  795MPD2    C511717   2.040   2.699  14.012 -0.0599  0.6569  0.0218
  795MPD2     H11718   1.877   2.445  13.779 -0.0532 -0.7085  0.0347
  795MPD2    H111719   2.215   2.572  14.016  0.0978 -0.4494  0.4387
  795MPD2    H211720   1.862   2.811  13.987  0.4780  0.8129 -2.9665
  795MPD2    H311721   2.093   2.768  14.077 -3.0543  0.8417  2.2524
  795MPD2     N11722   2.118   2.358  13.886  0.0004 -0.4055  0.0026
  795MPD2    H511723   2.216   2.360  13.912 -0.7738  0.3438  2.8815
  795MPD2    N111724   1.738   2.655  13.797  0.0446  0.6924 -0.3272
  795MPD2    H711725   1.703   2.580  13.739  1.4718  1.5054 -2.2303
  796MPD2     C11726   1.234   3.841  16.031  0.3007 -0.5414  0.8176
  796MPD2    C111727   1.339   3.904  16.097 -0.3235 -0.4280 -0.0266
  796MPD2    C211728   1.352   4.043  16.085 -0.2045 -0.7376  0.0521
  796MPD2    C311729   1.258   4.116  16.011 -0.0640  0.2796  0.2280
  796MPD2    C411730   1.155   4.042  15.950  0.5963  0.1669 -1.2127
  796MPD2    C511731   1.147   3.904  15.951 -0.2736  0.4206  0.7223
  796MPD2     H11732   1.437   4.096  16.127 -0.5579  0.0802 -0.2810
  796MPD2    H111733   1.086   4.085  15.877  0.3350  0.8884 -0.5483
  796MPD2    H211734   1.226   3.733  16.038  0.5349 -0.6844 -1.1245
  796MPD2    H311735   1.064   3.850  15.908 -0.6691  0.1398  1.8339
  796MPD2     N11736   1.256   4.257  16.009  0.1035 -0.7199 -0.0512
  796MPD2    H511737   1.349   4.297  16.021 -0.6688  1.3709 -1.0667
  796MPD2    N111738   1.427   3.816  16.160  0.2681 -0.4847 -0.3858
  796MPD2    H711739   1.404   3.718  16.167  0.7559 -0.3856  2.5671
  797MPD2     C11740   1.668   3.198  17.555  0.4708  0.0604  0.3407
  797MPD2    C111741   1.794   3.139  17.548  0.4383 -0.5288  0.2902
  797MPD2    C211742   1.895   3.219  17.501 -0.2192  1.0689  0.1221
  797MPD2    C311743   1.887   3.355  17.467  0.5429 -0.4663 -0.5158
  797MPD2    C411744   1.764   3.407  17.483 -0.3686  0.5261  0.1149
  797MPD2    C511745   1.656   3.330  17.517  0.3771 -0.2222 -0.2031
  797MPD2     H11746   1.993   3.173  17.492 -0.5575  0.7798 -2.2328
  797MPD2    H111747   1.740   3.509  17.455 -0.8004  0.5900  0.7171
  797MPD2    H211748   1.574   3.148  17.572 -0.3330  1.5926  0.4710
  797MPD2    H311749   1.557   3.373  17.503  1.2049  1.5832 -0.4577
  797MPD2     N11750   2.006   3.418  17.423  0.0894 -0.7467  0.2843
  797MPD2    H511751   2.089   3.361  17.416  0.9607  0.6897 -1.0997
  797MPD2    N111752   1.835   3.006  17.572  0.6947  0.3099  0.6840
  797MPD2    H711753   1.936   2.993  17.573  0.7846  1.0283  0.9717
  798MPD2     C11754   2.540   3.013  17.315 -0.0344  0.9811 -0.2776
  798MPD2    C111755   2.428   3.081  17.361 -0.1292  0.2262  0.3542
  798MPD2    C211756   2.321   3.008  17.405  0.3576  0.1235 -0.2227
  798MPD2    C311757   2.317   2.869  17.414 -0.1246 -0.8953 -0.3577
  798MPD2    C411758   2.430   2.795  17.369  0.2932  0.3699  0.6217
  798MPD2    C511759   2.535   2.871  17.315 -0.7779 -0.3679  0.2773
  798MPD2     H11760   2.226   3.055  17.431 -0.8187 -1.2876 -1.9923
  798MPD2    H111761   2.436   2.687  17.372  0.2139  0.3467 -0.1761
  798MPD2    H211762   2.623   3.058  17.263  0.0175  2.7162  1.3039
  798MPD2    H311763   2.623   2.823  17.275  0.5165 -1.4965  4.4373
  798MPD2     N11764   2.207   2.821  17.488 -0.3925 -0.2350 -0.7454
  798MPD2    H511765   2.147   2.886  17.538 -0.3529 -1.9041  1.4478
  798MPD2    N111766   2.425   3.220  17.343 -0.1955 -0.7647  0.2419
  798MPD2    H711767   2.502   3.270  17.298 -3.4985  2.8372 -1.4077
  799MPD2     C11768   1.298   0.541  14.806 -1.2805 -0.2871  0.4465
  799MPD2    C111769   1.251   0.460  14.712 -0.5253 -0.6138 -0.1454
  799MPD2    C211770   1.181   0.511  14.599  0.2315 -0.4743 -0.7452
  799MPD2    C311771   1.157   0.646  14.596 -0.2606  0.1837 -0.1085
  799MPD2    C411772   1.206   0.732  14.694  0.7821  0.1215  0.1578
  799MPD2    C511773   1.266   0.674  14.806  0.4672 -0.3262 -0.0422
  799MPD2     H11774   1.148   0.439  14.525  1.0390 -1.0920 -0.5081
  799MPD2    H111775   1.181   0.837  14.693 -0.8572 -0.2792 -0.9569
  799MPD2    H211776   1.335   0.501  14.900  2.0613 -0.2536 -0.8241
  799MPD2    H311777   1.306   0.735  14.886  1.5186 -1.9931  0.6940
  799MPD2     N11778   1.103   0.702  14.477  0.3489  0.2188 -0.1111
  799MPD2    H511779   1.092   0.803  14.477  0.4923  0.2426  1.5054
  799MPD2    N111780   1.266   0.318  14.719 -0.7347 -0.5394  0.3116
  799MPD2    H711781   1.214   0.265  14.649 -0.9685 -1.2580  1.0247
  800MPD2     C11782   1.733   2.147  14.066  0.0030  0.3166 -0.7558
  800MPD2    C111783   1.845   2.073  14.115  0.3604 -0.9258  0.1642
  800MPD2    C211784   1.843   1.934  14.131  0.0317 -0.5798 -0.5811
  800MPD2    C311785   1.729   1.869  14.082  0.3227 -0.4530  0.2076
  800MPD2    C411786   1.627   1.945  14.018 -0.3653  0.3607 -0.3301
  800MPD2    C511787   1.630   2.079  14.013  0.0760 -0.3364 -0.3688
  800MPD2     H11788   1.927   1.881  14.173  1.1725  1.7317  0.0289
  800MPD2    H111789   1.541   1.898  13.970 -0.7263  1.2652 -0.5648
  800MPD2    H211790   1.722   2.254  14.066 -1.3675  0.1796  0.5497
  800MPD2    H311791   1.542   2.139  13.996  0.9315  0.6543 -1.2488
  800MPD2     N11792   1.716   1.727  14.079  0.2792  0.7527  0.2877
  800MPD2    H511793   1.644   1.697  14.014  0.8146 -0.1893  0.1350
  800MPD2    N111794   1.960   2.150  14.141 -0.4021  0.0290  0.2431
  800MPD2    H711795   1.956   2.251  14.133  0.5114  0.2127  2.0122
  801MPD2     C11796   2.110   2.700  14.576  0.6434  0.1629 -0.4346
  801MPD2    C111797   2.052   2.582  14.532 -0.4398  0.4032  0.0836
  801MPD2    C211798   1.943   2.531  14.608 -0.2200 -0.4243 -0.2403
  801MPD2    C311799   1.908   2.595  14.729  0.2383  0.3616  0.5220
  801MPD2    C411800   1.973   2.709  14.775 -0.1991  0.7169  0.2242
  801MPD2    C511801   2.068   2.760  14.690 -1.0464  0.1520 -0.4974
  801MPD2     H11802   1.896   2.438  14.578 -0.7483 -1.0763  2.6646
  801MPD2    H111803   1.936   2.762  14.862 -1.7186 -0.0316  0.0383
  801MPD2    H211804   2.173   2.757  14.508 -0.4709 -0.3061 -1.8591
  801MPD2    H311805   2.111   2.855  14.720  0.3783 -0.6352 -0.0545
  801MPD2     N11806   1.819   2.530  14.815  0.1373  0.5252  0.5175
  801MPD2    H511807   1.834   2.537  14.916  2.9163 -0.0366  0.1473
  801MPD2    N111808   2.104   2.506  14.427 -0.1759 -0.0188  0.1362
  801MPD2    H711809   2.042   2.426  14.414  2.2394 -1.7019 -1.0216
  802MPD2     C11810   1.785   1.948  17.693 -0.3106 -0.7077  0.6175
  802MPD2    C111811   1.692   2.050   0.014  0.0316 -0.3700 -0.2055
  802MPD2    C211812   1.620   2.093  17.596  0.2490  0.6196 -0.3635
  802MPD2    C311813   1.621   2.027  17.477 -0.0613  0.3716 -0.0628
  802MPD2    C411814   1.711   1.923  17.465  0.9128  0.4290 -0.2611
  802MPD2    C511815   1.795   1.886  17.572 -0.5256 -0.2990  0.3956
  802MPD2     H11816   1.553   2.177  17.607  0.0877  0.5830 -1.0890
  802MPD2    H111817   1.720   1.869  17.372 -0.0210 -1.3424  0.6734
  802MPD2    H211818   1.842   1.902   0.074  1.6608  0.1827 -0.2787
  802MPD2    H311819   1.864   1.804  17.557 -0.2992 -0.4079  2.0296
  802MPD2     N11820   1.543   2.073  17.365 -0.0690  0.3253 -0.0466
  802MPD2    H511821   1.483   2.154  17.376  0.8327  0.9129  0.4799
  802MPD2    N111822   1.660   2.107   0.139  0.6517  0.3208 -0.1436
  802MPD2    H711823   1.586   2.176   0.140  1.1961  0.9483 -2.0008
  803MPD2     C11824   2.244   1.145  11.943  0.4073 -0.7917  0.3956
  803MPD2    C111825   2.325   1.159  12.064 -0.5773 -0.4557 -0.5674
  803MPD2    C211826   2.281   1.091  12.183 -0.0133  0.7389  0.0778
  803MPD2    C311827   2.165   1.020  12.182  0.1091  0.8486  0.2033
  803MPD2    C411828   2.087   1.006  12.067 -0.0365 -0.0735  0.4045
  803MPD2    C511829   2.139   1.058  11.948  0.3986 -0.3948 -0.5582
  803MPD2     H11830   2.344   1.103  12.271 -1.3227 -2.9362  1.4746
  803MPD2    H111831   2.007   0.933  12.056  0.7176 -1.0715  1.5512
  803MPD2    H211832   2.275   1.196  11.853 -0.9690 -1.0968 -0.2436
  803MPD2    H311833   2.086   1.037  11.856  0.9405  0.9796 -1.1855
  803MPD2     N11834   2.139   0.937  12.293 -0.2288  0.1602 -0.3932
  803MPD2    H511835   2.041   0.913  12.306  0.1760 -0.4392  1.5908
  803MPD2    N111836   2.434   1.246  12.067 -0.4557  0.6904  0.3828
  803MPD2    H711837   2.475   1.257  12.159 -0.9983  0.6267  0.6291
  804MPD2     C11838   1.596   1.892  16.736 -0.3245 -0.4626 -0.0244
  804MPD2    C111839   1.660   1.858  16.851 -0.2948  0.4227  0.3294
  804MPD2    C211840   1.740   1.947  16.912 -0.6145 -0.8502  0.5998
  804MPD2    C311841   1.756   2.076  16.864  0.0940  0.0286  0.3099
  804MPD2    C411842   1.699   2.111  16.747 -0.1362  0.1033  0.2978
  804MPD2    C511843   1.613   2.020  16.691  0.6459 -0.6206  0.3404
  804MPD2     H11844   1.775   1.928  17.013  1.2102 -2.3354 -0.3213
  804MPD2    H111845   1.717   2.204  16.696 -1.5955  0.2987  0.1331
  804MPD2    H211846   1.535   1.825  16.676  2.4928 -1.7207 -1.4410
  804MPD2    H311847   1.558   2.049  16.602 -1.2691 -0.9279  1.4426
  804MPD2     N11848   1.833   2.174  16.928  0.5780  0.5650  0.1803
  804MPD2    H511849   1.826   2.270  16.895 -0.9383 -0.1664 -1.6526
  804MPD2    N111850   1.634   1.731  16.905 -0.1403  0.0321  0.1340
  804MPD2    H711851   1.671   1.708  16.997  1.1369 -2.5874 -1.0217
  805MPD2     C11852   0.947   0.847  15.578  0.2441  0.1340  0.4579
  805MPD2    C111853   1.050   0.865  15.490 -0.1292 -0.3540  0.0014
  805MPD2    C211854   1.176   0.873  15.549  0.0091 -0.1574  0.0950
  805MPD2    C311855   1.188   0.874  15.689  0.2112  0.1604 -0.0355
  805MPD2    C411856   1.080   0.862  15.773 -0.2443  0.4223  0.0914
  805MPD2    C511857   0.956   0.856  15.713 -0.5585 -0.0409 -0.0356
  805MPD2     H11858   1.262   0.886  15.484 -0.9524 -1.5815 -1.4665
  805MPD2    H111859   1.084   0.866  15.881 -3.1797 -0.7122  0.2368
  805MPD2    H211860   0.849   0.849  15.532  0.6648 -0.1605 -0.4494
  805MPD2    H311861   0.871   0.849  15.780 -0.8337 -2.3435 -0.6262
  805MPD2     N11862   1.321   0.870  15.740 -0.4793  0.1547 -0.0030
  805MPD2    H511863   1.395   0.886  15.673 -0.0913  1.0849  0.6505
  805MPD2    N111864   1.029   0.849  15.347  0.7898  0.4187 -0.5212
  805MPD2    H711865   1.115   0.836  15.295  0.2914  0.7608 -1.4182
  806MPD2     C11866   1.345   4.682   0.156  0.2501  0.1723  0.1870
  806MPD2    C111867   1.379   0.007   0.280  0.8085 -0.1974 -0.6983
  806MPD2    C211868   1.448   0.122   0.289 -0.6797  0.5012 -0.2449
  806MPD2    C311869   1.496   0.184   0.182 -0.2973  0.4505  0.0326
  806MPD2    C411870   1.471   0.136   0.054 -0.5969  0.0765  0.4407
  806MPD2    C511871   1.384   0.027   0.043 -0.0499 -0.0061 -0.9063
  806MPD2     H11872   1.478   0.163   0.385 -0.5287 -1.4292  0.5422
  806MPD2    H111873   1.507   0.176  17.659  1.0194 -0.9107  0.6404
  806MPD2    H211874   1.292   4.588   0.151 -0.0630  0.1682  3.4616
  806MPD2    H311875   1.377   4.721  17.639  0.0016 -0.2222 -0.8473
  806MPD2     N11876   1.572   0.299   0.216  0.9548  0.1155 -0.4820
  806MPD2    H511877   1.584   0.326   0.313 -1.2349  0.7169 -0.3709
  806MPD2    N111878   1.325   4.665   0.400 -0.5139 -0.1188  0.7607
  806MPD2    H711879   1.266   4.585   0.385  1.4789 -1.4345 -0.0720
  807MPD2     C11880   0.971   4.067   0.655 -0.8767 -0.5169 -0.6581
  807MPD2    C111881   0.930   4.158   0.752 -0.3320 -0.3299 -0.0264
  807MPD2    C211882   0.867   4.117   0.866  0.6725 -0.2761 -0.0790
  807MPD2    C311883   0.844   3.983   0.893  0.1448 -0.6828 -0.4846
  807MPD2    C411884   0.873   3.896   0.789  0.4546 -0.4371 -0.1513
  807MPD2    C511885   0.937   3.939   0.678  0.5789 -0.0012  0.6410
  807MPD2     H11886   0.846   4.190   0.944 -2.4492  0.8299 -1.9767
  807MPD2    H111887   0.855   3.791   0.809 -0.5593 -0.8559 -3.2799
  807MPD2    H211888   1.022   4.087   0.561  2.7641  0.1614  1.4696
  807MPD2    H311889   0.962   3.867   0.601  1.9021  0.5452  0.5639
  807MPD2     N11890   0.775   3.944   1.011  0.2321  0.0414  0.1273
  807MPD2    H511891   0.716   4.014   1.055  0.0367 -0.4509  0.6605
  807MPD2    N111892   0.965   4.295   0.751 -0.1870 -0.5584  0.3674
  807MPD2    H711893   0.940   4.354   0.829  0.1995  0.7960 -0.5317
  808MPD2     C11894   2.310   1.394  10.119 -1.2429 -0.1045  0.2281
  808MPD2    C111895   2.212   1.495  10.108  0.0276 -0.0379 -0.0759
  808MPD2    C211896   2.217   1.616  10.183  0.5625  0.1950  0.0411
  808MPD2    C311897   2.322   1.640  10.267  0.2554  0.1572  0.5995
  808MPD2    C411898   2.417   1.543  10.275  0.3708 -0.6871  0.0420
  808MPD2    C511899   2.413   1.424  10.210 -0.0736 -0.5708  0.4649
  808MPD2     H11900   2.140   1.692  10.172  0.0235 -0.0665  1.9496
  808MPD2    H111901   2.505   1.561  10.336  0.1558  1.0204 -0.1677
  808MPD2    H211902   2.302   1.300  10.064 -2.2897  0.3651 -0.4360
  808MPD2    H311903   2.495   1.356  10.231  0.7962  0.2362 -0.3175
  808MPD2     N11904   2.345   1.761  10.335  0.3801  0.0212  0.0842
  808MPD2    H511905   2.433   1.772  10.385 -0.3978 -3.3363  2.2300
  808MPD2    N111906   2.103   1.485  10.022 -0.6714  0.9569 -0.3247
  808MPD2    H711907   2.031   1.554  10.037  2.0224  3.4148  1.3207
  809MPD2     C11908   2.559   2.038   9.612 -0.0807  0.3198 -0.3809
  809MPD2    C111909   2.658   2.023   9.702 -0.3934  0.3300 -0.2935
  809MPD2    C211910   2.626   2.039   9.835  0.1540  0.8455  0.1817
  809MPD2    C311911   2.499   2.080   9.880  0.5507 -0.5937 -0.1586
  809MPD2    C411912   2.406   2.108   9.783  0.3256 -0.6528 -0.9369
  809MPD2    C511913   2.441   2.091   9.655  0.0816  0.2274  0.0407
  809MPD2     H11914   2.691   2.006   9.915 -0.6076 -1.6456 -0.2138
  809MPD2    H111915   2.303   2.140   9.798  0.3331 -0.5159 -1.1710
  809MPD2    H211916   2.579   2.028   9.506  0.5524 -0.4588 -0.1900
  809MPD2    H311917   2.370   2.111   9.575 -0.9549 -0.1559  0.8701
  809MPD2     N11918   2.454   2.103  10.016 -0.2456 -0.0251  0.1945
  809MPD2    H511919   2.359   2.137  10.030 -0.3681 -0.3784  0.2220
  809MPD2    N111920   2.790   1.984   9.673  0.0935 -0.3712 -0.7956
  809MPD2    H711921   2.858   2.009   9.744  1.6746 -2.2669 -1.6498
  810MPD2     C11922   1.986   1.189  10.331  0.4928  0.3180 -0.3920
  810MPD2    C111923   1.861   1.243  10.315 -1.1128 -0.2952  0.4316
  810MPD2    C211924   1.852   1.378  10.344  0.9551 -0.6179 -0.5879
  810MPD2    C311925   1.954   1.457  10.384  0.1612 -0.1945  0.2508
  810MPD2    C411926   2.075   1.392  10.402  0.0104 -0.6888  0.3269
  810MPD2    C511927   2.096   1.262  10.372 -0.3705 -0.3763 -0.7555
  810MPD2     H11928   1.751   1.416  10.343  1.5045  0.8471  0.8765
  810MPD2    H111929   2.160   1.457  10.418 -0.8417  0.6744 -0.7864
  810MPD2    H211930   1.998   1.087  10.294 -0.7196  0.6808 -1.7748
  810MPD2    H311931   2.199   1.229  10.377  0.3829  2.1779  0.5931
  810MPD2     N11932   1.943   1.593  10.421 -0.0049  0.0281  0.1218
  810MPD2    H511933   2.026   1.630  10.467 -0.9999  2.1457  0.2174
  810MPD2    N111934   1.743   1.179  10.265  0.0163 -0.8061  0.2068
  810MPD2    H711935   1.668   1.240  10.235 -0.3945 -1.3080  0.2170
  811MPD2     C11936   1.127   1.172   9.703 -0.2923 -0.5700 -0.0627
  811MPD2    C111937   1.241   1.195   9.778  0.1253  0.3124 -1.0138
  811MPD2    C211938   1.283   1.324   9.793 -0.5986  0.4089  0.2044
  811MPD2    C311939   1.219   1.433   9.728  0.8710  0.0572 -0.4138
  811MPD2    C411940   1.109   1.408   9.644 -0.1759 -0.3121  0.7699
  811MPD2    C511941   1.066   1.272   9.640 -0.1244 -0.3528  0.9617
  811MPD2     H11942   1.369   1.351   9.853 -0.4235  0.1683  0.0619
  811MPD2    H111943   1.072   1.485   9.577 -1.9441 -0.7196  1.2931
  811MPD2    H211944   1.094   1.071   9.680  1.5162 -1.4169  0.9880
  811MPD2    H311945   0.987   1.248   9.570 -0.2155  2.5630  0.0312
  811MPD2     N11946   1.277   1.558   9.744 -0.0625 -0.0141  0.5476
  811MPD2    H511947   1.369   1.563   9.787  1.7612  1.3445 -3.5816
  811MPD2    N111948   1.298   1.083   9.843 -0.1490  0.1257 -0.1458
  811MPD2    H711949   1.242   1.001   9.863 -0.9532  1.2904  2.3406
  812MPD2     C11950   0.714   1.727  12.449  0.0204 -0.4238 -0.1023
  812MPD2    C111951   0.584   1.693  12.414  0.6590 -0.3119 -0.3679
  812MPD2    C211952   0.549   1.561  12.400 -0.1849  0.2139  0.2217
  812MPD2    C311953   0.642   1.460  12.425 -0.1793 -0.5630  0.0270
  812MPD2    C411954   0.765   1.499  12.476 -0.4453 -0.4662 -1.0082
  812MPD2    C511955   0.808   1.630  12.478 -0.1728 -0.2583 -0.2810
  812MPD2     H11956   0.448   1.529  12.380 -0.7401  2.4430 -0.6268
  812MPD2    H111957   0.840   1.426  12.502  0.0963  0.0429 -1.1419
  812MPD2    H211958   0.752   1.829  12.440 -0.7145 -0.1581 -0.1590
  812MPD2    H311959   0.911   1.659  12.493  0.1410 -1.7389  0.4172
  812MPD2     N11960   0.593   1.332  12.422 -0.1845  0.0727 -0.1421
  812MPD2    H511961   0.498   1.322  12.388 -2.0472  4.8028  3.7030
  812MPD2    N111962   0.488   1.802  12.392 -0.3330 -0.0765  0.4180
  812MPD2    H711963   0.521   1.898  12.396 -0.8680  0.2121 -2.1786
  813MPD2     C11964   4.258   2.573  12.406 -1.0089 -0.2377  1.3925
  813MPD2    C111965   4.264   2.714  12.390 -0.4172 -0.7604 -0.1428
  813MPD2    C211966   4.175   2.791  12.461 -0.1185  0.5217  1.1341
  813MPD2    C311967   4.073   2.734  12.532 -0.7470 -0.1506 -0.4257
  813MPD2    C411968   4.062   2.598  12.526 -0.2194  0.5659  0.3968
  813MPD2    C511969   4.155   2.515  12.469  0.0916 -0.2972 -0.9403
  813MPD2     H11970   4.180   2.900  12.463  2.0048  0.4821 -1.8466
  813MPD2    H111971   3.980   2.544  12.573  0.7501 -1.8208 -0.6700
  813MPD2    H211972   4.332   2.504  12.367  0.4539  2.1077  0.0764
  813MPD2    H311973   4.143   2.407  12.472  0.9061 -0.3232  1.2289
  813MPD2     N11974   3.989   2.816  12.606  0.4345  0.4519  0.7649
  813MPD2    H511975   4.013   2.915  12.611 -2.2252  1.1819 -1.0039
  813MPD2    N111976   4.384   2.764  12.349  0.0861  0.3541 -0.4188
  813MPD2    H711977   4.463   2.699  12.342  1.7701  2.4821 -1.2309
  814MPD2     C11978   4.632   3.733  11.476  0.1244  0.3778 -0.0182
  814MPD2    C111979   4.607   3.869  11.456 -0.1306 -0.5401 -0.5789
  814MPD2    C211980   4.640   3.959  11.559  0.2614 -0.4650 -0.1748
  814MPD2    C311981   4.681   3.919  11.684  0.0456 -0.6674  0.1086
  814MPD2    C411982   4.688   3.787  11.712  0.6322  0.5435  0.0009
  814MPD2    C511983   4.667   3.700  11.606 -0.2378  0.2343  0.2422
  814MPD2     H11984   4.608   4.058  11.528 -3.4435 -2.3174 -2.3085
  814MPD2    H111985   4.715   3.748  11.809  1.2668 -1.0962 -0.8408
  814MPD2    H211986   4.616   3.654  11.402  1.6561  0.0930 -0.0354
  814MPD2    H311987   4.676   3.592  11.617  0.9348  0.2400 -0.7079
  814MPD2     N11988   4.700   4.017  11.781 -0.1023  0.3013 -0.5076
  814MPD2    H511989   4.702   3.987  11.878 -3.4609 -1.6890 -1.0606
  814MPD2    N111990   4.571   3.911  11.322 -0.2515  0.6443  1.2206
  814MPD2    H711991   4.565   4.010  11.299 -0.0695 -0.1159 -2.1905
  815MPD2     C11992   0.033   3.156  11.987 -0.4809  0.0598 -0.2033
  815MPD2    C111993   0.053   3.018  11.988  0.4389  0.2671  0.1948
  815MPD2    C211994   4.669   2.936  12.019  0.4465  0.5158 -0.6159
  815MPD2    C311995   4.536   2.986  12.020 -0.3314  0.2771 -0.0625
  815MPD2    C411996   4.516   3.123  12.006  0.1964  0.2847  0.4552
  815MPD2    C511997   4.628   3.203  11.994 -0.0351 -0.1870 -0.4665
  815MPD2     H11998   4.679   2.829  12.016  1.2019  0.5820 -0.2520
  815MPD2    H111999   4.414   3.162  12.007 -0.1079 -0.5455  1.3761
  815MPD2    H212000   0.106   3.233  11.964  1.3035 -1.5697  0.0376
  815MPD2    H312001   4.623   3.310  11.977 -0.6527  0.0551  1.1877
  815MPD2     N12002   4.430   2.893  12.019  0.1260  0.0000 -0.5270
  815MPD2    H512003   4.451   2.794  12.025  1.3410  0.2045 -1.5873
  815MPD2    N112004   0.182   2.970  11.963  0.1294 -0.1943  0.4236
  815MPD2    H712005   0.247   3.037  11.923  1.1687 -2.0987 -1.0925
  816MPD2     C12006   0.838   1.852  17.487 -0.2868  0.1623  0.3558
  816MPD2    C112007   0.713   1.852  17.419  0.6788 -0.7347  0.4868
  816MPD2    C212008   0.699   1.794  17.292  0.0397  0.3058 -0.1484
  816MPD2    C312009   0.811   1.728  17.236  0.4027 -0.6111 -0.3939
  816MPD2    C412010   0.932   1.729  17.298 -0.0459 -0.1788 -0.8371
  816MPD2    C512011   0.938   1.785  17.427 -0.3927  0.6379  0.0027
  816MPD2     H12012   0.607   1.791  17.235  0.3410 -2.6211 -0.4776
  816MPD2    H112013   1.021   1.677  17.265  0.9890  1.5180 -0.7084
  816MPD2    H212014   0.854   1.903  17.581 -0.3507  0.3454  0.2661
  816MPD2    H312015   1.030   1.790  17.484 -0.4310  2.4510 -0.1110
  816MPD2     N12016   0.788   1.665  17.108 -0.3131  0.0016  0.6410
  816MPD2    H512017   0.699   1.666  17.059 -2.4319 -1.6949  4.4790
  816MPD2    N112018   0.609   1.925  17.482 -0.3538  0.5922 -0.1220
  816MPD2    H712019   0.630   1.980  17.565  0.0407  0.3271 -0.0456
  817MPD2     C12020   4.623   3.566  10.024  0.1660  0.0691 -0.8374
  817MPD2    C112021   4.684   3.537   9.908 -0.2645 -0.3355  0.0407
  817MPD2    C212022   4.621   3.566   9.789  0.2104  0.2292  1.0531
  817MPD2    C312023   4.501   3.631   9.786  0.0323  0.2762  0.3714
  817MPD2    C412024   4.434   3.659   9.908 -0.0594 -1.0328  0.0867
  817MPD2    C512025   4.502   3.631  10.021 -0.1764  0.5229 -0.4120
  817MPD2     H12026   4.675   3.538   9.699 -0.1586  0.8016  0.6547
  817MPD2    H112027   4.333   3.696   9.912  0.7929  1.6775 -2.8573
  817MPD2    H212028   4.649   3.521  10.119  0.3988 -2.3652 -2.0684
  817MPD2    H312029   4.451   3.661  10.112 -0.2771 -1.3428  0.1476
  817MPD2     N12030   4.444   3.654   9.658 -0.3485 -0.0204  0.8462
  817MPD2    H512031   4.493   3.604   9.585 -1.7192  2.0039 -1.4517
  817MPD2    N112032   0.085   3.470   9.908  0.0314 -0.9095  0.0701
  817MPD2    H712033   0.135   3.457   9.821 -2.0719 -2.5045 -0.9076
  818MPD2     C12034   3.487   4.193  10.333  0.4664 -0.7099  0.2422
  818MPD2    C112035   3.390   4.101  10.316  0.4086  0.1283  0.0738
  818MPD2    C212036   3.400   4.003  10.224 -0.5087 -0.0501 -0.1674
  818MPD2    C312037   3.509   4.000  10.137  0.4559 -0.1198 -0.4159
  818MPD2    C412038   3.608   4.102  10.149  0.0848 -0.2259  0.2933
  818MPD2    C512039   3.591   4.203  10.244 -0.6441  0.5784 -0.3869
  818MPD2     H12040   3.328   3.924  10.214  0.7229 -1.1412 -0.4243
  818MPD2    H112041   3.697   4.113  10.089 -0.3239 -0.3416 -0.3339
  818MPD2    H212042   3.491   4.273  10.405  1.5402 -1.0224  0.5321
  818MPD2    H312043   3.668   4.277  10.264 -1.0225  0.5561  1.1185
  818MPD2     N12044   3.520   3.904  10.029  0.5489  0.5351  0.2309
  818MPD2    H512045   3.606   3.902   9.976 -0.4699  0.7221 -1.4291
  818MPD2    N112046   3.274   4.105  10.398 -0.1565 -0.3179  0.9047
  818MPD2    H712047   3.202   4.036  10.381  0.5953 -1.1562  1.1449
  819MPD2     C12048   1.841   0.298  15.529 -0.7316  0.1286 -0.2427
  819MPD2    C112049   1.805   0.163  15.545 -0.3242  0.1224  0.8955
  819MPD2    C212050   1.904   0.074  15.587  0.3476  0.1381 -0.2754
  819MPD2    C312051   2.033   0.111  15.608  0.1065 -0.1047 -0.2296
  819MPD2    C412052   2.073   0.241  15.573 -0.5102 -0.1318  0.4178
  819MPD2    C512053   1.973   0.329  15.539 -0.2340 -0.1509 -1.4415
  819MPD2     H12054   1.886   4.692  15.588 -1.0959  0.3908  0.7826
  819MPD2    H112055   2.172   0.283  15.582 -0.5893 -0.1893  1.5494
  819MPD2    H212056   1.767   0.367  15.490  0.0647  1.7906  1.1958
  819MPD2    H312057   1.996   0.432  15.515 -1.9192  0.6196  0.2388
  819MPD2     N12058   2.130   0.017  15.652  0.7281 -0.2558 -0.4084
  819MPD2    H512059   2.100   4.647  15.629  3.3162 -1.1431 -0.1366
  819MPD2    N112060   1.676   0.126  15.512 -0.0960  0.1274  0.6968
  819MPD2    H712061   1.620   0.195  15.463  0.6478 -0.1711 -0.5721
  820MPD2     C12062   0.882   0.188  14.926  0.3026  0.9403  0.2860
  820MPD2    C112063   0.977   0.262  14.986 -0.7875  0.3695 -0.8053
  820MPD2    C212064   1.080   0.207  15.055 -0.2064 -0.6428 -0.8248
  820MPD2    C312065   1.081   0.073  15.084  0.7088  0.9830 -0.5209
  820MPD2    C412066   0.984   4.719  15.023 -0.0680  0.1600 -0.0028
  820MPD2    C512067   0.887   0.056  14.953 -0.1706 -0.4583 -0.1514
  820MPD2     H12068   1.166   0.268  15.082 -0.7056 -0.2902 -0.0442
  820MPD2    H112069   0.995   4.611  15.023  0.4846  0.2172 -1.0600
  820MPD2    H212070   0.788   0.228  14.889 -0.3334  1.0828  2.0486
  820MPD2    H312071   0.805   0.005  14.904 -1.3124 -0.1183  1.4561
  820MPD2     N12072   1.179   0.005  15.163 -0.0343 -0.4815 -0.2773
  820MPD2    H512073   1.175   4.628  15.160 -0.1647 -0.5095  0.7845
  820MPD2    N112074   0.960   0.401  14.972 -0.0754 -0.4885  0.3587
  820MPD2    H712075   0.888   0.433  14.907  0.6575  1.1068  0.3406
  821MPD2     C12076   2.187   1.530  13.553  0.0964  0.1108 -0.8408
  821MPD2    C112077   2.239   1.557  13.678  0.7761 -0.3681 -0.0078
  821MPD2    C212078   2.362   1.617  13.680 -0.3374 -0.4357 -0.5689
  821MPD2    C312079   2.425   1.661  13.563 -0.6303 -0.0188 -0.0850
  821MPD2    C412080   2.363   1.650  13.438  0.2765 -0.2270  0.3569
  821MPD2    C512081   2.241   1.588  13.437  0.2613  0.0900 -0.1855
  821MPD2     H12082   2.410   1.636  13.775  1.4008 -1.6551 -1.2049
  821MPD2    H112083   2.405   1.694  13.349  0.5023 -0.3355  0.4079
  821MPD2    H212084   2.094   1.476  13.538  1.1399 -2.3728  1.5919
  821MPD2    H312085   2.195   1.586  13.339 -1.8766 -1.9056  0.8626
  821MPD2     N12086   2.547   1.734  13.571 -0.7319  0.5099  0.0979
  821MPD2    H512087   2.595   1.747  13.482 -1.4522  1.6127 -0.1396
  821MPD2    N112088   2.166   1.522  13.794 -0.0001  0.1243 -0.8834
  821MPD2    H712089   2.208   1.542  13.884 -0.1683  0.9715 -0.9931
  822MPD2     C12090   2.473   1.411  15.568  0.1055 -0.4462 -0.5682
  822MPD2    C112091   2.507   1.376  15.701 -0.4354 -0.0299  0.1147
  822MPD2    C212092   2.448   1.453  15.803  0.2178 -0.1665  0.0367
  822MPD2    C312093   2.363   1.560  15.773  0.0113 -0.0859  0.2416
  822MPD2    C412094   2.340   1.596  15.637  0.1205 -0.9710  0.3933
  822MPD2    C512095   2.392   1.519  15.538 -0.1121  0.4161  0.6257
  822MPD2     H12096   2.462   1.414  15.903 -1.9425 -0.3406  0.2790
  822MPD2    H112097   2.271   1.676  15.612 -0.8748 -1.7283  0.7120
  822MPD2    H212098   2.496   1.358  15.476  1.4906 -0.0085 -0.4801
  822MPD2    H312099   2.346   1.529  15.440  0.4919 -1.8623  0.1126
  822MPD2     N12100   2.306   1.631  15.877 -0.1047  0.5196  0.1432
  822MPD2    H512101   2.326   1.598  15.971 -1.3960  2.8414  1.2489
  822MPD2    N112102   2.588   1.260  15.727  0.4870  0.1069 -0.9202
  822MPD2    H712103   2.586   1.227  15.823 -1.3871  0.0411 -0.9874
  823MPD2     C12104   1.980   1.745  16.679 -0.5755 -0.4987  0.1168
  823MPD2    C112105   2.015   1.674  16.571 -0.1792  0.0600  0.1826
  823MPD2    C212106   2.062   1.546  16.583 -0.5440  0.1235 -0.0813
  823MPD2    C312107   2.073   1.487  16.709  0.1692  0.0598 -0.7440
  823MPD2    C412108   2.026   1.558  16.820  0.2269 -0.6286  0.5344
  823MPD2    C512109   1.984   1.689  16.809 -0.5677  0.1945 -0.2303
  823MPD2     H12110   2.085   1.487  16.495  0.3940 -0.8594  0.8171
  823MPD2    H112111   2.017   1.519  16.921  0.7138  2.5229  1.7861
  823MPD2    H212112   1.956   1.849  16.665  0.6739 -0.1861  0.2946
  823MPD2    H312113   1.963   1.742  16.901  1.6462 -0.1148  0.4412
  823MPD2     N12114   2.112   1.353  16.728 -0.0213  0.5106 -0.5685
  823MPD2    H512115   2.099   1.304  16.816 -0.3926  0.4433 -0.6604
  823MPD2    N112116   2.017   1.736  16.444  0.2427  0.0960  0.3339
  823MPD2    H712117   1.999   1.836  16.433  0.6619  0.1474  0.1046
  824MPD2     C12118   2.890   0.479  15.452  0.1882  0.9257 -0.1471
  824MPD2    C112119   2.979   0.540  15.535  0.4580  0.3894  0.0846
  824MPD2    C212120   3.110   0.484  15.545  0.5422  0.1697 -0.4247
  824MPD2    C312121   3.138   0.370  15.469 -0.3264  0.3253 -0.1186
  824MPD2    C412122   3.040   0.296  15.402 -0.2687 -0.1695  0.5170
  824MPD2    C512123   2.917   0.358  15.387  0.3736 -1.2614  0.0104
  824MPD2     H12124   3.179   0.546  15.601 -2.0010  0.4577  2.4361
  824MPD2    H112125   3.053   0.221  15.325 -0.2972 -1.4960  1.7963
  824MPD2    H212126   2.791   0.519  15.431 -1.1305 -1.4521  1.4114
  824MPD2    H312127   2.843   0.307  15.327 -2.6162  2.3316  0.6417
  824MPD2     N12128   3.274   0.334  15.457  0.2202  0.3902  0.0020
  824MPD2    H512129   3.352   0.389  15.491  2.0795 -1.5737 -1.1337
  824MPD2    N112130   2.954   0.667  15.593 -0.2134 -0.2657  0.2059
  824MPD2    H712131   3.018   0.690  15.668  0.5915 -2.9881  0.3670
  825MPD2     C12132   4.063   0.494  15.267  0.4408  0.1891 -0.0430
  825MPD2    C112133   3.944   0.532  15.331 -0.0402  0.2143  0.2596
  825MPD2    C212134   3.909   0.666  15.339  0.0691 -0.1206 -0.2221
  825MPD2    C312135   3.989   0.765  15.276 -0.0081 -0.9938 -0.1412
  825MPD2    C412136   4.108   0.719  15.217  0.8320 -0.6510 -0.4529
  825MPD2    C512137   4.144   0.587  15.213  0.1997  0.4116  0.9340
  825MPD2     H12138   3.809   0.694  15.372  0.1136 -0.2790  0.0495
  825MPD2    H112139   4.178   0.793  15.179 -0.7753  0.7800 -0.6263
  825MPD2    H212140   4.094   0.391  15.252  0.6815  0.4367 -1.2631
  825MPD2    H312141   4.234   0.561  15.158 -0.5107  0.3737 -0.2161
  825MPD2     N12142   3.967   0.901  15.290 -0.2444  0.3966 -0.6582
  825MPD2    H512143   4.018   0.954  15.219  0.7839 -1.6331 -1.4373
  825MPD2    N112144   3.863   0.424  15.373 -0.3441  0.5743 -0.1577
  825MPD2    H712145   3.907   0.333  15.364  0.6489  0.9285  1.0818
  826MPD2     C12146   3.244   0.835  13.658 -0.1569 -0.5063 -0.0309
  826MPD2    C112147   3.335   0.905  13.581 -0.6570 -0.3003 -0.0742
  826MPD2    C212148   3.354   1.036  13.619 -0.2661 -0.0420  0.4410
  826MPD2    C312149   3.273   1.091  13.724  0.0913  0.2028  0.4386
  826MPD2    C412150   3.175   1.024  13.780  0.0466 -0.4763 -0.7779
  826MPD2    C512151   3.170   0.889  13.760  0.4226 -0.7840  0.5031
  826MPD2     H12152   3.421   1.095  13.557 -2.7329  1.1972 -1.0702
  826MPD2    H112153   3.109   1.071  13.852 -0.0197 -0.0212 -1.1361
  826MPD2    H212154   3.239   0.727  13.643 -1.2358 -0.6850  1.6474
  826MPD2    H312155   3.104   0.837  13.829 -2.8008  1.4994 -0.8190
  826MPD2     N12156   3.292   1.225  13.775 -0.1620  0.3646  0.1427
  826MPD2    H512157   3.234   1.237  13.857  1.0078 -0.7733  1.1432
  826MPD2    N112158   3.396   0.843  13.469  0.3122 -0.2585 -0.0883
  826MPD2    H712159   3.368   0.746  13.460  0.5792 -0.5971  2.7097
  827MPD2     C12160   4.201   2.137  10.035  0.4444  0.2636  0.4399
  827MPD2    C112161   4.322   2.126  10.095 -0.5528  0.1415  0.1462
  827MPD2    C212162   4.398   2.007  10.075  0.4298  0.0706  0.2889
  827MPD2    C312163   4.350   1.906   9.991  0.3394 -0.4066  0.9030
  827MPD2    C412164   4.225   1.927   9.933 -0.2897  0.4457  0.2744
  827MPD2    C512165   4.146   2.038   9.958 -0.0248 -1.0658  0.1350
  827MPD2     H12166   4.487   1.990  10.135 -0.0043 -1.3667  0.5281
  827MPD2    H112167   4.180   1.853   9.868  0.1533  0.2820  0.1515
  827MPD2    H212168   4.129   2.214  10.059  0.3185  0.8350 -1.7499
  827MPD2    H312169   4.043   2.045   9.925  0.9979 -3.3536 -3.5995
  827MPD2     N12170   4.439   1.801   9.965  0.2114  0.0023  0.3718
  827MPD2    H512171   4.532   1.805  10.006 -0.3882  0.1121  1.7027
  827MPD2    N112172   4.350   2.232  10.180 -0.1316 -0.1774  0.0141
  827MPD2    H712173   4.276   2.300  10.196 -1.0203 -0.8051 -1.4514
  828MPD2     C12174   2.987   1.658  12.870 -0.0925 -0.2133 -0.0351
  828MPD2    C112175   2.907   1.721  12.769 -0.4978 -0.2397  0.2468
  828MPD2    C212176   2.964   1.744  12.643  0.9019 -0.1897  0.0676
  828MPD2    C312177   3.075   1.681  12.598 -0.1880 -0.2070  0.1409
  828MPD2    C412178   3.147   1.607  12.694 -0.1565  0.4046 -0.4093
  828MPD2    C512179   3.100   1.597  12.820  0.2543 -0.3199 -0.2091
  828MPD2     H12180   2.910   1.814  12.581  0.9342 -1.6108 -1.5626
  828MPD2    H112181   3.243   1.562  12.675  0.4065  1.9401 -1.2047
  828MPD2    H212182   2.963   1.648  12.976  0.7064 -0.5281  0.1188
  828MPD2    H312183   3.163   1.547  12.893  0.8726  0.6917 -0.0440
  828MPD2     N12184   3.128   1.704  12.469 -0.3847  0.2054  0.4193
  828MPD2    H512185   3.219   1.660  12.454 -1.3970 -1.5536 -0.5934
  828MPD2    N112186   2.791   1.799  12.803 -0.7493 -0.5540  0.0892
  828MPD2    H712187   2.750   1.830  12.716  4.2937 -2.2289 -2.9408
  829MPD2     C12188   1.975   1.982  12.445 -0.3142  0.2347 -0.0809
  829MPD2    C112189   2.099   2.024  12.396 -0.0632 -0.4858  0.4334
  829MPD2    C212190   2.200   2.035  12.492  0.0227  0.1885  0.2865
  829MPD2    C312191   2.180   2.013  12.629 -0.0838  0.2372 -0.2271
  829MPD2    C412192   2.057   1.974  12.669 -0.1386  0.1262 -0.8172
  829MPD2    C512193   1.957   1.953  12.576 -0.0683 -0.0667 -0.0157
  829MPD2     H12194   2.296   2.073  12.459  0.1268 -0.2867  0.0461
  829MPD2    H112195   2.029   1.968  12.773 -0.0543  0.8567 -0.7569
  829MPD2    H212196   1.888   1.989  12.380 -0.2920 -0.9109 -0.2309
  829MPD2    H312197   1.858   1.924  12.609 -1.2378  3.4515 -0.5150
  829MPD2     N12198   2.283   2.038  12.728 -0.0399 -0.0915  0.2672
  829MPD2    H512199   2.253   2.019  12.823  0.0572  0.7322  0.4659
  829MPD2    N112200   2.107   2.060  12.260 -0.1041 -0.0618 -0.0202
  829MPD2    H712201   2.033   2.028  12.199  1.5947 -1.7827 -1.1638
  830MPD2     C12202   2.396   4.424  15.153  0.2491  0.0559  0.3540
  830MPD2    C112203   2.478   4.504  15.230  0.2253 -0.4494  0.0548
  830MPD2    C212204   2.573   4.588  15.167 -0.9337  0.7914 -0.2207
  830MPD2    C312205   2.585   4.594  15.028 -0.3059  0.2277 -0.5610
  830MPD2    C412206   2.498   4.513  14.959  0.0079  0.2466 -0.1025
  830MPD2    C512207   2.403   4.430  15.015 -0.9588 -0.0738 -0.1687
  830MPD2     H12208   2.627   4.659  15.228  1.5849  0.6581 -2.3440
  830MPD2    H112209   2.505   4.521  14.851  1.9224  1.5093  0.1065
  830MPD2    H212210   2.319   4.362  15.198  0.3582 -0.4714 -0.1909
  830MPD2    H312211   2.349   4.357  14.956  0.7599 -1.0904 -0.4962
  830MPD2     N12212   2.645   4.691  14.946  0.0541  0.0503  0.1883
  830MPD2    H512213   2.609   4.694  14.852 -1.3321  3.2212  0.8158
  830MPD2    N112214   2.457   4.505  15.366 -0.3239  0.2563 -0.6910
  830MPD2    H712215   2.366   4.465  15.387  0.1428 -0.0456  0.7941
  831MPD2     C12216   2.521   1.627  16.258  0.1022 -0.0669 -0.2845
  831MPD2    C112217   2.570   1.536  16.171  0.2679  0.1609 -0.2298
  831MPD2    C212218   2.499   1.425  16.147  0.3168 -0.6479 -0.4263
  831MPD2    C312219   2.378   1.404  16.210 -0.5811 -0.5764 -0.8330
  831MPD2    C412220   2.335   1.500  16.301 -0.0615  0.2344 -0.2146
  831MPD2    C512221   2.406   1.613  16.323 -0.1795 -0.5454  0.1768
  831MPD2     H12222   2.525   1.346  16.077  1.3390  0.8152 -1.6887
  831MPD2    H112223   2.241   1.478  16.350 -0.2784 -1.5489 -1.4516
  831MPD2    H212224   2.574   1.718  16.285 -0.6179  0.5607 -1.0057
  831MPD2    H312225   2.375   1.682  16.401  0.6568  0.1627 -0.1216
  831MPD2     N12226   2.289   1.307  16.173 -0.2197  0.5124  0.9008
  831MPD2    H512227   2.200   1.303  16.222 -0.3987 -1.4476  0.4155
  831MPD2    N112228   2.690   1.572  16.098  0.4439 -0.0355 -0.3715
  831MPD2    H712229   2.724   1.668  16.101  1.1379 -0.2286 -2.4857
  832MPD2     C12230   0.877   2.960  17.124  0.1292 -0.5938 -0.2650
  832MPD2    C112231   0.798   3.066  17.091  0.2539 -0.1568 -0.6116
  832MPD2    C212232   0.688   3.047  17.005 -0.4386 -0.4932 -0.4886
  832MPD2    C312233   0.648   2.918  16.968  0.0563  0.3754 -0.8407
  832MPD2    C412234   0.729   2.816  16.997  0.8776  0.1847 -0.2159
  832MPD2    C512235   0.840   2.837  17.074 -0.2997 -0.4869  0.4554
  832MPD2     H12236   0.625   3.133  16.986  1.3259  0.7885 -0.5196
  832MPD2    H112237   0.704   2.715  16.966  1.2002  0.9558 -2.9564
  832MPD2    H212238   0.954   2.968  17.199  0.2048  0.6475 -0.4731
  832MPD2    H312239   0.905   2.756  17.103  1.1219  0.0220 -1.2940
  832MPD2     N12240   0.528   2.892  16.906  0.2591 -0.4883 -0.1497
  832MPD2    H512241   0.511   2.795  16.883  0.4617 -0.5300 -0.1223
  832MPD2    N112242   0.824   3.190  17.155  0.5018 -0.2457  0.3058
  832MPD2    H712243   0.903   3.194  17.219 -0.1842 -0.4602  1.1753
  833MPD2     C12244   2.869   0.136  12.732  0.3904 -0.9545 -0.4885
  833MPD2    C112245   2.920   0.202  12.621  0.0982  0.1728 -0.1522
  833MPD2    C212246   3.035   0.150  12.562  0.0765  0.2509  0.1554
  833MPD2    C312247   3.107   0.044  12.607  0.0128 -0.2449  0.8063
  833MPD2    C412248   3.053   4.702  12.719  0.8151 -0.2802  1.2760
  833MPD2    C512249   2.943   0.025  12.778  0.0670  0.0355 -0.3110
  833MPD2     H12250   3.079   0.183  12.469 -2.8526 -0.6924 -1.5840
  833MPD2    H112251   3.102   4.618  12.766  0.3125 -0.2117  1.9230
  833MPD2    H212252   2.775   0.169  12.775 -0.6966 -0.4924 -3.2455
  833MPD2    H312253   2.900   4.701  12.864  4.1934 -1.9980  0.5754
  833MPD2     N12254   3.226   4.724  12.536 -0.1284  0.5726 -0.1509
  833MPD2    H512255   3.262   0.044  12.452 -1.2849  1.3681 -0.2342
  833MPD2    N112256   2.846   0.319  12.573 -0.1914  0.3274 -0.4717
  833MPD2    H712257   2.770   0.347  12.635 -1.3124  1.5859 -2.4252
  834MPD2     C12258   3.265   3.915  11.860  0.2503  0.4808 -0.1427
  834MPD2    C112259   3.260   4.027  11.783 -0.7491 -0.2173 -0.4332
  834MPD2    C212260   3.272   4.153  11.844 -0.0719  0.0414 -0.0570
  834MPD2    C312261   3.275   4.155  11.986  0.4057 -0.6342  0.2251
  834MPD2    C412262   3.290   4.039  12.059  0.1223  1.3048 -0.1328
  834MPD2    C512263   3.275   3.918  11.994 -0.4892  0.7439  0.3408
  834MPD2     H12264   3.260   4.245  11.788  1.9805 -0.6931 -1.6939
  834MPD2    H112265   3.313   4.034  12.165  1.0541  1.4848 -0.3264
  834MPD2    H212266   3.253   3.817  11.817  2.2407 -0.4066  1.3162
  834MPD2    H312267   3.289   3.828  12.054 -2.9861 -0.8872 -1.5786
  834MPD2     N12268   3.278   4.282  12.059 -0.9677 -0.0555 -0.1665
  834MPD2    H512269   3.289   4.367  12.004 -1.3660 -0.2194 -0.4956
  834MPD2    N112270   3.219   4.013  11.649  0.1140 -0.4171 -0.3205
  834MPD2    H712271   3.192   3.921  11.615  1.6484 -0.6686 -0.8692
  835MPD2     C12272   3.453   2.747  11.115 -0.2933  0.6248 -0.2816
  835MPD2    C112273   3.331   2.709  11.164 -0.0024  0.5971  0.3949
  835MPD2    C212274   3.329   2.642  11.287 -0.1149 -0.5545 -0.6441
  835MPD2    C312275   3.440   2.659  11.372 -0.2361 -0.1073 -0.3010
  835MPD2    C412276   3.556   2.700  11.328 -0.1603  0.0459 -0.2140
  835MPD2    C512277   3.565   2.749  11.202 -0.1578  0.6044  0.3650
  835MPD2     H12278   3.230   2.606  11.315 -0.1464  0.7746  0.9757
  835MPD2    H112279   3.644   2.715  11.390  0.2650 -1.4326 -0.4695
  835MPD2    H212280   3.463   2.790  11.016  0.9403  1.1680  0.0791
  835MPD2    H312281   3.651   2.809  11.175 -0.5097  0.6753 -0.5993
  835MPD2     N12282   3.437   2.617  11.507  0.2843  0.3459 -0.6456
  835MPD2    H512283   3.519   2.627  11.566 -1.2508 -2.2925  1.9725
  835MPD2    N112284   3.214   2.705  11.091  0.1708 -0.1016  0.4614
  835MPD2    H712285   3.130   2.683  11.143  0.8663 -0.2310  1.5486
  836MPD2     C12286   2.852   2.195  11.921 -0.2260 -0.8233  0.0733
  836MPD2    C112287   2.945   2.268  11.993  0.9292 -0.0942  0.1286
  836MPD2    C212288   2.904   2.318  12.117 -0.4607  0.6860  0.6196
  836MPD2    C312289   2.782   2.280  12.178 -0.9998 -0.1563 -0.1459
  836MPD2    C412290   2.696   2.198  12.107 -0.3358 -1.2213 -0.2253
  836MPD2    C512291   2.727   2.159  11.976  0.3318  0.0151  0.0545
  836MPD2     H12292   2.955   2.403  12.162 -0.1720  1.1039 -0.4959
  836MPD2    H112293   2.603   2.162  12.149 -0.5313 -0.5473 -0.0765
  836MPD2    H212294   2.869   2.158  11.821  0.6500  0.1837 -0.1413
  836MPD2    H312295   2.659   2.093  11.923  1.6675 -1.5279  0.2847
  836MPD2     N12296   2.747   2.322  12.304 -0.6327  0.3630 -0.5210
  836MPD2    H512297   2.652   2.308  12.338 -0.5048  1.1664  0.1762
  836MPD2    N112298   3.062   2.296  11.922  0.3731  0.1616  0.9727
  836MPD2    H712299   3.084   2.267  11.827  0.7538 -2.3605  1.8223
  837MPD2     C12300   1.796   1.998  10.127 -0.1136 -0.0904 -0.1627
  837MPD2    C112301   1.664   2.040  10.109 -0.6151 -0.0646 -0.3611
  837MPD2    C212302   1.615   2.148  10.179 -0.0401 -0.6893  0.3104
  837MPD2    C312303   1.698   2.221  10.266 -0.2073 -0.3547 -0.5112
  837MPD2    C412304   1.827   2.174  10.289  0.3206 -0.0900  1.1088
  837MPD2    C512305   1.867   2.060  10.226 -0.9496 -0.2661  0.0348
  837MPD2     H12306   1.525   2.195  10.143 -0.9495 -1.2267  1.8838
  837MPD2    H112307   1.893   2.224  10.359  0.7648 -2.2483  2.2582
  837MPD2    H212308   1.828   1.917  10.061  0.4235  0.0593 -0.0882
  837MPD2    H312309   1.965   2.022  10.251  0.6062  3.2501 -0.5974
  837MPD2     N12310   1.640   2.335  10.333  0.2907  0.2996 -0.5948
  837MPD2    H512311   1.544   2.355  10.308 -1.1201 -1.2045  3.6017
  837MPD2    N112312   1.576   1.997   9.998  0.6149  0.2343  0.8025
  837MPD2    H712313   1.495   2.053   9.978  0.1662 -0.3320  1.0341
  838MPD2     C12314   0.183   0.198  11.484  0.0807  0.0791  0.3483
  838MPD2    C112315   0.137   0.097  11.402 -0.8145  1.0351  0.1611
  838MPD2    C212316   0.004   0.068  11.396 -0.3101  0.3036 -0.0028
  838MPD2    C312317   4.634   0.138  11.475  0.0709 -0.3348  0.0212
  838MPD2    C412318   4.687   0.241  11.552 -0.3720 -0.5767 -0.4284
  838MPD2    C512319   0.099   0.266  11.564 -0.3128  0.3992 -0.1185
  838MPD2     H12320   4.699   4.711  11.331  0.2509  0.7344 -0.8061
  838MPD2    H112321   4.621   0.303  11.612  1.0515 -0.1223  0.6497
  838MPD2    H212322   0.289   0.211  11.507  0.1691 -0.3471  0.1791
  838MPD2    H312323   0.134   0.341  11.633  1.3550 -0.8525  0.3998
  838MPD2     N12324   4.503   0.096  11.470  0.2655 -0.5978 -0.4782
  838MPD2    H512325   4.482   0.008  11.425  0.0569 -0.6800 -0.2213
  838MPD2    N112326   0.227   0.023  11.319 -0.5923  0.9576  0.3702
  838MPD2    H712327   0.171   4.683  11.263 -1.5523  2.5280 -0.4969
  839MPD2     C12328   4.345   0.241  11.171  0.7105  0.7417  0.0805
  839MPD2    C112329   4.363   0.120  11.104  0.8877  0.4635  0.3915
  839MPD2    C212330   4.488   0.083  11.062 -0.2714  0.2058  0.1252
  839MPD2    C312331   4.594   0.171  11.076  0.1333 -0.6324 -0.0103
  839MPD2    C412332   4.575   0.293  11.138  0.0643  0.0399 -0.0892
  839MPD2    C512333   4.452   0.324  11.188  0.7243 -0.0511  0.6004
  839MPD2     H12334   4.499   4.711  11.013  3.3507 -0.3943  2.1432
  839MPD2    H112335   4.659   0.359  11.154  0.3031 -0.4597  0.6713
  839MPD2    H212336   4.250   0.268  11.216  1.1705  2.3467  0.0770
  839MPD2    H312337   4.444   0.418  11.241 -0.6261  0.0237  0.2713
  839MPD2     N12338   0.004   0.138  11.038  0.5964  0.3847  0.5227
  839MPD2    H512339   0.082   0.201  11.057 -0.2752  0.8157  2.6333
  839MPD2    N112340   4.254   0.018  11.094  0.3302  0.3192 -0.1793
  839MPD2    H712341   4.279   4.652  11.056 -2.2522 -0.2284 -0.5598
  840MPD2     C12342   0.352   2.478  10.456  0.3816  0.8554  0.1566
  840MPD2    C112343   0.241   2.531  10.522  0.1908  0.1550  0.1529
  840MPD2    C212344   0.270   2.613  10.625  0.1349  1.0087 -0.7215
  840MPD2    C312345   0.393   2.635  10.671 -0.0129  0.3740 -0.0102
  840MPD2    C412346   0.502   2.607  10.592 -1.0105 -0.3849  0.6325
  840MPD2    C512347   0.479   2.518  10.488  0.7556 -0.2187  0.0824
  840MPD2     H12348   0.185   2.646  10.684 -0.6693 -3.4182  0.6280
  840MPD2    H112349   0.602   2.635  10.624 -0.7131 -1.2048  0.4461
  840MPD2    H212350   0.335   2.403  10.380 -1.8498  1.2943  0.2237
  840MPD2    H312351   0.566   2.496  10.428  0.5586  3.4477 -1.5555
  840MPD2     N12352   0.425   2.707  10.793  0.4967  0.0932  0.5659
  840MPD2    H512353   0.525   2.715  10.810  1.2683 -0.5320 -3.6180
  840MPD2    N112354   0.108   2.480  10.490 -0.2102 -0.0301 -0.3747
  840MPD2    H712355   0.091   2.400  10.430 -2.3663  0.9759 -1.0900
  841MPD2     C12356   3.995   2.290  14.152 -0.1739 -0.2031 -0.0213
  841MPD2    C112357   4.123   2.240  14.140 -0.3527  0.2088 -0.6074
  841MPD2    C212358   4.227   2.336  14.128 -0.3936 -0.6811  0.2006
  841MPD2    C312359   4.199   2.477  14.121 -0.4739  0.1096  0.4947
  841MPD2    C412360   4.071   2.514  14.146  0.0519  0.1630 -0.2116
  841MPD2    C512361   3.966   2.425  14.157  0.1352 -0.1034 -0.0339
  841MPD2     H12362   4.329   2.309  14.104  0.7285  2.8036  1.0813
  841MPD2    H112363   4.033   2.616  14.152  2.2207  0.9300  0.5420
  841MPD2    H212364   3.912   2.221  14.162  0.0701 -0.8228 -2.1705
  841MPD2    H312365   3.865   2.459  14.176  0.4371  1.0567 -0.4920
  841MPD2     N12366   4.311   2.560  14.117 -0.2686  0.5871  0.1923
  841MPD2    H512367   4.398   2.510  14.102 -0.6499 -0.1047  0.2812
  841MPD2    N112368   4.148   2.101  14.147 -0.3045 -0.0308  0.2881
  841MPD2    H712369   4.244   2.076  14.127 -0.3880 -1.2224  1.3861
  842MPD2     C12370   0.010   3.327  16.689 -0.4540  0.6284  0.2246
  842MPD2    C112371   4.648   3.268  16.777  0.2003  0.5263 -0.0292
  842MPD2    C212372   4.695   3.226  16.899  0.3995 -0.2160  0.3143
  842MPD2    C312373   0.101   3.229  16.934  0.2637  0.6166  0.1090
  842MPD2    C412374   0.180   3.313  16.856 -0.4170 -0.4698 -0.3707
  842MPD2    C512375   0.137   3.358  16.730  0.0823  0.1688 -0.0660
  842MPD2     H12376   4.633   3.164  16.963 -0.2331 -1.2370 -1.2764
  842MPD2    H112377   0.280   3.342  16.885 -0.1516 -0.1792 -1.5523
  842MPD2    H212378   4.694   3.358  16.593  0.7230  1.4114 -0.0094
  842MPD2    H312379   0.190   3.427  16.666  1.8510 -1.2232 -0.0886
  842MPD2     N12380   0.156   3.176  17.054  0.0900  0.0869  0.8083
  842MPD2    H512381   0.253   3.193  17.078  1.1740 -2.0223 -2.0643
  842MPD2    N112382   4.511   3.257  16.735 -0.1431  0.0698  0.1277
  842MPD2    H712383   4.492   3.285  16.639 -1.2036  0.1308  0.3628
  843MPD2     C12384   1.759   3.481   0.094 -0.8592  0.8315  0.4509
  843MPD2    C112385   1.842   3.383   0.147  0.1836  0.5056  0.5959
  843MPD2    C212386   1.971   3.419   0.187 -0.6965  0.0015  0.4115
  843MPD2    C312387   2.015   3.550   0.161 -0.1362  0.1501  0.4075
  843MPD2    C412388   1.934   3.643   0.101 -0.0334 -0.3915  0.2632
  843MPD2    C512389   1.805   3.608   0.067 -0.2058  0.0815 -0.2436
  843MPD2     H12390   2.034   3.339   0.225 -0.6231  0.3081  0.9280
  843MPD2    H112391   1.970   3.743   0.082 -1.9037  0.0359 -1.0195
  843MPD2    H212392   1.657   3.464   0.062  0.1270 -0.4140 -2.1065
  843MPD2    H312393   1.746   3.671   0.002  0.4896  0.0179 -0.9455
  843MPD2     N12394   2.147   3.588   0.199 -0.0901 -0.5103  0.5098
  843MPD2    H512395   2.176   3.676   0.158 -1.8459  0.0427  0.4759
  843MPD2    N112396   1.782   3.259   0.182  0.5217 -0.0771  0.4351
  843MPD2    H712397   1.682   3.253   0.166  0.8178 -1.2113 -1.0026
  844MPD2     C12398   0.430   2.821  16.442  0.0260 -0.3456  0.0634
  844MPD2    C112399   0.558   2.747  16.446 -0.1022 -0.1762 -0.6729
  844MPD2    C212400   0.674   2.805  16.494  0.1503  0.0912 -0.1518
  844MPD2    C312401   0.666   2.935  16.541  0.4916 -0.1815 -0.1074
  844MPD2    C412402   0.544   3.005  16.528  0.2203 -0.1419 -0.1237
  844MPD2    C512403   0.427   2.952  16.491 -0.7648  0.6402 -0.4478
  844MPD2     H12404   0.764   2.746  16.506  0.8371  0.7555 -2.0322
  844MPD2    H112405   0.534   3.110  16.553 -0.9400 -0.1064 -0.7191
  844MPD2    H212406   0.344   2.772  16.398  0.5967 -0.5759 -0.7962
  844MPD2    H312407   0.335   3.008  16.481 -1.1891  0.2115  1.0508
  844MPD2     N12408   0.774   2.977  16.623 -0.4447 -0.0823  0.1822
  844MPD2    H512409   0.848   2.909  16.632 -0.7276 -0.3401  0.5501
  844MPD2    N112410   0.573   2.616  16.402  0.4567  0.0877  0.1066
  844MPD2    H712411   0.667   2.577  16.398  0.3645 -0.1465  0.1955
  845MPD2     C12412   0.872   3.805  17.085 -0.1091  0.3344 -0.8884
  845MPD2    C112413   0.774   3.716  17.041 -0.2705 -0.1205 -0.3729
  845MPD2    C212414   0.812   3.598  16.976  0.1192 -0.1849 -0.1672
  845MPD2    C312415   0.948   3.567  16.960  0.2952  0.5746  0.2551
  845MPD2    C412416   1.046   3.645  17.013  0.4298  1.0367 -0.9336
  845MPD2    C512417   1.008   3.764  17.079  0.3004  0.2191  0.5049
  845MPD2     H12418   0.738   3.537  16.925  0.1465 -0.4128  0.0624
  845MPD2    H112419   1.152   3.628  17.010  0.2054 -0.5013  0.0158
  845MPD2    H212420   0.852   3.894  17.143  0.7041 -0.6471  0.9000
  845MPD2    H312421   1.079   3.837  17.116 -1.8547  1.8161  1.5641
  845MPD2     N12422   0.984   3.449  16.891 -0.0233  0.3139  0.4565
  845MPD2    H512423   0.907   3.396  16.852  1.1550 -1.8918  1.1139
  845MPD2    N112424   0.635   3.738  17.048 -0.9271  0.2042 -0.1032
  845MPD2    H712425   0.578   3.679  16.988  1.4728 -1.4993 -0.6769
  846MPD2     C12426   1.903   4.038  13.342 -0.1005 -0.2550 -0.0117
  846MPD2    C112427   1.955   4.159  13.375 -0.3348 -0.0735 -0.0891
  846MPD2    C212428   1.972   4.183  13.507  0.8033  0.4120 -0.9215
  846MPD2    C312429   1.937   4.095  13.608 -0.4992 -0.0232 -0.1651
  846MPD2    C412430   1.883   3.976  13.566 -0.2154 -0.1278 -0.9035
  846MPD2    C512431   1.870   3.943  13.434 -0.1156 -0.0748 -0.0087
  846MPD2     H12432   2.011   4.280  13.536  0.6269  0.3009 -0.3108
  846MPD2    H112433   1.871   3.893  13.635 -0.3312 -0.7420 -1.6652
  846MPD2    H212434   1.908   4.006  13.238  1.2741 -0.9797  0.2730
  846MPD2    H312435   1.858   3.837  13.415  0.0480 -0.2067  0.6202
  846MPD2     N12436   1.968   4.121  13.743 -0.3799 -0.8045  0.1067
  846MPD2    H512437   1.993   4.218  13.756  2.4722 -1.7091  1.3008
  846MPD2    N112438   2.005   4.244  13.274 -0.5362  0.1481  0.2831
  846MPD2    H712439   2.074   4.312  13.303 -0.3646  1.6038 -3.5247
  847MPD2     C12440   2.550   4.604  13.695  0.3065 -0.1060 -0.1227
  847MPD2    C112441   2.546   4.711  13.785 -0.2860 -0.4429 -0.4200
  847MPD2    C212442   2.582   4.694  13.919 -0.0693 -0.0788 -0.2633
  847MPD2    C312443   2.626   4.571  13.960  0.6853  0.4993 -0.8658
  847MPD2    C412444   2.622   4.473  13.860 -0.3270  0.2165 -0.3237
  847MPD2    C512445   2.593   4.488  13.728 -0.5088 -0.4974 -0.7577
  847MPD2     H12446   2.593   0.055  13.986  1.1637  0.6292 -1.3791
  847MPD2    H112447   2.643   4.370  13.889  0.5789 -0.1434 -2.2770
  847MPD2    H212448   2.548   4.626  13.588  0.1568  0.0461 -0.0891
  847MPD2    H312449   2.600   4.399  13.666 -1.1698 -1.1915  0.1491
  847MPD2     N12450   2.651   4.555  14.092 -0.6108  0.4030  0.8258
  847MPD2    H512451   2.632   4.639  14.145 -0.0857 -0.0054  1.6657
  847MPD2    N112452   2.528   0.122  13.751  0.2679 -0.3430 -0.1327
  847MPD2    H712453   2.548   0.183  13.830  0.0250 -1.6020  0.8903
  848MPD2     C12454   4.517   3.042  16.461 -0.2935 -0.1277 -0.2073
  848MPD2    C112455   4.652   3.064  16.458 -0.8740 -1.0460  0.1640
  848MPD2    C212456   4.706   3.154  16.365 -0.2868 -0.2091  0.2116
  848MPD2    C312457   4.632   3.216  16.269  0.4031  0.4015 -0.2554
  848MPD2    C412458   4.492   3.200  16.279 -0.0769  0.1022  0.3292
  848MPD2    C512459   4.444   3.102  16.357 -0.2042 -0.7162 -0.2957
  848MPD2     H12460   0.088   3.165  16.353 -0.0813 -0.5601  1.7633
  848MPD2    H112461   4.429   3.237  16.199  3.5191 -0.5337 -2.7789
  848MPD2    H212462   4.467   2.963  16.515  0.9626 -0.4111  0.5266
  848MPD2    H312463   4.343   3.064  16.345 -1.1079  1.6548 -0.2149
  848MPD2     N12464   4.679   3.292  16.172  0.2665  0.0456  0.4288
  848MPD2    H512465   4.617   3.323  16.098 -0.6868 -1.8009  0.4606
  848MPD2    N112466   0.017   2.995  16.547  0.0468 -0.2817 -0.1168
  848MPD2    H712467   0.115   3.021  16.540 -0.5133  2.0296  0.5769
  849MPD2     C12468   4.278   2.561  13.750  0.1028 -0.3324  0.3758
  849MPD2    C112469   4.324   2.691  13.728 -0.3290 -0.2951  0.5333
  849MPD2    C212470   4.462   2.721  13.722 -0.0639 -0.1331  0.3970
  849MPD2    C312471   4.556   2.623  13.752 -0.3588  0.1831  0.0425
  849MPD2    C412472   4.515   2.493  13.777 -0.7634  0.3997 -0.1438
  849MPD2    C512473   4.375   2.468  13.775 -0.3098  0.2326  0.4582
  849MPD2     H12474   4.501   2.821  13.706 -0.4850  0.0241  0.3463
  849MPD2    H112475   4.581   2.411  13.800 -0.5653  0.4221 -0.6290
  849MPD2    H212476   4.174   2.530  13.749 -0.2674  0.8538  2.3512
  849MPD2    H312477   4.335   2.370  13.798  1.7643 -0.6543  0.2456
  849MPD2     N12478   4.691   2.650  13.761 -0.1120  0.1146  0.3419
  849MPD2    H512479   0.028   2.587  13.811 -1.9244 -0.8382  1.3677
  849MPD2    N112480   4.229   2.787  13.704  0.3487  0.0726  0.7183
  849MPD2    H712481   4.133   2.761  13.686  1.0335 -0.1165 -2.6556
  850MPD2     C12482   2.525   0.817  14.480 -0.6894 -0.5759  0.3828
  850MPD2    C112483   2.544   0.932  14.552  0.2270 -0.3228 -0.0278
  850MPD2    C212484   2.651   0.931  14.645 -0.0625 -0.7041 -0.0376
  850MPD2    C312485   2.743   0.831  14.646 -0.1913 -0.0671  0.1765
  850MPD2    C412486   2.714   0.714  14.574  0.2800 -0.0142  0.9102
  850MPD2    C512487   2.607   0.707  14.496 -0.3116 -0.0101  0.4083
  850MPD2     H12488   2.673   1.012  14.714 -0.1102 -2.2331  1.7765
  850MPD2    H112489   2.777   0.626  14.575 -1.3059 -1.1803 -1.7581
  850MPD2    H212490   2.438   0.810  14.416  1.3367  2.6577 -2.7084
  850MPD2    H312491   2.582   0.615  14.446  0.7557 -0.1625  0.1566
  850MPD2     N12492   2.859   0.824  14.734  0.0210  0.2781 -0.1176
  850MPD2    H512493   2.918   0.742  14.736 -0.3104  0.0745  0.8495
  850MPD2    N112494   2.443   1.035  14.542  0.3956 -0.3722 -0.5057
  850MPD2    H712495   2.372   1.023  14.470  1.8392 -0.9142 -1.8403
  851MPD2     C12496   2.540   0.992  15.142 -0.1503 -0.8213  0.2280
  851MPD2    C112497   2.452   0.943  15.049  0.5289 -0.0914 -0.3618
  851MPD2    C212498   2.470   0.808  15.003  0.2074  0.2420  0.4039
  851MPD2    C312499   2.579   0.734  15.047  0.2884  0.0085 -0.0298
  851MPD2    C412500   2.654   0.785  15.150 -0.5113 -0.2201 -0.0429
  851MPD2    C512501   2.639   0.914  15.196  0.0202 -0.2795 -0.4757
  851MPD2     H12502   2.403   0.776  14.925  0.9085  0.0835 -0.1344
  851MPD2    H112503   2.743   0.740  15.191 -0.2548 -0.7417 -1.1704
  851MPD2    H212504   2.557   1.097  15.159 -2.1354 -0.6321  1.0762
  851MPD2    H312505   2.719   0.955  15.256  0.5510 -3.0035  0.6706
  851MPD2     N12506   2.610   0.608  14.981 -0.4835 -0.0101 -0.4497
  851MPD2    H512507   2.553   0.581  14.902 -1.7789  2.0538 -0.2394
  851MPD2    N112508   2.367   1.038  14.985  0.1890  0.4358 -0.0498
  851MPD2    H712509   2.383   1.135  15.010  1.2368 -0.5513  3.1102
  852MPD2     C12510   1.418   4.229   9.824  0.7999 -0.3505 -0.4558
  852MPD2    C112511   1.506   4.130   9.786  0.9932 -0.0972 -0.1974
  852MPD2    C212512   1.637   4.169   9.790 -0.1448  0.2021  0.4013
  852MPD2    C312513   1.683   4.299   9.804  0.4722  1.0664  0.5945
  852MPD2    C412514   1.589   4.395   9.822 -0.0958  0.0730  0.3138
  852MPD2    C512515   1.456   4.364   9.836  0.0639 -0.2807 -0.1659
  852MPD2     H12516   1.713   4.092   9.783 -0.5990 -0.1085 -1.0741
  852MPD2    H112517   1.627   4.496   9.835 -0.5023  0.4031 -1.0428
  852MPD2    H212518   1.313   4.202   9.833  1.1240 -1.9414 -1.3047
  852MPD2    H312519   1.377   4.437   9.849  0.2261 -0.0916 -0.2415
  852MPD2     N12520   1.819   4.322   9.798  0.3167 -0.0205  0.0625
  852MPD2    H512521   1.883   4.243   9.799 -0.4591 -0.6575 -0.0338
  852MPD2    N112522   1.482   3.989   9.771  0.1967 -0.5076  0.1767
  852MPD2    H712523   1.570   3.939   9.769 -0.0927 -1.1165  2.1388
  853MPD2     C12524   4.253   3.581  11.971 -0.0554 -0.9806  0.2183
  853MPD2    C112525   4.137   3.649  11.933  0.5595  0.3439  1.5032
  853MPD2    C212526   4.120   3.673  11.797  0.1451 -0.5996  0.7760
  853MPD2    C312527   4.224   3.649  11.716  0.2792 -0.2229 -0.4397
  853MPD2    C412528   4.343   3.584  11.757 -0.4266  0.0981  0.7033
  853MPD2    C512529   4.351   3.545  11.884  0.5985 -0.2438 -1.2879
  853MPD2     H12530   4.026   3.720  11.769 -0.6460 -1.1581  2.4699
  853MPD2    H112531   4.435   3.560  11.706 -1.3133  0.4089 -1.0381
  853MPD2    H212532   4.276   3.578  12.077 -1.4565  1.2446  0.5764
  853MPD2    H312533   4.438   3.493  11.922 -0.4275 -2.1055 -1.4323
  853MPD2     N12534   4.226   3.688  11.577 -0.2789 -0.4388 -0.2500
  853MPD2    H512535   4.304   3.645  11.528  0.9263  1.0459  0.3707
  853MPD2    N112536   4.049   3.694  12.033 -0.8182  0.3166 -0.6835
  853MPD2    H712537   4.085   3.676  12.126 -2.2379  0.8438 -0.0143
  854MPD2     C12538   0.888   3.873  13.283  0.0720  0.7077  0.0831
  854MPD2    C112539   0.954   3.852  13.166  0.6323  0.5880 -0.1124
  854MPD2    C212540   1.066   3.772  13.156  0.3013 -0.1716 -0.1565
  854MPD2    C312541   1.115   3.701  13.266  0.6884 -0.1000  0.4734
  854MPD2    C412542   1.040   3.713  13.381  0.7821  0.3163  0.2708
  854MPD2    C512543   0.934   3.797  13.391 -0.1982 -0.0778 -0.0392
  854MPD2     H12544   1.092   3.748  13.053  0.1702 -0.7913 -0.0493
  854MPD2    H112545   1.079   3.655  13.464 -2.3027 -1.7598  0.2749
  854MPD2    H212546   0.796   3.930  13.290 -0.4687 -0.3945  2.0476
  854MPD2    H312547   0.874   3.801  13.481 -0.4924  0.6233 -0.2649
  854MPD2     N12548   1.213   3.601  13.271 -0.1696 -0.3274 -0.3346
  854MPD2    H512549   1.229   3.553  13.359 -1.9811 -1.1317 -0.4486
  854MPD2    N112550   0.902   3.924  13.057 -0.8381 -0.4633  0.0875
  854MPD2    H712551   0.821   3.985  13.065 -0.1646  0.6545 -1.7623
  855MPD2     C12552   1.881   3.356  13.800  0.2169  0.3589 -0.1155
  855MPD2    C112553   1.780   3.266  13.797  0.6558  0.5943  0.4983
  855MPD2    C212554   1.691   3.258  13.690 -0.3240  0.1792 -0.2504
  855MPD2    C312555   1.704   3.346  13.584  0.3622 -0.3701 -0.3280
  855MPD2    C412556   1.812   3.432  13.587 -0.3956 -0.2584  0.3502
  855MPD2    C512557   1.898   3.445  13.692 -0.4091  0.1916  0.2201
  855MPD2     H12558   1.606   3.190  13.687 -2.1554  2.5483 -1.5699
  855MPD2    H112559   1.824   3.508  13.510  0.2168 -0.9117 -0.1885
  855MPD2    H212560   1.952   3.355  13.882  0.7185  1.2279 -0.5452
  855MPD2    H312561   1.980   3.516  13.690 -0.5887  0.4650  2.1331
  855MPD2     N12562   1.631   3.338  13.461  0.2812 -0.2632 -0.2648
  855MPD2    H512563   1.638   3.423  13.405 -1.4974 -0.1677 -0.3469
  855MPD2    N112564   1.751   3.202  13.924  0.7343 -0.2904  0.1517
  855MPD2    H712565   1.655   3.173  13.933 -0.3212  3.9518  2.5487
  856MPD2     C12566   3.252   4.216  13.716  0.1757  0.2207  0.2885
  856MPD2    C112567   3.252   4.317  13.811  0.3351 -0.5044  0.2575
  856MPD2    C212568   3.151   4.407  13.796  0.3639  0.8474  0.2225
  856MPD2    C312569   3.064   4.411  13.687  0.4922 -0.1112  0.3001
  856MPD2    C412570   3.069   4.314  13.589 -0.3293 -0.1353 -0.1068
  856MPD2    C512571   3.172   4.222  13.606 -0.0476 -0.0302  0.0371
  856MPD2     H12572   3.155   4.488  13.868 -0.1499 -0.4444  1.7215
  856MPD2    H112573   2.999   4.298  13.508 -0.0145  0.8546 -0.5791
  856MPD2    H212574   3.331   4.143  13.723 -0.3220 -0.5354 -1.9986
  856MPD2    H312575   3.175   4.132  13.547 -2.3827 -0.6479  0.8798
  856MPD2     N12576   2.973   4.513  13.670  0.3250  0.4580 -0.1244
  856MPD2    H512577   2.939   4.526  13.575 -2.5066 -2.0663  0.5396
  856MPD2    N112578   3.347   4.319  13.916 -0.2004 -0.1063 -0.2455
  856MPD2    H712579   3.389   4.231  13.944 -2.0038 -0.4994  1.2638
  857MPD2     C12580   0.336   1.935  12.658 -0.4989  0.0832 -0.3799
  857MPD2    C112581   0.458   1.923  12.713  0.2602 -0.3455 -0.1918
  857MPD2    C212582   0.544   2.032  12.723 -0.2462  0.2969 -0.0927
  857MPD2    C312583   0.495   2.154  12.674  0.5628  0.6432 -0.4715
  857MPD2    C412584   0.375   2.166  12.615 -0.3973 -0.1582  0.4327
  857MPD2    C512585   0.287   2.059  12.614  0.4361  0.2495  0.3098
  857MPD2     H12586   0.647   2.033  12.755 -0.2967 -0.5107  0.0864
  857MPD2    H112587   0.336   2.261  12.579 -0.0539 -0.0261  0.4110
  857MPD2    H212588   0.270   1.850  12.647 -1.1463  0.4948  0.3437
  857MPD2    H312589   0.185   2.074  12.579  0.5622  0.3675 -0.0077
  857MPD2     N12590   0.587   2.259  12.685 -0.7367 -0.6005 -0.1642
  857MPD2    H512591   0.653   2.240  12.760  0.6367  2.2609 -0.6445
  857MPD2    N112592   0.500   1.796  12.757 -0.2977  0.7335 -0.2346
  857MPD2    H712593   0.432   1.721  12.745  0.1735  0.1538  0.7276
  858MPD2     C12594   0.711   0.820  16.865 -0.0162 -0.4374  0.0656
  858MPD2    C112595   0.835   0.776  16.817 -0.3393 -0.8429 -0.0086
  858MPD2    C212596   0.954   0.798  16.882 -0.3409 -0.6522 -0.3637
  858MPD2    C312597   0.944   0.845  17.015  0.0783 -0.3342  0.0178
  858MPD2    C412598   0.825   0.903  17.055  0.1893 -0.2970  0.0306
  858MPD2    C512599   0.705   0.881  16.990  0.1448 -0.0857 -0.3948
  858MPD2     H12600   1.049   0.780  16.832  0.3317  1.8914 -0.0251
  858MPD2    H112601   0.823   0.957  17.150  0.1617  0.1355 -0.2159
  858MPD2    H212602   0.619   0.801  16.813  0.6941  1.8752 -2.0240
  858MPD2    H312603   0.615   0.927  17.029 -0.8864 -1.2666 -1.3994
  858MPD2     N12604   1.049   0.872  17.103 -0.7362  0.8883 -0.2574
  858MPD2    H512605   1.033   0.931  17.184 -0.6738 -0.0519  0.4446
  858MPD2    N112606   0.831   0.721  16.685 -0.4265 -0.7463 -0.1410
  858MPD2    H712607   0.742   0.727  16.636 -0.4148 -0.6174 -0.1459
  859MPD2     C12608   4.028   2.664  15.179  0.0284  0.2226 -0.4535
  859MPD2    C112609   4.153   2.676  15.138 -0.3759  0.2766 -0.1003
  859MPD2    C212610   4.214   2.567  15.082  0.2722 -0.6697  0.6357
  859MPD2    C312611   4.149   2.448  15.067  0.3714  0.1564 -0.8166
  859MPD2    C412612   4.019   2.431  15.111  0.1720  0.8115 -0.3335
  859MPD2    C512613   3.959   2.544  15.161 -0.5710 -0.1282  0.7987
  859MPD2     H12614   4.315   2.577  15.044  0.4340  0.3460  1.3220
  859MPD2    H112615   3.960   2.341  15.112 -0.1802  1.0692  3.0134
  859MPD2    H212616   3.969   2.748  15.213 -0.3781 -1.0852  2.0783
  859MPD2    H312617   3.852   2.544  15.181 -0.4215 -0.0246  1.5831
  859MPD2     N12618   4.211   2.331  15.015 -0.0845  0.4269  0.5459
  859MPD2    H512619   4.164   2.241  15.010  1.1735 -0.1574 -0.6725
  859MPD2    N112620   4.227   2.794  15.171  0.0109 -0.5419 -0.2931
  859MPD2    H712621   4.176   2.870  15.215  0.9301  1.2437 -2.2974
  860MPD2     C12622   1.643   3.072  11.604  0.2629  0.7654  0.3078
  860MPD2    C112623   1.654   3.052  11.741 -0.3459 -0.1916  0.3556
  860MPD2    C212624   1.549   3.081  11.828 -0.1479  0.3839 -0.0794
  860MPD2    C312625   1.431   3.130  11.781  0.3530  0.4424  0.5424
  860MPD2    C412626   1.421   3.148  11.642 -0.0875 -0.0067 -0.1194
  860MPD2    C512627   1.525   3.122  11.557 -0.3456  0.4400 -0.0823
  860MPD2     H12628   1.563   3.061  11.933 -1.1547  0.3066  0.0405
  860MPD2    H112629   1.330   3.180  11.593 -0.5377  2.0555  2.0356
  860MPD2    H212630   1.719   3.038  11.534  1.1555  1.1351  1.1072
  860MPD2    H312631   1.508   3.124  11.450 -2.0706 -0.6566  0.1666
  860MPD2     N12632   1.333   3.169  11.879  0.3990 -0.4328  0.0991
  860MPD2    H512633   1.359   3.156  11.976 -3.2665  0.4789  1.2042
  860MPD2    N112634   1.760   2.984  11.806 -0.1899  0.3971  0.5587
  860MPD2    H712635   1.755   2.980  11.908 -2.3105 -0.6534  0.4177
  861MPD2     C12636   1.277   1.950  11.343  0.1734  0.5295  0.6373
  861MPD2    C112637   1.162   1.997  11.409 -0.1711  1.1574 -0.4437
  861MPD2    C212638   1.065   2.060  11.330  1.0525 -0.2846  0.4724
  861MPD2    C312639   1.062   2.040  11.190  0.4769  0.2860  0.4527
  861MPD2    C412640   1.170   1.987  11.133 -0.2206 -0.2148 -0.5588
  861MPD2    C512641   1.278   1.944  11.204 -0.0853 -0.7971  0.2459
  861MPD2     H12642   0.979   2.109  11.376  1.7765  0.1378  1.3858
  861MPD2    H112643   1.155   1.966  11.028  0.2951  3.4557 -1.3693
  861MPD2    H212644   1.371   1.933  11.393  1.4265  0.6719 -1.6613
  861MPD2    H312645   1.365   1.907  11.151  0.5518  1.3293 -0.2168
  861MPD2     N12646   0.958   2.093  11.106 -0.2238  0.5515  0.3222
  861MPD2    H512647   0.961   2.084  11.005  1.9970 -1.0939  0.5311
  861MPD2    N112648   1.169   2.009  11.552 -0.1450 -0.2454 -0.1689
  861MPD2    H712649   1.092   2.062  11.590 -0.4780 -0.0601 -1.1001
  862MPD2     C12650   0.722   2.127  10.396 -0.0491  0.3911 -1.0040
  862MPD2    C112651   0.743   2.051  10.509  0.2417 -0.6028 -0.2206
  862MPD2    C212652   0.764   1.913  10.497 -0.1569  0.7497 -0.0167
  862MPD2    C312653   0.762   1.847  10.378  0.5267  0.8030  0.0979
  862MPD2    C412654   0.748   1.922  10.267 -0.3053  0.1229  0.4327
  862MPD2    C512655   0.716   2.059  10.275 -0.4412 -0.1516 -0.2947
  862MPD2     H12656   0.788   1.856  10.586 -1.0935  0.1421 -0.1574
  862MPD2    H112657   0.754   1.872  10.171 -0.6910 -1.2471  1.1190
  862MPD2    H212658   0.701   2.233  10.400  2.6963  0.8088  1.9133
  862MPD2    H312659   0.696   2.110  10.182 -1.2588  1.4819  0.7838
  862MPD2     N12660   0.787   1.701  10.377  0.3911 -0.0111  0.3702
  862MPD2    H512661   0.815   1.658  10.465 -1.9024 -0.2643  0.9762
  862MPD2    N112662   0.740   2.101  10.641 -0.5292  0.2261  0.6340
  862MPD2    H712663   0.732   2.035  10.718 -2.0609 -0.9874 -0.5571
  863MPD2     C12664   3.971   4.465  16.562  0.0504  0.4193 -0.0958
  863MPD2    C112665   3.922   4.354  16.620 -0.1171 -0.1061  0.0147
  863MPD2    C212666   4.005   4.284  16.712 -0.0747 -0.2248  0.2056
  863MPD2    C312667   4.135   4.328  16.735 -0.8164 -0.1157  1.0673
  863MPD2    C412668   4.177   4.445  16.680 -0.0085  0.1598 -0.0059
  863MPD2    C512669   4.091   4.516  16.594  0.1517  0.0092  0.0979
  863MPD2     H12670   3.978   4.194  16.766 -2.4017 -0.7808 -1.8422
  863MPD2    H112671   4.270   4.496  16.699 -0.5122  1.1124 -0.0837
  863MPD2    H212672   3.933   4.520  16.476  1.0694  0.7379 -0.3437
  863MPD2    H312673   4.129   4.594  16.529 -1.1423 -0.5368 -1.3332
  863MPD2     N12674   4.212   4.268  16.837  0.2781 -0.1180  0.7478
  863MPD2    H512675   4.170   4.198  16.897  1.0988 -1.3083 -0.0795
  863MPD2    N112676   3.794   4.311  16.583 -0.0440  0.5560  0.1559
  863MPD2    H712677   3.750   4.358  16.504  1.6323  4.5376  1.5887
  864MPD2     C12678   4.600   0.415  17.291  0.7005  0.4169  0.8380
  864MPD2    C112679   4.662   0.394  17.171 -0.4645  0.3059 -0.1186
  864MPD2    C212680   0.008   0.503  17.119 -0.1981 -0.2854  0.1124
  864MPD2    C312681   0.014   0.623  17.182 -0.1012 -0.4723 -0.2388
  864MPD2    C412682   4.684   0.639  17.308  0.5521 -0.5121 -0.6322
  864MPD2    C512683   4.614   0.536  17.359  0.1429  0.8465 -0.2536
  864MPD2     H12684   0.054   0.495  17.021 -1.5451 -2.2750 -0.3479
  864MPD2    H112685   4.694   0.728  17.369 -0.1723 -0.3398 -0.7616
  864MPD2    H212686   4.531   0.342  17.332 -0.6293  1.8876  1.2352
  864MPD2    H312687   4.570   0.553  17.457 -1.7822 -0.1036 -0.9682
  864MPD2     N12688   0.079   0.736  17.129  0.5189  0.6749  0.5056
  864MPD2    H512689   0.060   0.824  17.176 -0.6808 -0.0562  1.3850
  864MPD2    N112690   4.646   0.270  17.101  0.0977 -0.2889  0.7744
  864MPD2    H712691   4.593   0.204  17.156  2.2715 -1.0721  1.9314
  865MPD2     C12692   0.037   1.320  16.379  0.2594  0.6045 -0.4731
  865MPD2    C112693   0.023   1.188  16.418  0.0506 -0.1886 -0.2121
  865MPD2    C212694   0.016   1.157  16.552 -0.3841 -0.4038  0.1397
  865MPD2    C312695   0.029   1.257  16.648  0.1138 -0.1350  0.2334
  865MPD2    C412696   0.057   1.382  16.613  0.0366 -0.0753  0.2902
  865MPD2    C512697   0.068   1.412  16.480  0.8142 -0.1324  0.8113
  865MPD2     H12698   0.007   1.055  16.586 -0.0723 -0.2111  0.8109
  865MPD2    H112699   0.081   1.464  16.680 -0.1559 -0.7049  1.1241
  865MPD2    H212700   0.064   1.342  16.277 -0.3862 -0.6470 -0.9163
  865MPD2    H312701   0.089   1.515  16.453 -0.2660 -0.6309 -1.8703
  865MPD2     N12702   0.059   1.225  16.779 -0.7334 -0.2792 -0.4586
  865MPD2    H512703   0.092   1.296  16.843 -1.2352 -0.1755 -0.3139
  865MPD2    N112704   0.015   1.088  16.317 -0.0789  0.7343 -0.6689
  865MPD2    H712705   0.025   1.112  16.219 -1.0750 -0.6006 -1.0915
  866MPD2     C12706   1.642   2.147  11.829  0.0819 -0.2042  0.4228
  866MPD2    C112707   1.630   2.124  11.694  0.5555 -0.1894 -0.3831
  866MPD2    C212708   1.537   2.191  11.619 -0.0300 -0.9084 -0.1369
  866MPD2    C312709   1.456   2.289  11.673 -0.1070  0.1269 -0.4709
  866MPD2    C412710   1.465   2.317  11.807  0.6620 -0.0212  0.2866
  866MPD2    C512711   1.549   2.235  11.885 -0.4606 -0.3384  0.1375
  866MPD2     H12712   1.525   2.161  11.516 -0.3075 -0.0934 -0.3416
  866MPD2    H112713   1.395   2.384  11.856 -0.4293 -0.9506 -0.0073
  866MPD2    H212714   1.711   2.093  11.893  2.1942  0.8219 -0.9589
  866MPD2    H312715   1.544   2.253  11.992  0.0537  0.4459  0.0240
  866MPD2     N12716   1.354   2.363  11.606  0.2900  0.9375  0.0261
  866MPD2    H512717   1.283   2.415  11.657 -0.3919 -1.8054  1.8581
  866MPD2    N112718   1.723   2.037  11.632 -0.5752 -0.1875 -0.0636
  866MPD2    H712719   1.775   1.978  11.696 -0.5584 -1.3857 -1.1814
  867MPD2     C12720   3.457   1.124  16.457  0.4644 -0.2592  0.1119
  867MPD2    C112721   3.550   1.080  16.547  0.6597 -0.3415 -0.7170
  867MPD2    C212722   3.604   1.175  16.625 -0.0989  0.3569 -0.3951
  867MPD2    C312723   3.570   1.313  16.618  0.6204  0.1797 -0.1463
  867MPD2    C412724   3.482   1.350  16.521  0.1173  0.1582 -0.0373
  867MPD2    C512725   3.424   1.253  16.444 -0.1976 -0.0822 -0.5045
  867MPD2     H12726   3.684   1.151  16.694  0.3660  1.9811 -0.3478
  867MPD2    H112727   3.450   1.453  16.510  1.4080  0.5337 -0.3778
  867MPD2    H212728   3.421   1.061  16.376 -0.1205 -0.7691  0.7754
  867MPD2    H312729   3.347   1.283  16.374 -0.8632  0.5395  0.4907
  867MPD2     N12730   3.621   1.413  16.699 -0.2985  0.0193  0.0248
  867MPD2    H512731   3.581   1.506  16.690 -1.7375 -0.5852  0.0497
  867MPD2    N112732   3.588   0.944  16.547  0.0489  0.7156  0.4113
  867MPD2    H712733   3.545   0.882  16.479  2.2975 -0.9429  0.5133
  868MPD2     C12734   4.378   0.182  13.033  0.3990  0.1290  0.1526
  868MPD2    C112735   4.455   0.082  13.088 -0.8430  0.0474 -0.3974
  868MPD2    C212736   4.409   0.023  13.204 -0.3743  0.2846  0.4020
  868MPD2    C312737   4.289   0.053  13.259 -0.1075  0.4424  0.4378
  868MPD2    C412738   4.212   0.150  13.200 -0.6420 -0.7205 -0.0487
  868MPD2    C512739   4.261   0.218  13.090 -0.1117 -0.5366 -0.0196
  868MPD2     H12740   4.469   4.671  13.252 -0.2531  0.8986  1.2382
  868MPD2    H112741   4.111   0.173  13.232 -0.2408  0.6350  0.2848
  868MPD2    H212742   4.407   0.233  12.942 -0.6896  0.3588 -0.0621
  868MPD2    H312743   4.201   0.292  13.039 -0.7422 -0.9162  0.1640
  868MPD2     N12744   4.265   0.003  13.391 -0.5009 -0.2542  0.2431
  868MPD2    H512745   4.330   4.660  13.432 -2.2046 -1.6202  0.6647
  868MPD2    N112746   4.581   0.047  13.036 -0.0994 -0.6298 -0.0697
  868MPD2    H712747   4.642   4.714  13.094 -0.3766 -0.0422  0.8137
  869MPD2     C12748   1.806   3.321   1.943  1.3049 -0.3140 -0.0892
  869MPD2    C112749   1.773   3.193   1.904  0.2356 -0.7152 -0.0356
  869MPD2    C212750   1.740   3.177   1.769  1.3211  0.3876 -1.1059
  869MPD2    C312751   1.747   3.285   1.680 -0.2320 -0.0516 -0.0075
  869MPD2    C412752   1.754   3.413   1.734 -0.5249 -0.3907 -0.4986
  869MPD2    C512753   1.789   3.425   1.865 -0.6382  0.7316  0.2927
  869MPD2     H12754   1.742   3.078   1.723 -3.0804  0.7972 -2.2033
  869MPD2    H112755   1.749   3.503   1.673 -1.3035 -0.2204 -0.1866
  869MPD2    H212756   1.835   3.333   2.047  0.4232 -0.8494  0.2168
  869MPD2    H312757   1.819   3.525   1.893  1.0191 -0.1754  1.6946
  869MPD2     N12758   1.728   3.276   1.541  0.2270  0.2796 -0.3266
  869MPD2    H512759   1.698   3.356   1.487 -1.9695  0.0638  0.5539
  869MPD2    N112760   1.799   3.085   1.987  0.1473 -0.1230  0.9007
  869MPD2    H712761   1.805   3.110   2.086 -0.3480 -1.5420  1.2872
  870MPD2     C12762   0.688   2.245   1.375 -0.0886 -0.0999  0.7521
  870MPD2    C112763   0.806   2.176   1.362 -0.0597  0.1186 -0.2729
  870MPD2    C212764   0.845   2.117   1.244  0.5128  0.0336  0.4083
  870MPD2    C312765   0.776   2.135   1.130 -0.4634 -0.0643 -0.3071
  870MPD2    C412766   0.665   2.217   1.140  0.4280  0.2079  0.1950
  870MPD2    C512767   0.615   2.263   1.257 -0.1065  0.0047  0.7005
  870MPD2     H12768   0.946   2.081   1.228 -0.5329 -1.9072 -2.0228
  870MPD2    H112769   0.603   2.248   1.057 -0.4607 -0.2090  0.6979
  870MPD2    H212770   0.661   2.307   1.460  0.0307  0.5353  0.3229
  870MPD2    H312771   0.525   2.324   1.260 -0.4166 -0.4718  1.1116
  870MPD2     N12772   0.831   2.085   1.016  0.0885 -0.2557  0.1183
  870MPD2    H512773   0.915   2.028   1.021  0.0083 -0.2655  1.3015
  870MPD2    N112774   0.892   2.189   1.478 -0.5545 -0.2583 -0.3658
  870MPD2    H712775   0.862   2.250   1.553  0.2851 -1.6859  1.1031
  871MPD2     C12776   2.458   0.949  16.200  0.4734 -0.0676 -0.0473
  871MPD2    C112777   2.413   0.853  16.289 -0.5958  0.3610  0.0319
  871MPD2    C212778   2.384   0.722  16.242 -0.4552  0.4541  0.2273
  871MPD2    C312779   2.406   0.687  16.111  0.4780 -0.3700  0.1913
  871MPD2    C412780   2.455   0.782  16.028 -0.3371  0.5243  0.4174
  871MPD2    C512781   2.480   0.913  16.073 -0.3525  0.2856 -0.1191
  871MPD2     H12782   2.360   0.649  16.319  0.9086  0.6384  0.8288
  871MPD2    H112783   2.486   0.759  15.927 -0.3677 -2.2112  1.0511
  871MPD2    H212784   2.475   1.051  16.235 -3.1507  0.0198  1.5231
  871MPD2    H312785   2.517   0.991  16.008 -0.4419 -0.0508 -0.5789
  871MPD2     N12786   2.381   0.555  16.074 -0.2492 -0.6409 -0.2283
  871MPD2    H512787   2.347   0.495  16.149  0.1653  1.0353  1.3076
  871MPD2    N112788   2.396   0.909  16.416  0.5612  0.2947 -0.8530
  871MPD2    H712789   2.419   1.008  16.423  1.9930 -0.1458  0.5083
  872MPD2     C12790   2.435   3.899  13.465  0.7425  0.2161 -0.1581
  872MPD2    C112791   2.495   3.790  13.530  0.4751 -0.0417  0.4666
  872MPD2    C212792   2.414   3.731  13.622 -0.6501  0.2004  0.0610
  872MPD2    C312793   2.282   3.758  13.647 -0.7128 -0.0281 -0.2784
  872MPD2    C412794   2.225   3.858  13.571 -0.0799  0.0637 -0.0576
  872MPD2    C512795   2.301   3.934  13.485 -0.1066 -0.7008  0.5128
  872MPD2     H12796   2.457   3.646  13.674  1.3628  0.8979 -0.4827
  872MPD2    H112797   2.123   3.892  13.586 -0.0453 -0.3180  1.0140
  872MPD2    H212798   2.486   3.958  13.390  0.3273  0.7128 -0.0570
  872MPD2    H312799   2.247   4.010  13.430  1.0869 -0.8655 -0.8858
  872MPD2     N12800   2.204   3.695  13.746 -0.2678 -0.6580  0.2022
  872MPD2    H512801   2.106   3.721  13.745  0.3330  1.5639 -1.6750
  872MPD2    N112802   2.627   3.739  13.514  0.0442 -0.2300 -0.1726
  872MPD2    H712803   2.656   3.651  13.556 -0.2451 -0.3247 -0.1735
  873MPD2     C12804   4.377   3.177   0.539  0.3322 -0.6105 -0.1713
  873MPD2    C112805   4.429   3.128   0.658  0.5545 -0.3453 -0.3997
  873MPD2    C212806   4.552   3.061   0.649 -0.3003  0.2227  0.7313
  873MPD2    C312807   4.624   3.051   0.532 -0.0406 -0.7824 -0.0946
  873MPD2    C412808   4.572   3.092   0.414  0.2689 -0.7549  0.3493
  873MPD2    C512809   4.454   3.161   0.423 -0.0767  0.0736  0.3698
  873MPD2     H12810   4.606   3.028   0.736 -0.8189 -1.9685  0.2258
  873MPD2    H112811   4.638   3.114   0.330  1.3035 -1.6811  0.9160
  873MPD2    H212812   4.284   3.233   0.541  0.8574  0.1966  1.8031
  873MPD2    H312813   4.433   3.224   0.338  1.1426  2.7461  2.0740
  873MPD2     N12814   0.015   2.987   0.537  0.1161  0.5255  0.3822
  873MPD2    H512815   0.046   2.951   0.626  0.2380 -0.2387  0.0268
  873MPD2    N112816   4.370   3.170   0.778  0.7853 -0.1209 -0.0427
  873MPD2    H712817   4.300   3.242   0.773 -1.4418 -2.3395 -0.9387
  874MPD2     C12818   4.087   3.277  16.050 -0.0983  0.1309  0.4960
  874MPD2    C112819   4.155   3.321  16.158 -0.8122 -0.3060 -0.0984
  874MPD2    C212820   4.259   3.408  16.137 -0.2413 -0.5113 -0.7033
  874MPD2    C312821   4.305   3.432  16.008 -0.4419 -0.1335  0.5772
  874MPD2    C412822   4.234   3.386  15.898 -0.2490  0.1685  0.1425
  874MPD2    C512823   4.124   3.308  15.923  0.1321  0.7197  0.1076
  874MPD2     H12824   4.325   3.446  16.213 -2.1539 -0.7874  1.0878
  874MPD2    H112825   4.267   3.385  15.794  0.6795 -0.7977  0.4455
  874MPD2    H212826   4.010   3.201  16.059 -0.6117  0.4255 -1.2241
  874MPD2    H312827   4.078   3.265  15.835  3.8257  0.4969 -1.7070
  874MPD2     N12828   4.419   3.510  15.991  0.4090 -0.8379 -0.5138
  874MPD2    H512829   4.456   3.557  16.073  2.7489 -2.4142 -0.6292
  874MPD2    N112830   4.134   3.272  16.287  0.5142  0.4010  0.8379
  874MPD2    H712831   4.080   3.186  16.293  1.6876 -0.5055 -2.0282
  875MPD2     C12832   0.640   1.660  14.571 -0.1172  0.2561 -0.6081
  875MPD2    C112833   0.739   1.733  14.520 -0.5974  0.2743  0.5180
  875MPD2    C212834   0.806   1.823  14.598 -0.1988 -0.2539  0.1509
  875MPD2    C312835   0.767   1.842  14.732 -0.2902  0.7842 -0.5937
  875MPD2    C412836   0.666   1.760  14.782  0.0884  0.0116 -0.1616
  875MPD2    C512837   0.591   1.684  14.698  0.0760 -1.0782 -0.0622
  875MPD2     H12838   0.886   1.877  14.548  0.5270  0.2005  1.8153
  875MPD2    H112839   0.638   1.772  14.886 -0.0558  1.4226 -0.3572
  875MPD2    H212840   0.587   1.585  14.513 -0.3670 -0.1587  0.1561
  875MPD2    H312841   0.522   1.606  14.731 -1.7082  1.2193  1.6589
  875MPD2     N12842   0.841   1.921  14.824  0.1191  0.3004  0.3580
  875MPD2    H512843   0.796   1.911  14.914 -1.1997  1.8222 -0.1258
  875MPD2    N112844   0.780   1.710  14.388 -0.3023  0.5597 -0.8959
  875MPD2    H712845   0.852   1.773  14.356  1.9814 -1.8131 -0.4553
  876MPD2     C12846   4.363   3.034  15.884 -0.3173 -0.0136  0.7451
  876MPD2    C112847   4.504   3.028  15.884 -0.2726 -0.6216 -0.1276
  876MPD2    C212848   4.565   2.952  15.984  0.5521  0.1983  0.7980
  876MPD2    C312849   4.494   2.884  16.078 -0.5546  1.0707 -0.2739
  876MPD2    C412850   4.361   2.914  16.096 -0.3520 -0.0142 -0.2746
  876MPD2    C512851   4.293   2.981  15.995 -0.0332  0.1035  0.5494
  876MPD2     H12852   4.672   2.933  15.991  0.4460 -0.9018 -0.5037
  876MPD2    H112853   4.302   2.855  16.166 -1.1777  0.1941 -0.7991
  876MPD2    H212854   4.304   3.086  15.810  0.1067  0.4762  0.7494
  876MPD2    H312855   4.185   2.979  15.995 -0.0237 -0.4392  0.0256
  876MPD2     N12856   4.575   2.808  16.177 -0.0391 -0.6720 -0.3271
  876MPD2    H512857   4.675   2.814  16.165  0.0030 -0.6351  0.0533
  876MPD2    N112858   4.585   3.109  15.802  0.2490  0.2617  0.2015
  876MPD2    H712859   4.542   3.162  15.727 -0.1982 -1.0087 -0.4396
  877MPD2     C12860   4.635   3.623  15.225  0.3929  1.0368  0.6919
  877MPD2    C112861   0.038   3.564  15.235 -0.0957 -0.0423  0.4276
  877MPD2    C212862   0.129   3.593  15.134  0.3449 -0.4170 -0.6580
  877MPD2    C312863   0.094   3.656  15.016 -0.3402  0.1978  0.1246
  877MPD2    C412864   4.681   3.695  15.003 -0.0286 -0.3361 -0.0586
  877MPD2    C512865   4.594   3.679  15.106  0.2927  0.0745  0.0270
  877MPD2     H12866   0.228   3.551  15.140  0.7815  0.4827 -1.3847
  877MPD2    H112867   4.642   3.734  14.910  1.7109 -1.3577 -1.2192
  877MPD2    H212868   4.558   3.615  15.302 -1.0435 -0.3045 -0.8747
  877MPD2    H312869   4.490   3.709  15.096  0.3895  0.4438  0.1250
  877MPD2     N12870   0.183   3.670  14.899  0.3203  0.2119  0.1383
  877MPD2    H512871   0.150   3.696  14.807  2.1381  1.8925 -0.0402
  877MPD2    N112872   0.078   3.482  15.343 -0.3001 -0.2073  0.4337
  877MPD2    H712873   0.174   3.451  15.334  0.5979  3.5947 -3.2775
  878MPD2     C12874   4.323   2.686  12.783 -0.1586 -0.2789  0.4813
  878MPD2    C112875   4.400   2.803  12.810  0.0595  0.5244  0.0002
  878MPD2    C212876   4.375   2.880  12.926 -0.5414 -0.3083 -0.1486
  878MPD2    C312877   4.276   2.843  13.009  0.7266 -0.1569  0.5697
  878MPD2    C412878   4.191   2.741  12.969  0.5046  0.6390  0.0413
  878MPD2    C512879   4.220   2.660  12.863  0.3120  0.0934 -0.2297
  878MPD2     H12880   4.421   2.972  12.960 -0.8780  0.5740 -2.0953
  878MPD2    H112881   4.118   2.700  13.038 -0.7880  1.5591 -0.8009
  878MPD2    H212882   4.334   2.610  12.707 -2.1167  1.4302 -1.5224
  878MPD2    H312883   4.157   2.576  12.838  1.5084 -0.5608 -1.0665
  878MPD2     N12884   4.255   2.914  13.130  0.0244 -0.2037 -0.2096
  878MPD2    H512885   4.307   3.000  13.138 -2.4076  1.3471 -0.9693
  878MPD2    N112886   4.495   2.838  12.714  0.0675 -0.3694  0.0232
  878MPD2    H712887   4.518   2.771  12.642 -1.0848 -2.7985  1.8848
  879MPD2     C12888   4.677   4.048  16.744  0.1066  0.3789 -0.8353
  879MPD2    C112889   4.663   4.014  16.876 -0.2581  0.5178 -0.1235
  879MPD2    C212890   4.547   3.947  16.914 -0.5643  0.3948 -0.5162
  879MPD2    C312891   4.458   3.900  16.821  0.1998  0.0118 -0.1035
  879MPD2    C412892   4.486   3.920  16.689  0.0662  0.0756  0.2397
  879MPD2    C512893   4.587   4.007  16.651 -0.5496  0.4337 -0.4399
  879MPD2     H12894   4.532   3.924  17.019 -1.1324  1.2227 -0.4109
  879MPD2    H112895   4.425   3.879  16.610 -1.8866  0.2477  1.6655
  879MPD2    H212896   0.039   4.103  16.709  1.8413 -1.9231 -0.1446
  879MPD2    H312897   4.612   4.028  16.547  1.8703 -1.3572 -0.2182
  879MPD2     N12898   4.335   3.826  16.857  0.2940  0.1862  0.4503
  879MPD2    H512899   4.278   3.807  16.776  1.1438  2.3744 -0.6641
  879MPD2    N112900   0.037   4.066  16.961 -0.0899  0.1814  0.7788
  879MPD2    H712901   0.119   4.106  16.917  0.5740 -1.8426  0.1517
  880MPD2     C12902   1.629   1.278   0.818  0.3838 -0.0849  0.2639
  880MPD2    C112903   1.715   1.258   0.717 -0.1256  0.0053  0.5789
  880MPD2    C212904   1.765   1.134   0.702 -0.4976 -0.3569  0.0948
  880MPD2    C312905   1.735   1.031   0.793  0.3337  0.0851 -0.5898
  880MPD2    C412906   1.647   1.055   0.895 -0.0386  0.2541  0.6430
  880MPD2    C512907   1.588   1.175   0.904  0.6452  0.0279 -0.2443
  880MPD2     H12908   1.845   1.120   0.630 -0.2367  2.3713 -0.1196
  880MPD2    H112909   1.610   0.973   0.956 -0.8657  0.7477  0.7965
  880MPD2    H212910   1.589   1.376   0.843 -0.8805 -0.8549  1.2114
  880MPD2    H312911   1.514   1.193   0.982 -0.5337 -1.2235 -1.0764
  880MPD2     N12912   1.796   0.908   0.767 -0.5480  0.3866  0.2822
  880MPD2    H512913   1.856   0.910   0.685  2.1364 -0.5292  2.2169
  880MPD2    N112914   1.742   1.367   0.632 -0.3807  0.4778  0.4349
  880MPD2    H712915   1.688   1.451   0.648 -2.5397 -0.9870  0.7468
  881MPD2     C12916   1.332   1.643  17.465 -0.0735  0.4131 -0.4348
  881MPD2    C112917   1.450   1.586  17.445  0.2696  0.7243 -0.3695
  881MPD2    C212918   1.544   1.577  17.546 -0.0776 -0.4781  0.1462
  881MPD2    C312919   1.520   1.637  17.669  0.6874 -0.0192 -0.0144
  881MPD2    C412920   1.414   1.720  17.685 -0.3003 -0.5018 -0.0497
  881MPD2    C512921   1.323   1.719  17.579 -0.0941  0.3174 -1.3070
  881MPD2     H12922   1.643   1.537  17.529  0.2981 -0.3725  2.0666
  881MPD2    H112923   1.407   1.778   0.078 -0.0999  0.2620 -0.5183
  881MPD2    H212924   1.257   1.655  17.387  0.8532  1.5176 -1.1439
  881MPD2    H312925   1.231   1.771  17.601 -0.1163 -1.0116  1.7099
  881MPD2     N12926   1.617   1.636   0.077 -0.5224 -0.0663 -0.0041
  881MPD2    H512927   1.605   1.703   0.152 -1.9889 -0.3135 -0.0324
  881MPD2    N112928   1.466   1.520  17.326 -1.2817 -0.5553  0.4118
  881MPD2    H712929   1.409   1.554  17.249  1.1533  1.2568 -0.5853
  882MPD2     C12930   0.080   3.740  14.118 -0.0471  0.2262 -0.4506
  882MPD2    C112931   0.074   3.723  14.255 -0.1845  0.4895  0.3384
  882MPD2    C212932   4.686   3.678  14.308 -0.3229 -0.0206  0.6434
  882MPD2    C312933   4.570   3.656  14.236 -0.4377 -0.0615 -0.0315
  882MPD2    C412934   4.575   3.673  14.102  0.0845 -0.1642 -0.0859
  882MPD2    C512935   4.696   3.720  14.042 -0.0667  0.2822 -0.0629
  882MPD2     H12936   4.686   3.654  14.414  2.4207 -0.8836  0.4433
  882MPD2    H112937   4.486   3.658  14.043  0.4468 -0.8194 -0.4735
  882MPD2    H212938   0.174   3.776  14.078  0.7865  1.1601  2.3968
  882MPD2    H312939   4.698   3.735  13.935 -1.4273  0.1292 -0.1137
  882MPD2     N12940   4.445   3.627  14.296 -0.3743  0.1281  0.3608
  882MPD2    H512941   4.367   3.620  14.233  0.3634  2.3792 -0.8120
  882MPD2    N112942   0.194   3.738  14.335  0.0438 -0.1686 -0.0028
  882MPD2    H712943   0.281   3.721  14.286  0.4851 -1.2144  1.1345
  883MPD2     C12944   1.710   3.296  16.297 -0.5041  0.3265  0.5909
  883MPD2    C112945   1.827   3.345  16.246 -0.0950  0.1994 -0.9745
  883MPD2    C212946   1.941   3.343  16.333  0.0965 -0.2477  0.0958
  883MPD2    C312947   1.934   3.301  16.467 -0.2392 -0.2933  0.0751
  883MPD2    C412948   1.816   3.252  16.520 -0.5283  1.1411 -0.0693
  883MPD2    C512949   1.708   3.245  16.428 -0.8576 -0.9829 -0.7396
  883MPD2     H12950   2.034   3.377  16.290 -0.1244  1.5194  1.0125
  883MPD2    H112951   1.802   3.199  16.613 -1.4286 -0.5049 -1.1284
  883MPD2    H212952   1.625   3.288  16.230 -1.6194  0.0046  2.0499
  883MPD2    H312953   1.613   3.205  16.460 -1.3497  1.6082  1.0020
  883MPD2     N12954   2.052   3.287  16.537  0.0444 -0.2802  0.3659
  883MPD2    H512955   2.135   3.296  16.480 -0.7261 -0.2919 -0.7469
  883MPD2    N112956   1.835   3.398  16.114 -0.2408 -0.2664  0.2833
  883MPD2    H712957   1.925   3.442  16.095  0.4490 -2.4558 -1.5077
  884MPD2     C12958   3.730   3.803  15.290 -0.6807  0.6775  0.9617
  884MPD2    C112959   3.778   3.920  15.232  0.2427  0.1241  0.3178
  884MPD2    C212960   3.691   4.022  15.208  0.0888 -0.1531  0.3670
  884MPD2    C312961   3.568   4.020  15.261  0.0329  0.3557  0.3209
  884MPD2    C412962   3.511   3.903  15.315  0.4746 -0.2183  0.6665
  884MPD2    C512963   3.595   3.795  15.320 -0.5890  0.8845  0.9487
  884MPD2     H12964   3.731   4.119  15.179 -0.6267 -0.7637 -2.6948
  884MPD2    H112965   3.407   3.892  15.342 -0.4305  2.1500 -1.7255
  884MPD2    H212966   3.789   3.713  15.306 -1.7673  0.0835  1.5998
  884MPD2    H312967   3.557   3.701  15.358  2.7112 -0.1631  1.5877
  884MPD2     N12968   3.494   4.141  15.256  0.3449  0.4518 -0.3949
  884MPD2    H512969   3.539   4.222  15.214 -0.2249  0.6471 -0.6374
  884MPD2    N112970   3.918   3.945  15.208  0.0776 -0.4257  0.2079
  884MPD2    H712971   3.946   4.038  15.181  0.0714  0.0052  1.6947
  885MPD2     C12972   1.874   4.584   0.308  1.1069 -0.4785  0.5064
  885MPD2    C112973   1.954   4.482   0.267 -0.9938 -0.0446 -0.4591
  885MPD2    C212974   1.976   4.464   0.130  0.4355 -0.0496  0.4847
  885MPD2    C312975   1.928   4.564   0.044 -0.3559  0.6663 -0.4237
  885MPD2    C412976   1.842   4.661   0.087 -0.3542  0.0418 -0.0695
  885MPD2    C512977   1.819   4.667   0.222  0.4128  0.7152 -0.1156
  885MPD2     H12978   2.042   4.386   0.094  0.1105 -0.1663  0.1523
  885MPD2    H112979   1.784   0.008   0.030  2.6447  2.7339  0.2963
  885MPD2    H212980   1.851   4.600   0.413  0.0041 -2.4419  0.5608
  885MPD2    H312981   1.752   0.014   0.268 -1.2733 -1.7617  1.2401
  885MPD2     N12982   1.948   4.550  17.607 -0.3188  0.2844  0.6554
  885MPD2    H512983   2.004   4.473  17.572  1.2876  0.8278  2.0118
  885MPD2    N112984   2.000   4.393   0.370 -0.1467  0.2869  0.5283
  885MPD2    H712985   1.972   4.409   0.466 -1.0737 -1.7805  0.6031
  886MPD2     C12986   3.282   2.781  15.466 -0.1015  0.3787 -0.3715
  886MPD2    C112987   3.386   2.778  15.386  0.6495  0.4902 -0.1935
  886MPD2    C212988   3.387   2.862  15.283  0.0920  0.7885 -0.0049
  886MPD2    C312989   3.290   2.958  15.255 -0.2823  0.2843  0.0611
  886MPD2    C412990   3.196   2.970  15.357 -0.0070  0.8791 -0.4204
  886MPD2    C512991   3.195   2.878  15.458 -0.9263  0.6003 -0.9996
  886MPD2     H12992   3.470   2.851  15.214  0.0802 -1.5700  0.3799
  886MPD2    H112993   3.125   3.052  15.346  1.1924  1.8728 -0.8271
  886MPD2    H212994   3.270   2.734  15.563  1.5336 -0.1477 -0.4340
  886MPD2    H312995   3.123   2.883  15.539 -1.7302  2.5358 -1.8478
  886MPD2     N12996   3.304   3.042  15.140  0.4692 -0.3383  0.2656
  886MPD2    H512997   3.369   3.014  15.067 -1.0427 -1.5650 -0.5780
  886MPD2    N112998   3.493   2.684  15.408 -0.4404 -0.0875 -0.1405
  886MPD2    H712999   3.574   2.676  15.348  1.6409 -0.2028  2.6962
  887MPD2     C13000   4.235   2.663  15.510  0.8756  0.5731 -0.3134
  887MPD2    C113001   4.108   2.722  15.515 -0.2337 -0.3802  0.4139
  887MPD2    C213002   4.100   2.857  15.516 -0.0564  0.0953 -0.5282
  887MPD2    C313003   4.217   2.936  15.530  0.3658  0.6096 -0.3394
  887MPD2    C413004   4.346   2.885  15.519  0.7572  0.1697 -0.6510
  887MPD2    C513005   4.344   2.746  15.513 -0.0498  0.2358 -0.6740
  887MPD2     H13006   4.005   2.908  15.528 -0.3524 -0.7084  0.5214
  887MPD2    H113007   4.438   2.941  15.516  0.0139  1.4252  0.2869
  887MPD2    H213008   4.251   2.556  15.512 -0.1620  0.3528 -3.5003
  887MPD2    H313009   4.438   2.694  15.503 -0.9612 -1.4062 -0.7547
  887MPD2     N13010   4.191   3.078  15.529 -0.0779  0.3396 -0.0950
  887MPD2    H513011   4.096   3.107  15.508 -0.0034  0.6151 -0.0463
  887MPD2    N113012   3.989   2.648  15.527 -0.2148  0.3885  0.6956
  887MPD2    H713013   3.902   2.699  15.533 -0.7330 -0.6862  2.1940
  888MPD2     C13014   1.286   3.247  14.782 -0.1550  0.2322  0.0159
  888MPD2    C113015   1.290   3.281  14.916 -0.7480 -0.0180  0.2706
  888MPD2    C213016   1.342   3.405  14.954  0.3220  0.1788  0.1790
  888MPD2    C313017   1.391   3.504  14.865 -0.0908  0.4931 -0.1289
  888MPD2    C413018   1.381   3.465  14.734 -0.4949 -0.4759 -0.3240
  888MPD2    C513019   1.329   3.342  14.690 -0.6271 -0.1864 -0.1405
  888MPD2     H13020   1.339   3.419  15.061  2.0505  0.2380  0.2207
  888MPD2    H113021   1.407   3.543  14.663 -0.4961 -0.4161 -0.2586
  888MPD2    H213022   1.236   3.160  14.741 -0.8633 -0.1737  1.7370
  888MPD2    H313023   1.322   3.321  14.584 -1.3508 -2.2246  0.3109
  888MPD2     N13024   1.428   3.632  14.912 -0.0183 -0.0208 -0.2405
  888MPD2    H513025   1.397   3.660  15.005 -0.2687 -1.0950 -0.0014
  888MPD2    N113026   1.247   3.199  15.025 -0.4342  0.1743  0.0216
  888MPD2    H713027   1.270   3.239  15.116  1.8063  2.2472 -1.4354
  889MPD2     C13028   0.510   3.045  12.630  0.2849  0.6589  0.0324
  889MPD2    C113029   0.514   2.964  12.744 -0.0224  0.4553  0.3682
  889MPD2    C213030   0.410   2.975  12.838  0.0090 -0.0712 -0.1597
  889MPD2    C313031   0.322   3.079  12.817  0.3480  0.6787  0.3927
  889MPD2    C413032   0.337   3.168  12.709  0.0268 -0.3110 -0.0245
  889MPD2    C513033   0.424   3.148  12.611  0.8272 -0.0384  0.1000
  889MPD2     H13034   0.397   2.902  12.917 -2.2657 -1.1560 -1.5384
  889MPD2    H113035   0.261   3.241  12.685  1.4082 -0.7282 -5.5346
  889MPD2    H213036   0.595   3.031  12.565  1.3268  1.4347  1.2231
  889MPD2    H313037   0.432   3.221  12.531  0.0282 -0.6742 -0.5648
  889MPD2     N13038   0.216   3.101  12.913  0.0007  0.0534 -0.0078
  889MPD2    H513039   0.211   3.038  12.992 -1.5301  0.2344  0.0412
  889MPD2    N113040   0.595   2.848  12.741  0.1077 -0.6904 -0.6051
  889MPD2    H713041   0.639   2.809  12.658  4.1277  0.4996  0.9807
  890MPD2     C13042   0.108   4.246  14.853  0.2763  0.1482 -0.3316
  890MPD2    C113043   0.139   4.326  14.963  0.4915 -0.2882  0.4269
  890MPD2    C213044   0.195   4.274  15.077 -0.0430 -0.6959  0.9938
  890MPD2    C313045   0.217   4.141  15.091  0.1354  0.8854  0.1002
  890MPD2    C413046   0.187   4.053  14.990 -0.1415 -0.2809 -1.0396
  890MPD2    C513047   0.129   4.109  14.871  0.3695  0.4767  1.2165
  890MPD2     H13048   0.202   4.342  15.161 -0.1480  2.8464 -1.8764
  890MPD2    H113049   0.206   3.947  15.001 -1.3660 -0.5212 -1.2509
  890MPD2    H213050   0.069   4.278  14.757  0.3936 -1.0975 -0.7912
  890MPD2    H313051   0.118   4.044  14.785  0.3442  2.1686 -0.0466
  890MPD2     N13052   0.298   4.107  15.206 -0.3931  0.5314  0.6275
  890MPD2    H513053   0.336   4.170  15.275 -0.0872  1.5208 -0.4417
  890MPD2    N113054   0.117   4.463  14.948  0.6557 -0.4570 -0.1886
  890MPD2    H713055   0.073   4.483  14.858 -1.7576 -1.6789  0.7267
  891MPD2     C13056   2.598   2.030  16.504  0.0513 -0.1090 -0.4269
  891MPD2    C113057   2.592   2.133  16.592  0.3272 -0.6895  0.2276
  891MPD2    C213058   2.692   2.149  16.689 -0.0698  0.0505 -0.0957
  891MPD2    C313059   2.795   2.059  16.697  0.1642 -0.0270  0.8477
  891MPD2    C413060   2.804   1.961  16.599 -0.3675  0.6792  0.6752
  891MPD2    C513061   2.703   1.945  16.512  0.1318  0.4789 -0.6312
  891MPD2     H13062   2.686   2.232  16.758  2.3742 -0.9795  1.3767
  891MPD2    H113063   2.883   1.888  16.613  0.1779  0.9872 -0.8157
  891MPD2    H213064   2.521   1.997  16.436  0.1085  1.9163 -1.4717
  891MPD2    H313065   2.694   1.854  16.454  0.2920  0.1727 -0.1714
  891MPD2     N13066   2.891   2.079  16.797  0.0596 -0.5177 -0.1323
  891MPD2    H513067   2.874   2.161  16.854 -3.3143 -0.3406 -1.4090
  891MPD2    N113068   2.479   2.222  16.577  0.1322 -0.4943  0.0868
  891MPD2    H713069   2.418   2.200  16.499  0.3791  0.6070 -0.4088
  892MPD2     C13070   3.895   4.112  14.845 -0.2256  0.9843  0.8187
  892MPD2    C113071   3.815   4.006  14.813 -0.1805  1.2101  0.7572
  892MPD2    C213072   3.874   3.888  14.774 -0.6616 -0.2175 -0.0252
  892MPD2    C313073   4.006   3.880  14.747 -0.8879 -0.1109  0.1374
  892MPD2    C413074   4.084   3.990  14.774 -0.6255 -0.7433  0.3778
  892MPD2    C513075   4.029   4.096  14.832  0.5007  0.6225  0.0272
  892MPD2     H13076   3.809   3.802  14.784 -0.7592 -0.1867 -0.4088
  892MPD2    H113077   4.191   3.999  14.762 -0.8625  3.3586  1.4123
  892MPD2    H213078   3.854   4.208  14.874 -0.2086  0.9852  0.8401
  892MPD2    H313079   4.080   4.191  14.848  1.1515 -0.0325  1.7812
  892MPD2     N13080   4.072   3.763  14.705  0.4752 -0.5971  0.5147
  892MPD2    H513081   4.173   3.760  14.696  0.2197 -0.8920 -2.3820
  892MPD2    N113082   3.677   4.007  14.825 -0.0608 -0.0597 -0.0907
  892MPD2    H713083   3.620   3.927  14.802 -0.3490  0.1751 -0.1866
  893MPD2     C13084   0.881   2.455   1.012 -0.0480 -0.0457  0.1977
  893MPD2    C113085   0.919   2.470   1.145 -0.2610  0.5266 -0.3243
  893MPD2    C213086   0.842   2.521   1.243  0.3358 -0.4864 -0.0676
  893MPD2    C313087   0.709   2.566   1.201  0.4230 -0.4374  0.3996
  893MPD2    C413088   0.676   2.559   1.069  0.2275  1.0939  0.0121
  893MPD2    C513089   0.759   2.504   0.979 -0.3666 -0.3199  0.4183
  893MPD2     H13090   0.875   2.519   1.346  1.2919  1.4595 -0.3427
  893MPD2    H113091   0.577   2.592   1.040 -0.2917  0.9386  1.5724
  893MPD2    H213092   0.949   2.416   0.937  0.4744 -0.5317  0.9180
  893MPD2    H313093   0.725   2.490   0.877 -2.0480 -0.6068  1.0212
  893MPD2     N13094   0.605   2.584   1.295 -0.4992 -0.5071  0.0121
  893MPD2    H513095   0.516   2.600   1.250  0.7486  0.6382 -2.0683
  893MPD2    N113096   1.052   2.433   1.169  0.0092 -0.1518  0.2729
  893MPD2    H713097   1.091   2.383   1.089 -0.7183  1.7628 -1.2751
  894MPD2     C13098   3.176   3.909   1.063  0.2068 -0.2765 -0.3771
  894MPD2    C113099   3.074   3.993   1.015 -0.3362  0.2500 -0.1942
  894MPD2    C213100   3.113   4.109   0.964  0.9285 -0.4898 -0.3938
  894MPD2    C313101   3.243   4.161   0.974 -0.1835  0.4347 -0.0849
  894MPD2    C413102   3.342   4.070   1.014  0.0717 -0.0398  0.0119
  894MPD2    C513103   3.306   3.952   1.060 -0.4538 -0.0929 -0.6873
  894MPD2     H13104   3.046   4.183   0.923  1.5904  1.4953  2.0879
  894MPD2    H113105   3.446   4.101   1.012 -0.0375  0.3514  0.2811
  894MPD2    H213106   3.154   3.809   1.098  0.2149 -0.2141 -0.1950
  894MPD2    H313107   3.389   3.893   1.096 -1.9618 -1.8927 -0.1149
  894MPD2     N13108   3.260   4.290   0.934  0.4548 -0.1058 -0.4833
  894MPD2    H513109   3.177   4.348   0.923  1.1572  0.8997 -0.4997
  894MPD2    N113110   2.943   3.951   0.997  0.2680  0.3907 -0.0224
  894MPD2    H713111   2.889   4.020   0.945  0.1800  1.5899  1.6818
  895MPD2     C13112   2.937   3.178  13.640  0.7030  0.0706  0.4548
  895MPD2    C113113   2.883   3.133  13.527  0.3096 -0.8864  0.7604
  895MPD2    C213114   2.946   3.046  13.442  0.9128  0.7228 -0.5025
  895MPD2    C313115   3.062   2.993  13.481  1.0079  0.8479 -0.0092
  895MPD2    C413116   3.110   3.025  13.605 -0.2543  0.0792 -0.1623
  895MPD2    C513117   3.045   3.116  13.680  0.5732 -0.8385 -0.6103
  895MPD2     H13118   2.891   3.007  13.358  0.8590  0.0787 -0.1684
  895MPD2    H113119   3.199   2.981  13.648 -0.8464 -0.2308  0.7310
  895MPD2    H213120   2.890   3.239  13.716  1.8188  0.8166  0.5393
  895MPD2    H313121   3.083   3.151  13.776 -2.6774 -1.2392  0.8152
  895MPD2     N13122   3.109   2.882  13.401 -0.6083 -0.1924  0.4260
  895MPD2    H513123   3.137   2.807  13.463 -0.3865  0.3261  0.9464
  895MPD2    N113124   2.754   3.179  13.486 -0.1608 -0.7048 -0.0434
  895MPD2    H713125   2.717   3.122  13.410  0.1514 -2.3873  1.0702
  896MPD2     C13126   0.329   1.082   2.168 -0.3207  1.0843  0.2572
  896MPD2    C113127   0.310   1.070   2.030  0.0670  0.0297 -0.2079
  896MPD2    C213128   0.242   0.956   1.989  0.0409  0.2430  0.2448
  896MPD2    C313129   0.199   0.861   2.079 -0.2035  0.9603 -0.7150
  896MPD2    C413130   0.206   0.880   2.211 -0.2839  0.6579  0.8020
  896MPD2    C513131   0.271   0.993   2.259 -0.0281  0.4476  0.3718
  896MPD2     H13132   0.229   0.935   1.883 -2.2483 -0.3738  0.6568
  896MPD2    H113133   0.147   0.810   2.270  0.8337 -1.0100 -0.0860
  896MPD2    H213134   0.378   1.169   2.211  0.9497  0.3567  0.2986
  896MPD2    H313135   0.276   1.013   2.365  0.0308  0.7630  0.3080
  896MPD2     N13136   0.127   0.757   2.015 -1.1259  0.1998  0.0654
  896MPD2    H513137   0.119   0.765   1.914  0.6129  0.9656 -0.0089
  896MPD2    N113138   0.371   1.164   1.943 -0.5093  0.8870 -0.7665
  896MPD2    H713139   0.440   1.228   1.980  0.7846 -0.5789 -0.6283
  897MPD2     C13140   1.871   2.414  10.747 -0.9093 -0.0237  0.4868
  897MPD2    C113141   1.863   2.553  10.751 -0.1645 -0.3174  0.0142
  897MPD2    C213142   1.783   2.614  10.849  0.1165  0.0089  0.1681
  897MPD2    C313143   1.727   2.537  10.947  0.3371 -0.0676  0.2504
  897MPD2    C413144   1.727   2.400  10.946  0.6269 -0.5228 -0.3395
  897MPD2    C513145   1.807   2.344  10.848 -0.6079  0.4775 -0.6816
  897MPD2     H13146   1.753   2.717  10.840  1.3316  0.3550  0.1216
  897MPD2    H113147   1.696   2.335  11.028 -1.0218  0.0480 -0.5232
  897MPD2    H213148   1.937   2.366  10.675 -1.7066 -0.0742 -0.2020
  897MPD2    H313149   1.827   2.237  10.857  0.6755  0.9184  1.9177
  897MPD2     N13150   1.651   2.609  11.049  0.5883 -0.8257  0.0342
  897MPD2    H513151   1.643   2.710  11.045  0.1330 -0.7910  1.9589
  897MPD2    N113152   1.911   2.617  10.637 -0.0969  0.1006  1.3318
  897MPD2    H713153   1.936   2.551  10.564 -2.1050  0.7708  0.0503
  898MPD2     C13154   2.666   3.414  17.624  0.0907 -0.4203  0.2122
  898MPD2    C113155   2.738   3.525  17.582  0.2250 -0.6430 -0.4194
  898MPD2    C213156   2.673   3.647  17.579 -1.3138 -0.3307  0.8540
  898MPD2    C313157   2.545   3.662  17.623  0.7363  0.4547  0.4999
  898MPD2    C413158   2.475   3.552  17.656 -0.2379  0.1653  0.2460
  898MPD2    C513159   2.537   3.429  17.661 -0.0051 -0.3257  0.0760
  898MPD2     H13160   2.720   3.737  17.540 -1.5702  0.2344  1.8394
  898MPD2    H113161   2.370   3.550  17.685 -0.6676  0.7363 -1.2577
  898MPD2    H213162   2.702   3.314  17.647  0.9704 -0.4662 -1.3494
  898MPD2    H313163   2.481   3.338  17.679  2.6985 -2.1003 -0.3766
  898MPD2     N13164   2.483   3.796  17.613  0.0523  0.0629 -0.0598
  898MPD2    H513165   2.540   3.873  17.579  3.9199 -2.2559  1.2866
  898MPD2    N113166   2.875   3.512  17.532  0.5008 -0.0368  0.7426
  898MPD2    H713167   2.923   3.598  17.511  1.1881 -0.7124 -0.4359
  899MPD2     C13168   3.871   4.052  17.217 -0.6489 -0.0844  0.1967
  899MPD2    C113169   3.982   4.052  17.303  0.5696  0.4490  0.3024
  899MPD2    C213170   3.976   3.985  17.427  0.1537 -0.1495  0.9776
  899MPD2    C313171   3.851   3.941  17.473 -1.2141  0.5530 -0.1479
  899MPD2    C413172   3.741   3.949  17.388 -0.1854  0.1405  0.5207
  899MPD2    C513173   3.750   3.993  17.257 -0.1494  0.0402 -0.1190
  899MPD2     H13174   4.068   3.979  17.483 -0.4857 -0.9760  1.9489
  899MPD2    H113175   3.649   3.913  17.432 -1.8598  1.6695 -1.7189
  899MPD2    H213176   3.873   4.097  17.118  1.2288 -0.5875 -0.0042
  899MPD2    H313177   3.660   3.993  17.197  0.5679 -0.6732 -1.1821
  899MPD2     N13178   3.831   3.889  17.602  0.1038 -0.8741 -0.0970
  899MPD2    H513179   3.734   3.886  17.630  0.4289 -0.1174  1.1143
  899MPD2    N113180   4.104   4.099  17.248 -0.4135  0.5544  0.0927
  899MPD2    H713181   4.092   4.122  17.150  0.6772 -2.5301 -0.7836
  900MPD2     C13182   4.123   0.885  12.213 -0.6263  0.1032  0.0639
  900MPD2    C113183   4.011   0.820  12.251  1.2381 -0.1334  0.3948
  900MPD2    C213184   3.894   0.895  12.259 -0.2079  0.0170 -0.8853
  900MPD2    C313185   3.886   1.026  12.220  0.0967  0.1886  0.1537
  900MPD2    C413186   4.004   1.091  12.179 -0.0985  0.5069  0.5173
  900MPD2    C513187   4.116   1.016  12.178  0.4146  0.9324 -0.3643
  900MPD2     H13188   3.802   0.843  12.282  0.1348 -0.7273 -1.2050
  900MPD2    H113189   4.000   1.192  12.141 -2.3014 -0.8157 -2.7294
  900MPD2    H213190   4.222   0.842  12.206 -0.8360 -0.4563  0.5738
  900MPD2    H313191   4.209   1.062  12.147  0.4505  0.7178 -0.5734
  900MPD2     N13192   3.760   1.093  12.219  1.0190  0.1289 -0.0206
  900MPD2    H513193   3.680   1.048  12.263  1.4701 -0.8925 -0.2369
  900MPD2    N113194   4.024   0.680  12.286  0.4250  0.1872 -0.0979
  900MPD2    H713195   4.114   0.635  12.276  0.1980 -0.3365  0.2164
  901MPD2     C13196   3.790   4.384  12.626  0.3264  0.0823 -0.3958
  901MPD2    C113197   3.919   4.407  12.575 -0.0737 -0.7678  0.1519
  901MPD2    C213198   3.961   4.533  12.548  0.5910  0.5899  0.1408
  901MPD2    C313199   3.878   4.646  12.555 -0.3633 -0.7846  0.8697
  901MPD2    C413200   3.751   4.624  12.603 -0.7968  0.2404  0.5082
  901MPD2    C513201   3.712   4.494  12.640 -0.8253 -0.1883 -0.8263
  901MPD2     H13202   4.067   4.542  12.527  1.1134 -3.1070  1.3762
  901MPD2    H113203   3.679   4.703  12.615 -0.1055  0.6972  1.6958
  901MPD2    H213204   3.753   4.284  12.645 -0.7339  0.3320 -1.2144
  901MPD2    H313205   3.613   4.477  12.679 -0.6559  1.6337  0.4041
  901MPD2     N13206   3.937   0.045  12.525 -0.8939  0.2424 -0.9450
  901MPD2    H513207   4.038   0.052  12.521 -0.9093  0.9969  0.1478
  901MPD2    N113208   3.995   4.293  12.543 -0.2023 -0.5078 -0.3716
  901MPD2    H713209   3.967   4.198  12.563 -0.1946 -0.1525  1.3092
  902MPD2     C13210   2.203   3.517  13.032  0.0347 -0.1179  0.1371
  902MPD2    C113211   2.324   3.579  12.997 -0.3912  0.2944 -0.9158
  902MPD2    C213212   2.424   3.509  12.929 -0.2848 -0.0700  0.2172
  902MPD2    C313213   2.389   3.382  12.879  0.2253  0.2663 -0.5784
  902MPD2    C413214   2.272   3.326  12.901  0.4004 -0.1543 -0.2127
  902MPD2    C513215   2.177   3.391  12.975 -0.0044 -0.2913 -0.2200
  902MPD2     H13216   2.516   3.560  12.900  0.2093  0.0477  1.9771
  902MPD2    H113217   2.244   3.227  12.867  0.1537 -0.1584  0.0002
  902MPD2    H213218   2.113   3.563  13.070 -0.6109 -0.2392 -1.2306
  902MPD2    H313219   2.073   3.366  12.988 -0.3091  0.4074 -1.3374
  902MPD2     N13220   2.485   3.304  12.811 -0.3657  0.0765  0.5435
  902MPD2    H513221   2.461   3.217  12.765 -1.4717  0.1931  0.8960
  902MPD2    N113222   2.342   3.716  13.027  0.7168  0.4159  0.0450
  902MPD2    H713223   2.250   3.759  13.028  1.0191  0.9852  2.0647
  903MPD2     C13224   2.769   3.043  12.050 -0.3110 -0.2503 -0.2411
  903MPD2    C113225   2.683   3.027  12.156  0.3316 -1.3878  0.0233
  903MPD2    C213226   2.559   2.972  12.131 -0.2212 -0.3750 -0.0884
  903MPD2    C313227   2.519   2.929  12.003 -0.1314  0.6004 -0.3053
  903MPD2    C413228   2.609   2.941  11.901  0.3120 -0.0212 -0.5720
  903MPD2    C513229   2.734   2.999  11.922 -0.2284  0.2295  0.2044
  903MPD2     H13230   2.486   2.972  12.211  1.0522  1.6970  1.0754
  903MPD2    H113231   2.583   2.908  11.801  0.1646  0.2339 -0.6173
  903MPD2    H213232   2.865   3.093  12.052 -0.6988  0.4592  0.9768
  903MPD2    H313233   2.800   3.018  11.838 -0.0245 -0.5887  0.1815
  903MPD2     N13234   2.385   2.892  11.983  0.2991  0.5886  0.2522
  903MPD2    H513235   2.336   2.871  12.069 -2.7315  0.1717 -1.6012
  903MPD2    N113236   2.724   3.077  12.280 -0.2000 -0.5367 -0.2739
  903MPD2    H713237   2.811   3.126  12.261 -0.3183 -0.4287 -0.5434
  904MPD2     C13238   2.667   2.588  13.640 -0.1535 -0.4937  0.4694
  904MPD2    C113239   2.699   2.537  13.765 -0.1358 -0.2751  0.2823
  904MPD2    C213240   2.832   2.545  13.801 -0.2109  0.0721 -0.1072
  904MPD2    C313241   2.929   2.607  13.724 -0.2048  0.0037  0.2995
  904MPD2    C413242   2.889   2.657  13.604 -0.5494 -0.5599 -0.3350
  904MPD2    C513243   2.757   2.649  13.562  0.0841 -0.0995  0.2438
  904MPD2     H13244   2.873   2.505  13.893  1.3967 -1.2293 -1.3995
  904MPD2    H113245   2.952   2.718  13.540  1.4187  0.1799  2.3362
  904MPD2    H213246   2.569   2.570  13.598 -0.9844 -0.8294  2.5433
  904MPD2    H313247   2.729   2.695  13.469 -1.0558 -1.3702 -0.0503
  904MPD2     N13248   3.057   2.627  13.778  0.1697 -0.5038  0.0989
  904MPD2    H513249   3.067   2.584  13.869  1.0454 -0.3822  0.0554
  904MPD2    N113250   2.604   2.481  13.860 -0.2730  0.0153 -0.3327
  904MPD2    H713251   2.644   2.430  13.938 -1.2744 -0.3018 -0.0252
  905MPD2     C13252   2.303   2.397  13.332  0.2680  0.5819  0.2426
  905MPD2    C113253   2.352   2.518  13.364  0.4657  0.3390  0.2062
  905MPD2    C213254   2.472   2.563  13.302  0.7779 -0.4416 -0.6465
  905MPD2    C313255   2.537   2.476  13.215  0.0680  0.8522  0.0227
  905MPD2    C413256   2.484   2.354  13.186  0.1682  0.2629 -0.3471
  905MPD2    C513257   2.360   2.317  13.239 -0.9142 -0.2671 -0.3748
  905MPD2     H13258   2.522   2.654  13.334 -2.0634  1.0685 -0.5103
  905MPD2    H113259   2.534   2.289  13.115 -0.1036 -1.9430  1.5155
  905MPD2    H213260   2.215   2.367  13.388 -0.0133 -2.4265 -1.8280
  905MPD2    H313261   2.312   2.222  13.217 -1.9410  0.1972 -0.1493
  905MPD2     N13262   2.665   2.499  13.158 -0.1059 -0.4799  0.2378
  905MPD2    H513263   2.699   2.434  13.088  0.4648 -0.2772  0.3319
  905MPD2    N113264   2.282   2.595  13.452  0.1336 -0.0786 -0.9809
  905MPD2    H713265   2.206   2.548  13.500 -0.5382 -0.9579 -2.9100
  906MPD2     C13266   0.136   3.008  11.531  0.1693  0.9226  0.3826
  906MPD2    C113267   0.103   2.923  11.431 -0.2761 -0.0812 -0.1799
  906MPD2    C213268   4.717   2.838  11.447  0.4011  0.1518 -0.0840
  906MPD2    C313269   4.637   2.833  11.562 -0.3072 -0.0935  0.0172
  906MPD2    C413270   4.671   2.926  11.660  0.0634  0.7091 -0.0313
  906MPD2    C513271   0.056   3.012  11.645  0.1022 -0.2585 -0.7205
  906MPD2     H13272   4.693   2.772  11.364  0.3416  0.3023 -0.1867
  906MPD2    H113273   4.611   2.931  11.750 -0.7872 -3.0234 -0.3678
  906MPD2    H213274   0.216   3.081  11.523 -1.2923  2.6766  1.7508
  906MPD2    H313275   0.064   3.092  11.717 -0.8521 -0.8012 -0.0061
  906MPD2     N13276   4.528   2.741  11.557 -0.1893 -0.0946 -0.6323
  906MPD2    H513277   4.520   2.686  11.471 -0.9942 -0.8700 -0.0684
  906MPD2    N113278   0.186   2.911  11.321 -0.1889 -0.2546  0.7129
  906MPD2    H713279   0.171   2.829  11.263 -0.3074  1.1345 -1.2120
  907MPD2     C13280   3.953   1.634  15.697  0.2813 -0.1374 -0.0838
  907MPD2    C113281   3.942   1.496  15.719  0.2081 -0.3463 -0.3681
  907MPD2    C213282   3.988   1.458  15.842 -0.2352  0.5768  0.0647
  907MPD2    C313283   4.055   1.540  15.934  0.3887 -0.1840  0.4475
  907MPD2    C413284   4.069   1.674  15.901  0.1343  0.2817 -0.3888
  907MPD2    C513285   4.013   1.723  15.787  0.4871  0.4175 -0.2288
  907MPD2     H13286   3.984   1.353  15.871 -0.6935  0.4167 -0.5753
  907MPD2    H113287   4.116   1.744  15.969 -1.6606  0.9723  0.1409
  907MPD2    H213288   3.928   1.683  15.604  0.4036 -2.0717 -1.1448
  907MPD2    H313289   4.026   1.826  15.755  0.5429  0.4439 -0.1213
  907MPD2     N13290   4.111   1.486  16.054  0.4046 -0.3257  0.0171
  907MPD2    H513291   4.097   1.386  16.060  0.9158 -0.2777  2.1185
  907MPD2    N113292   3.882   1.401  15.634 -0.2705  0.1364  0.4644
  907MPD2    H713293   3.882   1.301  15.646 -1.2072  0.2704  1.5691
  908MPD2     C13294   1.801   2.350   9.860  0.6549  0.3627 -1.0886
  908MPD2    C113295   1.906   2.306   9.923  0.0719  1.1287 -0.5323
  908MPD2    C213296   1.983   2.383  10.008 -0.2952 -0.4306 -0.2139
  908MPD2    C313297   1.952   2.518  10.027  0.9190 -0.5471  0.2738
  908MPD2    C413298   1.847   2.564   9.955 -0.0564  0.1514 -0.4899
  908MPD2    C513299   1.776   2.488   9.867 -0.5219 -0.3433  0.2507
  908MPD2     H13300   2.055   2.331  10.071  1.3183  1.3806 -0.5574
  908MPD2    H113301   1.831   2.671   9.960 -0.4014  0.0675  0.1247
  908MPD2    H213302   1.738   2.284   9.801 -0.1552  0.8006 -0.7148
  908MPD2    H313303   1.679   2.523   9.833 -1.0866 -0.7943  1.4251
  908MPD2     N13304   2.004   2.589  10.134 -0.2122 -0.2158  0.0990
  908MPD2    H513305   2.063   2.537  10.198  0.4395  3.2074  2.2895
  908MPD2    N113306   1.939   2.169   9.884 -0.2318  0.4824  0.2298
  908MPD2    H713307   1.888   2.128   9.807 -0.0726  1.4782 -0.4084
  909MPD2     C13308   1.797   0.799  11.813 -0.1650  0.3489 -0.1243
  909MPD2    C113309   1.785   0.938  11.792 -0.9902  0.1556  0.2695
  909MPD2    C213310   1.766   1.023  11.898  0.0755  0.3410  0.2395
  909MPD2    C313311   1.731   0.964  12.018 -0.0549  0.1680 -0.0111
  909MPD2    C413312   1.736   0.825  12.033  0.4211 -0.2896  0.6600
  909MPD2    C513313   1.768   0.744  11.932  0.6863 -0.0265 -0.9014
  909MPD2     H13314   1.775   1.130  11.882  0.8601  0.6426  2.5755
  909MPD2    H113315   1.718   0.781  12.131 -2.1877 -0.2556  0.1813
  909MPD2    H213316   1.806   0.726  11.734  0.0814  0.4349 -0.1777
  909MPD2    H313317   1.775   0.636  11.939 -2.4021 -0.1522  0.4139
  909MPD2     N13318   1.696   1.038  12.135 -0.2686  0.3408 -0.4539
  909MPD2    H513319   1.684   1.137  12.117 -0.3512  0.1263 -1.5699
  909MPD2    N113320   1.821   0.990  11.667 -0.1636  0.1187 -0.6314
  909MPD2    H713321   1.843   1.089  11.654  1.0191  0.1198  1.4894
  910MPD2     C13322   2.798   2.138  15.870 -0.6293  0.0678 -0.4116
  910MPD2    C113323   2.897   2.078  15.796  0.2613  0.3253 -0.0670
  910MPD2    C213324   2.886   2.079  15.659  0.1804 -0.7290  0.0230
  910MPD2    C313325   2.781   2.143  15.594 -0.4016  1.1448 -0.2111
  910MPD2    C413326   2.674   2.188  15.671 -0.7488  0.3176 -0.7133
  910MPD2    C513327   2.688   2.191  15.811 -0.0292 -0.3423  0.4917
  910MPD2     H13328   2.959   2.031  15.594  0.7055 -0.9771  0.8033
  910MPD2    H113329   2.584   2.226  15.624 -0.7981  1.3932  0.2660
  910MPD2    H213330   2.804   2.157  15.976 -0.8354  0.3286 -0.4479
  910MPD2    H313331   2.616   2.246  15.870  0.1602 -0.9894  1.3125
  910MPD2     N13332   2.773   2.169  15.452 -0.6209  0.1994  0.3335
  910MPD2    H513333   2.692   2.216  15.414  0.1761  0.7898 -0.6245
  910MPD2    N113334   3.014   2.018  15.860 -0.0284  0.2081 -0.2177
  910MPD2    H713335   3.076   1.978  15.789 -0.0802  1.7209 -1.1273
  911MPD2     C13336   0.973   2.601  15.967  0.2691  0.0796 -0.2290
  911MPD2    C113337   1.015   2.643  16.085 -0.1007  0.3272  0.2164
  911MPD2    C213338   0.950   2.753  16.148 -0.2800  0.5677  0.3451
  911MPD2    C313339   0.849   2.825  16.083 -0.0899  0.3578 -0.0100
  911MPD2    C413340   0.798   2.777  15.965 -0.0952 -0.5839 -0.3272
  911MPD2    C513341   0.868   2.669  15.908 -0.2946 -0.2376 -0.4573
  911MPD2     H13342   0.984   2.788  16.245 -1.6096  0.2212  0.9344
  911MPD2    H113343   0.714   2.825  15.915 -1.3442 -0.0486  2.2587
  911MPD2    H213344   1.036   2.534  15.909  1.4993  0.1923  0.9783
  911MPD2    H313345   0.835   2.640  15.809  2.8137  2.0499 -2.1720
  911MPD2     N13346   0.794   2.948  16.123 -0.3223  0.6123 -0.2546
  911MPD2    H513347   0.720   2.992  16.069  1.4003  2.0656 -1.4169
  911MPD2    N113348   1.131   2.579  16.139  0.3259  0.0396  0.5836
  911MPD2    H713349   1.169   2.518  16.068 -1.2940  1.0896 -1.2045
  912MPD2     C13350   0.467   2.909  15.739 -0.0111 -0.1807 -0.4884
  912MPD2    C113351   0.449   2.917  15.875 -0.0679  0.2893 -0.0384
  912MPD2    C213352   0.449   2.807  15.953  0.2153  0.3807  0.4019
  912MPD2    C313353   0.491   2.684  15.898  0.4720 -0.0158 -0.4414
  912MPD2    C413354   0.513   2.670  15.757 -0.6507 -0.3701  0.2805
  912MPD2    C513355   0.497   2.786  15.683  0.0625 -0.5843 -0.5014
  912MPD2     H13356   0.449   2.811  16.061  0.9463 -0.0652  0.4194
  912MPD2    H113357   0.547   2.579  15.710  2.7484  1.5146 -0.9243
  912MPD2    H213358   0.458   2.992  15.670  0.5113 -0.4753 -0.9096
  912MPD2    H313359   0.489   2.773  15.575  2.0417 -2.3654 -0.4307
  912MPD2     N13360   0.510   2.572  15.985  0.2714 -0.4112  0.0525
  912MPD2    H513361   0.473   2.584  16.079  0.7615 -2.0636  0.4579
  912MPD2    N113362   0.462   3.043  15.936  0.3191 -0.2039  0.4728
  912MPD2    H713363   0.481   3.122  15.876 -0.4924 -0.1474  0.2885
  913MPD2     C13364   1.631   4.506  10.479 -0.2262 -0.6819  0.4556
  913MPD2    C113365   1.764   4.511  10.504 -0.9443  0.3813 -0.0169
  913MPD2    C213366   1.837   4.632  10.485  0.1626 -0.1588  0.0441
  913MPD2    C313367   1.779   4.724  10.395  0.0598  0.2231  0.2397
  913MPD2    C413368   1.652   4.708  10.355  0.5198  0.2667 -0.3468
  913MPD2    C513369   1.580   4.599  10.389 -0.1083 -0.5888  0.3702
  913MPD2     H13370   1.938   4.645  10.522  0.2899 -0.6012 -0.1510
  913MPD2    H113371   1.607   0.039  10.273 -0.7647 -1.4114 -0.7784
  913MPD2    H213372   1.568   4.419  10.493 -1.6951 -0.0045 -1.8017
  913MPD2    H313373   1.481   4.576  10.352 -0.4692  2.0676 -0.3300
  913MPD2     N13374   1.852   0.110  10.342  0.1214 -0.8779  0.1511
  913MPD2    H513375   1.798   0.167  10.277  2.1072  2.6322  1.5923
  913MPD2    N113376   1.830   4.403  10.560  0.3347 -0.4319  0.6219
  913MPD2    H713377   1.771   4.327  10.594  0.5964  0.3030  2.7334
  914MPD2     C13378   4.350   4.186  11.686  0.0889 -0.3867  0.3432
  914MPD2    C113379   4.310   4.283  11.769  0.2983  0.0227  0.0852
  914MPD2    C213380   4.282   4.246  11.896  0.2642 -0.6453 -0.5050
  914MPD2    C313381   4.288   4.110  11.943  0.1530  0.2029 -0.2310
  914MPD2    C413382   4.327   4.016  11.856 -0.0240  0.7071 -0.4018
  914MPD2    C513383   4.355   4.054  11.726  0.0290  0.2583  0.0720
  914MPD2     H13384   4.258   4.318  11.974  1.1372 -0.1784 -0.6643
  914MPD2    H113385   4.329   3.910  11.878  0.5980  1.4651  3.2244
  914MPD2    H213386   4.378   4.211  11.584  1.7246  0.2164  0.9462
  914MPD2    H313387   4.391   3.991  11.644  0.0833 -0.0694  0.3455
  914MPD2     N13388   4.253   4.083  12.073  0.9442  0.3255  0.2096
  914MPD2    H513389   4.228   4.165  12.127 -2.6543 -1.7793  1.7268
  914MPD2    N113390   4.303   4.416  11.719  0.1349  0.0179 -0.4218
  914MPD2    H713391   4.346   4.438  11.630 -3.8142 -1.1182 -2.6190
  915MPD2     C13392   2.334   4.191  15.633 -0.8806 -0.0927  0.1067
  915MPD2    C113393   2.201   4.144  15.629  0.3702  0.5219 -0.2798
  915MPD2    C213394   2.111   4.199  15.714 -0.6519 -0.7939  0.3006
  915MPD2    C313395   2.145   4.299  15.807  0.4237  0.1504  0.1388
  915MPD2    C413396   2.279   4.325  15.826  0.2279 -0.0300  0.5201
  915MPD2    C513397   2.368   4.274  15.733 -0.2587  0.7382  0.1748
  915MPD2     H13398   2.007   4.171  15.703 -0.7779  0.4725 -1.5335
  915MPD2    H113399   2.320   4.396  15.897 -0.1611 -0.5603  1.2900
  915MPD2    H213400   2.409   4.167  15.558 -0.1473  1.3837  0.3689
  915MPD2    H313401   2.474   4.297  15.730 -0.5625  2.0710 -0.2866
  915MPD2     N13402   2.048   4.350  15.900 -0.2087  0.1195  0.1091
  915MPD2    H513403   1.957   4.306  15.901 -0.3087  0.3157 -0.5633
  915MPD2    N113404   2.164   4.067  15.517  0.4502  0.5601 -0.1620
  915MPD2    H713405   2.234   4.057  15.444  1.1967  1.5115  0.4312
  916MPD2     C13406   0.163   2.628  15.889 -0.5238  0.4282 -0.0688
  916MPD2    C113407   0.162   2.525  15.974  0.4031 -0.0806 -0.4428
  916MPD2    C213408   0.187   2.394  15.934 -0.8556 -0.5632 -0.5284
  916MPD2    C313409   0.225   2.369  15.807 -0.0080  0.6119  0.5840
  916MPD2    C413410   0.227   2.474  15.719 -0.7345  0.6199  0.0024
  916MPD2    C513411   0.197   2.602  15.760 -0.0158 -0.0873  0.3917
  916MPD2     H13412   0.175   2.310  16.002 -2.0985  0.7692  0.9000
  916MPD2    H113413   0.250   2.466  15.613 -0.1693  0.4390  0.1361
  916MPD2    H213414   0.158   2.734  15.911 -2.7946  0.4372 -0.5977
  916MPD2    H313415   0.206   2.678  15.684  1.9127 -0.6866  0.0313
  916MPD2     N13416   0.268   2.241  15.766  0.0655 -0.0857  0.1792
  916MPD2    H513417   0.247   2.164  15.829 -0.0008  1.0137  1.4934
  916MPD2    N113418   0.114   2.549  16.109  0.1875  0.0063 -1.0282
  916MPD2    H713419   0.089   2.645  16.131 -2.6824 -0.4535 -2.1623
  917MPD2     C13420   0.814   0.124  10.970 -0.6685 -0.4986 -0.9073
  917MPD2    C113421   0.825   0.140  11.105  0.7043 -0.3666 -0.5076
  917MPD2    C213422   0.862   0.265  11.152  0.2106 -0.8835  0.1806
  917MPD2    C313423   0.889   0.366  11.064 -0.7793 -0.4051  0.3438
  917MPD2    C413424   0.879   0.339  10.933  0.2317  0.4806  0.6770
  917MPD2    C513425   0.836   0.223  10.884 -0.2209 -0.4353  0.0913
  917MPD2     H13426   0.863   0.290  11.258  0.9011 -0.8361  0.1657
  917MPD2    H113427   0.896   0.420  10.862  0.6222 -0.5838 -0.4481
  917MPD2    H213428   0.788   0.023  10.940 -1.1142 -1.3767  2.3652
  917MPD2    H313429   0.827   0.225  10.776  0.4414  2.1306  0.0870
  917MPD2     N13430   0.923   0.501  11.091 -0.4167  0.1241  0.4487
  917MPD2    H513431   0.939   0.563  11.013 -1.6114  3.0190  2.5032
  917MPD2    N113432   0.790   0.032  11.183 -0.6137  0.3478 -0.1815
  917MPD2    H713433   0.770   4.672  11.130 -0.9899 -0.9302  1.9922
  918MPD2     C13434   0.255   0.354  11.927  0.1093  1.1096  0.4718
  918MPD2    C113435   0.392   0.374  11.899  0.1157 -0.5598  0.9301
  918MPD2    C213436   0.465   0.285  11.825 -0.3985  0.9707 -0.2959
  918MPD2    C313437   0.404   0.167  11.779 -0.5365  0.7776  0.4238
  918MPD2    C413438   0.271   0.143  11.817  0.1574 -0.0664  0.3253
  918MPD2    C513439   0.202   0.233  11.892 -0.2469 -0.5974  0.5227
  918MPD2     H13440   0.570   0.308  11.807 -0.1591 -0.7016 -0.9996
  918MPD2    H113441   0.219   0.051  11.791  1.4652 -1.0639  1.2428
  918MPD2    H213442   0.195   0.429  11.978  0.4046  0.2547  2.0711
  918MPD2    H313443   0.096   0.212  11.903 -0.3920 -0.6583 -0.9057
  918MPD2     N13444   0.476   0.080  11.690  0.0579  0.6788 -0.0091
  918MPD2    H513445   0.563   0.122  11.660  1.1686 -0.6562  1.2992
  918MPD2    N113446   0.456   0.486  11.960  0.4569 -0.4895 -0.5171
  918MPD2    H713447   0.556   0.472  11.965  0.8935  2.0597 -2.1118
  919MPD2     C13448   1.279   4.383  11.432 -0.1963  0.0153 -1.0504
  919MPD2    C113449   1.271   4.253  11.385 -0.0228 -0.2507  0.0078
  919MPD2    C213450   1.270   4.224  11.251 -0.2198 -0.0569  0.9006
  919MPD2    C313451   1.299   4.328  11.160  0.4966  0.1716 -0.0911
  919MPD2    C413452   1.334   4.449  11.212 -0.7270  0.4585 -0.0982
  919MPD2    C513453   1.326   4.479  11.348 -0.1307 -0.5460 -0.5087
  919MPD2     H13454   1.242   4.125  11.217 -0.4468  0.6039 -0.8261
  919MPD2    H113455   1.356   4.529  11.142  2.1532 -0.3655 -0.1268
  919MPD2    H213456   1.265   4.409  11.537  1.3955  0.5930 -0.9742
  919MPD2    H313457   1.337   4.578  11.391 -4.2155  0.5984 -2.0888
  919MPD2     N13458   1.272   4.321  11.013  0.2431  0.7837  0.4172
  919MPD2    H513459   1.315   4.391  10.954  0.3013  0.5797  0.2202
  919MPD2    N113460   1.256   4.149  11.478 -0.0997  0.5392  0.0650
  919MPD2    H713461   1.271   4.057  11.438 -2.3651  0.3757 -0.4372
  920MPD2     C13462   1.109   0.056  10.169 -0.4980  0.9565 -0.3066
  920MPD2    C113463   1.023   4.671  10.158 -0.5407  0.1207 -0.2457
  920MPD2    C213464   1.028   4.568  10.243  0.1063  0.0833  0.5140
  920MPD2    C313465   1.113   4.568  10.350 -0.4314 -0.1799 -0.4529
  920MPD2    C413466   1.194   4.680  10.368 -0.2171  0.4314 -0.7117
  920MPD2    C513467   1.189   0.060  10.277  0.0640 -0.0634  0.6931
  920MPD2     H13468   0.962   4.483  10.230 -1.6771  1.6446 -0.6401
  920MPD2    H113469   1.270   4.693  10.444  1.3139 -0.9826 -1.9772
  920MPD2    H213470   1.102   0.146  10.110  0.6166  0.3023 -1.4359
  920MPD2    H313471   1.257   0.143  10.292 -0.7184  0.7013  0.0084
  920MPD2     N13472   1.134   4.460  10.432 -0.0349  0.1796 -0.2109
  920MPD2    H513473   1.080   4.378  10.404 -1.5557  0.8281  0.8752
  920MPD2    N113474   0.921   4.670  10.063  0.0476 -0.0099 -0.2429
  920MPD2    H713475   0.874   4.581  10.062 -1.0971  0.5878  1.3119
  921MPD2     C13476   1.712   2.735  16.826 -0.0986  0.6086  0.3009
  921MPD2    C113477   1.763   2.626  16.767  0.6741  0.0508  0.1850
  921MPD2    C213478   1.677   2.530  16.715 -0.0411 -0.0326 -0.6120
  921MPD2    C313479   1.541   2.553  16.715  0.4341 -0.4253 -0.4462
  921MPD2    C413480   1.493   2.665  16.780 -0.2536  0.3831  0.0261
  921MPD2    C513481   1.576   2.758  16.828 -0.0380  0.5128  0.3517
  921MPD2     H13482   1.710   2.437  16.669 -1.2829 -0.7877  0.0079
  921MPD2    H113483   1.387   2.687  16.768 -0.1680  0.2419 -1.0021
  921MPD2    H213484   1.778   2.809  16.868 -0.7312 -0.2007  2.7041
  921MPD2    H313485   1.532   2.846  16.874  0.8087  2.1898 -2.0582
  921MPD2     N13486   1.445   2.477  16.650 -0.0543  0.0049 -0.2372
  921MPD2    H513487   1.351   2.496  16.682 -0.1394  0.7496 -0.9425
  921MPD2    N113488   1.905   2.610  16.768  0.2530 -0.1998 -0.3228
  921MPD2    H713489   1.966   2.692  16.773  0.3021 -0.2837  0.3550
  922MPD2     C13490   2.713   0.108  16.656 -0.5264 -0.1343 -0.7338
  922MPD2    C113491   2.649   0.213  16.720 -0.0578 -0.7232 -1.0181
  922MPD2    C213492   2.531   0.183  16.794  0.0179  0.6897  0.1821
  922MPD2    C313493   2.476   0.056  16.793  0.0117  0.0037  0.0487
  922MPD2    C413494   2.541   4.685  16.723 -0.2577  0.1772  0.5902
  922MPD2    C513495   2.657   4.706  16.657  0.6051  0.0211  0.2338
  922MPD2     H13496   2.481   0.266  16.842 -1.1659 -0.0611  0.2332
  922MPD2    H113497   2.502   4.585  16.718  0.4248 -0.1205  1.2491
  922MPD2    H213498   2.806   0.128  16.605  0.1498 -2.5720 -0.4249
  922MPD2    H313499   2.699   4.626  16.598  1.1455 -0.2181  0.9465
  922MPD2     N13500   2.354   0.037  16.859 -0.3526  0.2040  0.1407
  922MPD2    H513501   2.316   0.115  16.911 -1.3058 -1.6084  2.1334
  922MPD2    N113502   2.694   0.346  16.704 -0.0814 -0.3294 -0.1380
  922MPD2    H713503   2.645   0.422  16.750 -0.5060  0.8138 -2.4559
  923MPD2     C13504   4.497   2.039   9.257 -0.3444 -0.6667 -0.4904
  923MPD2    C113505   4.429   2.145   9.302  0.0733  0.4755 -0.0893
  923MPD2    C213506   4.494   2.247   9.366  0.2307 -0.0664 -0.4328
  923MPD2    C313507   4.629   2.239   9.388  0.3273  0.2810 -0.1436
  923MPD2    C413508   4.704   2.133   9.342 -0.3280 -0.2952 -0.8689
  923MPD2    C513509   4.634   2.035   9.281 -0.0415 -0.1800 -0.0836
  923MPD2     H13510   4.437   2.326   9.415 -0.7156 -2.7049  2.7124
  923MPD2    H113511   0.087   2.124   9.358 -0.3405 -0.2945 -0.7880
  923MPD2    H213512   4.450   1.963   9.196  0.6967 -1.5690 -0.1658
  923MPD2    H313513   4.688   1.947   9.247  0.5966  0.2993 -0.3117
  923MPD2     N13514   4.704   2.335   9.466 -0.7476  0.6553  0.5057
  923MPD2    H513515   0.080   2.318   9.474 -0.3902  2.5979  0.3517
  923MPD2    N113516   4.290   2.145   9.270 -0.3400  0.4545  0.3477
  923MPD2    H713517   4.254   2.063   9.220 -1.5451  0.6122  0.9675
  924MPD2     C13518   4.337   0.679  16.520  0.5359  0.2273  0.1035
  924MPD2    C113519   4.241   0.754  16.444 -0.6220  0.3856  0.2948
  924MPD2    C213520   4.272   0.886  16.397  0.4374  0.5043  0.8431
  924MPD2    C313521   4.388   0.944  16.442  0.1256  0.1937  0.1721
  924MPD2    C413522   4.471   0.879  16.521 -0.1510  0.0203  0.1317
  924MPD2    C513523   4.449   0.748  16.556 -0.3788 -0.6614  0.2162
  924MPD2     H13524   4.198   0.940  16.338 -0.8732 -0.8505  1.2268
  924MPD2    H113525   4.560   0.928  16.560  0.4493 -0.3614 -0.7694
  924MPD2    H213526   4.325   0.574  16.544  1.2843  0.7307  2.7371
  924MPD2    H313527   4.528   0.696  16.609  0.5555  1.1604  0.6375
  924MPD2     N13528   4.415   1.082  16.403 -0.0962  0.1727 -0.2312
  924MPD2    H513529   4.486   1.139  16.448  2.3219 -1.0816 -2.4432
  924MPD2    N113530   4.125   0.683  16.422 -0.3822  0.7290  0.1590
  924MPD2    H713531   4.143   0.584  16.436 -1.9260  0.0144 -2.8854
  925MPD2     C13532   2.292   3.075  14.262 -0.2547 -0.5811  0.3283
  925MPD2    C113533   2.282   3.203  14.309  0.1074  0.0735 -0.4107
  925MPD2    C213534   2.341   3.240  14.434  0.2356  0.5184 -0.8007
  925MPD2    C313535   2.378   3.136  14.518  0.4178  0.1478  0.0647
  925MPD2    C413536   2.365   3.009  14.473  0.2852 -0.2743  0.3859
  925MPD2    C513537   2.328   2.974  14.347 -0.7984 -0.2959 -0.9411
  925MPD2     H13538   2.329   3.343  14.463 -0.7081 -0.3009  1.7613
  925MPD2    H113539   2.379   2.922  14.536  1.1756 -0.0413  0.5113
  925MPD2    H213540   2.258   3.046  14.164 -0.7028 -0.8864  0.5741
  925MPD2    H313541   2.319   2.869  14.318 -0.2355 -0.8437  0.8560
  925MPD2     N13542   2.419   3.153  14.649  0.3011  0.5133 -0.6088
  925MPD2    H513543   2.423   3.071  14.708  1.1711  0.0566 -1.2974
  925MPD2    N113544   2.209   3.300  14.232  0.1705 -0.5639  0.1829
  925MPD2    H713545   2.201   3.272  14.134 -0.8071  0.5821 -0.0522
  926MPD2     C13546   1.333   1.899  13.510 -0.3701 -0.5954  0.0774
  926MPD2    C113547   1.380   2.013  13.570  0.0224  0.0273 -0.5741
  926MPD2    C213548   1.446   2.109  13.495 -0.2498 -0.2812  0.4226
  926MPD2    C313549   1.448   2.096  13.354 -0.0163 -0.9040 -0.4328
  926MPD2    C413550   1.399   1.981  13.298  0.1752 -0.0310  0.5521
  926MPD2    C513551   1.344   1.880  13.372  0.2943  0.3092  0.6665
  926MPD2     H13552   1.485   2.198  13.543  1.2957 -0.1609 -1.0921
  926MPD2    H113553   1.395   1.968  13.190  1.7340 -2.5005  0.7896
  926MPD2    H213554   1.275   1.825  13.565 -1.1870 -0.2501 -0.3205
  926MPD2    H313555   1.304   1.789  13.329  0.1244 -0.1354  1.7463
  926MPD2     N13556   1.494   2.198  13.266  0.1973  0.6901  0.1391
  926MPD2    H513557   1.488   2.168  13.169  3.5621  2.3547 -0.5841
  926MPD2    N113558   1.363   2.038  13.706  0.4652  0.2164  0.4993
  926MPD2    H713559   1.381   2.130  13.746  0.9351 -0.4488  1.8165
  927MPD2     C13560   0.922   3.882   0.158  0.0234  0.1508  0.7061
  927MPD2    C113561   0.954   4.015   0.179 -0.2598  0.4883 -0.2535
  927MPD2    C213562   1.071   4.071   0.124  0.4596 -0.1148  0.1082
  927MPD2    C313563   1.153   3.994   0.037  0.2220 -0.8137  0.4666
  927MPD2    C413564   1.104   3.869   0.009  0.3134 -0.0156  0.8534
  927MPD2    C513565   0.994   3.814   0.069 -0.1331 -0.8727 -0.1098
  927MPD2     H13566   1.092   4.175   0.149 -0.3289  0.2654 -0.8006
  927MPD2    H113567   1.149   3.796  17.642 -0.7857 -0.4875  0.6165
  927MPD2    H213568   0.827   3.834   0.177  0.7363 -1.4750  0.1234
  927MPD2    H313569   0.959   3.718   0.035  2.0325 -0.2676 -4.0298
  927MPD2     N13570   1.273   4.053  17.692 -0.6092  0.1389  0.1765
  927MPD2    H513571   1.290   4.152   0.008 -0.5572  0.3537 -1.2821
  927MPD2    N113572   0.884   4.079   0.279  0.2550 -0.1521 -0.8612
  927MPD2    H713573   0.818   4.018   0.327 -0.5581  1.2031 -0.2476
  928MPD2     C13574   4.643   2.403   1.064 -0.9065  1.1311  0.3499
  928MPD2    C113575   4.504   2.396   1.086  0.0827  0.2747  0.2094
  928MPD2    C213576   4.414   2.387   0.979  0.9336 -0.4564  0.0020
  928MPD2    C313577   4.472   2.384   0.850 -0.7361  0.4839 -0.4349
  928MPD2    C413578   4.610   2.386   0.833 -0.0274 -0.3599 -0.3344
  928MPD2    C513579   4.694   2.388   0.940  0.2731  0.0137  0.2937
  928MPD2     H13580   4.306   2.390   0.984  0.9659  5.3304 -2.6287
  928MPD2    H113581   4.649   2.386   0.732  1.3995 -0.2287  0.2147
  928MPD2    H213582   4.713   2.401   1.146 -1.0485 -0.4642  0.4276
  928MPD2    H313583   0.076   2.386   0.917 -0.3256 -1.1567 -2.4346
  928MPD2     N13584   4.398   2.405   0.730  0.2145 -0.8568  0.5578
  928MPD2    H513585   4.441   2.412   0.638 -1.0370 -2.8018 -0.1735
  928MPD2    N113586   4.456   2.431   1.214  0.1678 -0.6401 -0.0262
  928MPD2    H713587   4.531   2.455   1.278 -0.1300 -2.0564  0.8538
  929MPD2     C13588   4.258   3.331  10.132  0.0309 -0.3848 -0.1892
  929MPD2    C113589   4.190   3.236  10.058  0.4001  0.2174 -0.3562
  929MPD2    C213590   4.089   3.281   9.983  0.2181  0.0694  0.0517
  929MPD2    C313591   4.036   3.412   9.997 -0.5392  0.4252  0.2488
  929MPD2    C413592   4.111   3.500  10.070 -0.0955 -0.7963  0.2100
  929MPD2    C513593   4.220   3.456  10.140 -0.3759 -0.2181  0.1788
  929MPD2     H13594   4.019   3.216   9.932 -0.8522  0.7252  0.6619
  929MPD2    H113595   4.080   3.603  10.080  0.3656 -0.5832 -0.5630
  929MPD2    H213596   4.337   3.290  10.194 -0.3738 -1.0762 -0.1410
  929MPD2    H313597   4.282   3.521  10.201  0.5153  0.2835 -1.2559
  929MPD2     N13598   3.915   3.448   9.933  0.3202 -0.2610 -0.0992
  929MPD2    H513599   3.876   3.375   9.874  1.2624 -0.7303 -0.1399
  929MPD2    N113600   4.221   3.095  10.070 -0.1311 -0.0153 -0.2968
  929MPD2    H713601   4.302   3.065  10.122 -0.7417 -2.7245 -0.9201
  930MPD2     C13602   0.851   4.703  14.202  0.2582 -0.0773 -0.1948
  930MPD2    C113603   0.976   0.012  14.162  0.4486  0.2454  0.8277
  930MPD2    C213604   1.018   4.680  14.043  0.4562 -0.3036 -0.1217
  930MPD2    C313605   0.934   4.598  13.969 -0.2388  0.6853  0.0635
  930MPD2    C413606   0.814   4.555  14.024 -0.0688  0.3275  0.0574
  930MPD2    C513607   0.774   4.611  14.139 -0.0546  0.2510 -0.4383
  930MPD2     H13608   1.111   4.715  14.000  1.4364 -0.3129  1.9847
  930MPD2    H113609   0.752   4.488  13.965  1.1173 -0.5092 -0.2392
  930MPD2    H213610   0.814   0.021  14.295 -0.3005 -2.3549  0.6080
  930MPD2    H313611   0.675   4.589  14.177  0.0803 -3.0074 -1.9153
  930MPD2     N13612   0.965   4.565  13.836  0.2196 -0.4872 -0.1684
  930MPD2    H513613   0.891   4.531  13.775 -0.4789 -0.0086  0.4083
  930MPD2    N113614   1.052   0.110  14.232  0.0304  0.3048  0.3072
  930MPD2    H713615   1.016   0.137  14.323  0.3083  0.6723  0.3060
  931MPD2     C13616   0.260   4.022   0.822 -0.1848  0.0977  0.1233
  931MPD2    C113617   0.367   3.979   0.750 -0.3667  0.0023 -0.5187
  931MPD2    C213618   0.405   3.847   0.763  0.4327 -0.0673 -0.4422
  931MPD2    C313619   0.349   3.762   0.862 -0.4797 -0.1899  0.4259
  931MPD2    C413620   0.230   3.802   0.920 -0.5279  0.4920  0.1882
  931MPD2    C513621   0.190   3.934   0.903  0.0156  0.0837 -0.5279
  931MPD2     H13622   0.499   3.812   0.724  0.1946 -0.7112 -0.4484
  931MPD2    H113623   0.186   3.737   0.996 -0.5337 -0.5386 -0.6957
  931MPD2    H213624   0.224   4.124   0.822  0.5705  0.3691 -1.3764
  931MPD2    H313625   0.105   3.967   0.962  0.6317  2.3773 -0.9110
  931MPD2     N13626   0.405   3.641   0.900 -0.3186 -0.4918 -0.1899
  931MPD2    H513627   0.370   3.591   0.981 -0.4832 -0.4677 -0.2465
  931MPD2    N113628   0.428   4.072   0.659  0.3462 -0.0622 -0.3000
  931MPD2    H713629   0.397   4.168   0.652  0.3859  0.0826  1.6328
  932MPD2     C13630   3.530   3.578  11.192  0.8175  0.2500 -0.3362
  932MPD2    C113631   3.439   3.594  11.292  0.3032 -0.4351 -0.2834
  932MPD2    C213632   3.452   3.511  11.404  0.3399 -0.2968  0.6053
  932MPD2    C313633   3.546   3.412  11.410  0.2400 -0.1894 -0.2574
  932MPD2    C413634   3.637   3.395  11.307 -0.8067  0.7459 -0.4771
  932MPD2    C513635   3.620   3.477  11.198  0.0626 -0.3439 -0.4616
  932MPD2     H13636   3.387   3.532  11.488  0.4990  0.5459  0.5193
  932MPD2    H113637   3.703   3.309  11.310 -1.7672  0.0251  0.0882
  932MPD2    H213638   3.535   3.631  11.097 -0.3148  1.4338  0.2581
  932MPD2    H313639   3.681   3.460  11.110 -1.4828  2.3881 -2.0595
  932MPD2     N13640   3.558   3.326  11.521 -0.1459 -0.1277 -0.2858
  932MPD2    H513641   3.646   3.276  11.525  0.2703  0.5327 -1.2434
  932MPD2    N113642   3.351   3.703  11.311  0.1217  0.0722  0.4741
  932MPD2    H713643   3.293   3.711  11.394 -0.0024  3.5672  0.0658
  933MPD2     C13644   3.918   2.814   1.891 -0.0885  0.4200  0.0068
  933MPD2    C113645   3.911   2.769   1.764  0.5021 -0.1731  0.2838
  933MPD2    C213646   3.812   2.820   1.674 -0.1467 -0.0890 -0.2487
  933MPD2    C313647   3.728   2.916   1.709  1.0255  0.0584 -0.3132
  933MPD2    C413648   3.740   2.968   1.832 -0.2643  0.5840 -0.0059
  933MPD2    C513649   3.834   2.922   1.920  0.0159  0.2430  0.1897
  933MPD2     H13650   3.821   2.794   1.569  1.5034  0.6391 -0.2723
  933MPD2    H113651   3.673   3.043   1.874 -0.8217 -0.7844  1.5365
  933MPD2    H213652   3.999   2.785   1.957 -0.1738  0.0960 -0.0343
  933MPD2    H313653   3.844   2.969   2.018  1.0467 -0.4491  0.4220
  933MPD2     N13654   3.631   2.955   1.618  0.3803  0.3987 -0.0692
  933MPD2    H513655   3.630   2.895   1.537 -2.3786 -0.6103  0.6907
  933MPD2    N113656   4.019   2.687   1.719 -0.3473  0.4126  0.1346
  933MPD2    H713657   4.080   2.669   1.799  0.3133 -0.8219 -0.6494
  934MPD2     C13658   4.385   4.368   2.316 -0.0432 -0.1151 -0.4062
  934MPD2    C113659   4.412   4.489   2.247  0.0648 -0.2825 -0.4877
  934MPD2    C213660   4.350   4.511   2.129 -0.6649  0.2259  0.3436
  934MPD2    C313661   4.271   4.416   2.061  0.5646 -0.2488 -0.3286
  934MPD2    C413662   4.250   4.299   2.130  0.0349 -0.0643  0.3755
  934MPD2    C513663   4.299   4.280   2.255 -0.2090 -0.6993 -0.4877
  934MPD2     H13664   4.363   4.609   2.084  0.1443  0.6583  1.5187
  934MPD2    H113665   4.199   4.212   2.090 -2.5131  1.2346  0.7868
  934MPD2    H213666   4.427   4.335   2.410 -0.5786 -0.4606 -0.2918
  934MPD2    H313667   4.283   4.184   2.304  3.1813 -0.8609  0.3116
  934MPD2     N13668   4.227   4.436   1.929  0.2031 -0.5312 -0.6877
  934MPD2    H513669   4.190   4.352   1.888 -1.4015 -0.6148  0.9603
  934MPD2    N113670   4.493   4.599   2.306 -0.3301 -0.3454  0.1534
  934MPD2    H713671   4.503   4.688   2.257 -0.4882 -0.1101  0.5452
  935MPD2     C13672   4.321   3.747   1.534  0.0286 -0.3949 -0.1388
  935MPD2    C113673   4.350   3.844   1.437 -0.8093  0.2436 -0.4116
  935MPD2    C213674   4.306   3.977   1.455  0.0125  0.1242 -0.9782
  935MPD2    C313675   4.254   4.025   1.572  0.4456 -0.5107  0.1841
  935MPD2    C413676   4.236   3.931   1.671 -0.2140 -0.4825  0.1419
  935MPD2    C513677   4.269   3.800   1.651  0.3468 -0.4546  0.4649
  935MPD2     H13678   4.312   4.038   1.366  0.8270 -0.5526 -1.3947
  935MPD2    H113679   4.208   3.961   1.771  1.2727  2.4178 -0.3201
  935MPD2    H213680   4.334   3.641   1.518  0.8943 -0.0847 -1.4799
  935MPD2    H313681   4.232   3.746   1.737  1.6810  0.7358  1.7778
  935MPD2     N13682   4.225   4.161   1.587 -0.2262 -0.0942 -0.3236
  935MPD2    H513683   4.196   4.195   1.678  3.3691 -0.8418  1.0990
  935MPD2    N113684   4.398   3.811   1.311  0.0140 -0.2962  0.0849
  935MPD2    H713685   4.415   3.891   1.251  0.2823  0.9784  1.8498
  936MPD2     C13686   4.005   1.759  12.964 -0.1887 -0.3972 -0.6296
  936MPD2    C113687   3.885   1.826  12.991  0.0929  0.1886  0.1831
  936MPD2    C213688   3.791   1.826  12.884  0.3325 -0.2794  0.7404
  936MPD2    C313689   3.809   1.767  12.761  0.0501  0.2612  0.0741
  936MPD2    C413690   3.917   1.689  12.747 -0.5117 -0.4338  0.0121
  936MPD2    C513691   4.009   1.677  12.847  0.1748  0.2856  0.9626
  936MPD2     H13692   3.703   1.885  12.906  1.3008  1.5713 -0.3452
  936MPD2    H113693   3.933   1.631  12.658 -1.6710  4.4291 -3.3767
  936MPD2    H213694   4.079   1.753  13.043  2.1083 -0.8092 -2.8445
  936MPD2    H313695   4.096   1.613  12.832  0.1129  0.8242 -1.6722
  936MPD2     N13696   3.710   1.766  12.660 -0.6334 -0.2101  0.1094
  936MPD2    H513697   3.738   1.737  12.568 -1.7805 -0.5696 -0.1292
  936MPD2    N113698   3.851   1.891  13.112  0.0514 -0.2344  0.3908
  936MPD2    H713699   3.761   1.938  13.113  0.8309  1.2531  0.4626
  937MPD2     C13700   1.554   3.485  11.529 -0.2958  0.0442 -0.2932
  937MPD2    C113701   1.553   3.622  11.502  0.1052  0.0724  0.1003
  937MPD2    C213702   1.658   3.672  11.433  0.1426 -0.9390  0.2667
  937MPD2    C313703   1.748   3.595  11.369 -0.2299  0.0245 -0.7495
  937MPD2    C413704   1.744   3.456  11.389  0.1553 -0.6245  0.7954
  937MPD2    C513705   1.660   3.412  11.482  0.1902  0.4244 -0.8221
  937MPD2     H13706   1.663   3.778  11.412  1.3581 -0.6777  1.9228
  937MPD2    H113707   1.824   3.388  11.361 -0.3048 -1.3367  1.2353
  937MPD2    H213708   1.488   3.439  11.602 -1.9397  1.8457 -0.6552
  937MPD2    H313709   1.678   3.313  11.521 -1.1056 -0.0233 -1.3281
  937MPD2     N13710   1.848   3.662  11.292  0.6334  0.7583 -0.6740
  937MPD2    H513711   1.840   3.763  11.295 -0.2317  0.6702  0.2455
  937MPD2    N113712   1.466   3.719  11.564  0.3687 -0.4328 -0.1144
  937MPD2    H713713   1.473   3.816  11.532 -0.3211  0.1184  1.4002
  938MPD2     C13714   4.040   4.477   0.936  0.0345  0.2597  0.2794
  938MPD2    C113715   4.055   4.390   1.050 -0.4529 -0.0441 -0.2865
  938MPD2    C213716   3.950   4.327   1.109 -0.0995 -0.4172  0.3522
  938MPD2    C313717   3.822   4.343   1.057 -0.1837 -0.4751  0.0313
  938MPD2    C413718   3.804   4.423   0.950 -0.2303  0.6395  0.1304
  938MPD2    C513719   3.913   4.485   0.891  0.2363 -0.4841  0.3343
  938MPD2     H13720   3.978   4.262   1.192 -0.7810 -0.3568  0.6305
  938MPD2    H113721   3.703   4.445   0.915 -0.0282  1.1495 -0.1422
  938MPD2    H213722   4.119   4.533   0.887  0.2986 -0.4436 -0.0952
  938MPD2    H313723   3.898   4.561   0.815 -0.1671 -1.4903 -0.5909
  938MPD2     N13724   3.708   4.278   1.118  0.0139 -0.2612  0.5844
  938MPD2    H513725   3.617   4.287   1.074  0.0579  0.0057  0.5501
  938MPD2    N113726   4.182   4.365   1.107  0.6323 -0.5435  0.0036
  938MPD2    H713727   4.187   4.306   1.189  1.7554 -1.0243 -0.4050
  939MPD2     C13728   0.089   0.422   0.833  0.9098 -0.3056 -0.1642
  939MPD2    C113729   0.129   0.550   0.859  0.0033 -0.5165  0.9400
  939MPD2    C213730   0.224   0.611   0.773  0.4146  0.2788 -0.4967
  939MPD2    C313731   0.274   0.539   0.669 -0.0559 -0.6897 -0.8223
  939MPD2    C413732   0.231   0.412   0.647  0.2502  0.1416  0.0559
  939MPD2    C513733   0.126   0.358   0.720 -0.5534 -1.1404  0.4220
  939MPD2     H13734   0.254   0.714   0.786 -0.8939  0.7106 -0.9185
  939MPD2    H113735   0.279   0.360   0.564  1.5840  2.5486 -0.7026
  939MPD2    H213736   0.008   0.380   0.892  2.2701  0.4836  2.2638
  939MPD2    H313737   0.092   0.260   0.690 -1.9080 -0.8606  1.0505
  939MPD2     N13738   0.379   0.602   0.597  0.0143 -0.5264  0.3798
  939MPD2    H513739   0.408   0.695   0.627  0.9644 -0.8654  0.5281
  939MPD2    N113740   0.073   0.620   0.975 -0.7954 -0.1092 -0.2263
  939MPD2    H713741   0.010   0.567   1.034  0.0795 -2.9829 -1.8611
  940MPD2     C13742   4.414   1.911  13.019 -0.1198  0.3791 -0.2410
  940MPD2    C113743   4.535   1.843  13.028 -0.3310 -0.2013 -0.0767
  940MPD2    C213744   4.549   1.747  12.928 -0.7502 -0.0617 -0.3201
  940MPD2    C313745   4.457   1.738  12.825  0.4385  0.3092  0.6046
  940MPD2    C413746   4.347   1.815  12.816  0.5320  0.0433  0.4116
  940MPD2    C513747   4.326   1.896  12.918 -0.1995  0.4356 -0.2299
  940MPD2     H13748   4.631   1.677  12.943  0.1087  1.1007  0.4616
  940MPD2    H113749   4.270   1.817  12.740 -2.0817  0.9628  3.0411
  940MPD2    H213750   4.388   1.985  13.094 -1.5441  1.1444 -1.4839
  940MPD2    H313751   4.236   1.956  12.927 -1.0459 -0.6124 -1.6917
  940MPD2     N13752   4.477   1.666  12.705 -0.0474  0.1087  0.1834
  940MPD2    H513753   4.399   1.651  12.642 -0.7334 -0.4961  1.1755
  940MPD2    N113754   4.631   1.850  13.135 -0.2199  0.2358  0.0642
  940MPD2    H713755   4.693   1.769  13.139  0.4763  0.6349 -2.2398
  941MPD2     C13756   3.249   1.561   9.633  0.4863  0.1317 -0.0612
  941MPD2    C113757   3.332   1.452   9.646 -0.4774  0.1936  0.2532
  941MPD2    C213758   3.272   1.336   9.689  0.5746 -0.4900 -0.0310
  941MPD2    C313759   3.136   1.324   9.712  0.4159  0.1867  0.5673
  941MPD2    C413760   3.057   1.436   9.692  0.4264 -0.0973  0.2899
  941MPD2    C513761   3.118   1.552   9.657 -0.1578 -0.1865  0.7143
  941MPD2     H13762   3.330   1.245   9.699 -2.4799 -2.6654 -1.7512
  941MPD2    H113763   2.950   1.440   9.707  0.2085  1.2987 -1.6057
  941MPD2    H213764   3.281   1.663   9.613  1.4723 -0.5283 -1.8016
  941MPD2    H313765   3.058   1.642   9.647 -0.6354 -0.7287 -1.1642
  941MPD2     N13766   3.066   1.207   9.747 -0.2272 -0.3694  0.6972
  941MPD2    H513767   2.964   1.212   9.747 -0.1463  1.3406  0.1073
  941MPD2    N113768   3.469   1.463   9.617  0.0814 -0.0220  0.3803
  941MPD2    H713769   3.532   1.384   9.629  0.4119  0.4038  1.4708
  942MPD2     C13770   2.755   2.359   9.535  0.5503 -0.2560  0.2486
  942MPD2    C113771   2.808   2.279   9.441 -0.0657  0.0869  0.5503
  942MPD2    C213772   2.945   2.253   9.449  0.4737  0.3749 -0.0372
  942MPD2    C313773   3.021   2.308   9.545 -0.3916  0.1380 -0.0386
  942MPD2    C413774   2.963   2.378   9.647  0.1354 -0.2165 -0.2330
  942MPD2    C513775   2.828   2.401   9.642  0.6874 -0.8778 -0.3673
  942MPD2     H13776   2.985   2.190   9.370  1.1161 -0.0081  0.6036
  942MPD2    H113777   3.016   2.436   9.721  2.4817 -0.1471 -1.9864
  942MPD2    H213778   2.650   2.388   9.538  0.4833 -0.5828  0.9388
  942MPD2    H313779   2.781   2.466   9.715 -2.1910 -0.3090 -2.7198
  942MPD2     N13780   3.159   2.296   9.552  0.9441  0.2768 -0.3232
  942MPD2    H513781   3.197   2.336   9.637 -0.3051  0.1481  0.2972
  942MPD2    N113782   2.728   2.216   9.343  0.6128  0.0642  0.3004
  942MPD2    H713783   2.775   2.149   9.284 -0.7381 -0.8919  0.3041
  943MPD2     C13784   2.785   1.562  10.109  0.0751  0.0950 -0.3054
  943MPD2    C113785   2.789   1.449  10.025 -0.1623 -0.0169 -0.0257
  943MPD2    C213786   2.743   1.454   9.897  0.3497 -0.0757 -0.0268
  943MPD2    C313787   2.694   1.571   9.846  0.5098  0.0450  0.1552
  943MPD2    C413788   2.680   1.681   9.932  0.1567  0.6018 -0.6593
  943MPD2    C513789   2.719   1.676  10.063 -0.2626 -0.8903  0.2285
  943MPD2     H13790   2.742   1.372   9.826  1.5420  1.7488 -2.1693
  943MPD2    H113791   2.634   1.775   9.906  0.9319  1.5467  1.3608
  943MPD2    H213792   2.802   1.559  10.216  0.7751  0.1825 -0.4163
  943MPD2    H313793   2.690   1.763  10.120  0.4295  1.3248 -2.7674
  943MPD2     N13794   2.650   1.581   9.717  0.7266  0.2195 -0.0863
  943MPD2    H513795   2.594   1.665   9.707  0.9137  0.2185 -1.1877
  943MPD2    N113796   2.837   1.327  10.081  0.2315  0.5581  0.0414
  943MPD2    H713797   2.858   1.326  10.180  2.5014  0.8549 -0.4457
  944MPD2     C13798   1.946   0.059  11.654 -0.8527 -0.1770  0.1462
  944MPD2    C113799   1.914   0.101  11.529 -0.4967  0.4547 -0.4843
  944MPD2    C213800   1.838   0.211  11.509 -0.0087  0.8449 -0.0239
  944MPD2    C313801   1.781   0.278  11.614 -0.1528  0.0078 -0.0098
  944MPD2    C413802   1.823   0.238  11.740 -0.8813 -0.5359 -0.1956
  944MPD2    C513803   1.901   0.127  11.761 -0.2308 -0.0005 -0.1937
  944MPD2     H13804   1.820   0.248  11.408 -0.7173 -2.1873 -1.0264
  944MPD2    H113805   1.800   0.282  11.836 -1.1067 -0.0640 -0.4668
  944MPD2    H213806   1.994   4.687  11.670 -2.1460 -0.5111  2.0791
  944MPD2    H313807   1.930   0.097  11.861  0.8407  1.3069 -0.1147
  944MPD2     N13808   1.697   0.388  11.593 -1.1375  0.0316  0.4090
  944MPD2    H513809   1.684   0.425  11.500  0.3247 -0.7051 -0.0903
  944MPD2    N113810   1.998   0.043  11.434  0.4149  0.2718 -0.4715
  944MPD2    H713811   2.066   4.699  11.465 -0.7214 -0.6327  0.0381
    1TCq1    O113812   0.212   0.089  13.678  0.9094 -0.6626  0.3384
    1TCq1    C113813   0.285   0.154  13.777  0.5012 -0.4610  0.8243
    1TCq1    O213814   0.346   0.099  13.868  0.4252 -0.1255 -0.1198
    1TCq1    C213815   0.217   0.278  13.803  0.5611 -1.1417  0.9161
    1TCq1    C313816   0.132   0.331  13.703 -0.1128  0.4041  0.1196
    1TCq1    C413817   0.064   0.443  13.736 -0.8938 -0.0954 -0.8933
    1TCq1    C513818   0.058   0.492  13.861 -0.0682 -0.5232  0.0667
    1TCq1    C613819   0.137   0.435  13.959  0.8988 -0.2838 -0.1942
    1TCq1    C713820   0.208   0.323  13.935 -1.0520 -0.0646 -0.6482
    1TCq1    C813821   0.135   0.488  14.093  0.3514  0.1467  0.1243
    1TCq1    O413822   0.144   0.407  14.182 -0.0603  0.4339 -0.0021
    1TCq1    C913823   4.714   0.510  13.626  0.5294  0.5447  0.2745
    1TCq1    O513824   4.686   0.427  13.528 -0.9611  0.2450  0.2414
    1TCq1    O613825   4.647   0.612  13.651  0.3327  0.0893 -0.0869
    1TCq1    H113826   0.219   0.143  13.596 -1.0320  0.9812  1.2787
    1TCq1    H213827   0.131   0.289  13.604  1.3411  0.8772 -0.0849
    1TCq1    H313828   4.719   0.579  13.872  1.9820  0.8203  1.1203
    1TCq1    H413829   0.267   0.279  14.015 -2.2626 -0.2224  0.1469
    2MPD2     C13830   0.158   0.883  14.426  0.5283 -0.0787  0.2292
    2MPD2    C113831   0.163   0.939  14.299 -0.1702 -1.0045 -0.0883
    2MPD2    C213832   0.154   0.854  14.185 -0.5220  0.1145 -0.4186
    2MPD2    C313833   0.136   0.715  14.202  0.2926 -0.8822  0.6516
    2MPD2    C413834   0.137   0.669  14.329 -0.3770 -0.0660 -0.1665
    2MPD2    C513835   0.150   0.746  14.439  0.6295 -0.3325 -0.3134
    2MPD2     H13836   0.153   0.908  14.091 -0.7836 -1.2181 -1.1792
    2MPD2    H113837   0.127   0.564  14.355 -0.9045 -0.2510 -1.1240
    2MPD2    H213838   0.160   0.939  14.518  1.2087 -0.0750  0.2101
    2MPD2    H313839   0.144   0.707  14.540 -0.0194  3.2145  1.0002
    2MPD2     N13840   0.129   0.629  14.086 -0.2837 -0.5259 -0.5906
    2MPD2    H513841   0.154   0.672  13.998 -0.2856  0.1234 -0.2697
    2MPD2    N113842   0.195   1.074  14.287 -0.5486 -0.2851 -0.6921
    2MPD2    H713843   0.236   1.120  14.368 -0.6761  1.5406 -1.6485
    3TMC2    C113844   0.284   1.285  14.189 -0.4660 -0.8405 -0.0670
    3TMC2    C213845   0.284   1.340  14.311  0.2911 -0.1277  0.2384
    3TMC2    C313846   0.340   1.467  14.313  0.0579 -0.5686 -0.1147
    3TMC2    C413847   0.327   1.344  14.072  0.6998  0.0906 -0.3769
    3TMC2    C513848   0.372   1.472  14.074  0.3975  0.0609  0.2325
    3TMC2    C613849   0.392   1.530  14.195 -0.9351 -0.5565  0.4245
    3TMC2     C13850   0.207   1.150  14.171 -0.0026  0.0533 -0.3414
    3TMC2     O13851   0.186   1.115  14.053  0.3067  0.1116 -0.0276
    3TMC2     H13852   0.228   1.301  14.395  0.0889 -0.2980  0.0217
    3TMC2    H113853   0.301   1.299  13.977  1.5641 -0.4739 -0.3426
    3TMC2    H213854   0.434   1.630  14.200  1.6535 -1.6846  1.5451
    3TMC2    C713855   0.422   1.527  13.951  0.7337 -0.0132 -0.5279
    3TMC2    C813856   0.340   1.550  14.433 -0.3653  0.0763 -0.0600
    3TMC2    O113857   0.404   1.456  13.856  0.0785 -0.3151 -0.5465
    3TMC2    O213858   0.283   1.656  14.419  0.7680 -0.6169 -0.5093
    3TMC2    O513859   0.352   1.474  14.541 -0.4257 -0.0133  0.0052
    3TMC2    H513860   0.408   1.394  14.535  0.5617  0.6543  0.1861
    4MPD2     C13861   0.054   2.533  13.304  0.4738 -0.6554  0.0627
    4MPD2    C113862   0.050   2.431  13.394  0.0147 -0.7309 -0.4462
    4MPD2    C213863   0.153   2.399  13.484 -1.0931  0.5403 -0.1261
    4MPD2    C313864   0.261   2.489  13.487 -0.0035 -0.4291  0.4782
    4MPD2    C413865   0.260   2.599  13.400  0.0259 -0.1784  0.4273
    4MPD2    C513866   0.158   2.624  13.315  0.1054  0.3015  0.2410
    4MPD2     H13867   0.147   2.314  13.552  1.1285  0.6452  0.2046
    4MPD2    H113868   0.337   2.674  13.411 -0.6727  0.6611 -0.3961
    4MPD2    H213869   4.694   2.565  13.243 -1.3534  1.1109  3.5190
    4MPD2    H313870   0.153   2.722  13.269  0.1983 -0.2058 -0.8481
    4MPD2     N13871   0.355   2.458  13.584  0.2485 -0.3185 -0.3078
    4MPD2    H513872   0.341   2.373  13.638 -1.2975 -0.5822 -1.1165
    4MPD2    N113873   4.646   2.373  13.408 -0.2652  0.1268  0.3266
    4MPD2    H713874   4.575   2.417  13.351  0.9782  1.3816 -0.2460
    5TCq2    C113875   0.465   2.538  13.613 -0.1061  0.1833  0.0567
    5TCq2    O213876   0.500   2.640  13.554 -0.9854  0.9953 -0.0395
    5TCq2    C213877   0.524   2.504  13.745  0.1999 -0.1676  0.0368
    5TCq2    C313878   0.489   2.577  13.855  0.1347 -0.4826 -0.1442
    5TCq2    C413879   0.493   2.517  13.980 -0.4586  0.0278 -0.3500
    5TCq2    C513880   0.520   2.383  14.003 -0.0102  0.1902  0.3173
    5TCq2    C613881   0.549   2.307  13.888  0.0826  0.5128 -1.4110
    5TCq2    C713882   0.540   2.367  13.766  0.0573 -0.0695  0.2554
    5TCq2    C813883   0.554   2.160  13.904  0.0658 -0.5392 -0.1821
    5TCq2    O413884   0.510   2.115  14.008 -0.2220  0.2313  0.3690
    5TCq2    C913885   0.447   2.592  14.092 -0.1668  0.2230  0.0711
    5TCq2    O513886   0.495   2.554  14.202 -0.1046 -0.4626  0.3754
    5TCq2    O613887   0.342   2.657  14.068  0.3495  0.0497 -0.1742
    5TCq2    H213888   0.439   2.672  13.842 -1.7353 -1.5485 -0.7241
    5TCq2    H313889   0.531   2.332  14.097 -2.1529  2.3347  1.7116
    5TCq2    H413890   0.555   2.310  13.675  1.4248 -0.1811  0.5516
    6MPD1     C13891   3.400   3.289  12.914  0.7636  0.3483 -0.3009
    6MPD1    C113892   3.438   3.261  13.044  0.6413 -0.4344 -0.1158
    6MPD1    C213893   3.444   3.122  13.077 -0.0878  0.7797  0.0035
    6MPD1    C313894   3.392   3.024  12.999  0.0733  0.6700 -0.6928
    6MPD1    C413895   3.355   3.061  12.880 -0.5831 -0.5794  0.1305
    6MPD1    C513896   3.362   3.190  12.833  0.4133  0.4684  0.6025
    6MPD1     H13897   3.485   3.105  13.176 -0.1574 -1.0285 -0.2909
    6MPD1    H113898   3.320   2.994  12.802 -0.3230 -1.1439  0.4970
    6MPD1    H213899   3.401   3.393  12.883 -0.5634  0.7011  0.8591
    6MPD1    H313900   3.325   3.206  12.732  2.5275 -3.2992 -0.7633
    6MPD1     N13901   3.402   2.886  13.035 -0.9558  0.5699  0.1208
    6MPD1    H513902   3.372   2.815  12.969 -0.4137 -0.6521  1.1805
    6MPD1    N113903   3.502   3.353  13.130 -0.1824 -0.4303  0.1842
    6MPD1    H613904   3.471   3.449  13.115 -1.4456 -0.3296  3.4601
    6MPD1    H713905   3.478   3.325  13.225  0.1388 -0.6817  0.1927
    7MPD2     C13906   3.739   2.422  13.695  0.8886 -0.4787 -0.4806
    7MPD2    C113907   3.800   2.442  13.573 -0.7493  0.3530  0.4096
    7MPD2    C213908   3.918   2.385  13.551  0.5083  1.0433  0.0623
    7MPD2    C313909   3.984   2.316  13.647 -0.3388  0.4324  0.1197
    7MPD2    C413910   3.920   2.289  13.766  0.6506  0.1579 -0.5208
    7MPD2    C513911   3.792   2.343  13.789 -0.2446  0.1946  0.0505
    7MPD2     H13912   3.954   2.404  13.450  1.7566 -1.0157  0.0966
    7MPD2    H113913   3.974   2.250  13.851  1.4852  1.8150 -0.2865
    7MPD2    H213914   3.653   2.483  13.721  0.5566 -0.8131 -0.7869
    7MPD2    H313915   3.743   2.331  13.885 -1.0751  0.7603 -0.3005
    7MPD2     N13916   4.101   2.248  13.604  0.1549 -0.5447 -0.0625
    7MPD2    H513917   4.121   2.255  13.505 -1.6313  1.8371 -0.2676
    7MPD2    N113918   3.735   2.502  13.466 -0.0743  0.3007  0.2648
    7MPD2    H713919   3.800   2.515  13.389 -3.6775 -0.2233 -2.8593
    8TMC3    C113920   4.293   2.128  13.591 -0.4110 -0.3411  0.8556
    8TMC3    C213921   4.404   2.205  13.600  0.3158 -0.8880  0.6861
    8TMC3    C313922   4.466   2.254  13.484 -0.2873 -0.8349 -0.6379
    8TMC3    C413923   4.238   2.104  13.466 -0.3441 -0.6622  0.1969
    8TMC3    C513924   4.297   2.156  13.351  0.0044  0.3527 -0.4909
    8TMC3    C613925   4.408   2.232  13.357 -0.2455  0.2754  0.5834
    8TMC3     C13926   4.188   2.178  13.681 -0.2232 -0.0733  0.0522
    8TMC3     O13927   4.192   2.168  13.803  0.0037  0.2367  0.1012
    8TMC3     H13928   4.459   2.210  13.693  0.1614 -1.1957  0.7983
    8TMC3    H113929   4.138   2.064  13.455 -0.5851  0.1758 -0.6602
    8TMC3    H213930   4.454   2.275  13.268  0.7944 -0.3896  0.8037
    8TMC3    C713931   4.196   2.212  13.263 -0.3717  0.3000  0.2114
    8TMC3    C813932   4.612   2.268  13.498  0.4805 -0.1919 -0.5201
    8TMC3    O113933   4.089   2.229  13.317 -0.1765  0.0963  0.4788
    8TMC3    O213934   4.684   2.204  13.575 -0.0836  0.0738 -0.1736
    9TMC3    C113935   3.456   2.698  13.157  0.0336  0.3851 -0.2847
    9TMC3    C213936   3.520   2.642  13.050  0.5277  0.0692 -0.1961
    9TMC3    C313937   3.617   2.549  13.080  0.3682  0.3985  0.2676
    9TMC3    C413938   3.477   2.656  13.280  0.3287 -0.7791  0.1905
    9TMC3    C513939   3.580   2.567  13.309  0.3494 -0.5366  0.2403
    9TMC3    C613940   3.648   2.513  13.210  0.5649 -0.9142 -0.0571
    9TMC3     C13941   3.433   2.835  13.162  0.5510 -0.1126 -0.3381
    9TMC3     O13942   3.455   2.897  13.261 -0.2164  0.0527  0.1327
    9TMC3     H13943   3.516   2.689  12.952 -1.7641  1.2366  0.4438
    9TMC3    H113944   3.417   2.677  13.367  0.6685 -0.6262  0.3886
    9TMC3    H213945   3.720   2.436  13.235 -0.8859 -1.7876  1.4186
    9TMC3    C713946   3.605   2.535  13.449  0.0759  0.3369  1.0006
    9TMC3    C813947   3.709   2.510  12.976  0.1243  0.2056 -0.3177
    9TMC3    O113948   3.512   2.548  13.523 -0.8946  0.5667 -0.7152
    9TMC3    O213949   3.670   2.518  12.861  0.2552  0.1700  0.5197
   10MPD2     C13950   4.161   2.255  12.896  0.0065 -0.0767  0.0322
   10MPD2    C113951   4.141   2.280  13.033  0.0769 -0.0848 -0.8433
   10MPD2    C213952   4.033   2.358  13.065 -0.1438 -0.4260  0.3052
   10MPD2    C313953   3.940   2.405  12.977  0.1982  0.2634  0.7576
   10MPD2    C413954   3.962   2.387  12.842  0.4489  0.4525  0.3667
   10MPD2    C513955   4.082   2.319  12.806 -0.5402 -0.4839 -0.7216
   10MPD2     H13956   4.014   2.378  13.170  0.3739 -0.2980  0.3727
   10MPD2    H113957   3.904   2.424  12.759 -0.5670 -0.9731  0.4460
   10MPD2    H213958   4.253   2.207  12.863  0.0486 -0.0216  0.0697
   10MPD2    H313959   4.100   2.296  12.702 -1.1233 -0.5265 -0.8119
   10MPD2     N13960   3.822   2.462  13.036 -0.1921  0.2255 -0.0036
   10MPD2    H513961   3.838   2.484  13.134 -1.7469  0.7611  0.1188
   10MPD2    N113962   4.233   2.228  13.131 -0.5738 -0.0729  0.6214
   10MPD2    H713963   4.325   2.204  13.097 -1.2132 -1.0548 -0.4291
   11MPD2     C13964   0.523   1.682  13.724 -0.6311 -0.3867  0.2719
   11MPD2    C113965   0.510   1.734  13.851  0.2087  1.1671  0.2758
   11MPD2    C213966   0.546   1.865  13.873 -0.2402 -0.5043  0.6720
   11MPD2    C313967   0.583   1.954  13.773  0.6826 -0.3605  0.0825
   11MPD2    C413968   0.605   1.899  13.646  0.5127  0.8075 -0.2568
   11MPD2    C513969   0.574   1.766  13.627  0.3409 -0.3141  0.1438
   11MPD2     H13970   0.537   1.893  13.978 -2.5409  2.1460 -0.2290
   11MPD2    H113971   0.640   1.941  13.553  0.3315  3.3913  0.8497
   11MPD2    H213972   0.502   1.581  13.691  2.5596 -1.6029  1.9497
   11MPD2    H313973   0.607   1.723  13.533 -0.5416  1.1122 -0.8155
   11MPD2     N13974   0.593   2.097  13.795  0.2689  0.2863  0.3126
   11MPD2    H513975   0.612   2.153  13.713  2.0419  0.9171  1.1424
   11MPD2    N113976   0.472   1.655  13.961 -0.2593  0.7722  0.0297
   11MPD2    H713977   0.485   1.704  14.049 -0.5268  0.4188  0.2638
    1MPD1     C13978   1.983   2.928  16.585  0.3516 -0.5105 -0.0521
    1MPD1    C113979   2.085   2.908  16.671 -0.2439  0.0833  0.3688
    1MPD1    C213980   2.214   2.893  16.618  0.4495 -0.5660  0.1966
    1MPD1    C313981   2.231   2.924  16.478  0.4899  0.1557 -0.2181
    1MPD1    C413982   2.115   2.952  16.396  0.2303 -0.1744  0.9350
    1MPD1    C513983   1.996   2.963  16.456  0.6040  0.4460 -0.3141
    1MPD1     H13984   2.293   2.859  16.684  0.8343  2.0396  1.0894
    1MPD1    H113985   2.122   2.962  16.288 -2.5390 -1.9833  0.5816
    1MPD1    H213986   1.880   2.923  16.620  1.0277 -0.3246  1.9351
    1MPD1    H313987   1.901   2.977  16.406 -0.5657  0.9293  2.0709
    1MPD1     N13988   2.355   2.917  16.406  1.3536  0.5631 -0.0033
    1MPD1    H513989   2.357   2.925  16.304 -0.9120  1.3763  0.0057
    1MPD1    N113990   2.061   2.866  16.804 -0.0439  0.3608 -0.2171
    1MPD1    H613991   2.143   2.876  16.864  0.2813 -2.6333 -0.1301
    1MPD1    H713992   1.987   2.917  16.851 -0.9031 -0.5024 -0.6454
    2MPD1     C13993   3.303   2.922  16.797  0.1798  0.8765  0.2765
    2MPD1    C113994   3.178   2.894  16.854 -0.2792  0.0125 -0.0754
    2MPD1    C213995   3.073   2.883  16.767 -0.1113  0.2696  0.0900
    2MPD1    C313996   3.082   2.902  16.626 -0.3058 -0.4460 -0.3245
    2MPD1    C413997   3.208   2.939  16.576 -0.1591 -0.6030  0.2348
    2MPD1    C513998   3.316   2.944  16.661 -0.0696 -0.3807 -0.6262
    2MPD1     H13999   2.978   2.836  16.790 -1.3218  1.1143 -3.1796
    2MPD1    H114000   3.221   2.960  16.470  1.8171  1.7629  0.9341
    2MPD1    H214001   3.394   2.920  16.855  0.9067 -0.7162 -0.9223
    2MPD1    H314002   3.417   2.956  16.623 -0.4716  0.0721 -1.5632
    2MPD1     N14003   2.965   2.878  16.548  0.2573  0.0497 -0.6047
    2MPD1    H514004   2.879   2.867  16.600  0.8902 -0.4859  0.3422
    2MPD1    N114005   3.164   2.846  16.984  0.5108 -0.3184  0.3264
    2MPD1    H614006   3.071   2.872  17.017 -0.2164 -0.1227 -1.8964
    2MPD1    H714007   3.235   2.889  17.043  0.2527 -1.6880  1.6319
    3TMC3    C114008   2.828   2.886  16.351  0.1820  0.4407  0.2708
    3TMC3    C214009   2.823   2.945  16.232 -0.2248  0.3185 -0.4362
    3TMC3    C314010   2.701   2.996  16.196  0.5001 -0.3746 -0.1781
    3TMC3    C414011   2.707   2.856  16.419 -0.6249 -0.8344 -0.0728
    3TMC3    C514012   2.588   2.897  16.373 -0.4957 -0.4736 -0.5119
    3TMC3    C614013   2.577   2.973  16.260 -0.5491  0.6213  0.2088
    3TMC3     C14014   2.962   2.882  16.412  0.4834  0.1214  0.3412
    3TMC3     O14015   3.053   2.885  16.331 -0.2353 -0.1828  0.5440
    3TMC3     H14016   2.914   2.972  16.181 -0.8150  1.3515 -0.9505
    3TMC3    H114017   2.715   2.798  16.510  0.6499  1.1743  1.0930
    3TMC3    H214018   2.488   3.015  16.215 -1.1874  1.2916  2.1100
    3TMC3    C714019   2.475   2.894  16.464 -0.0421  0.2587  0.4543
    3TMC3    C814020   2.692   3.093  16.089  0.4244 -0.1554 -0.3594
    3TMC3    O114021   2.506   2.881  16.583 -0.5749 -0.3579  0.0433
    3TMC3    O214022   2.611   3.188  16.100 -0.2498 -0.1658 -0.2157
    4MPD1     C14023   2.956   3.352  15.715  0.0957 -0.4030 -0.1877
    4MPD1    C114024   2.991   3.221  15.709 -0.0455  0.6164 -0.6645
    4MPD1    C214025   2.940   3.136  15.804 -0.0186  0.6522  0.2658
    4MPD1    C314026   2.840   3.168  15.894  0.2175  0.8099 -0.6740
    4MPD1    C414027   2.790   3.300  15.886  0.0273 -0.1355  0.4067
    4MPD1    C514028   2.852   3.384  15.800  0.1792  0.2090 -0.3830
    4MPD1     H14029   2.964   3.030  15.805 -1.5042  0.3178  1.5056
    4MPD1    H114030   2.707   3.337  15.945 -0.0229 -1.2262  1.0197
    4MPD1    H214031   2.985   3.423  15.639  1.0640 -2.3578 -1.6506
    4MPD1    H314032   2.800   3.479  15.797 -1.9330 -0.8647  1.6830
    4MPD1     N14033   2.796   3.071  15.992  0.0619  0.2522 -0.0726
    4MPD1    H514034   2.844   2.983  16.004  0.0867  0.4274  1.1149
    4MPD1    N114035   3.083   3.182  15.610 -0.0295  0.2403  0.4709
    4MPD1    H614036   3.069   3.086  15.582  1.1167 -0.0985  1.0510
    4MPD1    H714037   3.090   3.242  15.528  0.7603  0.5857  0.7816
    1TCq1    O114038   3.424   3.618  11.930  0.1545  0.0821  0.0384
    1TCq1    C114039   3.504   3.652  11.828  0.0677  0.2581  0.0299
    1TCq1    O214040   3.463   3.670  11.715 -0.0168 -0.2926  0.2030
    1TCq1    C214041   3.640   3.601  11.861  0.1973  0.9387 -0.5920
    1TCq1    C314042   3.678   3.532  11.974 -0.3138  0.1144 -0.6681
    1TCq1    C414043   3.804   3.464  11.969  0.5058  0.4277  0.6013
    1TCq1    C514044   3.876   3.445  11.857  0.3491 -0.1462 -0.2374
    1TCq1    C614045   3.831   3.501  11.741  0.3579 -0.2321 -0.1797
    1TCq1    C714046   3.719   3.588  11.740 -0.4285 -0.1028  0.1471
    1TCq1    C814047   3.889   3.455  11.613 -0.2284 -0.0366 -0.6900
    1TCq1    O414048   3.847   3.525  11.525 -0.2010  1.4602  0.7489
    1TCq1    C914049   3.825   3.360  12.071 -0.7358  0.9296  0.0248
    1TCq1    O514050   3.927   3.292  12.063 -0.4839 -0.3785 -0.1792
    1TCq1    O614051   3.722   3.317  12.131  0.0793 -0.1407 -0.5504
    1TCq1    H114052   3.473   3.638  12.013  2.2573 -0.8726 -0.9991
    1TCq1    H214053   3.614   3.502  12.055 -0.2204  2.6623  0.3546
    1TCq1    H314054   3.966   3.384  11.862 -0.0796 -0.5797  1.9565
    1TCq1    H414055   3.675   3.616  11.645 -0.0009  1.5133  0.4394
    2MPD1     C14056   4.116   3.109  11.303 -0.4204  0.0732  0.1527
    2MPD1    C114057   4.112   3.061  11.436 -0.2359  0.5224 -0.1235
    2MPD1    C214058   4.072   3.145  11.533 -0.2832  0.0035  0.0158
    2MPD1    C314059   4.005   3.265  11.502  0.5103  0.1018  0.5341
    2MPD1    C414060   4.010   3.311  11.375 -0.0610 -0.0280 -0.0008
    2MPD1    C514061   4.066   3.231  11.276 -0.2168 -0.4493  0.3761
    2MPD1     H14062   4.076   3.110  11.635 -4.2604  0.1048  0.2023
    2MPD1    H114063   3.971   3.409  11.348 -0.3540 -0.3465 -0.7239
    2MPD1    H214064   4.172   3.049  11.233 -1.9243 -1.3136  0.1458
    2MPD1    H314065   4.080   3.269  11.176 -1.9005 -1.5207 -0.2542
    2MPD1     N14066   3.946   3.330  11.614 -0.7992 -0.1214  0.0575
    2MPD1    H514067   3.937   3.270  11.696 -0.3370 -1.4657 -0.8776
    2MPD1    N114068   4.165   2.936  11.472  0.3751 -0.3812  0.3356
    2MPD1    H614069   4.138   2.901  11.564  1.1818 -2.6409 -0.2848
    2MPD1    H714070   4.163   2.872  11.393  0.7149  0.0868 -0.0486
    1TCq1    O114071   0.772   3.638   1.936 -0.4692 -0.0557 -0.1066
    1TCq1    C114072   0.803   3.648   1.806  0.7333  0.4617  0.0193
    1TCq1    O214073   0.899   3.593   1.753 -0.2199 -0.5871 -0.1709
    1TCq1    C214074   0.716   3.743   1.740  0.1610 -0.4531  0.7639
    1TCq1    C314075   0.592   3.765   1.799 -0.5436 -0.1483  0.1013
    1TCq1    C414076   0.516   3.864   1.744 -0.1829 -0.3756  0.5138
    1TCq1    C514077   0.578   3.948   1.654 -0.1754  0.1462 -0.8439
    1TCq1    C614078   0.698   3.915   1.590  0.1283  0.2505  0.3404
    1TCq1    C714079   0.768   3.811   1.635  0.3689 -0.2423 -0.0010
    1TCq1    C814080   0.748   4.012   1.490  0.2072  0.4359 -0.0341
    1TCq1    O414081   0.692   4.120   1.486  0.7856 -0.0155  0.5121
    1TCq1    C914082   0.408   3.916   1.815 -0.2754  0.2969  0.2942
    1TCq1    O514083   0.367   3.844   1.908  0.1651 -1.0390 -0.2669
    1TCq1    O614084   0.349   4.016   1.760  0.0199 -0.4564 -0.4259
    1TCq1    H114085   0.729   3.723   1.961 -1.5773 -0.5149 -0.4613
    1TCq1    H214086   0.548   3.695   1.868 -1.0130  0.5636  0.5274
    1TCq1    H314087   0.527   4.037   1.618 -0.4480  1.1678  2.0411
    1TCq1    H414088   0.870   3.794   1.604 -0.1968 -1.7155 -1.0840
    2MPD1     C14089   1.060   4.162   1.118 -0.3716 -0.1119  0.4488
    2MPD1    C114090   1.080   4.029   1.138 -0.1469 -0.1533  0.2853
    2MPD1    C214091   1.020   3.969   1.243  0.2585 -0.4068  0.4417
    2MPD1    C314092   0.924   4.040   1.312 -0.0577 -0.1229  0.1714
    2MPD1    C414093   0.895   4.172   1.287 -0.4271  0.0505  0.0565
    2MPD1    C514094   0.984   4.239   1.204 -0.3394  0.3681  0.0885
    2MPD1     H14095   1.040   3.868   1.276  3.1677  0.4270  1.2306
    2MPD1    H114096   0.808   4.225   1.323 -0.0043 -1.2829  3.0451
    2MPD1    H214097   1.129   4.213   1.053  0.8475 -3.6076 -0.9927
    2MPD1    H314098   0.967   4.346   1.203 -1.8372  0.1391  1.2728
    2MPD1     N14099   0.847   3.962   1.405  0.3756 -0.0579  0.0650
    2MPD1    H514100   0.876   3.866   1.424 -2.1513 -0.7167  0.6052
    2MPD1    N114101   1.193   3.970   1.074 -0.4249 -0.1739 -0.1723
    2MPD1    H614102   1.168   3.872   1.063  2.3643 -1.0127  1.0010
    2MPD1    H714103   1.211   4.010   0.982  0.7250 -0.3263 -0.0160
    1MPD1     C14104   0.226   3.534  12.036 -0.5348 -1.3275 -0.1975
    1MPD1    C114105   0.210   3.665  11.999 -0.6440  0.8361  0.2206
    1MPD1    C214106   0.301   3.716  11.917 -0.0117 -0.3294  0.2879
    1MPD1    C314107   0.410   3.647  11.859  0.2026 -0.1646  0.3204
    1MPD1    C414108   0.405   3.511  11.887  0.3954  0.4316 -0.3753
    1MPD1    C514109   0.314   3.454  11.971  0.6048  0.2654  0.5235
    1MPD1     H14110   0.289   3.817  11.880  0.8879 -0.8926 -1.6015
    1MPD1    H114111   0.472   3.445  11.834 -0.2478  0.4038 -1.1676
    1MPD1    H214112   0.164   3.497  12.117 -1.2906  0.9845  0.2828
    1MPD1    H314113   0.324   3.350  11.996 -0.0854 -0.1322 -0.8391
    1MPD1     N14114   0.498   3.714  11.766 -0.5562  0.6937  0.6374
    1MPD1    H514115   0.493   3.815  11.769 -0.8232  0.6867  0.5013
    1MPD1    N114116   0.117   3.738  12.076 -0.6274  0.0075 -1.6434
    1MPD1    H614117   0.079   3.815  12.022 -1.1263 -0.2661 -1.6891
    1MPD1    H714118   0.043   3.674  12.105  3.2550 -2.2426  3.4374
    2MPD1     C14119   4.377   3.980  10.714 -0.0406 -0.6137 -0.6166
    2MPD1    C114120   4.506   3.949  10.670 -0.2248 -0.3764  0.7737
    2MPD1    C214121   4.557   3.825  10.684  0.1694 -0.6243  0.0218
    2MPD1    C314122   4.501   3.726  10.761 -0.3391 -0.3523  0.2118
    2MPD1    C414123   4.376   3.758  10.803 -0.3410  0.0732  0.1389
    2MPD1    C514124   4.315   3.878  10.779  0.5244 -0.5448 -0.7646
    2MPD1     H14125   4.651   3.797  10.637  1.7445  2.0945  1.4946
    2MPD1    H114126   4.329   3.688  10.872  0.0928 -0.8084 -0.4590
    2MPD1    H214127   4.317   4.061  10.673  1.1740 -0.0287 -1.2471
    2MPD1    H314128   4.210   3.892  10.802  0.9342  1.5100 -0.1361
    2MPD1     N14129   4.563   3.603  10.796 -0.2048 -0.1716 -0.5471
    2MPD1    H514130   4.506   3.536  10.846  1.5942 -0.5406  1.0332
    2MPD1    N114131   4.576   4.028  10.573 -0.3108 -0.1947 -0.4748
    2MPD1    H614132   4.571   4.130  10.583 -1.3837 -0.3343  0.4329
    2MPD1    H714133   4.675   4.016  10.595 -1.1045 -4.1338  0.9430
    3MPD1     C14134   4.237   2.862  10.494 -0.0274 -0.6595 -0.8314
    3MPD1    C114135   4.211   2.999  10.499  0.0870  1.4667  0.0435
    3MPD1    C214136   4.302   3.077  10.564  0.1157  0.1172 -0.5796
    3MPD1    C314137   4.417   3.032  10.625 -0.1322  0.3241 -0.5692
    3MPD1    C414138   4.448   2.900  10.605  0.0395 -0.1775 -0.4923
    3MPD1    C514139   4.361   2.817  10.541  0.3033 -0.0136 -0.1030
    3MPD1     H14140   4.289   3.184  10.572  1.4692  0.2468 -0.0458
    3MPD1    H114141   4.541   2.858  10.643 -1.3058 -2.7829 -0.0695
    3MPD1    H214142   4.176   2.793  10.436  2.0097 -3.3517  0.2144
    3MPD1    H314143   4.379   2.711  10.551 -0.0912  0.1253  2.0050
    3MPD1     N14144   4.501   3.124  10.692 -0.1167  0.0753  0.1773
    3MPD1    H514145   4.455   3.212  10.715  0.0283 -0.2687  1.8103
    3MPD1    N114146   4.084   3.050  10.466 -0.0094  0.0956 -0.4946
    3MPD1    H614147   4.088   3.151  10.454 -0.1732  0.1192 -0.3507
    3MPD1    H714148   4.030   3.007  10.391 -0.5037 -0.2899  0.0820
    4MPD2     C14149   0.505   3.977  11.104  0.4811 -0.4687 -0.3780
    4MPD2    C114150   0.633   3.948  11.131  0.2375  0.1154 -0.4375
    4MPD2    C214151   0.715   3.890  11.041 -0.0889 -0.1229  0.4572
    4MPD2    C314152   0.670   3.861  10.917 -0.2376 -0.2177  0.4782
    4MPD2    C414153   0.539   3.893  10.883 -0.1496  0.2120 -0.1588
    4MPD2    C514154   0.452   3.952  10.980 -0.2723  0.3510  0.1206
    4MPD2     H14155   0.817   3.868  11.069  1.6010  3.2054 -3.2077
    4MPD2    H114156   0.491   3.871  10.789 -1.0092  1.8324 -0.1065
    4MPD2    H214157   0.436   4.022  11.175  0.5150 -0.9813 -0.0192
    4MPD2    H314158   0.349   3.970  10.951 -0.8765 -0.3439  1.8184
    4MPD2     N14159   0.765   3.798  10.825  0.3090 -0.2416  0.0176
    4MPD2    H514160   0.859   3.791  10.864  1.1449 -1.1877 -2.1572
    4MPD2    N114161   0.683   3.955  11.265 -0.4576 -0.0965 -0.7501
    4MPD2    H714162   0.772   3.908  11.278  0.1388  2.1611  3.0113
    5TMC3    C114163   0.679   3.941  11.493 -0.1611  0.0127 -0.5399
    5TMC3    C214164   0.604   3.857  11.567  0.6607 -0.0424  0.6362
    5TMC3    C314165   0.669   3.748  11.613  0.1956 -0.3567  0.2824
    5TMC3    C414166   0.813   3.928  11.469  0.3143 -0.2319 -0.5016
    5TMC3    C514167   0.868   3.811  11.508  0.1471 -0.6948 -0.0023
    5TMC3    C614168   0.793   3.716  11.578 -0.1702 -0.0718 -0.2028
    5TMC3     C14169   0.607   3.976  11.375 -0.0299  0.0415 -0.3829
    5TMC3     O14170   0.488   3.962  11.385 -0.2179 -0.5167  0.1472
    5TMC3     H14171   0.496   3.864  11.577  0.5489  0.2049 -0.7753
    5TMC3    H114172   0.875   4.007  11.427 -1.0142  1.3949  0.5679
    5TMC3    H214173   0.836   3.625  11.618  0.5205  0.7445  0.9388
    5TMC3    C714174   0.962   3.761  11.413  0.3134 -0.1627  0.4890
    5TMC3    C814175   0.595   3.654  11.690  0.3740 -1.3640 -0.4519
    5TMC3    O114176   0.966   3.840  11.319  0.4312  0.5432 -0.0452
    5TMC3    O214177   0.630   3.534  11.681 -0.0575 -0.7807 -0.2723
    6TMC3    C114178   0.007   3.436  10.845  0.4186  0.3015  0.1557
    6TMC3    C214179   4.650   3.325  10.827 -0.1199 -0.3061  0.2577
    6TMC3    C314180   4.699   3.197  10.823  1.0569  0.4293 -0.2340
    6TMC3    C414181   0.137   3.416  10.873  0.3832  0.3977 -0.0778
    6TMC3    C514182   0.190   3.290  10.863  0.5473  0.2360 -0.0791
    6TMC3    C614183   0.112   3.177  10.844 -0.5334  0.3444 -0.4140
    6TMC3     C14184   4.696   3.561  10.783  0.2589  0.1766 -0.2157
    6TMC3     O14185   0.059   3.619  10.718  0.3509 -0.0366 -1.2149
    6TMC3     H14186   4.547   3.336  10.795 -0.3919 -0.0734  1.1964
    6TMC3    H114187   0.206   3.497  10.891  1.0642 -0.1928 -0.0037
    6TMC3    H214188   0.163   3.083  10.830 -0.8570  0.0490  0.4127
    6TMC3    C714189   0.332   3.274  10.895  0.0230 -0.1798  0.1025
    6TMC3    C814190   4.633   3.100  10.740 -0.6544 -0.2542 -0.3569
    6TMC3    O114191   0.398   3.186  10.843  0.0698  0.1830  0.4535
    6TMC3    O214192   4.699   3.000  10.731 -0.1499  0.4478 -0.2360
    7MPD2     C14193   1.285   3.473  11.160 -0.3591 -0.4130 -0.2233
    7MPD2    C114194   1.181   3.553  11.117  0.2742  0.2834  0.4377
    7MPD2    C214195   1.107   3.620  11.210 -0.2252  0.3511  0.2338
    7MPD2    C314196   1.110   3.578  11.337 -0.3736  0.0394  0.1028
    7MPD2    C414197   1.196   3.484  11.380  0.5462  0.9030 -0.5737
    7MPD2    C514198   1.298   3.449  11.296  0.7143 -0.1962  0.5290
    7MPD2     H14199   1.033   3.690  11.174  0.9885  1.0684 -0.9022
    7MPD2    H114200   1.208   3.475  11.487 -0.5185  2.5771 -0.3082
    7MPD2    H214201   1.357   3.434  11.089  0.4888  1.0385 -0.1418
    7MPD2    H314202   1.371   3.388  11.347  1.0535 -0.3115 -0.0942
    7MPD2     N14203   1.032   3.643  11.439 -1.3900 -0.0988 -0.2053
    7MPD2    H514204   1.028   3.609  11.534 -0.9325 -1.7737 -0.7839
    7MPD2    N114205   1.168   3.580  10.978 -0.0795  0.0019 -1.1648
    7MPD2    H714206   1.232   3.533  10.915 -0.9017 -0.3759 -1.7179
    8TMC3    C114207   1.057   3.628  10.779  0.3082 -0.9727  0.3987
    8TMC3    C214208   1.038   3.496  10.763  0.4715 -0.0767  1.1188
    8TMC3    C314209   0.928   3.441  10.704 -0.2645 -0.2651  0.2274
    8TMC3    C414210   0.975   3.716  10.710  0.1282 -0.6913 -0.1518
    8TMC3    C514211   0.860   3.671  10.652 -0.0032 -0.1667 -0.0864
    8TMC3    C614212   0.843   3.536  10.646 -0.8120  0.7372  0.3875
    8TMC3     C14213   1.080   3.666  10.917 -0.4665  0.0228 -0.2139
    8TMC3     O14214   0.994   3.733  10.965  0.1314 -0.1809 -0.0786
    8TMC3     H14215   1.097   3.424  10.819  0.3436 -0.9744  0.1084
    8TMC3    H114216   1.004   3.820  10.717 -0.9200 -0.3433 -0.9348
    8TMC3    H214217   0.748   3.497  10.613 -0.9074 -0.7987  2.4678
    8TMC3    C714218   0.739   3.739  10.698  0.5598  0.3091  0.6300
    8TMC3    C814219   0.850   3.360  10.790 -0.2278 -0.6746 -0.2447
    8TMC3    O114220   0.639   3.727  10.628  0.0807 -0.5683 -0.3375
    8TMC3    O214221   0.775   3.288  10.723  0.1764 -0.3387  0.2944
    9MPD2     C14222   0.742   3.490  11.114  0.6743 -0.4399 -0.6826
    9MPD2    C114223   0.739   3.413  10.998  0.2762  0.3426  0.5422
    9MPD2    C214224   0.618   3.360  10.962 -0.0938  0.2992 -0.0854
    9MPD2    C314225   0.500   3.394  11.041  0.2374  0.5932 -0.1673
    9MPD2    C414226   0.510   3.469  11.156 -0.7279  0.2326  0.3091
    9MPD2    C514227   0.632   3.515  11.196 -0.6558  0.1332  0.0292
    9MPD2     H14228   0.605   3.300  10.873 -1.5462 -0.4830  0.6704
    9MPD2    H114229   0.427   3.511  11.212 -0.1383 -1.2566  2.3138
    9MPD2    H214230   0.838   3.530  11.147  0.5103  1.9730 -3.1668
    9MPD2    H314231   0.645   3.592  11.271 -1.4522  0.7126 -0.4221
    9MPD2     N14232   0.369   3.352  11.006 -0.1883 -0.3810 -0.3314
    9MPD2    H514233   0.305   3.396  11.070  0.2415 -2.4564  1.5344
    9MPD2    N114234   0.852   3.405  10.916  0.1933  0.4337 -1.1130
    9MPD2    H714235   0.932   3.462  10.941  0.9412 -0.5302 -1.3218
    1MPD1     C14236   0.516   2.349  17.353 -0.3262 -0.1565  0.0935
    1MPD1    C114237   0.392   2.375  17.290  0.5513  0.3413  0.5328
    1MPD1    C214238   0.346   2.288  17.190 -0.1337  0.4594 -0.7702
    1MPD1    C314239   0.428   2.192  17.146  0.0778 -0.0666  1.1235
    1MPD1    C414240   0.550   2.169  17.207 -0.0174 -0.2314  0.2059
    1MPD1    C514241   0.595   2.253  17.306 -0.1966 -0.1065  0.2163
    1MPD1     H14242   0.246   2.298  17.150 -0.3086 -1.4049 -0.7709
    1MPD1    H114243   0.611   2.084  17.178 -0.6934 -0.2450 -1.2022
    1MPD1    H214244   0.555   2.408  17.436 -0.7472  1.1117 -0.6097
    1MPD1    H314245   0.693   2.248  17.352 -0.9654  0.3496  1.9072
    1MPD1     N14246   0.396   2.099  17.047 -0.5134 -0.0542  0.0767
    1MPD1    H514247   0.457   2.020  17.027 -0.3515 -0.0154  0.4260
    1MPD1    N114248   0.305   2.460  17.352 -0.5082 -0.1366  0.2045
    1MPD1    H614249   0.234   2.506  17.296 -0.8228 -0.5227  0.2902
    1MPD1    H714250   0.334   2.529  17.421  1.5834  0.1594 -0.9627
    2MPD1     C14251   4.557   1.931  16.204  0.0662 -0.2671  0.2173
    2MPD1    C114252   4.658   2.020  16.227 -0.3169  0.7422  0.0724
    2MPD1    C214253   0.032   1.994  16.326  0.2960  0.0250  0.0235
    2MPD1    C314254   0.003   1.900  16.430  0.0110 -0.3212 -0.3659
    2MPD1    C414255   4.618   1.821  16.408  0.7144 -0.0306  0.9430
    2MPD1    C514256   4.536   1.829  16.298 -0.0025  0.1491 -0.1451
    2MPD1     H14257   0.111   2.067  16.337 -0.3237  0.8148 -0.7558
    2MPD1    H114258   4.584   1.771  16.498 -0.8982 -1.1530 -0.3015
    2MPD1    H214259   4.490   1.950  16.121 -1.2353 -0.3815  1.2444
    2MPD1    H314260   4.448   1.766  16.305 -0.2068  0.4188 -0.2747
    2MPD1     N14261   0.087   1.898  16.545  0.2736 -0.4381  0.0756
    2MPD1    H514262   0.146   1.981  16.549  0.4323 -0.4595 -1.6902
    2MPD1    N114263   4.681   2.127  16.135  0.4920 -0.2593  0.1820
    2MPD1    H614264   0.006   2.202  16.182 -1.0438  0.5573  0.5096
    2MPD1    H714265   4.595   2.179  16.115  0.4381 -0.0193  1.0343
    3TCq2    C114266   0.084   1.798  16.639 -0.6546 -0.2008  0.8939
    3TCq2    O214267   0.012   1.698  16.637  0.2365 -0.0489 -0.0264
    3TCq2    C214268   0.179   1.814  16.746 -0.3693  0.7885  0.0476
    3TCq2    C314269   0.248   1.703  16.791 -0.8502  0.3140 -0.3769
    3TCq2    C414270   0.340   1.725  16.889 -0.1379  0.1464  1.0479
    3TCq2    C514271   0.354   1.851  16.948 -0.0823 -0.1948  0.6573
    3TCq2    C614272   0.276   1.955  16.910 -0.1502 -0.1428 -0.0250
    3TCq2    C714273   0.193   1.939  16.798  0.2206 -0.1400  0.8349
    3TCq2    C814274   0.275   2.085  16.980  0.0647 -0.2219  0.0389
    3TCq2    O414275   0.195   2.170  16.959 -0.3764  0.6687  0.1466
    3TCq2    C914276   0.421   1.616  16.937  0.3055  0.6026  0.1924
    3TCq2    O514277   0.499   1.638  17.035 -0.4268  0.1014  0.6418
    3TCq2    O614278   0.393   1.503  16.885 -0.6029  0.7266 -0.2902
    3TCq2    H214279   0.232   1.609  16.740  0.6634  0.4664 -1.1281
    3TCq2    H314280   0.428   1.853  17.027  1.5214  0.7415 -0.8578
    3TCq2    H414281   0.138   2.025  16.761  1.7862 -0.4556 -2.1958
    1TCq1    O114282   2.701   1.000  12.841 -0.3726 -0.3199 -0.0800
    1TCq1    C114283   2.671   1.068  12.946  0.0150 -0.0217  0.0233
    1TCq1    O214284   2.558   1.095  12.982 -0.1164  0.2269 -0.5864
    1TCq1    C214285   2.792   1.098  13.026  0.0626  0.0842 -0.0807
    1TCq1    C314286   2.765   1.180  13.132 -0.4165 -0.2815  0.7293
    1TCq1    C414287   2.852   1.272  13.182 -0.5745 -0.3934  1.5367
    1TCq1    C514288   2.981   1.283  13.143  0.3917 -0.3718  0.1097
    1TCq1    C614289   3.010   1.202  13.040  0.4006 -0.2580 -0.0209
    1TCq1    C714290   2.919   1.120  12.973  0.6218  0.1058  0.5075
    1TCq1    C814291   3.135   1.220  12.966 -0.3213 -0.1563  0.3056
    1TCq1    O414292   3.141   1.203  12.845 -0.8112 -0.8401 -0.1147
    1TCq1    C914293   2.805   1.364  13.274  0.0271  0.1389 -0.7424
    1TCq1    O514294   2.685   1.384  13.272  0.1134 -0.0130 -0.2019
    1TCq1    O614295   2.886   1.411  13.357 -0.9807 -0.0990  0.0872
    1TCq1    H114296   2.791   0.975  12.812 -0.0042  2.8250 -1.7420
    1TCq1    H214297   2.669   1.189  13.182 -1.5953 -0.6702 -1.4298
    1TCq1    H314298   3.042   1.368  13.172  0.2760  0.3435 -1.7157
    1TCq1    H414299   2.953   1.063  12.887  0.1918  1.6790 -0.6961
    2MPD2     C14300   3.379   1.364  12.870 -0.1116  0.2134 -0.0883
    2MPD2    C114301   3.361   1.306  12.991 -0.3660 -0.0956  0.0604
    2MPD2    C214302   3.464   1.315  13.082  0.5019 -0.0647  0.0737
    2MPD2    C314303   3.580   1.389  13.064 -0.1408  0.0504  0.1808
    2MPD2    C414304   3.596   1.450  12.938 -0.0483  0.5216 -0.0511
    2MPD2    C514305   3.498   1.426  12.847  1.0936  0.7660 -0.2679
    2MPD2     H14306   3.454   1.259  13.174  1.4504  1.1274  0.9130
    2MPD2    H114307   3.684   1.502  12.900  1.2115 -0.9956  0.7826
    2MPD2    H214308   3.313   1.364  12.784 -0.5580 -0.1904  0.2597
    2MPD2    H314309   3.500   1.467  12.747 -0.8099 -1.4568 -1.2083
    2MPD2     N14310   3.684   1.389  13.156 -0.4481 -0.7685 -0.2881
    2MPD2    H514311   3.659   1.349  13.246  1.2339  4.2526  2.3994
    2MPD2    N114312   3.237   1.247  13.040 -0.1802 -0.5100  0.3221
    2MPD2    H714313   3.237   1.202  13.131 -0.7498  0.6235  0.8807
    3TCq1    O114314   4.227   1.692  13.235  0.4311  0.4684  0.2676
    3TCq1    C114315   4.251   1.562  13.273  0.3890  0.6711  1.0241
    3TCq1    O214316   4.355   1.496  13.252 -0.2611 -0.2804  0.1248
    3TCq1    C214317   4.124   1.498  13.302 -0.0769 -0.0167 -0.2931
    3TCq1    C314318   4.110   1.422  13.416 -0.1560 -0.1717  0.1845
    3TCq1    C414319   4.002   1.346  13.433  0.4017  0.2600  0.3431
    3TCq1    C514320   3.898   1.346  13.341  0.2725  0.4287  0.0526
    3TCq1    C614321   3.913   1.425  13.230  0.4469  0.0848  0.7532
    3TCq1    C714322   4.027   1.502  13.207 -0.0919 -0.3282  0.2494
    3TCq1    C814323   3.816   1.416  13.121  0.1198 -0.3902 -0.0838
    3TCq1    O414324   3.869   1.432  13.012  0.1076 -0.0090 -0.4609
    3TCq1    C914325   3.988   1.276  13.561 -1.3614  0.4828 -0.5023
    3TCq1    O514326   3.891   1.202  13.567 -0.0866 -0.0447  0.4825
    3TCq1    O614327   4.057   1.328  13.660 -0.6289 -0.6466  0.0922
    3TCq1    H114328   4.149   1.734  13.276  1.0254  2.7242 -0.8817
    3TCq1    H214329   4.194   1.417  13.484 -0.6560 -2.3308  0.6227
    3TCq1    H314330   3.818   1.274  13.350 -1.5936  2.7857  2.4139
    3TCq1    H414331   4.042   1.544  13.108 -0.7449  1.6784  1.0104
    1MPD2     C14332   3.358   2.172  14.542 -0.5728 -0.2543  0.2740
    1MPD2    C114333   3.249   2.173  14.629  0.0402 -0.7652 -0.0456
    1MPD2    C214334   3.264   2.126  14.758 -0.6172 -0.7113 -0.1617
    1MPD2    C314335   3.384   2.078  14.805 -0.2734  0.0526  0.1216
    1MPD2    C414336   3.489   2.076  14.719  0.7645  0.9658 -0.0297
    1MPD2    C514337   3.470   2.121  14.597 -0.6068 -0.3698 -0.0301
    1MPD2     H14338   3.176   2.114  14.820  0.0654 -0.6867  0.8069
    1MPD2    H114339   3.582   2.028  14.748  0.2307 -1.4142 -2.2113
    1MPD2    H214340   3.356   2.202  14.438  1.9308  0.8262  0.5471
    1MPD2    H314341   3.555   2.102  14.532 -0.8001  1.4866 -0.8081
    1MPD2     N14342   3.385   2.030  14.936  0.4062 -0.5456  0.0095
    1MPD2    H514343   3.295   2.035  14.983  0.0179 -0.9425 -0.6768
    1MPD2    N114344   3.120   2.211  14.597 -0.1461 -0.4641 -0.2347
    1MPD2    H714345   3.054   2.204  14.675  1.4096 -1.2031  1.0102
    2TMC3    C114346   2.933   2.301  14.499 -0.7239  0.4825  0.1159
    2TMC3    C214347   2.852   2.217  14.558  0.2946  0.2908 -0.1652
    2TMC3    C314348   2.720   2.256  14.590 -0.2049  1.2612 -0.2506
    2TMC3    C414349   2.894   2.427  14.484 -0.0799 -0.4549 -0.2213
    2TMC3    C514350   2.771   2.465  14.513  0.2956  0.4857  0.1165
    2TMC3    C614351   2.677   2.382  14.574  0.0822 -0.7103 -0.2543
    2TMC3     C14352   3.067   2.262  14.487 -0.1332  0.1178 -0.7762
    2TMC3     O14353   3.132   2.310  14.395  0.3194 -0.1141  0.4328
    2TMC3     H14354   2.884   2.114  14.567 -1.2874 -0.1239  0.7289
    2TMC3    H114355   2.957   2.487  14.419 -0.8228  2.5140  1.7564
    2TMC3    H214356   2.580   2.420  14.606  0.7098  0.5841  0.1332
    2TMC3    C714357   2.731   2.603  14.486 -0.3035  0.1635 -0.3807
    2TMC3    C814358   2.643   2.168  14.675  0.1312 -0.5175 -0.4068
    2TMC3    O114359   2.611   2.620  14.469 -0.5596 -0.2234  0.0357
    2TMC3    O214360   2.525   2.156  14.675  0.2389 -0.1166 -0.1365
    3TCq1    O114361   3.576   3.537  14.366 -0.1158  0.2748 -0.4670
    3TCq1    C114362   3.471   3.480  14.299 -0.2758 -0.1475  0.6366
    3TCq1    O214363   3.432   3.502  14.183  0.0816  0.0594 -0.4546
    3TCq1    C214364   3.418   3.378  14.386 -0.0331  0.3533  0.1008
    3TCq1    C314365   3.497   3.299  14.470 -0.7608  0.8916  0.8667
    3TCq1    C414366   3.434   3.211  14.554 -0.7939  0.2567  0.7805
    3TCq1    C514367   3.299   3.194  14.549  0.4753  0.7819  0.0551
    3TCq1    C614368   3.226   3.269  14.459 -0.0538  0.2262  0.1015
    3TCq1    C714369   3.285   3.362  14.379 -0.0600 -0.4594  0.0604
    3TCq1    C814370   3.078   3.245  14.441 -0.2994  0.9391  0.8288
    3TCq1    O414371   3.026   3.320  14.362  0.3014  0.0658 -0.0422
    3TCq1    C914372   3.521   3.135  14.644 -0.1999  0.2948 -0.7241
    3TCq1    O514373   3.641   3.170  14.665  0.6772  0.0805  0.1566
    3TCq1    O614374   3.463   3.041  14.699 -0.0254 -0.5105 -0.0955
    3TCq1    H114375   3.575   3.507  14.459  1.8283  1.9672  0.1079
    3TCq1    H214376   3.605   3.311  14.477 -0.2494 -2.7811 -0.6189
    3TCq1    H314377   3.250   3.119  14.610  0.8034 -0.3489 -1.0840
    3TCq1    H414378   3.240   3.417  14.298  0.4065  0.7960  0.6552
    4MPD2     C14379   2.818   3.097  14.414  0.0426  0.5640 -0.0729
    4MPD2    C114380   2.922   3.051  14.473  0.1732 -0.3211 -0.3112
    4MPD2    C214381   2.930   2.916  14.507 -0.5626  1.1713 -0.0120
    4MPD2    C314382   2.826   2.830  14.469  0.5984 -1.0748 -0.6222
    4MPD2    C414383   2.722   2.884  14.401 -0.8280 -0.1522 -0.4200
    4MPD2    C514384   2.712   3.018  14.382  1.1077 -1.1176 -1.0492
    4MPD2     H14385   3.013   2.866  14.556 -0.7742  0.1721 -0.6670
    4MPD2    H114386   2.642   2.822  14.362 -0.4754 -0.7624 -0.1765
    4MPD2    H214387   2.816   3.200  14.379  1.1770  0.9647  1.0240
    4MPD2    H314388   2.623   3.047  14.328  0.9524  0.0535 -0.1639
    4MPD2     N14389   2.834   2.692  14.499 -0.3864  0.0042 -0.5827
    4MPD2    H514390   2.922   2.650  14.526 -1.4361 -0.9698  1.4071
    4MPD2    N114391   3.042   3.125  14.497  0.2633 -0.2339  0.4996
    4MPD2    H714392   3.109   3.074  14.554  0.7746  1.4864  1.4626
    5TMC2    C114393   3.217   1.861  15.141 -0.1133  0.0418  0.2253
    5TMC2    C214394   3.238   1.731  15.121 -0.1116 -0.6025 -0.1841
    5TMC2    C314395   3.369   1.697  15.121 -0.2711  0.5512 -0.2374
    5TMC2    C414396   3.311   1.955  15.153  0.2994 -0.6059 -0.2327
    5TMC2    C514397   3.442   1.924  15.141 -0.2441  0.4184 -0.2193
    5TMC2    C614398   3.470   1.788  15.139 -0.0324  0.8978 -0.1489
    5TMC2     C14399   3.096   1.912  15.090 -0.0232 -0.5523 -1.6904
    5TMC2     O14400   3.111   2.025  15.047 -0.5223  0.0419 -0.1306
    5TMC2     H14401   3.170   1.655  15.086  1.5378 -2.0863 -0.1892
    5TMC2    H114402   3.284   2.057  15.179 -1.8107 -1.8716  2.6276
    5TMC2    H214403   3.572   1.753  15.151  0.3119  1.8847 -0.2281
    5TMC2    C714404   3.487   1.976  15.009 -0.4234 -0.3598  0.2613
    5TMC2    C814405   3.408   1.565  15.157  0.4670  0.6656 -0.2698
    5TMC2    O114406   3.605   1.968  14.979  0.3666 -0.1019 -0.0019
    5TMC2    O214407   3.511   1.505  15.132 -0.0660  0.2036 -0.0371
    5TMC2    O514408   3.331   1.539  15.262 -0.3404 -0.8381 -0.1493
    5TMC2    H514409   3.249   1.593  15.276  0.0138 -1.1952  3.2198
    6MPD2     C14410   2.636   1.923  14.865  0.3213  0.1169  0.1335
    6MPD2    C114411   2.742   2.005  14.846  0.5334 -0.0070 -0.2282
    6MPD2    C214412   2.859   1.977  14.923 -0.3127  0.0411 -0.1135
    6MPD2    C314413   2.867   1.869  15.010 -0.5808 -0.3879 -0.5781
    6MPD2    C414414   2.761   1.779  15.016 -0.6983  0.3487 -0.0861
    6MPD2    C514415   2.645   1.807  14.943 -0.3687  0.3267  0.0333
    6MPD2     H14416   2.944   2.044  14.912 -1.2446  1.0770 -0.9361
    6MPD2    H114417   2.770   1.691  15.078  2.2777  0.4810 -0.3556
    6MPD2    H214418   2.547   1.945  14.807  2.2604  1.1426 -2.4351
    6MPD2    H314419   2.567   1.734  14.927  0.1549 -0.2973  0.3336
    6MPD2     N14420   2.980   1.827  15.081  0.3955  0.3040 -0.4686
    6MPD2    H514421   2.977   1.736  15.127 -1.0547  1.1441  1.0874
    6MPD2    N114422   2.743   2.114  14.755  0.3102 -0.6693  0.2576
    6MPD2    H714423   2.825   2.172  14.759  0.0339 -0.3132  0.8133
  945NH4     N114424   2.990   2.144  11.246 -0.1244 -0.1150  0.7128
  945NH4     H214425   3.019   2.240  11.272 -0.6346  0.3915 -0.5640
  945NH4     H314426   3.037   2.073  11.305  2.4472  2.4010  1.6683
  945NH4     H414427   3.012   2.114  11.149 -1.7052 -0.0551  0.3249
  945NH4     H514428   2.891   2.142  11.277 -0.8734  2.4159 -1.4829
  946SOD     NA14429   2.730   1.140   9.200  0.2996 -0.1097  0.5169
  947SOD     NA14430   2.848   1.249  14.868  0.2149 -0.1903 -0.3944
  948SOD     NA14431   1.815   4.175   3.570 -0.2119 -0.4078  0.3329
  949SOD     NA14432   4.693   0.401   1.485 -0.0752 -0.1331  0.1279
  950SOD     NA14433   1.198   0.082  16.666  0.4997  0.4199 -0.0286
  951SOD     NA14434   2.248   0.705   9.801  0.2200  0.0574  0.6686
  952SOD     NA14435   0.179   4.120   1.721  0.0346 -0.0580  0.4310
  953SOD     NA14436   3.215   1.490  11.875  0.2559 -0.2047  0.3225
  954SOD     NA14437   1.496   2.968   2.948  0.3104 -0.7814  0.4248
  955SOD     NA14438   2.341   1.760   3.645 -0.0023  0.3717 -0.3144
  956SOD     NA14439   4.054   3.151  11.949  0.0769 -0.2940  0.0552
  957SOD     NA14440   3.667   3.931  10.689 -0.4829  0.3315  0.1609
  958SOD     NA14441   2.363   0.558  15.657 -0.5931  0.2874 -0.1748
  959SOD     NA14442   1.534   1.530  10.291 -0.0449 -0.0523  0.0783
  960SOD     NA14443   4.387   1.610  11.181  0.7654  0.3843 -0.3155
  961SOD     NA14444   2.397   1.067   9.307  0.3714  0.0374 -0.0683
  962SOD     NA14445   0.845   3.954  14.964  0.6489 -0.1298 -0.3799
  963SOD     NA14446   4.211   3.706  17.570  0.6129 -0.4450 -0.1602
  964SOD     NA14447   3.859   3.124  12.193 -0.3383  0.3588 -0.4669
  965SOD     NA14448   3.232   2.223   9.112  0.0132  0.1530 -0.7985
  966SOD     NA14449   3.399   1.009  11.608 -0.4074 -0.0005 -0.4713
  967SOD     NA14450   1.011   1.089  11.660  1.1248  0.0426 -0.0674
  968SOD     NA14451   3.503   4.618  11.245  0.1130 -0.3024 -0.0879
  969SOD     NA14452   4.024   1.276  13.862 -0.0160  0.2227 -0.6860
  970SOD     NA14453   3.139   4.294   8.533 -0.4041 -0.2472 -0.2164
  971SOD     NA14454   0.916   3.118   1.603 -0.0520 -0.4500  0.1041
  972SOD     NA14455   2.881   3.314   6.255 -0.1777 -0.1589 -0.1965
  973SOD     NA14456   3.740   1.261  10.387 -0.1228 -0.3015 -0.1620
  974SOD     NA14457   0.662   1.179   0.216  0.5516  0.4423  0.3722
  975SOD     NA14458   1.627   2.252  11.322 -0.8173 -0.2773 -0.6146
  976SOD     NA14459   3.929   0.296  13.487  0.0246  0.1960 -0.1020
  977SOD     NA14460   3.921   1.299  14.168  0.0363  0.2072  0.3076
  978SOD     NA14461   4.296   1.588   0.017 -0.4878 -0.3973  0.3602
  979SOD     NA14462   0.933   2.976   0.453  0.0560  0.5451  0.0443
  980SOD     NA14463   3.927   2.629  16.182 -0.4512  0.0377 -0.0333
  981SOD     NA14464   4.206   0.900   0.402  0.0964 -0.3030 -0.5866
  982SOD     NA14465   4.118   3.648  16.465  0.3801 -0.1653 -0.2108
  983SOD     NA14466   2.234   2.210  15.158  0.0483  0.2667  0.1159
  984SOD     NA14467   3.063   3.700   7.236 -0.2166 -0.0872 -0.0224
  985SOD     NA14468   2.381   4.471  11.646  0.2653 -0.2668 -0.1134
  986SOD     NA14469   3.691   0.700  12.610  0.0485  0.2809  0.0562
  987SOD     NA14470   3.510   1.978  14.080  0.7935 -0.0900  0.0518
  988SOD     NA14471   2.713   0.223   4.581 -0.4441  0.4009 -0.1954
  989SOD     NA14472   2.276   3.146   2.247 -0.4867  0.1999  0.2547
  990SOD     NA14473   2.980   1.272  11.542  0.3929 -0.4448 -0.3685
  991SOD     NA14474   4.462   1.794  15.276  0.4680 -0.6855 -0.0774
  992SOD     NA14475   2.371   1.110  13.112  0.2499  0.0522  0.0254
  993SOD     NA14476   1.018   2.973   4.055 -0.5417 -0.5604  0.1928
  994SOD     NA14477   0.488   2.404  15.428 -0.3265 -0.5523  0.6529
  995SOD     NA14478   0.172   4.136   1.336  0.2452 -0.3194 -0.4862
  996SOD     NA14479   2.994   4.143  12.714 -0.1064  0.1650 -0.5689
  997SOD     NA14480   2.440   0.735  10.099  0.0391 -0.4657  0.2110
  998SOD     NA14481   2.016   0.124  10.717 -0.1468 -0.0504 -0.1046
  999SOD     NA14482   0.276   0.638  13.050 -0.1509  0.4403 -0.4452
 1000SOD     NA14483   1.757   3.915   2.187 -0.2028  0.2363  0.2995
 1001SOD     NA14484   2.432   2.551  14.837  0.6658  0.1163  0.3772
 1002SOD     NA14485   1.730   0.550  10.679 -0.0139  0.4828 -0.3449
 1003SOD     NA14486   3.407   0.333  12.238 -0.3505 -0.2617 -0.5338
 1004SOD     NA14487   0.042   1.766  14.459 -0.0844 -0.2242 -0.1227
 1005SOD     NA14488   4.432   0.253   8.757  0.1745 -0.1854  0.3810
 1006SOD     NA14489   3.191   3.859  14.001 -0.2997 -0.5077 -0.8724
 1007SOD     NA14490   1.026   4.542   1.759 -0.3509  0.2708 -0.6123
 1008SOD     NA14491   4.496   0.533  13.481 -0.2304  0.7930  0.1230
 1009SOD     NA14492   1.300   0.141  13.079  0.7726 -0.1963  0.2642
 1010SOD     NA14493   3.680   2.540  12.646  0.0412  0.1952  0.3430
 1011SOL     OW14494   1.351   0.706  10.968  0.0549 -0.6018 -0.3213
 1011SOL    HW114495   1.430   0.671  11.009 -1.2398 -1.8261  1.1556
 1011SOL    HW214496   1.389   0.775  10.915 -1.6894  1.1532  0.7342
 1012SOL     OW14497   2.298   0.787   2.738  0.1713 -0.1421 -0.3313
 1012SOL    HW114498   2.344   0.828   2.665  0.9601  0.1907  0.3544
 1012SOL    HW214499   2.206   0.805   2.715 -0.1687 -0.2826  0.9382
 1013SOL     OW14500   3.436   4.529   9.834 -0.2289  0.6267  0.4304
 1013SOL    HW114501   3.460   4.537   9.741  0.4686 -1.2382  0.4435
 1013SOL    HW214502   3.447   4.437   9.854 -0.1847  0.7608  1.0106
 1014SOL     OW14503   0.659   1.994   3.397  0.0941 -0.3306  0.3071
 1014SOL    HW114504   0.749   1.967   3.414 -1.0506 -2.9360  2.0943
 1014SOL    HW214505   0.678   2.055   3.326  1.1582  0.4730  1.2783
 1015SOL     OW14506   2.753   3.638   2.947  0.0822 -0.5212 -0.2255
 1015SOL    HW114507   2.705   3.667   3.025  0.0899 -0.0432 -0.3991
 1015SOL    HW214508   2.759   3.546   2.974 -0.4943 -0.7475 -0.8789
 1016SOL     OW14509   3.898   3.813   2.393 -0.2898 -0.7273 -0.8135
 1016SOL    HW114510   3.904   3.817   2.488 -1.6686 -0.5749 -0.7315
 1016SOL    HW214511   3.894   3.721   2.365 -2.0164 -2.2747  4.4148
 1017SOL     OW14512   1.824   1.375   4.583 -0.0173 -0.0193  0.4890
 1017SOL    HW114513   1.746   1.342   4.627 -1.6222 -0.3930 -2.5923
 1017SOL    HW214514   1.816   1.468   4.602  0.4695 -0.0967  1.0872
 1018SOL     OW14515   3.773   4.439   5.200  0.6680 -0.7538 -0.0581
 1018SOL    HW114516   3.700   4.487   5.161  0.3444 -0.1724  1.2448
 1018SOL    HW214517   3.842   4.498   5.168 -1.5096  0.9277 -1.6315
 1019SOL     OW14518   3.202   3.980   4.557  1.1803  0.3747 -0.5308
 1019SOL    HW114519   3.277   4.038   4.569  0.7707  0.2097  3.0710
 1019SOL    HW214520   3.245   3.894   4.556 -1.9071 -1.0989 -3.1903
 1020SOL     OW14521   1.186   0.226   3.571  0.5320 -0.2919 -0.8042
 1020SOL    HW114522   1.156   0.299   3.517  2.0194  0.2725 -0.8883
 1020SOL    HW214523   1.278   0.228   3.544  0.9144 -1.5822  0.3973
 1021SOL     OW14524   1.469   1.540   2.810  0.4103  1.0800  0.4831
 1021SOL    HW114525   1.448   1.621   2.763  1.4455  1.3874  0.5466
 1021SOL    HW214526   1.459   1.579   2.897 -0.0173  1.1149  0.4164
 1022SOL     OW14527   1.183   0.682   6.982  0.1105 -0.7578 -0.1377
 1022SOL    HW114528   1.091   0.676   6.958 -0.2739  1.7719  0.7286
 1022SOL    HW214529   1.209   0.604   6.933 -2.2200 -2.1405  0.8187
 1023SOL     OW14530   0.117   1.308   8.858 -0.3249 -0.0380  0.4334
 1023SOL    HW114531   0.172   1.387   8.867  1.5928 -1.1172 -1.9004
 1023SOL    HW214532   0.087   1.300   8.949 -0.1884 -0.3250  0.4514
 1024SOL     OW14533   0.246   4.160   7.941  0.1337  0.0444 -0.3974
 1024SOL    HW114534   0.186   4.234   7.937 -0.9539 -0.8918 -1.2007
 1024SOL    HW214535   0.182   4.089   7.948 -0.4659  0.7059  0.9677
 1025SOL     OW14536   1.116   3.626  16.554  0.3895 -0.2911  0.0367
 1025SOL    HW114537   1.093   3.718  16.547  0.9625 -0.1185  0.3614
 1025SOL    HW214538   1.155   3.635  16.641 -1.6265 -2.8301  1.1968
 1026SOL     OW14539   2.631   0.144   9.123 -0.5781  0.5684 -0.2056
 1026SOL    HW114540   2.624   0.066   9.178 -1.4908 -0.5052 -1.8536
 1026SOL    HW214541   2.609   0.214   9.185 -0.5364  0.5240 -0.1420
 1027SOL     OW14542   2.733   0.341   7.907  0.1423 -0.3972  0.4606
 1027SOL    HW114543   2.784   0.421   7.892 -1.3068  0.6977  1.2943
 1027SOL    HW214544   2.673   0.377   7.973 -1.4573 -1.3677 -0.4522
 1028SOL     OW14545   3.539   2.072   5.413 -0.3685  0.4004 -0.0235
 1028SOL    HW114546   3.540   1.985   5.373  1.3154  0.8032 -0.8676
 1028SOL    HW214547   3.450   2.105   5.407 -1.0631 -1.4947 -0.0511
 1029SOL     OW14548   0.867   1.806  11.757  0.1840 -0.3606 -0.2355
 1029SOL    HW114549   0.944   1.750  11.764 -0.5724 -1.4159 -0.3510
 1029SOL    HW214550   0.865   1.839  11.846 -0.0810 -1.2317  0.0882
 1030SOL     OW14551   2.946   3.532   2.159  0.5081 -0.5475  0.0573
 1030SOL    HW114552   2.960   3.440   2.138  0.0686 -0.7005  0.4283
 1030SOL    HW214553   2.981   3.547   2.247  1.7558 -0.0232 -0.5258
 1031SOL     OW14554   3.854   4.442   8.742  0.4198 -0.4221  0.1575
 1031SOL    HW114555   3.908   4.505   8.788 -1.6004  1.3407  0.1021
 1031SOL    HW214556   3.907   4.434   8.662  0.1210 -0.0066 -0.0848
 1032SOL     OW14557   2.264   1.713  10.619  0.2588  0.1878  0.0009
 1032SOL    HW114558   2.254   1.655  10.695  1.5014 -0.0943 -0.0448
 1032SOL    HW214559   2.213   1.789  10.647  0.3918  0.4790 -0.5560
 1033SOL     OW14560   2.502   0.832   8.976  0.3282 -0.4780 -0.2586
 1033SOL    HW114561   2.443   0.771   8.931  0.6492  0.6214 -2.1731
 1033SOL    HW214562   2.444   0.898   9.013  1.7746  0.9969 -0.6211
 1034SOL     OW14563   1.547   4.423   1.422 -0.4398  0.0321  0.0147
 1034SOL    HW114564   1.460   4.455   1.446 -0.2855 -1.0532  2.0519
 1034SOL    HW214565   1.532   4.330   1.402 -0.2613  0.6612 -3.0019
 1035SOL     OW14566   1.387   3.059   5.735 -0.2778 -0.2870  0.1595
 1035SOL    HW114567   1.367   3.009   5.656  2.9636  0.7512 -1.3100
 1035SOL    HW214568   1.327   3.133   5.725  1.8863  1.4209 -0.0771
 1036SOL     OW14569   1.043   0.151  12.703  0.5216  0.3390 -0.0074
 1036SOL    HW114570   1.103   0.119  12.769 -0.5862  1.7015  1.6657
 1036SOL    HW214571   1.040   0.245  12.724  1.3962  0.7047 -1.5363
 1037SOL     OW14572   0.132   2.587   2.344 -0.6454  0.5828  0.5029
 1037SOL    HW114573   0.177   2.554   2.421 -2.2873 -0.3759  1.0625
 1037SOL    HW214574   0.205   2.586   2.282  0.2495  2.9079  1.4965
 1038SOL     OW14575   2.536   3.385   2.778 -0.0037  0.5181  0.3190
 1038SOL    HW114576   2.445   3.415   2.772 -0.1316  0.6472  2.7804
 1038SOL    HW214577   2.528   3.295   2.747  0.6495  0.8360 -0.7402
 1039SOL     OW14578   3.391   1.163   2.976 -0.5638 -0.1429 -0.2507
 1039SOL    HW114579   3.467   1.109   2.998 -0.0585 -0.6388 -3.1360
 1039SOL    HW214580   3.437   1.246   2.966  2.2827 -2.0199 -2.8505
 1040SOL     OW14581   1.525   1.249   6.891 -0.3501  0.2401 -0.3743
 1040SOL    HW114582   1.598   1.269   6.950  1.7167 -1.9913 -2.1642
 1040SOL    HW214583   1.478   1.197   6.956 -2.4775  1.1687 -1.1614
 1041SOL     OW14584   0.097   3.405   4.509 -0.6408 -0.3455 -0.0384
 1041SOL    HW114585   0.016   3.403   4.457  1.1776 -0.5294 -2.8708
 1041SOL    HW214586   0.134   3.490   4.486  0.3013 -0.6530  0.3462
 1042SOL     OW14587   2.960   1.511   3.304  0.0108 -0.5032 -0.0672
 1042SOL    HW114588   2.914   1.435   3.340  0.4422 -0.0987  1.3303
 1042SOL    HW214589   3.025   1.533   3.371 -0.5655 -0.6714  0.5446
 1043SOL     OW14590   4.589   4.388  11.518 -0.1796 -0.6700  0.4728
 1043SOL    HW114591   4.641   4.317  11.554 -1.1005 -0.4583  2.1832
 1043SOL    HW214592   4.636   4.463  11.554 -1.2821  0.3928 -0.2743
 1044SOL     OW14593   1.511   0.185   9.292 -0.4860 -0.0913  0.1097
 1044SOL    HW114594   1.576   0.129   9.333 -1.1265 -0.2858  0.8599
 1044SOL    HW214595   1.435   0.133   9.320 -2.3573  2.2522 -0.5735
 1045SOL     OW14596   3.925   1.338  16.289  0.0733 -0.4330  0.1551
 1045SOL    HW114597   3.955   1.297  16.208  0.0560 -1.4280  0.6628
 1045SOL    HW214598   3.987   1.316  16.358  1.4865 -0.1454 -1.0240
 1046SOL     OW14599   2.200   4.645  15.265  0.1768 -0.5656  0.3169
 1046SOL    HW114600   2.129   4.708  15.274  0.5421 -0.0726 -0.2911
 1046SOL    HW214601   2.246   4.673  15.186 -1.9326 -3.1269 -1.8099
 1047SOL     OW14602   2.417   4.616   8.301 -0.1454  0.3022  0.6926
 1047SOL    HW114603   2.334   4.637   8.343 -0.6659 -3.3037  1.5124
 1047SOL    HW214604   2.464   4.580   8.377  2.3564  2.2702  0.0533
 1048SOL     OW14605   1.126   3.533   5.527  0.2418  0.1806 -0.4225
 1048SOL    HW114606   1.141   3.462   5.464  0.3669  1.0485 -1.3769
 1048SOL    HW214607   1.031   3.541   5.519  0.2373  0.8019  0.2707
 1049SOL     OW14608   3.198   3.461   9.111  0.6045  0.4124  0.1597
 1049SOL    HW114609   3.130   3.528   9.101 -0.3922 -0.6369 -0.0494
 1049SOL    HW214610   3.271   3.522   9.122  1.5342 -0.5574 -0.7716
 1050SOL     OW14611   1.867   0.584   4.417 -0.2400 -0.3926 -0.3413
 1050SOL    HW114612   1.902   0.506   4.373  2.5086  1.1494 -0.9307
 1050SOL    HW214613   1.914   0.577   4.500 -1.0593  0.0898  0.1633
 1051SOL     OW14614   4.490   0.517   9.764  0.1056 -0.2636  0.9180
 1051SOL    HW114615   4.494   0.427   9.798  2.0985 -1.9568 -3.6994
 1051SOL    HW214616   4.581   0.539   9.748 -0.2661 -0.3859 -1.3767
 1052SOL     OW14617   3.878   0.938   6.727  0.1539 -0.2663  0.4698
 1052SOL    HW114618   3.909   1.013   6.778 -1.0071  0.9986 -0.6728
 1052SOL    HW214619   3.797   0.926   6.777 -0.2811  0.4503 -0.0679
 1053SOL     OW14620   0.047   3.424   1.729  0.9082 -0.2474 -0.0007
 1053SOL    HW114621   4.708   3.429   1.657 -2.5475 -1.4008  2.9860
 1053SOL    HW214622   0.080   3.513   1.741  0.3822 -0.1244  0.4936
 1054SOL     OW14623   1.797   1.754   2.705 -0.3660  0.1210 -0.0722
 1054SOL    HW114624   1.808   1.682   2.643 -1.8520 -1.2242  1.2407
 1054SOL    HW214625   1.877   1.752   2.757 -0.0144 -1.9625 -0.6920
 1055SOL     OW14626   0.853   2.278   2.808 -0.8270 -0.6920 -0.3877
 1055SOL    HW114627   0.942   2.308   2.791 -0.4546 -1.1610  0.7542
 1055SOL    HW214628   0.862   2.183   2.797  2.0807 -0.5357  0.6066
 1056SOL     OW14629   0.760   1.701   3.456  0.3897  0.5084 -0.0559
 1056SOL    HW114630   0.768   1.698   3.551 -0.8906 -0.5401  0.0228
 1056SOL    HW214631   0.804   1.783   3.435  1.3000 -0.4032 -1.7122
 1057SOL     OW14632   0.873   3.585   5.555 -0.1898  0.2867 -0.3507
 1057SOL    HW114633   0.845   3.610   5.643 -2.5637 -0.7145 -0.8223
 1057SOL    HW214634   0.801   3.534   5.517 -0.5427 -0.2124  0.9616
 1058SOL     OW14635   3.106   2.416   3.950  0.5678  0.2212 -0.1270
 1058SOL    HW114636   3.199   2.395   3.944  0.6373  0.8864 -1.3468
 1058SOL    HW214637   3.097   2.452   4.038 -1.6234 -1.5812  0.3822
 1059SOL     OW14638   0.230   4.536   2.716  0.2201 -0.1771 -0.4076
 1059SOL    HW114639   0.225   4.577   2.802 -1.8702  0.6588 -0.9322
 1059SOL    HW214640   0.306   4.481   2.736  0.5510  0.8393  1.1755
 1060SOL     OW14641   4.213   2.001  17.008  0.5189 -0.3277 -0.2009
 1060SOL    HW114642   4.261   1.977  17.088  1.4581  1.2179 -0.3102
 1060SOL    HW214643   4.207   2.096  17.014 -0.0902 -0.4166  0.6626
 1061SOL     OW14644   4.554   2.781   5.424 -0.0884  0.3423  0.2279
 1061SOL    HW114645   4.536   2.779   5.330  1.8044 -0.6299 -0.1275
 1061SOL    HW214646   4.532   2.871   5.450 -1.5721 -0.8975  3.1893
 1062SOL     OW14647   4.617   1.016  14.645 -0.1140 -0.6729  0.3623
 1062SOL    HW114648   4.673   1.070  14.590 -0.3901 -0.6234  0.1305
 1062SOL    HW214649   4.546   1.075  14.669 -1.0268 -1.6236 -0.0086
 1063SOL     OW14650   2.745   0.656   3.625  0.5357  0.0653 -0.4327
 1063SOL    HW114651   2.671   0.610   3.586  0.2550 -2.1050  2.6374
 1063SOL    HW214652   2.717   0.747   3.612  0.8880  0.1894 -0.3291
 1064SOL     OW14653   2.314   3.574   5.504 -0.4225  0.4627  0.3243
 1064SOL    HW114654   2.340   3.517   5.576 -3.1159 -1.3438 -0.1586
 1064SOL    HW214655   2.397   3.603   5.465 -0.9834 -0.1782 -1.3224
 1065SOL     OW14656   1.030   0.231   8.690 -0.2100 -0.2332 -0.3153
 1065SOL    HW114657   1.002   0.147   8.653 -0.4343  0.2093 -1.1562
 1065SOL    HW214658   0.966   0.292   8.653  0.3716  0.2603 -0.5037
 1066SOL     OW14659   2.732   1.507   1.309 -0.0127  0.3032  0.1060
 1066SOL    HW114660   2.662   1.444   1.289  0.9170 -0.3938 -1.0054
 1066SOL    HW214661   2.705   1.562   1.382  0.3113  2.8875 -1.6946
 1067SOL     OW14662   2.673   3.989   8.178  0.1204 -0.3320 -0.3105
 1067SOL    HW114663   2.656   3.899   8.208 -0.6075  0.5641  1.9316
 1067SOL    HW214664   2.763   3.986   8.146  0.8369  0.9716  1.6263
 1068SOL     OW14665   1.421   4.671  12.147 -0.2833  0.2627 -0.2306
 1068SOL    HW114666   1.367   4.649  12.223  1.7234 -1.1640  0.7830
 1068SOL    HW214667   1.408   0.041  12.143  3.3736  0.7736  0.0232
 1069SOL     OW14668   3.972   1.831   0.155 -0.2968  0.9486  0.0142
 1069SOL    HW114669   3.966   1.807   0.248  1.0215 -1.4956 -0.5292
 1069SOL    HW214670   3.963   1.926   0.156 -1.4816  0.8327 -0.4230
 1070SOL     OW14671   3.275   2.168   5.333 -0.9678  0.5488 -0.0682
 1070SOL    HW114672   3.258   2.182   5.239 -0.9221  0.8722 -0.0268
 1070SOL    HW214673   3.192   2.181   5.379  0.1452  0.7796  1.8425
 1071SOL     OW14674   0.079   2.094   2.995  0.7922  0.4006  0.6261
 1071SOL    HW114675   0.111   2.070   3.082  0.9252 -0.0290  0.4567
 1071SOL    HW214676   0.144   2.051   2.939 -1.3131 -0.5491 -1.0874
 1072SOL     OW14677   3.461   4.622   2.155 -0.2097 -0.0406 -0.1756
 1072SOL    HW114678   3.497   4.585   2.075  1.6368 -0.5799  0.9031
 1072SOL    HW214679   3.533   4.677   2.186 -0.3425  0.0442 -0.0202
 1073SOL     OW14680   1.429   3.549   6.809  0.2528 -0.5121 -0.2057
 1073SOL    HW114681   1.393   3.533   6.722  1.2772  1.5126 -1.0037
 1073SOL    HW214682   1.393   3.480   6.864 -1.6173 -1.2725 -2.3999
 1074SOL     OW14683   0.022   1.701   1.288  0.7126 -0.2228  0.1141
 1074SOL    HW114684   0.084   1.635   1.319  0.5702 -0.1800  0.4899
 1074SOL    HW214685   4.716   1.735   1.373 -0.0605 -0.4977 -0.0547
 1075SOL     OW14686   2.048   2.205  13.082 -0.0596 -0.0003 -0.1713
 1075SOL    HW114687   1.959   2.196  13.048  0.0618 -1.8368  0.0162
 1075SOL    HW214688   2.079   2.115  13.076  1.1167  0.2585  1.7530
 1076SOL     OW14689   3.850   1.379  10.053 -0.0304  0.5264  0.0496
 1076SOL    HW114690   3.772   1.337  10.088  0.3489  0.3721  0.7166
 1076SOL    HW214691   3.902   1.299  10.045 -2.2115 -0.8002 -0.6415
 1077SOL     OW14692   1.531   0.843   0.137  0.0468 -0.1479  0.2092
 1077SOL    HW114693   1.606   0.898   0.158 -0.8101 -0.2171  3.3996
 1077SOL    HW214694   1.475   0.896   0.080 -0.8304 -0.7649  0.4784
 1078SOL     OW14695   1.473   0.434  12.049  0.1791 -0.5271 -0.2900
 1078SOL    HW114696   1.531   0.434  11.972  2.6327  0.5530  1.5558
 1078SOL    HW214697   1.388   0.442  12.006 -0.3143  2.1724  1.2071
 1079SOL     OW14698   2.795   1.558   8.496  0.3621  0.0363  0.1869
 1079SOL    HW114699   2.770   1.649   8.512  1.3231  0.5386 -1.1840
 1079SOL    HW214700   2.831   1.539   8.582 -0.8361  0.6838  0.8406
 1080SOL     OW14701   1.772   1.893  15.816  0.2717 -0.4698  0.0260
 1080SOL    HW114702   1.824   1.817  15.789  0.2130 -0.1591 -0.9262
 1080SOL    HW214703   1.690   1.858  15.852  0.3043 -0.5963 -0.0224
 1081SOL     OW14704   1.106   2.656   7.779 -0.5011  0.2041  0.2070
 1081SOL    HW114705   1.014   2.682   7.780 -0.2388  1.1802 -0.6468
 1081SOL    HW214706   1.111   2.595   7.853  2.0239 -0.2686 -0.3683
 1082SOL     OW14707   3.982   0.516  13.077  0.0482 -0.4641  0.2402
 1082SOL    HW114708   3.914   0.578  13.104 -0.1345 -0.5092 -0.1276
 1082SOL    HW214709   4.059   0.573  13.078 -0.3472  0.1005 -1.3312
 1083SOL     OW14710   0.154   4.360   8.179 -0.1674 -0.4194  0.5504
 1083SOL    HW114711   0.116   4.368   8.091 -2.4906 -1.0501  1.5062
 1083SOL    HW214712   0.232   4.414   8.163 -0.6396  0.4415  1.1467
 1084SOL     OW14713   0.171   0.516   9.950  0.1192  0.1541  0.1688
 1084SOL    HW114714   0.132   0.573   9.884  1.0540  2.6807  1.7840
 1084SOL    HW214715   0.132   0.432   9.928  1.9272 -0.6251 -0.0617
 1085SOL     OW14716   3.358   0.926  16.880  0.3453 -0.2228  0.5259
 1085SOL    HW114717   3.339   0.990  16.811 -0.5248 -0.9432  0.1030
 1085SOL    HW214718   3.372   0.844  16.832 -0.3747 -0.7695  1.2490
 1086SOL     OW14719   3.685   2.776   7.736 -0.4928 -0.0801 -0.3626
 1086SOL    HW114720   3.623   2.733   7.795 -0.7900 -2.1254 -2.1964
 1086SOL    HW214721   3.747   2.795   7.807 -0.0753  1.8566 -1.2248
 1087SOL     OW14722   3.702   1.950  11.556 -0.2644  0.7371  0.3066
 1087SOL    HW114723   3.788   1.957  11.598  0.7374  0.0376 -1.6313
 1087SOL    HW214724   3.720   1.889  11.484 -1.0511  1.9497 -0.9188
 1088SOL     OW14725   4.504   1.539   3.236 -0.1386  0.2845 -0.7638
 1088SOL    HW114726   4.434   1.474   3.239  0.1283 -0.0237 -1.1278
 1088SOL    HW214727   4.507   1.554   3.141 -0.5342 -3.1340 -1.3327
 1089SOL     OW14728   1.778   0.688  10.868 -0.7138  0.6533 -0.4310
 1089SOL    HW114729   1.707   0.658  10.924 -1.9776 -1.8274 -3.4133
 1089SOL    HW214730   1.841   0.715  10.935 -0.8630  1.4107 -0.5953
 1090SOL     OW14731   0.850   1.755   3.014  0.1695  0.1523 -0.1028
 1090SOL    HW114732   0.876   1.847   3.019  0.6085  0.0364 -0.2495
 1090SOL    HW214733   0.917   1.715   3.069 -2.2916 -0.6631  2.2613
 1091SOL     OW14734   1.176   4.414   5.201  0.5269  0.5678 -0.3216
 1091SOL    HW114735   1.129   4.338   5.235 -1.6572  1.2428 -1.7506
 1091SOL    HW214736   1.147   4.490   5.252 -3.3359 -0.1546 -1.3678
 1092SOL     OW14737   1.012   2.699  17.430 -0.1051  0.3334 -0.6083
 1092SOL    HW114738   0.920   2.704  17.456 -0.0990  0.6095 -0.6399
 1092SOL    HW214739   1.010   2.655  17.345  2.4606  0.0713 -0.5389
 1093SOL     OW14740   4.148   3.568  12.287 -0.5075 -0.1156 -0.4193
 1093SOL    HW114741   4.101   3.512  12.349 -0.3176 -0.3449 -0.4832
 1093SOL    HW214742   4.223   3.516  12.258  0.0764 -0.6844  2.0883
 1094SOL     OW14743   3.998   2.959  14.931  0.8506 -0.4192  0.4036
 1094SOL    HW114744   4.054   2.980  14.857 -1.9344  1.5423 -1.1569
 1094SOL    HW214745   3.912   2.996  14.913  0.5607 -1.1100  0.3539
 1095SOL     OW14746   2.873   1.231   6.500 -0.1474  0.3401 -0.1684
 1095SOL    HW114747   2.921   1.159   6.542 -1.6968  0.4922  1.8887
 1095SOL    HW214748   2.789   1.224   6.545  1.3668  1.9764  2.9303
 1096SOL     OW14749   2.286   0.988   7.890 -0.2300 -0.0826  0.0053
 1096SOL    HW114750   2.232   1.063   7.916 -0.2375 -0.0904  0.0122
 1096SOL    HW214751   2.337   1.033   7.823  0.4251  1.6382  1.6633
 1097SOL     OW14752   1.213   4.312  13.987  0.3377 -0.3850 -0.3046
 1097SOL    HW114753   1.279   4.355  14.041  2.1627 -1.8208 -1.4197
 1097SOL    HW214754   1.193   4.377  13.919 -0.5077 -0.7348 -0.3937
 1098SOL     OW14755   3.173   1.083   0.064 -0.4609 -0.1505 -0.2966
 1098SOL    HW114756   3.099   1.072   0.003 -0.6451 -1.1202  0.0913
 1098SOL    HW214757   3.235   1.143   0.023 -0.2543 -0.2327 -0.1024
 1099SOL     OW14758   4.119   2.693   2.427 -0.6260  0.0929 -0.0050
 1099SOL    HW114759   4.145   2.659   2.341 -2.1311 -0.1786 -0.3712
 1099SOL    HW214760   4.034   2.737   2.414  0.2569  1.2981 -1.6910
 1100SOL     OW14761   2.262   0.864   1.142 -0.0583  0.2284  0.8287
 1100SOL    HW114762   2.287   0.785   1.189  1.8367 -0.4036 -1.1850
 1100SOL    HW214763   2.333   0.922   1.172  0.9974  0.3125 -1.8001
 1101SOL     OW14764   4.187   0.883   2.851  0.3396  0.7818  0.1846
 1101SOL    HW114765   4.203   0.799   2.807 -0.6755 -0.1285  1.5382
 1101SOL    HW214766   4.093   0.883   2.867  0.3512 -0.8910  0.2542
 1102SOL     OW14767   4.646   0.454  14.581 -0.2944  0.7684 -0.2171
 1102SOL    HW114768   4.602   0.451  14.497  1.4681 -0.2876 -1.0948
 1102SOL    HW214769   4.693   0.371  14.578 -2.4218 -0.4740  0.7081
 1103SOL     OW14770   1.226   1.359   6.015  0.0107 -0.3506  0.2708
 1103SOL    HW114771   1.240   1.351   6.110 -3.6319 -3.1751  0.5567
 1103SOL    HW214772   1.281   1.435   5.995  0.1798 -0.5159  0.0983
 1104SOL     OW14773   1.737   0.416   5.574  0.2722  0.3249 -0.8648
 1104SOL    HW114774   1.730   0.411   5.670  2.0001  0.9666 -0.7036
 1104SOL    HW214775   1.737   0.322   5.559  0.8863  0.2355 -0.2922
 1105SOL     OW14776   3.792   3.629   3.410  0.1863  0.3302 -0.0658
 1105SOL    HW114777   3.799   3.612   3.316  0.4791  1.7534 -0.3061
 1105SOL    HW214778   3.786   3.725   3.410  2.5611  0.4577  2.1970
 1106SOL     OW14779   4.158   1.764  16.870  0.6864 -0.0332  0.2910
 1106SOL    HW114780   4.159   1.854  16.903  1.5781 -0.1168  0.5093
 1106SOL    HW214781   4.223   1.723  16.927  1.2338  1.1687  0.5224
 1107SOL     OW14782   3.954   1.032   8.836 -0.2093 -0.2238  0.7698
 1107SOL    HW114783   3.949   1.031   8.931 -3.7392 -1.3250  0.5524
 1107SOL    HW214784   3.923   0.942   8.827  0.6242 -0.3295 -0.9927
 1108SOL     OW14785   4.057   0.575   9.651 -0.0711  0.0684  0.3022
 1108SOL    HW114786   3.963   0.564   9.670 -0.2346 -0.1611 -0.6232
 1108SOL    HW214787   4.061   0.604   9.560  0.6858 -0.3133  0.2141
 1109SOL     OW14788   1.134   3.347   5.331  0.2964  0.0151  0.3762
 1109SOL    HW114789   1.116   3.275   5.271 -1.2973  0.5780  0.1626
 1109SOL    HW214790   1.148   3.413   5.263 -0.3712  1.0047  1.1958
 1110SOL     OW14791   0.861   1.302   4.394  0.5065 -0.2115 -0.1439
 1110SOL    HW114792   0.937   1.250   4.367 -0.0959 -0.5932 -1.1013
 1110SOL    HW214793   0.889   1.311   4.485  2.4736 -1.4833 -0.6185
 1111SOL     OW14794   1.904   3.258   5.273  0.1846 -0.5228 -0.2335
 1111SOL    HW114795   1.996   3.263   5.299  0.3131 -0.9673 -0.5955
 1111SOL    HW214796   1.916   3.257   5.178 -0.2232 -0.2622 -0.2884
 1112SOL     OW14797   2.624   0.806   7.057  0.4288  0.2275  0.2992
 1112SOL    HW114798   2.547   0.751   7.055 -0.4154  1.3340  2.8046
 1112SOL    HW214799   2.671   0.775   7.135  1.4846  0.0438 -0.4057
 1113SOL     OW14800   3.392   2.750   5.465 -0.1790  0.0657 -0.6661
 1113SOL    HW114801   3.401   2.827   5.409 -2.2426  1.5383  1.0193
 1113SOL    HW214802   3.488   2.742   5.472 -0.1700  1.0715  0.4164
 1114SOL     OW14803   2.627   1.927   2.980  0.2316 -0.4811  0.4437
 1114SOL    HW114804   2.706   1.981   2.981 -0.1951  0.1226  2.3026
 1114SOL    HW214805   2.631   1.889   2.892 -2.6609 -0.7447  0.4181
 1115SOL     OW14806   1.730   0.721   8.773  1.2159 -0.1737 -0.2017
 1115SOL    HW114807   1.713   0.705   8.865 -0.0024 -0.8154 -0.5423
 1115SOL    HW214808   1.652   0.774   8.757  1.7911  0.9318  0.6829
 1116SOL     OW14809   4.370   0.512  17.665  0.3436  0.5622 -0.1373
 1116SOL    HW114810   4.462   0.509  17.639  0.8484  1.7090  1.5108
 1116SOL    HW214811   4.388   0.509   0.060  4.5461  1.5691 -0.9416
 1117SOL     OW14812   4.052   3.200  13.910 -0.4126  0.1274 -0.2246
 1117SOL    HW114813   4.030   3.118  13.956 -1.9940  1.1410  0.8455
 1117SOL    HW214814   3.972   3.219  13.861 -0.0211  1.2580 -0.4243
 1118SOL     OW14815   1.124   0.393  13.403  0.7007  0.2940 -0.1060
 1118SOL    HW114816   1.200   0.346  13.367 -0.2052 -1.4168  0.2280
 1118SOL    HW214817   1.141   0.385  13.497  0.1524 -1.1998 -0.1342
 1119SOL     OW14818   0.505   3.468   6.521  0.6928 -0.6440  0.3231
 1119SOL    HW114819   0.532   3.383   6.487 -0.9210 -1.8772  2.1136
 1119SOL    HW214820   0.585   3.496   6.566 -0.0829  2.6002 -0.3340
 1120SOL     OW14821   1.112   1.446   1.726 -0.3382 -0.1723 -0.6455
 1120SOL    HW114822   1.140   1.425   1.636  3.4521  0.6893  0.3191
 1120SOL    HW214823   1.018   1.444   1.707 -0.3944  0.2223 -0.4111
 1121SOL     OW14824   0.123   4.287  15.988 -0.0183  0.7846  0.0673
 1121SOL    HW114825   0.214   4.301  15.961 -0.3641  0.8529 -1.0916
 1121SOL    HW214826   0.095   4.377  16.000  0.3417  0.7212  1.3971
 1122SOL     OW14827   2.203   0.076   8.205 -0.3021  0.4893 -0.3167
 1122SOL    HW114828   2.219   0.011   8.136 -0.5416 -0.9903  1.0125
 1122SOL    HW214829   2.110   0.073   8.224 -0.8286  3.5659 -2.4868
 1123SOL     OW14830   4.520   4.106   8.716 -0.9750 -0.7537 -0.1915
 1123SOL    HW114831   4.545   4.098   8.808  0.1727 -2.3197 -0.6496
 1123SOL    HW214832   4.428   4.080   8.712 -1.4730  0.7583  1.4353
 1124SOL     OW14833   2.501   1.296   5.967 -0.0353  0.1090 -0.6353
 1124SOL    HW114834   2.464   1.382   5.947  0.4201  0.4895  0.1459
 1124SOL    HW214835   2.515   1.310   6.061  0.8261 -2.3573 -0.3939
 1125SOL     OW14836   1.428   0.213   3.500 -0.2804 -0.2468 -0.2643
 1125SOL    HW114837   1.424   0.211   3.404  0.0781 -0.5243 -0.2723
 1125SOL    HW214838   1.474   0.294   3.521 -4.4066  1.6152  1.7348
 1126SOL     OW14839   2.655   0.593   0.594 -0.6516  0.0842  0.2328
 1126SOL    HW114840   2.608   0.676   0.600 -2.7387 -1.0281 -0.4909
 1126SOL    HW214841   2.749   0.605   0.597 -0.6637  0.0583  0.8687
 1127SOL     OW14842   3.879   4.692   2.438 -0.4787 -0.0131  0.4806
 1127SOL    HW114843   3.841   4.613   2.399 -1.1169  1.2828 -1.5319
 1127SOL    HW214844   3.830   4.689   2.521 -0.1853 -1.9772  0.5868
 1128SOL     OW14845   4.478   2.568   3.061 -0.1238 -0.0765 -0.5804
 1128SOL    HW114846   4.457   2.582   3.153  2.5413  0.2482 -0.0097
 1128SOL    HW214847   4.458   2.477   3.039 -1.1186  0.3750 -1.5393
 1129SOL     OW14848   4.007   1.259   2.392 -0.7320  0.4879 -0.2258
 1129SOL    HW114849   4.096   1.235   2.365 -0.9139  0.4470 -0.7910
 1129SOL    HW214850   4.006   1.337   2.338  0.5210  0.4899 -0.2632
 1130SOL     OW14851   0.811   3.942   2.596  0.4497  0.2785 -0.2131
 1130SOL    HW114852   0.792   4.026   2.554 -1.2975  1.3450  2.6849
 1130SOL    HW214853   0.722   3.908   2.598 -0.5209  2.8700  0.4269
 1131SOL     OW14854   0.870   3.197   8.663  0.2630  0.1749 -0.3713
 1131SOL    HW114855   0.958   3.233   8.652  0.5384 -0.8999 -1.7662
 1131SOL    HW214856   0.879   3.127   8.597 -2.2742 -0.6101  0.1256
 1132SOL     OW14857   0.133   0.360   4.506 -0.0804  0.0879 -0.0703
 1132SOL    HW114858   0.152   0.293   4.441 -0.8467  0.8244 -1.0490
 1132SOL    HW214859   0.042   0.378   4.486 -0.2487 -0.3849  0.2662
 1133SOL     OW14860   3.574   2.254  17.325 -0.5527 -0.0867  0.4425
 1133SOL    HW114861   3.567   2.279  17.233  0.7559 -1.8010 -0.1320
 1133SOL    HW214862   3.499   2.195  17.329 -1.1131  0.5197 -1.1997
 1134SOL     OW14863   3.546   0.784  17.077 -0.7462 -0.0964 -0.2482
 1134SOL    HW114864   3.473   0.755  17.023  0.7361 -1.3789 -1.5769
 1134SOL    HW214865   3.555   0.874  17.046  0.6146  0.3088  1.3314
 1135SOL     OW14866   3.538   0.959  15.439 -0.3387 -0.0589  0.3746
 1135SOL    HW114867   3.629   0.935  15.421  0.0585  1.8482 -0.1651
 1135SOL    HW214868   3.494   0.878  15.416 -1.1152 -0.0436  1.7634
 1136SOL     OW14869   4.354   1.508   2.326  0.3681 -0.3484  0.0827
 1136SOL    HW114870   4.346   1.542   2.237 -0.5680 -0.2146  0.2128
 1136SOL    HW214871   4.409   1.432   2.310  2.4914  0.9790  1.0418
 1137SOL     OW14872   2.849   2.848   2.377  0.0704 -0.3029 -0.0401
 1137SOL    HW114873   2.841   2.941   2.397 -0.6584 -0.7711  1.8309
 1137SOL    HW214874   2.763   2.836   2.337 -1.5122  0.8372  3.0618
 1138SOL     OW14875   0.828   0.387   4.834  0.5566 -0.5192  0.1591
 1138SOL    HW114876   0.746   0.403   4.787  2.1297  0.5594 -2.1984
 1138SOL    HW214877   0.888   0.382   4.761  1.3865 -0.1792  0.8208
 1139SOL     OW14878   4.042   1.997   4.141  0.3383 -0.8706  0.0692
 1139SOL    HW114879   4.053   1.902   4.130  1.9666 -0.4731 -1.7246
 1139SOL    HW214880   4.070   2.008   4.232 -0.8614 -0.2856  0.3585
 1140SOL     OW14881   1.997   1.785   4.207  0.2723 -0.1646 -0.4032
 1140SOL    HW114882   1.933   1.747   4.266 -0.1441 -0.5796 -1.1334
 1140SOL    HW214883   2.053   1.709   4.191 -0.2364 -0.2973 -1.5436
 1141SOL     OW14884   0.341   2.940   7.353  0.3215 -0.4534 -0.4989
 1141SOL    HW114885   0.390   2.931   7.272 -0.4349  1.2425 -1.1384
 1141SOL    HW214886   0.310   3.029   7.336  0.3126 -0.4176 -0.2986
 1142SOL     OW14887   1.102   3.170   9.427  0.3637 -0.5693  0.1849
 1142SOL    HW114888   1.137   3.248   9.471  1.0911 -0.0964 -1.2259
 1142SOL    HW214889   1.167   3.161   9.357  2.0460 -0.0875  1.6973
 1143SOL     OW14890   2.666   3.907  11.456  0.3603 -0.4386 -0.2388
 1143SOL    HW114891   2.706   3.958  11.526 -0.4990  2.4165 -1.8488
 1143SOL    HW214892   2.701   3.819  11.472  0.4427 -0.2323  0.7170
 1144SOL     OW14893   2.957   1.321  15.443 -0.4488  0.0038 -0.1291
 1144SOL    HW114894   2.875   1.354  15.480  0.0053 -0.2666  1.1009
 1144SOL    HW214895   2.952   1.285  15.354 -0.0408 -1.9433  0.6294
 1145SOL     OW14896   1.370   0.640   0.276 -0.3067  0.0664  0.5302
 1145SOL    HW114897   1.307   0.623   0.206  1.9255  0.0480 -1.4487
 1145SOL    HW214898   1.411   0.719   0.239 -1.4355  0.2693 -0.2863
 1146SOL     OW14899   3.506   2.162   1.748  0.2374 -0.0548  0.0299
 1146SOL    HW114900   3.428   2.174   1.802 -0.3594  1.6447 -1.1955
 1146SOL    HW214901   3.546   2.087   1.791 -1.5766  0.1409  2.0294
 1147SOL     OW14902   0.987   0.457  11.885  0.8168 -0.3874 -0.7077
 1147SOL    HW114903   0.900   0.421  11.869 -0.1699  1.1714  1.2145
 1147SOL    HW214904   0.973   0.551  11.901  1.1171 -0.6464  1.0184
 1148SOL     OW14905   2.930   2.047   4.261  0.3506 -0.5666 -0.1019
 1148SOL    HW114906   2.982   2.074   4.186  1.2759  0.9885  1.0957
 1148SOL    HW214907   2.964   1.964   4.296 -2.4862 -1.0214  1.6011
 1149SOL     OW14908   0.311   0.392   4.039 -0.0501  0.6658  0.1593
 1149SOL    HW114909   0.219   0.367   4.052  0.2400 -0.2985  0.3237
 1149SOL    HW214910   0.309   0.479   4.000 -2.4207  0.0869 -0.9969
 1150SOL     OW14911   0.152   0.784   2.566  0.1496 -0.3148 -0.5928
 1150SOL    HW114912   0.060   0.803   2.544 -0.4932 -2.8177 -0.0755
 1150SOL    HW214913   0.151   0.692   2.590 -0.3891 -0.3046 -0.5637
 1151SOL     OW14914   3.690   0.930   1.750 -0.0401  0.2346 -0.0604
 1151SOL    HW114915   3.753   0.867   1.785  0.3789  1.2237  0.9595
 1151SOL    HW214916   3.692   0.889   1.664 -0.8077  1.6839 -0.7517
 1152SOL     OW14917   0.447   1.624   1.777 -0.7670 -0.3992  0.1675
 1152SOL    HW114918   0.481   1.644   1.690  0.0717 -1.9442  0.1300
 1152SOL    HW214919   0.521   1.641   1.835 -0.4948 -0.2930 -0.2145
 1153SOL     OW14920   1.324   1.053   5.520  0.0318  0.9603  0.4624
 1153SOL    HW114921   1.265   1.123   5.490  0.6503  1.9340  1.5317
 1153SOL    HW214922   1.283   0.976   5.480 -1.7930  2.3211 -0.2860
 1154SOL     OW14923   2.636   0.577   9.719  0.2354  0.2578  0.0812
 1154SOL    HW114924   2.661   0.652   9.665 -0.0131 -0.1107 -0.5394
 1154SOL    HW214925   2.575   0.525   9.668  1.0296  0.9639 -1.5852
 1155SOL     OW14926   1.843   4.355   5.043 -0.3127  0.2404  0.4634
 1155SOL    HW114927   1.890   4.425   5.089 -1.1233  1.4346 -0.5313
 1155SOL    HW214928   1.860   4.378   4.952 -1.9869  2.7160  0.7761
 1156SOL     OW14929   3.883   0.805   5.893  0.0004 -0.0512 -0.1224
 1156SOL    HW114930   3.930   0.732   5.933  1.5510 -0.6378 -3.0359
 1156SOL    HW214931   3.883   0.777   5.801  0.1594  3.5052 -1.1948
 1157SOL     OW14932   4.708   0.561   8.110  0.1474 -0.1478 -0.6132
 1157SOL    HW114933   0.047   0.501   8.150  0.0393 -0.3441 -0.7339
 1157SOL    HW214934   4.697   0.530   8.020 -0.5387  0.3336 -0.6884
 1158SOL     OW14935   0.924   1.182   3.990 -0.2476  0.5603 -0.3274
 1158SOL    HW114936   0.887   1.094   3.978  1.7084 -0.3273  0.0849
 1158SOL    HW214937   0.967   1.186   4.075 -3.2581  2.9654  1.0802
 1159SOL     OW14938   1.030   4.592   2.410  0.3289 -0.4362 -0.1326
 1159SOL    HW114939   1.014   4.686   2.419 -1.8611 -0.7065 -1.1837
 1159SOL    HW214940   1.060   4.575   2.500 -0.9738  2.8306  0.9408
 1160SOL     OW14941   3.792   4.003   8.085  0.1780 -0.2611  0.7419
 1160SOL    HW114942   3.865   4.014   8.145 -1.0831  0.9620  2.0809
 1160SOL    HW214943   3.832   4.013   7.999  1.0795 -2.6713  0.8913
 1161SOL     OW14944   3.971   1.858   4.618  0.5638 -0.2427  0.4028
 1161SOL    HW114945   4.043   1.798   4.639  1.3306  0.2678 -0.7640
 1161SOL    HW214946   3.893   1.809   4.644 -0.2842  0.5016 -0.7126
 1162SOL     OW14947   1.576   1.531   7.767 -0.0186 -0.0665 -0.0917
 1162SOL    HW114948   1.601   1.620   7.794 -2.1318  1.5220 -3.4314
 1162SOL    HW214949   1.482   1.530   7.784  0.0441 -0.1911  0.2635
 1163SOL     OW14950   3.697   3.415   2.398  0.2179  0.0695 -0.1464
 1163SOL    HW114951   3.663   3.453   2.478  0.2114 -0.4176  0.0805
 1163SOL    HW214952   3.788   3.440   2.414  0.8381 -2.2879  0.1342
 1164SOL     OW14953   2.132   2.650   8.760  0.5558 -0.0366  0.2054
 1164SOL    HW114954   2.065   2.713   8.785  0.8248 -0.1468  1.2181
 1164SOL    HW214955   2.136   2.599   8.840 -2.4731 -0.0119  0.3617
 1165SOL     OW14956   0.785   0.391   7.515 -0.4324  0.1076 -0.5263
 1165SOL    HW114957   0.859   0.443   7.484 -0.0048 -0.4145 -0.3997
 1165SOL    HW214958   0.813   0.300   7.505 -2.8831 -0.5408 -1.3470
 1166SOL     OW14959   4.592   3.408   5.630 -0.5604 -0.2994  0.3509
 1166SOL    HW114960   4.554   3.409   5.542  3.2649 -1.7414 -1.3358
 1166SOL    HW214961   4.519   3.364   5.674 -0.5733 -1.0835 -0.4367
 1167SOL     OW14962   0.161   1.580   1.525  0.2578 -0.6622 -0.2469
 1167SOL    HW114963   0.224   1.648   1.550 -1.1399  0.2643  0.7617
 1167SOL    HW214964   0.080   1.625   1.549 -0.0166 -0.5395 -1.3810
 1168SOL     OW14965   2.033   0.520   1.785  0.0550  0.3880  0.1658
 1168SOL    HW114966   2.048   0.458   1.714  0.4947 -1.1016  1.5517
 1168SOL    HW214967   2.122   0.555   1.796  1.1033 -2.3707  0.6708
 1169SOL     OW14968   1.840   1.947   5.659  0.3970 -0.1078 -0.2027
 1169SOL    HW114969   1.810   2.034   5.688  1.1097 -0.3229  1.1892
 1169SOL    HW214970   1.909   1.927   5.723  0.4178 -0.7566 -0.4378
 1170SOL     OW14971   0.491   3.127   9.036 -0.4148  0.2172  0.3368
 1170SOL    HW114972   0.447   3.176   8.966 -1.0742  1.1324  1.4014
 1170SOL    HW214973   0.544   3.199   9.071  1.8669 -1.3924  0.2360
 1171SOL     OW14974   0.050   1.086   0.339  0.2780  0.0015  0.1392
 1171SOL    HW114975   0.108   1.076   0.414 -0.1547 -0.6196  0.3882
 1171SOL    HW214976   0.042   0.996   0.309 -2.0864  0.1536  0.2869
 1172SOL     OW14977   4.620   3.705   8.652 -0.6162  0.8719  0.1656
 1172SOL    HW114978   4.711   3.732   8.647 -0.4344  0.2159 -0.0274
 1172SOL    HW214979   4.622   3.652   8.732  0.7439 -0.9846 -1.1156
 1173SOL     OW14980   0.377   1.700   7.419 -0.0960 -0.0375  0.1154
 1173SOL    HW114981   0.336   1.777   7.458  2.2945 -0.1912  2.9728
 1173SOL    HW214982   0.364   1.635   7.488  1.5898 -0.6674 -0.1399
 1174SOL     OW14983   3.842   4.678   0.411  0.3858 -0.3319 -0.0803
 1174SOL    HW114984   3.862   0.027   0.353 -0.3794  0.7101  0.9695
 1174SOL    HW214985   3.878   4.707   0.495 -2.4933  0.3831  0.9327
 1175SOL     OW14986   0.067   2.186   6.958 -0.0011 -0.5110 -0.5051
 1175SOL    HW114987   0.104   2.099   6.977 -1.8127 -0.8556  1.4755
 1175SOL    HW214988   0.089   2.233   7.039 -2.2213 -1.6006  0.7132
 1176SOL     OW14989   3.044   0.686   2.029 -0.2036 -0.6545  0.7288
 1176SOL    HW114990   3.138   0.684   2.014  0.0350  0.1183  2.1821
 1176SOL    HW214991   3.021   0.777   2.051  2.3557 -0.0599  0.9452
 1177SOL     OW14992   2.533   3.727   3.981  0.2121  0.0311 -0.0898
 1177SOL    HW114993   2.526   3.807   3.929  0.5615 -0.1358 -0.3928
 1177SOL    HW214994   2.617   3.737   4.026  0.5066  0.5935 -0.7579
 1178SOL     OW14995   0.681   4.653   5.564  0.1008 -0.3687 -0.0068
 1178SOL    HW114996   0.601   4.658   5.513  0.6025  1.8180 -0.5813
 1178SOL    HW214997   0.733   4.703   5.501  3.3388 -0.8200  2.3102
 1179SOL     OW14998   2.548   1.928   2.459 -0.0920 -0.1173 -0.0859
 1179SOL    HW114999   2.546   2.020   2.433 -1.4876 -0.3552 -0.8375
 1179SOL    HW215000   2.611   1.886   2.401 -1.4084 -0.1307 -1.5205
 1180SOL     OW15001   0.126   2.922   7.639 -0.0675  0.4526 -0.3520
 1180SOL    HW115002   0.194   2.964   7.587  0.1564  0.9646  0.3530
 1180SOL    HW215003   0.152   2.946   7.728 -1.0918 -0.9475  0.3269
 1181SOL     OW15004   4.199   1.319   1.219  0.1996 -0.2998 -0.1335
 1181SOL    HW115005   4.120   1.322   1.166 -0.3026  1.5497  0.7285
 1181SOL    HW215006   4.253   1.385   1.177  0.4060  0.2613  0.9994
 1182SOL     OW15007   0.454   0.710   4.409 -0.2559  0.4802 -0.1123
 1182SOL    HW115008   0.460   0.639   4.345 -1.1778  0.2817  0.0213
 1182SOL    HW215009   0.361   0.714   4.430 -0.5038  0.8444 -1.3098
 1183SOL     OW15010   1.105   0.123   7.425 -0.0159  0.1901  0.2615
 1183SOL    HW115011   1.120   0.029   7.433 -0.6664  0.1532  1.0219
 1183SOL    HW215012   1.032   0.138   7.485  0.1571  0.5524  0.3846
 1184SOL     OW15013   0.436   4.158  13.491 -0.3743  0.3058  0.2015
 1184SOL    HW115014   0.342   4.167  13.473 -0.1489  2.8298  0.2213
 1184SOL    HW215015   0.438   4.063  13.483 -1.3201  0.4752 -2.2955
 1185SOL     OW15016   2.423   0.652   7.679 -0.3629  0.2247 -0.2822
 1185SOL    HW115017   2.333   0.685   7.685 -0.9814 -1.4588 -0.3413
 1185SOL    HW215018   2.450   0.689   7.762 -1.3437 -0.6430  0.4345
 1186SOL     OW15019   0.743   3.567  12.937  0.1245 -0.1098 -0.3903
 1186SOL    HW115020   0.698   3.498  12.889  0.8890  0.1064 -1.4278
 1186SOL    HW215021   0.812   3.511  12.974  1.1767  1.0759 -0.5459
 1187SOL     OW15022   2.758   3.402  14.552 -0.0942  0.1391  0.6553
 1187SOL    HW115023   2.829   3.345  14.580  1.4427  1.4412 -0.6049
 1187SOL    HW215024   2.687   3.345  14.582 -0.2579  0.6075  1.1569
 1188SOL     OW15025   0.558   4.200   1.278 -0.3505 -0.3355  0.6096
 1188SOL    HW115026   0.482   4.144   1.291 -0.4336 -0.1859  0.7733
 1188SOL    HW215027   0.611   4.169   1.351  0.6064  0.9657  0.4783
 1189SOL     OW15028   2.147   0.593  16.501  0.5622 -0.0301  1.1518
 1189SOL    HW115029   2.225   0.645  16.520  1.6146 -0.6796 -1.4503
 1189SOL    HW215030   2.089   0.645  16.446 -1.1074 -2.0566  1.0058
 1190SOL     OW15031   3.875   2.526  16.842 -0.2852  0.3769 -0.3064
 1190SOL    HW115032   3.922   2.570  16.772 -0.6628 -0.5515 -1.1481
 1190SOL    HW215033   3.854   2.603  16.895  0.9962 -0.5797  1.6118
 1191SOL     OW15034   4.587   1.210   4.027 -0.5631  0.4800  0.0797
 1191SOL    HW115035   4.677   1.230   4.052 -0.2233 -0.5867 -0.2863
 1191SOL    HW215036   4.577   1.247   3.939  0.0872 -0.3938 -0.3650
 1192SOL     OW15037   0.837   1.630  16.341 -0.5277 -0.8654  0.4979
 1192SOL    HW115038   0.875   1.555  16.296 -1.0756 -0.1782 -1.1177
 1192SOL    HW215039   0.751   1.642  16.300 -1.1879  2.3596  2.8409
 1193SOL     OW15040   2.156   3.659  12.053  0.6233 -0.4754 -0.1047
 1193SOL    HW115041   2.240   3.704  12.044 -0.5441  1.5211 -0.9843
 1193SOL    HW215042   2.150   3.594  11.983 -1.6407  0.1682 -0.5090
 1194SOL     OW15043   3.120   4.284  17.072  0.2500 -0.2317 -0.0861
 1194SOL    HW115044   3.154   4.291  17.161  0.2957 -1.5821  0.0139
 1194SOL    HW215045   3.042   4.340  17.068  0.5970  0.4661  3.1982
 1195SOL     OW15046   3.333   1.951   0.808 -0.3987 -0.3042 -0.1886
 1195SOL    HW115047   3.244   1.945   0.844 -0.6301 -1.3231 -0.9174
 1195SOL    HW215048   3.335   2.039   0.770  2.1770  0.0844  0.8583
 1196SOL     OW15049   4.584   4.147   3.142  0.2164 -0.1356  0.1784
 1196SOL    HW115050   4.542   4.214   3.088  0.6415 -0.3875 -0.4582
 1196SOL    HW215051   4.525   4.074   3.126  1.1478 -0.3486 -2.1763
 1197SOL     OW15052   1.645   0.250   1.782  0.0667 -0.3829  0.0285
 1197SOL    HW115053   1.593   0.240   1.862 -0.6053  3.1815  0.0058
 1197SOL    HW215054   1.733   0.229   1.814  0.0665  0.1458  0.3783
 1198SOL     OW15055   0.497   4.246   1.761  0.4997  0.1427 -0.8492
 1198SOL    HW115056   0.432   4.316   1.753  0.9383  0.6381 -0.1090
 1198SOL    HW215057   0.443   4.167   1.756 -0.3335  0.5661  1.2769
 1199SOL     OW15058   4.653   1.750   3.540 -0.6516  0.4617 -0.2986
 1199SOL    HW115059   4.677   1.701   3.462 -0.4057 -0.6237  0.4543
 1199SOL    HW215060   4.724   1.811   3.560 -0.8681  0.5291  0.2515
 1200SOL     OW15061   3.342   1.036   3.555 -0.2581 -0.2534  0.5866
 1200SOL    HW115062   3.379   1.048   3.467  2.1024 -0.5001  1.5409
 1200SOL    HW215063   3.389   0.958   3.584 -0.3702  0.5114  2.8056
 1201SOL     OW15064   3.229   1.600   2.306 -0.1839  0.0079  0.2631
 1201SOL    HW115065   3.276   1.678   2.335 -0.4543  0.6585 -1.0229
 1201SOL    HW215066   3.268   1.533   2.362 -1.0970 -1.2807 -0.6609
 1202SOL     OW15067   2.436   1.553   5.964  0.8150  0.3684 -0.3135
 1202SOL    HW115068   2.455   1.547   6.058 -2.8883 -1.0638  0.3434
 1202SOL    HW215069   2.472   1.638   5.940  4.5764 -0.8995  0.8547
 1203SOL     OW15070   0.828   3.581   7.605  0.4977 -0.3270  0.1132
 1203SOL    HW115071   0.773   3.560   7.680  1.7554  0.1610  1.1757
 1203SOL    HW215072   0.867   3.660   7.642  1.2819 -0.2334 -0.9246
 1204SOL     OW15073   4.596   0.008   3.249  0.0815  0.0004  0.7565
 1204SOL    HW115074   4.514   4.699   3.286 -0.4576 -0.9178 -1.2655
 1204SOL    HW215075   4.574   0.086   3.198  0.7659 -0.0447  0.3989
 1205SOL     OW15076   2.330   0.916   4.223  0.3833  0.0132 -0.2216
 1205SOL    HW115077   2.252   0.865   4.201  1.5678 -1.2710 -1.4184
 1205SOL    HW215078   2.358   0.927   4.132 -1.5844  0.9615 -0.7097
 1206SOL     OW15079   2.860   1.602   0.972 -0.3494  0.0072  0.2256
 1206SOL    HW115080   2.913   1.574   0.897  0.4952 -1.5178  1.3844
 1206SOL    HW215081   2.822   1.687   0.950 -0.0343 -0.1173 -0.8174
 1207SOL     OW15082   1.099   1.283   7.290  0.2318  0.0648  0.1684
 1207SOL    HW115083   1.094   1.255   7.199 -1.9474 -0.5668  0.4755
 1207SOL    HW215084   1.153   1.209   7.320  1.8274  1.1176 -0.1225
 1208SOL     OW15085   3.689   0.757  11.115 -0.0178  0.0012  0.4645
 1208SOL    HW115086   3.599   0.735  11.139  0.4600 -0.9748  1.3462
 1208SOL    HW215087   3.743   0.695  11.164 -0.4443 -1.5572 -1.0169
 1209SOL     OW15088   1.638   1.456   6.151  0.0407  0.1004 -0.1668
 1209SOL    HW115089   1.725   1.435   6.116  0.2332  1.2312 -0.3746
 1209SOL    HW215090   1.640   1.407   6.233 -1.8772 -0.1625 -0.2722
 1210SOL     OW15091   2.716   1.170   5.114  0.0361  0.2656  0.0584
 1210SOL    HW115092   2.629   1.130   5.110 -0.7261  1.9437  0.2356
 1210SOL    HW215093   2.754   1.164   5.026 -0.7955 -1.8931 -0.1615
 1211SOL     OW15094   2.324   4.508   9.418 -0.5414  0.8351  0.2974
 1211SOL    HW115095   2.299   4.598   9.438 -1.9823  0.7047 -0.9531
 1211SOL    HW215096   2.337   4.504   9.323 -0.9510  0.6987  0.2475
 1212SOL     OW15097   0.651   2.860  13.531 -0.4210  0.1381 -0.1063
 1212SOL    HW115098   0.570   2.910  13.540 -1.3762 -1.7103  1.6193
 1212SOL    HW215099   0.617   2.771  13.526  0.2927 -0.0023 -2.4402
 1213SOL     OW15100   1.428   2.850   1.476  0.2720  0.1644  0.3893
 1213SOL    HW115101   1.384   2.933   1.494  0.5395  0.5952 -0.9198
 1213SOL    HW215102   1.425   2.800   1.558 -1.1653 -1.0867 -0.4427
 1214SOL     OW15103   0.174   1.932   9.564 -0.5677  0.0982  0.2513
 1214SOL    HW115104   0.104   1.943   9.628  0.2810 -0.3878  1.2574
 1214SOL    HW215105   0.158   1.844   9.529  2.2413  0.5173 -2.0800
 1215SOL     OW15106   4.019   1.242   1.405  0.2050 -0.3335  0.5319
 1215SOL    HW115107   4.009   1.333   1.434 -0.4098 -1.0805  2.6510
 1215SOL    HW215108   4.092   1.254   1.343 -1.8867 -0.6526 -1.9969
 1216SOL     OW15109   0.901   3.031   5.253  0.2034 -0.1494 -0.7004
 1216SOL    HW115110   0.847   3.100   5.291  0.0269  0.3542 -1.8709
 1216SOL    HW215111   0.954   3.072   5.185  0.2249  0.4014 -0.3515
 1217SOL     OW15112   1.870   3.726   3.973  0.3451 -0.1796  0.1445
 1217SOL    HW115113   1.809   3.652   3.975 -1.1170  0.9703 -2.0943
 1217SOL    HW215114   1.931   3.682   4.033  2.4924 -0.1562 -2.0070
 1218SOL     OW15115   1.535   3.520   0.404  0.5016 -0.6020 -0.3942
 1218SOL    HW115116   1.509   3.489   0.318  0.0785  0.3178 -0.5923
 1218SOL    HW215117   1.511   3.441   0.452  1.0451  0.6973  2.0471
 1219SOL     OW15118   0.819   1.408   6.804  0.0184  0.1870  0.4823
 1219SOL    HW115119   0.830   1.496   6.769  0.6629  0.1547  0.6194
 1219SOL    HW215120   0.880   1.363   6.745  2.3022  1.9223  1.5360
 1220SOL     OW15121   3.426   1.177  11.007 -0.3041  0.3062  0.3945
 1220SOL    HW115122   3.428   1.099  11.062  0.7446 -0.8141 -1.2298
 1220SOL    HW215123   3.519   1.198  10.997 -0.1569  0.1545  1.5276
 1221SOL     OW15124   1.742   1.417  16.314 -0.0059 -0.3186  0.1061
 1221SOL    HW115125   1.701   1.486  16.263  2.8935  1.1430 -0.2553
 1221SOL    HW215126   1.716   1.445  16.402  2.0489 -0.2850  0.7174
 1222SOL     OW15127   2.408   3.943   4.475 -0.3210 -0.4262 -0.1766
 1222SOL    HW115128   2.411   3.995   4.394  0.4241 -0.1932 -0.0019
 1222SOL    HW215129   2.377   3.856   4.451 -1.0701 -0.1994 -0.0245
 1223SOL     OW15130   0.598   1.318  16.930 -0.6612  0.1760  0.7825
 1223SOL    HW115131   0.532   1.382  16.907  0.3878  0.0787 -2.5238
 1223SOL    HW215132   0.568   1.253  16.866  1.3495 -0.3783  0.3708
 1224SOL     OW15133   4.477   2.761  11.160 -0.2694  0.1330  0.3193
 1224SOL    HW115134   4.438   2.676  11.183 -1.2863  0.9454  1.5946
 1224SOL    HW215135   4.565   2.737  11.130  0.0649  0.8405  0.7532
 1225SOL     OW15136   2.619   3.777  10.804  0.2341  0.5388  0.3536
 1225SOL    HW115137   2.628   3.872  10.794  0.6331  0.3277 -1.3063
 1225SOL    HW215138   2.524   3.769  10.812  0.6132 -2.1180  2.2809
 1226SOL     OW15139   3.041   4.385   6.305 -0.2713  0.1348  0.1735
 1226SOL    HW115140   2.964   4.441   6.296  0.1303  0.4969 -1.0241
 1226SOL    HW215141   3.110   4.438   6.266 -0.8099 -1.4706 -2.9831
 1227SOL     OW15142   1.539   4.638   5.106 -0.6979  0.2355  0.1039
 1227SOL    HW115143   1.563   4.722   5.145  0.4368 -0.0516  0.0034
 1227SOL    HW215144   1.450   4.652   5.073 -0.7584 -0.4439 -0.0152
 1228SOL     OW15145   3.247   4.665   3.123 -0.9642  0.2785  0.3384
 1228SOL    HW115146   3.183   0.007   3.097 -1.1956 -0.1986 -0.3079
 1228SOL    HW215147   3.267   4.641   3.032 -1.3268  3.8728 -0.6768
 1229SOL     OW15148   1.461   1.686  10.137 -0.1794 -0.1099  0.2721
 1229SOL    HW115149   1.396   1.751  10.110  1.8551  1.7651 -0.1009
 1229SOL    HW215150   1.469   1.629  10.061  0.0797  2.5017 -1.6515
 1230SOL     OW15151   1.777   3.707  13.752 -0.2360  0.2971  0.8361
 1230SOL    HW115152   1.734   3.698  13.667  2.6874 -1.5458 -0.4360
 1230SOL    HW215153   1.731   3.632  13.791  0.9487 -1.2861 -0.8067
 1231SOL     OW15154   1.259   1.059   7.325  0.3737 -0.5924 -0.1371
 1231SOL    HW115155   1.204   0.980   7.323 -0.6891  0.0548  3.2653
 1231SOL    HW215156   1.334   1.032   7.379  0.0766 -0.6665  0.2427
 1232SOL     OW15157   0.457   0.398   7.199  0.2313  0.5792 -0.4589
 1232SOL    HW115158   0.365   0.425   7.197  0.5715  1.8249  0.4878
 1232SOL    HW215159   0.490   0.425   7.285  0.3495 -0.4285 -0.1813
 1233SOL     OW15160   3.775   1.297   7.091 -0.2502  0.2122  0.0139
 1233SOL    HW115161   3.745   1.207   7.080  0.8724 -0.3985  2.0666
 1233SOL    HW215162   3.818   1.296   7.176 -1.7690  0.1122  0.7888
 1234SOL     OW15163   2.181   0.123   3.411 -0.2997 -0.1592 -0.1758
 1234SOL    HW115164   2.255   0.158   3.460 -1.7631  0.5448  1.5450
 1234SOL    HW215165   2.132   0.203   3.388 -0.0858 -0.2235 -0.8631
 1235SOL     OW15166   1.188   3.820   3.931 -0.2889  0.3147  0.0958
 1235SOL    HW115167   1.158   3.795   4.018  0.8666 -0.4053  0.2886
 1235SOL    HW215168   1.269   3.769   3.927  0.0271  0.7166  1.6570
 1236SOL     OW15169   4.028   2.156  10.305  0.4874 -0.2266 -0.3870
 1236SOL    HW115170   4.007   2.078  10.254 -1.1314  0.1361 -0.2843
 1236SOL    HW215171   3.997   2.227  10.249  0.7269  1.0531  1.1046
 1237SOL     OW15172   0.061   3.777   6.474  0.6119 -0.2027  0.3417
 1237SOL    HW115173   0.004   3.845   6.510  0.6004  0.6299 -1.2473
 1237SOL    HW215174   0.028   3.698   6.518 -1.8193  0.0631 -0.9833
 1238SOL     OW15175   1.024   4.557  11.090 -0.2758 -0.0504  0.2292
 1238SOL    HW115176   0.978   4.500  11.151 -0.5767 -1.2510 -1.1146
 1238SOL    HW215177   1.062   4.615  11.156 -0.4551  2.3126 -1.7468
 1239SOL     OW15178   4.327   1.528   8.506 -0.0089 -0.3201  0.6926
 1239SOL    HW115179   4.286   1.593   8.450 -0.0314 -0.6183  0.3666
 1239SOL    HW215180   4.409   1.576   8.520  0.7887 -2.0628  2.0653
 1240SOL     OW15181   2.678   0.375   9.249  0.0989 -0.4044 -0.5140
 1240SOL    HW115182   2.760   0.339   9.217  1.3849  1.7790  0.3540
 1240SOL    HW215183   2.703   0.448   9.305 -0.6740  0.1981 -0.9474
 1241SOL     OW15184   1.572   4.487   5.695  0.1129 -0.3690  0.0539
 1241SOL    HW115185   1.512   4.532   5.636  1.2605 -0.9628 -1.5628
 1241SOL    HW215186   1.560   4.535   5.777 -1.7397 -1.9744  0.7137
 1242SOL     OW15187   2.950   3.061   9.813  0.0177  0.9605  0.2344
 1242SOL    HW115188   2.987   2.975   9.790 -0.4335  0.6616  0.6257
 1242SOL    HW215189   2.865   3.040   9.852  1.8614 -2.0591  2.5424
 1243SOL     OW15190   4.596   2.198   2.698  0.2829 -0.0548  0.1660
 1243SOL    HW115191   4.689   2.197   2.674 -0.3309 -0.8847 -2.1137
 1243SOL    HW215192   4.559   2.172   2.614  0.0533  1.7829 -0.3052
 1244SOL     OW15193   2.944   3.211   5.479 -0.4733 -0.5035  0.2922
 1244SOL    HW115194   3.006   3.268   5.527  0.1845  0.0411 -1.2030
 1244SOL    HW215195   2.902   3.272   5.418  0.7769 -0.5474 -0.6199
 1245SOL     OW15196   1.368   3.622   2.606 -0.4964 -0.2163  0.6091
 1245SOL    HW115197   1.446   3.674   2.627 -0.0872 -1.2510  1.6919
 1245SOL    HW215198   1.343   3.654   2.519  0.0121 -2.4957 -0.3719
 1246SOL     OW15199   0.243   1.064  13.820  0.1045 -0.1746 -0.1218
 1246SOL    HW115200   0.217   1.083  13.910  1.0100 -0.3659  0.1724
 1246SOL    HW215201   0.272   0.973  13.829 -2.1690 -0.9544 -0.5122
 1247SOL     OW15202   0.048   3.547  12.427 -0.1630  0.9733 -0.3228
 1247SOL    HW115203   0.062   3.555  12.521  0.1890 -1.2909 -0.1843
 1247SOL    HW215204   0.092   3.465  12.404 -1.0098 -0.4363  3.0863
 1248SOL     OW15205   0.809   2.859  14.864 -0.5000  0.0717 -0.0020
 1248SOL    HW115206   0.737   2.910  14.900  0.5117  0.4677  1.4493
 1248SOL    HW215207   0.860   2.910  14.801 -1.1223 -1.0772 -1.4281
 1249SOL     OW15208   2.144   4.061   1.831  0.4901 -0.3643  0.0589
 1249SOL    HW115209   2.187   3.975   1.834  1.7138  0.2716  1.3382
 1249SOL    HW215210   2.103   4.053   1.745  1.2531  0.3362 -0.3747
 1250SOL     OW15211   2.804   4.402  15.269 -0.0434  0.1329 -0.6857
 1250SOL    HW115212   2.788   4.436  15.357 -1.5501  0.2842 -1.0130
 1250SOL    HW215213   2.722   4.356  15.249 -0.0116 -0.0059 -0.4899
 1251SOL     OW15214   2.410   1.909   4.738 -0.0619 -0.0335 -0.3216
 1251SOL    HW115215   2.329   1.859   4.727 -0.2674  0.4290 -0.8918
 1251SOL    HW215216   2.446   1.908   4.649  0.8183  0.7328  0.0327
 1252SOL     OW15217   1.206   2.535  11.758  0.5138  0.3881 -0.5249
 1252SOL    HW115218   1.234   2.622  11.729  2.3765 -1.1411 -3.3515
 1252SOL    HW215219   1.123   2.563  11.796  0.8532  2.7119 -1.4530
 1253SOL     OW15220   2.645   2.336   7.458 -0.2287  0.2352 -0.1221
 1253SOL    HW115221   2.591   2.260   7.480  2.4011 -2.4539 -2.8222
 1253SOL    HW215222   2.723   2.311   7.507  1.6333 -0.1339 -3.2526
 1254SOL     OW15223   1.263   4.367   0.051 -0.1619  0.4270 -0.2838
 1254SOL    HW115224   1.184   4.386   0.001 -0.4566  1.0719  0.4299
 1254SOL    HW215225   1.239   4.374   0.143  1.2178 -1.6638  0.2390
 1255SOL     OW15226   4.308   1.916   6.631  0.7790  0.4205  0.4270
 1255SOL    HW115227   4.336   1.869   6.552  0.6251  0.8607  0.1102
 1255SOL    HW215228   4.310   2.005   6.598 -0.0056 -0.1433 -1.1430
 1256SOL     OW15229   0.748   3.741   5.821 -0.3265  0.8339  0.1936
 1256SOL    HW115230   0.665   3.705   5.791 -0.6977  0.8573  1.1975
 1256SOL    HW215231   0.710   3.791   5.894  2.3498 -0.1853  2.2943
 1257SOL     OW15232   4.711   2.395   5.007 -0.0958 -0.0901  0.2824
 1257SOL    HW115233   0.006   2.337   4.933 -0.6699 -0.2178  0.2344
 1257SOL    HW215234   0.035   2.349   5.076  1.5677 -0.2410 -0.9904
 1258SOL     OW15235   1.470   2.099   6.556 -0.0630 -0.0914  0.2873
 1258SOL    HW115236   1.486   2.124   6.647 -0.2425  0.3316  0.2044
 1258SOL    HW215237   1.425   2.015   6.564 -1.7977  0.8673  0.7425
 1259SOL     OW15238   0.245   1.534   0.608 -0.0166  0.0202  0.2844
 1259SOL    HW115239   0.304   1.568   0.541  1.7812  0.3071  2.0459
 1259SOL    HW215240   0.183   1.605   0.625 -0.4963 -0.7033  1.5486
 1260SOL     OW15241   4.444   0.909   6.994 -0.1607 -0.3401 -0.1124
 1260SOL    HW115242   4.375   0.893   6.929 -2.3597  1.9364  1.6656
 1260SOL    HW215243   4.506   0.841   6.969 -1.0401 -0.3666 -2.2335
 1261SOL     OW15244   3.247   1.632   1.766 -0.7114  0.0574  0.5413
 1261SOL    HW115245   3.245   1.569   1.693  0.7482 -1.8315  2.1259
 1261SOL    HW215246   3.171   1.688   1.749 -1.1864 -0.6270  0.3928
 1262SOL     OW15247   0.805   1.325   5.468 -0.0726 -0.4631  0.3358
 1262SOL    HW115248   0.831   1.296   5.555  0.2828 -0.0587  0.3656
 1262SOL    HW215249   0.872   1.393   5.456  0.8819 -1.2105  1.4412
 1263SOL     OW15250   0.588   2.085   5.469  0.4259 -0.1242  0.0922
 1263SOL    HW115251   0.669   2.044   5.439  0.2529 -0.1594 -0.3272
 1263SOL    HW215252   0.564   2.006   5.519 -0.1319 -0.6038 -0.9495
 1264SOL     OW15253   4.365   3.406  11.471 -0.1540 -0.1731 -0.2110
 1264SOL    HW115254   4.361   3.378  11.380  0.6488  0.3672 -0.4050
 1264SOL    HW215255   4.395   3.322  11.506  0.8242  0.9292  1.6053
 1265SOL     OW15256   0.060   3.419   4.223  0.0460  0.0332  0.1662
 1265SOL    HW115257   0.092   3.335   4.190 -2.0472 -0.4635 -0.6289
 1265SOL    HW215258   0.133   3.456   4.272  0.1637 -0.5924  0.4584
 1266SOL     OW15259   2.951   4.237   5.991 -0.1790  0.1376  0.2702
 1266SOL    HW115260   3.046   4.247   5.999 -0.2710  0.6232  0.7954
 1266SOL    HW215261   2.934   4.315   6.044 -0.8741  0.2836 -0.1706
 1267SOL     OW15262   3.444   0.556  15.593 -0.0752  0.2126  0.2744
 1267SOL    HW115263   3.515   0.570  15.530 -0.7816 -0.4543 -0.6823
 1267SOL    HW215264   3.471   0.620  15.659  2.4021 -1.0036  0.4450
 1268SOL     OW15265   4.470   2.271   4.487 -0.2674  0.2469 -0.3108
 1268SOL    HW115266   4.381   2.298   4.464 -0.6988 -0.2417  0.7437
 1268SOL    HW215267   4.510   2.275   4.400 -1.1072 -0.2076 -0.7233
 1269SOL     OW15268   3.445   4.468   7.196 -0.0302 -0.1516  0.0377
 1269SOL    HW115269   3.477   4.437   7.281 -3.1693  0.0342  1.2782
 1269SOL    HW215270   3.480   4.398   7.140 -0.2256 -0.1158 -0.1267
 1270SOL     OW15271   4.130   3.024   5.609 -0.9331 -0.1533  0.1744
 1270SOL    HW115272   4.169   3.032   5.696 -0.2881  0.5460 -0.1795
 1270SOL    HW215273   4.080   3.105   5.607 -2.3976 -1.1169 -1.5771
 1271SOL     OW15274   1.037   3.502  11.689  0.0567 -0.5215  0.4313
 1271SOL    HW115275   1.103   3.436  11.710 -1.8010 -1.8650  2.1522
 1271SOL    HW215276   0.959   3.449  11.704 -0.5100  0.6519  1.5867
 1272SOL     OW15277   0.079   1.780   0.855  0.2181  0.3924  0.8960
 1272SOL    HW115278   0.168   1.770   0.888  0.3777 -3.3937 -0.7510
 1272SOL    HW215279   0.064   1.874   0.843 -1.2470  0.0484  0.0701
 1273SOL     OW15280   4.718   0.354  10.142  0.2059  0.1003 -0.0831
 1273SOL    HW115281   0.074   0.369  10.190  0.9050  1.1931 -1.5985
 1273SOL    HW215282   0.029   0.338  10.055 -1.0670 -0.6760 -0.4661
 1274SOL     OW15283   2.379   1.980   5.248 -0.1633 -0.2682  0.2783
 1274SOL    HW115284   2.303   1.962   5.303 -0.6646 -2.0657 -1.0292
 1274SOL    HW215285   2.332   1.995   5.166 -1.4480 -1.0240  0.8867
 1275SOL     OW15286   2.793   4.036   6.111 -0.1980 -0.0840 -0.2211
 1275SOL    HW115287   2.710   4.073   6.082 -0.5644 -0.8248 -0.1234
 1275SOL    HW215288   2.851   4.087   6.054 -1.3039 -1.2768 -2.4218
 1276SOL     OW15289   1.587   3.381  12.552 -0.3315  0.2346 -0.5877
 1276SOL    HW115290   1.657   3.375  12.487  0.3694  4.1227 -0.1663
 1276SOL    HW215291   1.634   3.382  12.635 -1.1887 -0.7492 -0.0922
 1277SOL     OW15292   2.115   0.879   9.054 -0.5838  0.2485 -0.2045
 1277SOL    HW115293   2.168   0.950   9.018 -0.6501  0.4472  0.0861
 1277SOL    HW215294   2.041   0.922   9.096 -0.7812 -2.2047  1.9639
 1278SOL     OW15295   0.086   3.902   5.644 -0.0551  0.1849  0.1230
 1278SOL    HW115296   0.024   3.829   5.645 -0.9304  0.8992 -2.3641
 1278SOL    HW215297   0.065   3.946   5.726 -1.9079  0.8164 -0.6861
 1279SOL     OW15298   4.126   3.468  13.617  0.1643 -0.0577  0.0259
 1279SOL    HW115299   4.046   3.501  13.575 -0.0325 -0.0288  0.4132
 1279SOL    HW215300   4.104   3.458  13.710  1.0048  2.3653  0.5009
 1280SOL     OW15301   1.603   1.450   6.661 -0.4444 -0.0398  0.2677
 1280SOL    HW115302   1.653   1.460   6.742  2.1309 -0.7365 -1.2105
 1280SOL    HW215303   1.609   1.536   6.620 -0.7243  0.1809  0.6890
 1281SOL     OW15304   4.410   3.334   5.830 -0.3528 -0.0483  0.2280
 1281SOL    HW115305   4.353   3.410   5.842  0.2524  0.5039 -0.3252
 1281SOL    HW215306   4.491   3.363   5.873 -1.5652  2.4226  0.8381
 1282SOL     OW15307   0.795   2.742  11.730 -0.2577 -0.1008 -0.4264
 1282SOL    HW115308   0.801   2.646  11.737 -3.3174 -0.2820 -0.1413
 1282SOL    HW215309   0.889   2.761  11.731 -0.3455  0.3328 -0.6827
 1283SOL     OW15310   4.678   0.900  13.893  0.3127 -0.6955  0.8147
 1283SOL    HW115311   0.020   0.933  13.954 -0.6640  1.2159  0.8358
 1283SOL    HW215312   4.646   0.982  13.854  1.8838 -0.4732 -0.0279
 1284SOL     OW15313   1.524   3.696   4.184  1.0276  0.4745 -0.2335
 1284SOL    HW115314   1.528   3.791   4.175  3.8210  0.6693  2.6674
 1284SOL    HW215315   1.492   3.681   4.273 -1.9377  0.3107 -1.3373
 1285SOL     OW15316   3.728   4.491   7.413 -0.7142 -0.0455  0.6164
 1285SOL    HW115317   3.798   4.511   7.350  0.1577 -3.4951  0.4852
 1285SOL    HW215318   3.684   4.421   7.365  1.5030  0.4383 -2.1495
 1286SOL     OW15319   1.862   3.633  12.879 -0.4338  0.3935 -0.0299
 1286SOL    HW115320   1.853   3.549  12.923 -1.3186  1.9395  2.7113
 1286SOL    HW215321   1.908   3.606  12.799  0.6105  2.5327 -0.1595
 1287SOL     OW15322   4.371   3.462   1.797  0.0149 -0.2082 -0.3234
 1287SOL    HW115323   4.390   3.508   1.715  1.3827 -2.1237 -1.0930
 1287SOL    HW215324   4.319   3.390   1.760  1.3376 -0.8326 -0.9929
 1288SOL     OW15325   0.378   2.039   6.801 -0.2722 -0.3008 -0.0449
 1288SOL    HW115326   0.303   2.092   6.773 -0.2262  0.2834  0.9410
 1288SOL    HW215327   0.363   2.051   6.895  0.4707 -0.3157  0.0757
 1289SOL     OW15328   1.457   2.022   7.407  0.2876 -0.0555  0.2930
 1289SOL    HW115329   1.443   1.935   7.443 -4.4434  0.4028 -0.4450
 1289SOL    HW215330   1.538   2.041   7.454  1.2999 -0.2343 -1.4070
 1290SOL     OW15331   2.574   2.267   8.522  0.0133 -0.0151  0.1307
 1290SOL    HW115332   2.639   2.334   8.502  0.4502 -0.7638 -0.9267
 1290SOL    HW215333   2.624   2.188   8.501 -0.5717 -0.4172  0.2369
 1291SOL     OW15334   2.324   3.060   6.490 -0.0531 -0.2233  0.2264
 1291SOL    HW115335   2.245   3.104   6.458 -0.1870 -0.6345 -0.0036
 1291SOL    HW215336   2.299   3.035   6.578  0.8621 -2.5768 -0.1835
 1292SOL     OW15337   0.766   1.165   6.075 -0.4228 -0.0906 -0.0063
 1292SOL    HW115338   0.719   1.082   6.066 -1.0891  0.3723 -0.7165
 1292SOL    HW215339   0.826   1.126   6.140 -1.0403 -1.5191 -0.2828
 1293SOL     OW15340   3.909   4.442  15.846 -0.0735 -0.1559  0.5690
 1293SOL    HW115341   3.878   4.533  15.850 -0.2780 -0.1881 -0.1829
 1293SOL    HW215342   3.944   4.440  15.757  1.3329 -1.4398  1.1527
 1294SOL     OW15343   1.175   0.546   1.805 -0.2039  0.1005  0.0207
 1294SOL    HW115344   1.091   0.500   1.804  0.1659 -0.5740 -0.1713
 1294SOL    HW215345   1.246   0.482   1.811 -0.5361 -0.3414 -0.7989
 1295SOL     OW15346   4.126   2.189  15.623  0.0632 -0.2395  0.2798
 1295SOL    HW115347   4.093   2.276  15.597  0.7606 -0.0100  0.1580
 1295SOL    HW215348   4.176   2.211  15.702 -1.6879  1.6704  0.8627
 1296SOL     OW15349   2.998   2.611   5.129 -0.0235 -0.3319  0.5095
 1296SOL    HW115350   3.069   2.563   5.171  0.0176 -1.3573 -0.7344
 1296SOL    HW215351   3.018   2.702   5.152  2.9488 -0.8758 -0.0056
 1297SOL     OW15352   1.264   0.153   8.177  0.2805  0.6915 -0.1871
 1297SOL    HW115353   1.182   0.200   8.193  0.6078  1.1449  0.1315
 1297SOL    HW215354   1.324   0.227   8.172 -0.0315  1.1101  2.3118
 1298SOL     OW15355   3.565   3.288   7.629 -0.3653  0.0602 -0.3592
 1298SOL    HW115356   3.625   3.357   7.598 -1.4335  1.0525 -0.2251
 1298SOL    HW215357   3.609   3.260   7.709  1.4557 -0.6324 -1.6169
 1299SOL     OW15358   0.573   2.317  12.263 -0.5884  0.1064  0.1164
 1299SOL    HW115359   0.614   2.392  12.305  0.9189 -0.9732  0.5345
 1299SOL    HW215360   0.543   2.357  12.181  1.9831 -0.4495 -1.0976
 1300SOL     OW15361   3.739   4.570   8.267 -0.3427  0.1390  0.5241
 1300SOL    HW115362   3.782   4.644   8.225 -2.6417  1.1923  0.0227
 1300SOL    HW215363   3.689   4.603   8.342 -2.1469  0.6905 -0.9076
 1301SOL     OW15364   2.582   3.728  14.847  0.2263  0.3846 -0.1560
 1301SOL    HW115365   2.559   3.649  14.799 -1.0372  0.3166  0.5566
 1301SOL    HW215366   2.528   3.727  14.926 -2.4645 -1.8543 -2.0648
 1302SOL     OW15367   2.901   0.367   4.203 -0.3734 -0.4988 -0.3999
 1302SOL    HW115368   2.888   0.281   4.163 -0.4804 -0.4428 -0.4870
 1302SOL    HW215369   2.978   0.395   4.154 -0.0800  1.0134  0.9552
 1303SOL     OW15370   4.240   1.496  15.084  0.0066  0.2273  0.8119
 1303SOL    HW115371   4.241   1.461  14.995  1.1838  0.4680  0.7286
 1303SOL    HW215372   4.293   1.576  15.078  0.2653  0.1255  1.6951
 1304SOL     OW15373   3.035   3.063  11.796  0.0386  0.2799  0.9350
 1304SOL    HW115374   2.996   3.149  11.779 -0.1970 -0.1518 -0.7562
 1304SOL    HW215375   3.102   3.049  11.729 -1.1792  0.9431 -0.4318
 1305SOL     OW15376   0.527   1.868  14.257  0.3744 -0.1137  0.2398
 1305SOL    HW115377   0.565   1.931  14.319 -0.4465  2.5173 -1.9013
 1305SOL    HW215378   0.443   1.910  14.238  1.0400 -0.6920 -3.8339
 1306SOL     OW15379   2.098   3.787   4.598  0.5595 -0.3598 -0.0994
 1306SOL    HW115380   2.066   3.875   4.575 -0.3643 -1.3134 -2.4049
 1306SOL    HW215381   2.170   3.802   4.659  1.6291 -1.8186 -1.0066
 1307SOL     OW15382   0.202   2.657  16.617  0.1927 -0.3988 -0.0638
 1307SOL    HW115383   0.275   2.687  16.670  1.3957  1.2032 -2.5861
 1307SOL    HW215384   0.243   2.631  16.534  0.1650 -4.0574  1.1041
 1308SOL     OW15385   4.491   0.124  14.693 -0.4641 -0.4674  0.1580
 1308SOL    HW115386   4.573   0.168  14.670 -1.7168  1.5419 -0.4486
 1308SOL    HW215387   4.505   0.119  14.788  2.3599  1.3187 -0.1380
 1309SOL     OW15388   0.252   0.517   2.646 -0.3266 -0.2208  0.3879
 1309SOL    HW115389   0.193   0.501   2.719 -3.7528  2.1668 -1.8637
 1309SOL    HW215390   0.318   0.449   2.661  0.5633  0.4576 -0.3708
 1310SOL     OW15391   3.218   2.177  10.323 -0.1020 -0.2496 -0.5059
 1310SOL    HW115392   3.255   2.226  10.396  0.3736  0.4125 -1.1942
 1310SOL    HW215393   3.138   2.139  10.359  0.3662 -1.5458 -0.8573
 1311SOL     OW15394   3.818   1.724   5.747  0.2558  0.1303 -0.0373
 1311SOL    HW115395   3.741   1.763   5.705 -0.1433  0.9792  1.4881
 1311SOL    HW215396   3.788   1.664   5.814  0.9884  0.6047  0.7081
 1312SOL     OW15397   4.622   4.363   8.595 -0.5606 -0.7750 -0.3071
 1312SOL    HW115398   4.619   4.323   8.507 -0.7282  0.5914 -0.9173
 1312SOL    HW215399   4.620   4.287   8.653  0.8567 -2.0587 -1.9277
 1313SOL     OW15400   2.578   1.971   8.137 -0.3675  0.7424 -0.0412
 1313SOL    HW115401   2.549   1.977   8.228  0.1551 -1.3238  0.2667
 1313SOL    HW215402   2.670   1.998   8.139 -0.5725  1.4888 -0.6301
 1314SOL     OW15403   3.050   4.004  16.191 -0.1805  0.4474 -0.0594
 1314SOL    HW115404   3.011   4.014  16.104 -0.3183 -0.0375 -0.0553
 1314SOL    HW215405   2.967   3.997  16.238 -0.3925  1.9504 -0.2234
 1315SOL     OW15406   0.846   0.362  14.223 -0.0848 -0.3860 -0.4480
 1315SOL    HW115407   0.893   0.421  14.281  1.6830 -1.0269 -1.2236
 1315SOL    HW215408   0.867   0.402  14.139 -4.0212 -2.2526 -2.3628
 1316SOL     OW15409   2.553   4.199   3.714  0.2163  0.2036 -0.0325
 1316SOL    HW115410   2.490   4.178   3.645 -0.7747  1.4623  0.5031
 1316SOL    HW215411   2.633   4.223   3.667 -0.5627 -0.5677 -1.7894
 1317SOL     OW15412   1.289   1.461   6.921 -0.1423  0.0048 -0.7705
 1317SOL    HW115413   1.371   1.415   6.938  0.0956  1.0072  0.7635
 1317SOL    HW215414   1.308   1.527   6.987 -0.0890 -0.9502  0.1588
 1318SOL     OW15415   0.657   1.523   5.173  0.0727  0.0932  0.0893
 1318SOL    HW115416   0.641   1.608   5.130  2.7770  1.0997  1.0942
 1318SOL    HW215417   0.745   1.538   5.207  0.4427  1.1368 -1.3338
 1319SOL     OW15418   0.586   0.131   6.055 -0.1451  0.2555  0.4144
 1319SOL    HW115419   0.679   0.151   6.045  0.8709 -4.4545  0.5430
 1319SOL    HW215420   0.578   0.170   6.142 -2.2987  0.7011  0.0298
 1320SOL     OW15421   1.599   1.538   4.917  0.4339 -0.3471 -0.4288
 1320SOL    HW115422   1.610   1.499   4.830 -1.4061 -0.3209 -0.6763
 1320SOL    HW215423   1.512   1.579   4.919  0.0918 -0.9595 -1.9861
 1321SOL     OW15424   0.742   0.713   1.174  0.3037 -0.3405 -0.3016
 1321SOL    HW115425   0.831   0.691   1.145 -1.1870 -2.9006 -2.9887
 1321SOL    HW215426   0.728   0.799   1.135  0.4583 -0.2397 -0.1310
 1322SOL     OW15427   3.466   0.720  15.318  0.0882 -0.1014 -0.0358
 1322SOL    HW115428   3.433   0.656  15.256 -1.3472  1.8768 -1.3034
 1322SOL    HW215429   3.541   0.671  15.351  0.2581 -0.1512 -0.5040
 1323SOL     OW15430   1.083   0.233  13.789 -0.1132  0.8798  0.0901
 1323SOL    HW115431   1.101   0.320  13.824  0.2019  1.1787 -0.8204
 1323SOL    HW215432   1.158   0.181  13.816 -2.1537 -2.9022 -1.4888
 1324SOL     OW15433   3.288   1.156   0.842  0.1404 -0.0367  0.3521
 1324SOL    HW115434   3.303   1.148   0.937  1.3989 -2.4627 -0.0386
 1324SOL    HW215435   3.377   1.175   0.811  0.5729  1.1562  2.2856
 1325SOL     OW15436   4.408   0.850   9.162  0.5482  0.4501 -0.0411
 1325SOL    HW115437   4.497   0.835   9.194 -0.0849  2.5094  2.7391
 1325SOL    HW215438   4.361   0.876   9.241 -0.9485  1.8895 -1.4039
 1326SOL     OW15439   4.426   0.698   8.245 -0.1254  0.0921  0.3231
 1326SOL    HW115440   4.420   0.786   8.209  2.1086 -0.3890 -1.2141
 1326SOL    HW215441   4.465   0.653   8.170 -0.3489  1.1188 -0.4133
 1327SOL     OW15442   0.164   1.220   7.686  0.2907  0.0768 -0.0604
 1327SOL    HW115443   0.090   1.277   7.705  1.1038  0.5892  1.5160
 1327SOL    HW215444   0.234   1.260   7.737 -0.3917 -1.1138  1.7977
 1328SOL     OW15445   2.982   3.772   0.097 -0.2555  0.0699 -0.0877
 1328SOL    HW115446   3.053   3.720   0.058 -1.5645  0.4577 -2.9976
 1328SOL    HW215447   2.904   3.718   0.100  0.9121 -1.7148 -1.5494
 1329SOL     OW15448   3.972   0.236   2.940 -0.3335  0.2463  0.2922
 1329SOL    HW115449   3.937   0.320   2.969  1.1594  0.0738  2.5486
 1329SOL    HW215450   4.025   0.258   2.864 -0.0178 -3.1838 -0.4596
 1330SOL     OW15451   3.567   1.516   6.730  0.1231  0.1619 -0.2303
 1330SOL    HW115452   3.585   1.534   6.638  1.4972 -0.2139 -0.0277
 1330SOL    HW215453   3.602   1.597   6.766  1.4296 -0.0541 -1.0273
 1331SOL     OW15454   4.595   3.735   5.683 -0.1000 -0.3941  0.0202
 1331SOL    HW115455   4.567   3.736   5.775 -0.0203  2.5431  0.0179
 1331SOL    HW215456   4.528   3.780   5.631 -0.2790  0.5885  1.0887
 1332SOL     OW15457   0.531   2.965   9.302 -0.1508  0.1424  0.0097
 1332SOL    HW115458   0.513   3.055   9.273 -1.0402  0.5674  1.8893
 1332SOL    HW215459   0.615   2.988   9.342  0.6607  0.7144 -2.0557
 1333SOL     OW15460   2.852   4.489  10.257  1.2066  0.0209  0.2112
 1333SOL    HW115461   2.856   4.579  10.290  0.2076 -0.2386  1.0399
 1333SOL    HW215462   2.860   4.443  10.341  2.8311 -1.0439 -0.5356
 1334SOL     OW15463   3.894   4.636   7.242  0.2828  0.1340 -0.0013
 1334SOL    HW115464   3.876   0.002   7.218  2.7652  0.3836 -0.9213
 1334SOL    HW215465   3.984   4.641   7.274  1.0240 -0.6851 -1.9639
 1335SOL     OW15466   3.519   1.329   0.588 -0.0045 -0.8354  0.0347
 1335SOL    HW115467   3.604   1.373   0.580 -1.6323  2.6688  2.1549
 1335SOL    HW215468   3.541   1.263   0.654  0.8695  0.6782  1.2494
 1336SOL     OW15469   0.904   2.544  16.954 -0.2937 -0.2665  0.3272
 1336SOL    HW115470   0.866   2.557  16.867  1.9510 -1.7643 -0.8828
 1336SOL    HW215471   0.929   2.452  16.946 -1.3368 -0.4931 -0.3081
 1337SOL     OW15472   0.484   3.704  15.649 -0.4000 -0.3850  0.7252
 1337SOL    HW115473   0.437   3.699  15.732 -3.1411 -2.3001 -0.9208
 1337SOL    HW215474   0.522   3.790  15.660  1.0914 -0.6673 -2.1711
 1338SOL     OW15475   3.146   0.054   5.131 -0.5431 -0.0074  0.0200
 1338SOL    HW115476   3.195   0.077   5.210 -0.9627 -0.8989  0.5311
 1338SOL    HW215477   3.082   4.718   5.168 -1.9773  1.1317 -0.5554
 1339SOL     OW15478   2.740   3.509   1.668 -0.1015  0.2351 -0.1147
 1339SOL    HW115479   2.778   3.595   1.654 -2.6746  1.6895  1.6584
 1339SOL    HW215480   2.816   3.453   1.652 -0.6647 -1.0485  1.5876
 1340SOL     OW15481   4.570   3.798   7.553  0.2722 -0.3034 -0.6756
 1340SOL    HW115482   4.644   3.737   7.545 -1.4822 -2.8099  2.3274
 1340SOL    HW215483   4.593   3.849   7.476  1.4283  1.7095  0.9913
 1341SOL     OW15484   0.157   3.061   4.746 -0.1569 -0.2312 -0.0078
 1341SOL    HW115485   0.084   3.122   4.736 -0.5477 -0.8088 -0.6259
 1341SOL    HW215486   0.227   3.110   4.702  1.2258 -1.2642  1.0450
 1342SOL     OW15487   0.856   3.157   0.096 -0.1614  0.3780 -0.2938
 1342SOL    HW115488   0.946   3.166   0.063 -0.3917 -0.3157 -1.1477
 1342SOL    HW215489   0.807   3.226   0.051 -1.4757 -1.5010 -1.7545
 1343SOL     OW15490   2.731   2.484   1.808  0.4802 -0.1885  0.1135
 1343SOL    HW115491   2.687   2.417   1.861 -0.7655  0.3160 -0.2858
 1343SOL    HW215492   2.678   2.555   1.844  2.2345  1.9659 -1.5428
 1344SOL     OW15493   1.407   3.795   1.886  0.4937  0.3158  0.6490
 1344SOL    HW115494   1.343   3.852   1.844  0.6784  0.9795  1.2615
 1344SOL    HW215495   1.423   3.725   1.824  0.6844  0.2226  0.8019
 1345SOL     OW15496   2.367   2.781   3.531  0.0991  0.2084  0.3477
 1345SOL    HW115497   2.282   2.739   3.547  0.5333  0.8068  4.3343
 1345SOL    HW215498   2.421   2.756   3.606  0.0725  0.8202  0.5743
 1346SOL     OW15499   2.671   3.132   5.299  0.7093 -0.1221  0.0890
 1346SOL    HW115500   2.711   3.096   5.220 -0.5320  1.0038 -1.0573
 1346SOL    HW215501   2.609   3.190   5.255 -0.9123  1.0947  3.9663
 1347SOL     OW15502   1.464   3.536   9.361  0.3175 -0.0426  0.3499
 1347SOL    HW115503   1.490   3.582   9.280  0.8829 -0.3962  0.3315
 1347SOL    HW215504   1.542   3.554   9.414  1.1539 -1.7350 -0.3300
 1348SOL     OW15505   3.520   1.248   0.053  0.3501 -0.0342  0.5720
 1348SOL    HW115506   3.578   1.185   0.009 -1.1092 -1.0373  0.0693
 1348SOL    HW215507   3.566   1.276   0.131  0.1321  1.9481 -0.0023
 1349SOL     OW15508   0.471   4.400   2.770  0.0928  0.9615  0.3537
 1349SOL    HW115509   0.515   4.316   2.775  1.0715  1.4877  0.5510
 1349SOL    HW215510   0.517   4.448   2.701  1.0597 -2.5960 -1.4517
 1350SOL     OW15511   2.906   0.868   0.938 -0.3826 -0.4541 -1.1057
 1350SOL    HW115512   2.886   0.890   0.847  0.1708 -0.6847 -1.2820
 1350SOL    HW215513   2.960   0.945   0.955 -0.4007 -1.2843  2.7378
 1351SOL     OW15514   3.041   2.172   2.224 -0.0849 -0.3804  0.1848
 1351SOL    HW115515   3.089   2.097   2.258 -2.3904 -2.8558 -2.0751
 1351SOL    HW215516   3.105   2.230   2.183 -1.1018  0.5083 -0.1527
 1352SOL     OW15517   2.122   3.141   9.122  0.3529  0.4317 -0.1500
 1352SOL    HW115518   2.073   3.209   9.168 -0.4468  0.3912 -0.9332
 1352SOL    HW215519   2.092   3.149   9.031  2.4493  1.7851 -0.7071
 1353SOL     OW15520   1.437   4.066   3.938 -0.3034  0.4533 -0.1556
 1353SOL    HW115521   1.356   4.117   3.941  0.4407  1.5799  0.8704
 1353SOL    HW215522   1.408   4.013   3.864  0.6791  3.5591 -2.7311
 1354SOL     OW15523   0.265   0.822  11.835  0.4023 -0.1624 -0.2729
 1354SOL    HW115524   0.347   0.783  11.865 -0.8593 -3.1285 -0.6945
 1354SOL    HW215525   0.199   0.753  11.835 -0.8920  1.1016 -0.4589
 1355SOL     OW15526   3.392   2.006  13.878  0.5068 -0.5235 -0.3419
 1355SOL    HW115527   3.455   1.978  13.812  0.6054 -1.5763  0.1929
 1355SOL    HW215528   3.309   1.968  13.848  0.3134  0.6057 -1.2360
 1356SOL     OW15529   1.290   2.738   3.727 -0.4118  0.3630 -0.3309
 1356SOL    HW115530   1.378   2.766   3.700  0.4760 -3.8111 -1.7900
 1356SOL    HW215531   1.315   2.647   3.746 -0.6826  0.2166 -0.6808
 1357SOL     OW15532   0.836   1.817   4.897  0.3351  0.2790 -0.5720
 1357SOL    HW115533   0.781   1.827   4.975  1.1154 -1.5361  0.2068
 1357SOL    HW215534   0.841   1.722   4.885 -0.4090  0.5007 -2.5796
 1358SOL     OW15535   1.877   2.309   9.048 -0.3143  0.1898 -0.6774
 1358SOL    HW115536   1.876   2.404   9.035  0.6273  0.2532 -0.3331
 1358SOL    HW215537   1.788   2.290   9.078 -0.6012  1.0347 -0.9764
 1359SOL     OW15538   3.920   0.060   5.273  0.2694 -0.3620 -0.5282
 1359SOL    HW115539   4.010   0.045   5.302  0.2720  0.0807 -0.3110
 1359SOL    HW215540   3.936   0.086   5.182 -0.7918  0.8210 -0.3701
 1360SOL     OW15541   0.490   0.993  15.160  0.0367  0.7355  0.1545
 1360SOL    HW115542   0.397   0.991  15.183 -0.0499  0.3540 -0.2351
 1360SOL    HW215543   0.483   0.998  15.065 -0.5826 -1.8313  0.0817
 1361SOL     OW15544   2.236   4.661  13.537 -0.3680 -0.0380 -0.3351
 1361SOL    HW115545   2.166   4.708  13.581 -0.2816  0.6004 -0.8726
 1361SOL    HW215546   2.311   4.720  13.530  0.4311 -0.9904  0.2314
 1362SOL     OW15547   0.622   0.199   1.627  0.7378 -0.0301 -0.4649
 1362SOL    HW115548   0.531   0.219   1.603  1.2108  0.1687 -2.1033
 1362SOL    HW215549   0.619   0.109   1.659 -1.1833 -0.2101 -1.1443
 1363SOL     OW15550   3.627   2.731   3.109  0.2643 -0.1531  0.0742
 1363SOL    HW115551   3.598   2.704   3.022 -1.2001 -1.6068  1.0146
 1363SOL    HW215552   3.723   2.730   3.102  0.1744  1.5939 -1.3080
 1364SOL     OW15553   4.712   0.858  12.426  0.5363  0.5514  0.2278
 1364SOL    HW115554   0.044   0.906  12.366  1.7667  0.0396  0.9922
 1364SOL    HW215555   0.033   0.775  12.411 -0.2400  0.5207 -1.9728
 1365SOL     OW15556   2.305   0.554   9.599 -0.2922 -0.4560 -0.2367
 1365SOL    HW115557   2.371   0.562   9.530  0.7216 -0.5269  0.7147
 1365SOL    HW215558   2.305   0.463   9.629 -1.1278  0.1925  1.7365
 1366SOL     OW15559   2.608   0.056   3.034  0.4014 -0.6038 -0.3172
 1366SOL    HW115560   2.617   0.081   2.942 -0.1763 -0.2022 -0.2625
 1366SOL    HW215561   2.656   0.126   3.078 -0.8412 -0.1556  0.3209
 1367SOL     OW15562   1.840   0.276   0.438  0.1593  0.1555  0.0243
 1367SOL    HW115563   1.862   0.203   0.496 -0.2295 -0.6388 -0.8296
 1367SOL    HW215564   1.752   0.306   0.462  1.2309  1.3731  2.5122
 1368SOL     OW15565   3.591   1.848   5.630 -0.1424  0.1774  0.6435
 1368SOL    HW115566   3.532   1.902   5.684 -0.2712 -0.7645  1.4430
 1368SOL    HW215567   3.548   1.766   5.608 -2.8072  1.8070 -0.2857
 1369SOL     OW15568   4.245   4.186   2.734 -0.8202  0.3444 -0.4231
 1369SOL    HW115569   4.248   4.098   2.771 -1.0431  1.1319  1.4886
 1369SOL    HW215570   4.314   4.175   2.668  0.5764  0.1610  1.0439
 1370SOL     OW15571   4.251   0.422   4.543 -0.0673 -0.0264  0.2020
 1370SOL    HW115572   4.181   0.403   4.480 -0.4228  1.2163  0.2222
 1370SOL    HW215573   4.202   0.427   4.625  0.4679  0.1072  0.5117
 1371SOL     OW15574   1.093   2.817   8.715 -0.2992 -0.5052 -0.0326
 1371SOL    HW115575   1.123   2.793   8.803  1.0699 -0.4230 -0.4859
 1371SOL    HW215576   1.150   2.756   8.669 -1.6663  0.1660 -2.5882
 1372SOL     OW15577   2.829   0.843  14.307 -0.1729  0.5587  0.7741
 1372SOL    HW115578   2.871   0.927  14.325 -0.7960  1.5829 -2.4900
 1372SOL    HW215579   2.842   0.788  14.384  0.3414 -2.9810 -1.8619
 1373SOL     OW15580   2.595   0.065   0.803 -0.0477  0.4134  0.3191
 1373SOL    HW115581   2.604   0.118   0.882  1.5569  0.8615 -0.1791
 1373SOL    HW215582   2.684   0.048   0.771 -0.5225 -2.1404  0.2878
 1374SOL     OW15583   0.786   4.685   6.331 -0.0902  0.5888 -0.2256
 1374SOL    HW115584   0.862   4.628   6.343  0.1626  0.8648 -0.5066
 1374SOL    HW215585   0.817   0.022   6.264 -3.6002  2.0649 -0.4962
 1375SOL     OW15586   1.782   1.883   8.333  0.0655  0.3567  0.7103
 1375SOL    HW115587   1.715   1.876   8.401 -1.5766  0.8964 -0.8412
 1375SOL    HW215588   1.738   1.836   8.263  0.6243 -0.9049  1.2081
 1376SOL     OW15589   0.291   2.612   6.564  0.7175  0.0612  0.2687
 1376SOL    HW115590   0.307   2.654   6.479 -0.6688 -0.7077 -0.3610
 1376SOL    HW215591   0.210   2.651   6.594  1.5619  0.2675  2.2565
 1377SOL     OW15592   0.638   2.611   5.593  0.3212 -0.0679 -0.5081
 1377SOL    HW115593   0.685   2.539   5.635  2.4206  1.2527 -0.5764
 1377SOL    HW215594   0.552   2.575   5.570  0.4668 -1.5801  1.2803
 1378SOL     OW15595   4.538   3.666   5.430 -0.0123  0.5992  0.2569
 1378SOL    HW115596   4.580   3.629   5.508  0.8388 -2.3152 -1.5619
 1378SOL    HW215597   4.478   3.595   5.408  0.2697  0.0503  1.2261
 1379SOL     OW15598   1.071   4.237   3.498 -0.1396 -0.4131 -0.2482
 1379SOL    HW115599   1.039   4.182   3.569 -0.9715 -0.3723 -0.5943
 1379SOL    HW215600   1.082   4.328   3.526  1.7564 -0.0874 -2.0675
 1380SOL     OW15601   4.619   1.872   1.815  0.6816 -0.5971 -0.9307
 1380SOL    HW115602   4.669   1.929   1.874  0.6005 -1.3296 -0.1622
 1380SOL    HW215603   4.580   1.816   1.882  0.9910 -0.3724 -0.5606
 1381SOL     OW15604   3.255   0.703   6.757 -0.5500  0.8954  0.6660
 1381SOL    HW115605   3.300   0.783   6.732 -1.0709  0.6475 -1.0615
 1381SOL    HW215606   3.325   0.644   6.784  0.4142  1.4744 -0.5753
 1382SOL     OW15607   2.218   2.643   4.424  0.0076 -0.6070  0.4957
 1382SOL    HW115608   2.304   2.603   4.441  0.7463  1.1032  0.7641
 1382SOL    HW215609   2.193   2.687   4.505 -0.1219 -0.4531  0.3736
 1383SOL     OW15610   0.803   0.213   5.080 -0.5182 -0.2041  0.4836
 1383SOL    HW115611   0.815   0.283   5.016  1.0425 -0.3771  0.6020
 1383SOL    HW215612   0.834   0.135   5.034 -2.1917 -0.6007  0.0160
 1384SOL     OW15613   0.062   3.468  17.210  0.6408 -0.2053 -0.2477
 1384SOL    HW115614   0.048   3.395  17.270 -1.3746 -1.7110 -2.5470
 1384SOL    HW215615   0.154   3.457  17.189  0.8102 -0.5459  0.6986
 1385SOL     OW15616   2.472   3.004   0.720 -0.1371  0.3372 -0.0279
 1385SOL    HW115617   2.408   3.060   0.676  1.9178  2.4035 -0.3572
 1385SOL    HW215618   2.509   3.079   0.767  0.6857 -0.8168  1.1624
 1386SOL     OW15619   4.102   1.963   5.845  0.1057 -0.3954  0.7125
 1386SOL    HW115620   4.162   1.969   5.771 -0.8847  0.7927  0.0049
 1386SOL    HW215621   4.032   1.917   5.798  1.5202 -2.1029  0.3095
 1387SOL     OW15622   1.786   4.220   6.408 -0.7394 -0.8224  0.0464
 1387SOL    HW115623   1.718   4.164   6.369  0.5376 -0.4492 -2.7030
 1387SOL    HW215624   1.732   4.299   6.418  0.6419 -0.0807  1.6061
 1388SOL     OW15625   0.506   1.033  14.876  0.3310  0.2922  0.2189
 1388SOL    HW115626   0.414   1.041  14.850  0.5128  1.1516 -0.1462
 1388SOL    HW215627   0.527   1.125  14.860 -1.4616  0.2519 -2.3925
 1389SOL     OW15628   0.649   0.721   5.210  0.4309 -0.0014 -0.0751
 1389SOL    HW115629   0.725   0.739   5.155  0.5366 -2.7308 -0.8255
 1389SOL    HW215630   0.594   0.795   5.184 -0.3609 -1.0023 -1.2643
 1390SOL     OW15631   0.558   1.513   3.576 -0.2415  0.3179 -0.0531
 1390SOL    HW115632   0.586   1.590   3.526  2.5619  1.2360  2.9106
 1390SOL    HW215633   0.545   1.462   3.497 -3.1298  1.6178 -0.4291
 1391SOL     OW15634   3.110   0.347   6.087  0.7104  0.2365 -0.1030
 1391SOL    HW115635   3.189   0.395   6.062  1.9614 -1.0057  1.4627
 1391SOL    HW215636   3.141   0.256   6.081 -0.9651 -0.2292 -1.7887
 1392SOL     OW15637   3.976   0.684  17.663 -0.1549  0.1213 -0.7373
 1392SOL    HW115638   3.918   0.703  17.589  0.9992 -1.6805 -2.1245
 1392SOL    HW215639   4.053   0.681  17.606  2.5700  0.1937  2.9831
 1393SOL     OW15640   0.806   2.212  17.563  0.1719 -0.1439 -0.3149
 1393SOL    HW115641   0.874   2.173  17.617  0.5067 -0.4512 -0.9567
 1393SOL    HW215642   0.840   2.265  17.491  3.9182 -0.9373  0.8810
 1394SOL     OW15643   4.557   1.250   0.395  0.6228 -0.0851 -0.3547
 1394SOL    HW115644   4.576   1.264   0.488 -0.4998 -0.1774 -0.1084
 1394SOL    HW215645   4.629   1.189   0.380  0.4972  0.2839 -2.4299
 1395SOL     OW15646   0.309   3.444   6.225  0.1678 -0.5054 -0.0380
 1395SOL    HW115647   0.344   3.444   6.136  0.1682 -1.9803 -0.0454
 1395SOL    HW215648   0.363   3.509   6.270 -0.8976  0.8593 -0.7388
 1396SOL     OW15649   0.031   1.573   0.083 -0.0737 -0.5008  0.4527
 1396SOL    HW115650   0.115   1.612   0.057  0.8788 -3.9085 -1.5995
 1396SOL    HW215651   0.031   1.595   0.176  3.1455 -0.2322  0.3910
 1397SOL     OW15652   2.341   1.712   1.451 -0.5098 -0.0034  0.0109
 1397SOL    HW115653   2.359   1.697   1.544  0.3027 -1.5069 -0.3871
 1397SOL    HW215654   2.252   1.676   1.442 -0.2116 -0.5808 -0.6247
 1398SOL     OW15655   3.398   0.240   4.625  0.2931  0.4946 -0.3558
 1398SOL    HW115656   3.369   0.297   4.697  0.4250 -1.2200  1.0491
 1398SOL    HW215657   3.362   0.286   4.549 -0.2424  2.0221  0.8178
 1399SOL     OW15658   1.865   3.008  12.509  0.5519  0.4384 -0.1077
 1399SOL    HW115659   1.830   2.957  12.436 -0.3736 -0.0897  0.7094
 1399SOL    HW215660   1.794   3.016  12.573  2.2490  2.2373  1.5807
 1400SOL     OW15661   1.388   3.847   6.123 -0.5070  0.6218 -0.2291
 1400SOL    HW115662   1.322   3.787   6.159 -0.1253  0.3113 -0.0436
 1400SOL    HW215663   1.405   3.802   6.040  2.9694  0.1420  0.7252
 1401SOL     OW15664   2.908   1.251   7.127 -0.4891  0.4560 -0.2704
 1401SOL    HW115665   2.978   1.314   7.146  2.8987 -2.0999 -4.4678
 1401SOL    HW215666   2.924   1.215   7.040 -0.0147  0.0400 -0.0061
 1402SOL     OW15667   2.582   1.112   5.805 -0.2288  0.3813  0.2361
 1402SOL    HW115668   2.522   1.134   5.735  0.4691  0.0734 -0.4576
 1402SOL    HW215669   2.556   1.175   5.872 -2.1145 -1.7917  1.5246
 1403SOL     OW15670   1.436   3.763   0.955  0.1173  0.0989 -0.5166
 1403SOL    HW115671   1.365   3.780   0.893 -0.3955  0.8992  0.2954
 1403SOL    HW215672   1.510   3.806   0.912 -1.6997  1.8434 -1.8723
 1404SOL     OW15673   4.436   3.547  14.865 -0.3721  0.9278 -0.0160
 1404SOL    HW115674   4.383   3.493  14.806  0.7884 -0.8311  0.5357
 1404SOL    HW215675   4.418   3.516  14.953  0.4913  2.0321  0.5467
 1405SOL     OW15676   0.269   2.405   9.227 -0.5853 -0.1416 -0.0393
 1405SOL    HW115677   0.244   2.316   9.202 -2.6201  0.3116  0.3501
 1405SOL    HW215678   0.192   2.459   9.208  1.0416  2.8424  1.8867
 1406SOL     OW15679   4.322   1.979   7.849 -1.0646  0.0886  0.2955
 1406SOL    HW115680   4.322   1.883   7.848  1.6909  0.1376 -2.5617
 1406SOL    HW215681   4.335   1.992   7.943  0.7387  3.2071 -0.4192
 1407SOL     OW15682   1.007   4.082   2.766  0.1204  0.0735 -0.3658
 1407SOL    HW115683   0.966   4.002   2.732  0.4668 -0.1632 -0.2254
 1407SOL    HW215684   0.988   4.057   2.856  0.2717  1.1785 -0.0332
 1408SOL     OW15685   1.623   1.628   2.370  0.0689 -0.3425 -0.1764
 1408SOL    HW115686   1.539   1.661   2.338  0.6916  0.9584 -0.4702
 1408SOL    HW215687   1.651   1.588   2.287  0.6003 -0.1935 -0.0731
 1409SOL     OW15688   2.440   2.430   2.196  0.2577 -0.3080  0.6868
 1409SOL    HW115689   2.477   2.461   2.279 -1.7768  1.9315  0.7432
 1409SOL    HW215690   2.356   2.395   2.228 -1.2655  0.4209 -2.5282
 1410SOL     OW15691   0.644   4.030   5.159  0.6423 -0.0388 -0.4451
 1410SOL    HW115692   0.554   4.033   5.190  1.3359 -0.2545  1.6252
 1410SOL    HW215693   0.655   4.117   5.120  1.9461 -1.4424 -3.2506
 1411SOL     OW15694   3.079   1.882   2.755  0.0517 -0.1198  0.7372
 1411SOL    HW115695   3.142   1.825   2.711  0.2280  0.2711  0.4741
 1411SOL    HW215696   3.138   1.955   2.775 -0.4568  0.5296 -0.0922
 1412SOL     OW15697   2.011   2.672   7.754 -0.3555  0.0351 -0.4876
 1412SOL    HW115698   2.102   2.648   7.772 -0.2727  1.7584  1.3845
 1412SOL    HW215699   1.959   2.608   7.803  0.9347 -0.9653 -0.4334
 1413SOL     OW15700   0.126   1.810  14.681 -0.0587  0.4406  0.5575
 1413SOL    HW115701   0.157   1.782  14.767  1.4551 -0.5060 -0.2937
 1413SOL    HW215702   0.087   1.897  14.696  2.1920  1.5574 -0.0604
 1414SOL     OW15703   0.296   2.460   6.200 -0.1463 -0.3280  0.0230
 1414SOL    HW115704   0.289   2.532   6.263  1.0873 -1.3166  1.2847
 1414SOL    HW215705   0.349   2.500   6.131 -0.1165  0.2089  0.3551
 1415SOL     OW15706   3.876   3.879   2.774  0.2244 -0.0006  0.5979
 1415SOL    HW115707   3.959   3.848   2.737 -0.3111 -1.9791  1.0293
 1415SOL    HW215708   3.879   3.853   2.866  2.2899 -0.3222  0.4443
 1416SOL     OW15709   2.470   4.291   2.751 -0.5678 -0.5737 -0.4010
 1416SOL    HW115710   2.491   4.215   2.805 -0.3982  0.8497  1.5111
 1416SOL    HW215711   2.556   4.334   2.747  0.8150 -3.3013  0.0422
 1417SOL     OW15712   3.423   1.231   7.978 -0.4188 -0.1989 -0.0193
 1417SOL    HW115713   3.512   1.195   7.978 -1.2917 -2.3487 -0.4214
 1417SOL    HW215714   3.421   1.257   8.070 -1.5147  0.5941 -0.2650
 1418SOL     OW15715   2.557   3.273   0.484  0.1714 -0.5980 -0.1450
 1418SOL    HW115716   2.475   3.233   0.515 -0.1781 -0.5462 -1.0094
 1418SOL    HW215717   2.617   3.223   0.539 -0.4821 -2.4300 -1.1106
 1419SOL     OW15718   2.031   3.572   7.991  0.3426 -0.0647  0.1432
 1419SOL    HW115719   2.020   3.567   7.896  0.7733 -1.6291  0.1704
 1419SOL    HW215720   1.996   3.659   8.010 -0.5231 -0.4883  0.4697
 1420SOL     OW15721   0.979   2.843   3.544 -0.6240  0.4184  0.3906
 1420SOL    HW115722   1.028   2.920   3.516 -0.7976 -0.1687 -1.5550
 1420SOL    HW215723   1.005   2.785   3.473 -0.1471 -0.2899  1.1383
 1421SOL     OW15724   1.580   1.863   8.503  0.1507 -0.0056 -0.7702
 1421SOL    HW115725   1.562   1.957   8.498  0.6386  0.1876  0.9627
 1421SOL    HW215726   1.489   1.835   8.505 -0.3463  1.6316  0.1787
 1422SOL     OW15727   3.162   0.078   6.110  0.0872  0.0402 -0.1254
 1422SOL    HW115728   3.107   4.724   6.107  0.7482 -0.4769  1.3336
 1422SOL    HW215729   3.211   0.061   6.190 -0.2713 -0.2126  0.0434
 1423SOL     OW15730   3.622   0.656   5.448  0.1717  0.4241  0.4436
 1423SOL    HW115731   3.573   0.738   5.436  2.0154  1.3459 -0.8949
 1423SOL    HW215732   3.547   0.605   5.478 -0.8793  1.0356 -1.0936
 1424SOL     OW15733   3.899   3.975  12.933 -0.0192  0.1080  0.2250
 1424SOL    HW115734   3.878   3.988  13.026 -1.5661 -0.3729 -0.0502
 1424SOL    HW215735   3.992   3.953  12.932  0.5379  2.3884  1.0689
 1425SOL     OW15736   0.569   4.340   4.305  0.0969  0.5229 -0.1382
 1425SOL    HW115737   0.530   4.348   4.218 -0.5504  2.0066  0.2987
 1425SOL    HW215738   0.491   4.334   4.360  0.3199 -0.0892  0.1107
 1426SOL     OW15739   0.478   1.535   1.398 -0.2978 -0.2157  0.0231
 1426SOL    HW115740   0.467   1.610   1.340  1.1964  0.2397  0.3393
 1426SOL    HW215741   0.392   1.493   1.388 -0.3407 -0.8887  3.4146
 1427SOL     OW15742   2.768   4.601   8.304  0.3152  0.4357  0.2639
 1427SOL    HW115743   2.697   4.644   8.257 -1.6443 -2.5724  0.4939
 1427SOL    HW215744   2.721   4.559   8.376 -0.4891 -1.2299 -1.2444
 1428SOL     OW15745   2.724   0.870  17.588  0.0539 -0.3829 -0.0736
 1428SOL    HW115746   2.662   0.864  17.661  2.4545  0.6662  2.0460
 1428SOL    HW215747   2.763   0.783  17.593 -0.1072 -0.4741 -0.4240
 1429SOL     OW15748   1.075   3.456   4.491  0.2536 -0.6991  0.9199
 1429SOL    HW115749   1.059   3.425   4.402 -0.1481  0.1314  0.6963
 1429SOL    HW215750   1.161   3.425   4.519  0.6782  0.6676  1.1572
 1430SOL     OW15751   3.404   0.559   2.446  0.2188  0.8722  0.0420
 1430SOL    HW115752   3.342   0.622   2.409 -1.2826  0.6787  2.2266
 1430SOL    HW215753   3.487   0.606   2.441  1.1325 -0.8799 -1.5654
 1431SOL     OW15754   1.089   0.003   3.675 -0.0198 -0.1220 -0.2058
 1431SOL    HW115755   1.122   0.082   3.632  0.8977 -0.2588  0.2478
 1431SOL    HW215756   1.019   4.699   3.616  0.2680 -0.1080 -0.5558
 1432SOL     OW15757   2.919   4.415   9.214  0.5661  0.3067 -0.4979
 1432SOL    HW115758   2.900   4.468   9.291 -1.1640 -0.9921 -0.0089
 1432SOL    HW215759   2.908   4.485   9.150 -0.0232  0.6177 -0.0611
 1433SOL     OW15760   2.046   3.160  12.256  0.5979 -0.2246  0.3897
 1433SOL    HW115761   2.130   3.203  12.269  0.0611  0.8393  0.3967
 1433SOL    HW215762   2.003   3.238  12.220 -0.0546 -0.7336  0.0582
 1434SOL     OW15763   0.832   1.398   9.280 -0.0430 -0.3019 -0.0398
 1434SOL    HW115764   0.813   1.379   9.372 -0.3746  1.3560  0.2374
 1434SOL    HW215765   0.922   1.431   9.288  0.1059 -0.8854  0.5990
 1435SOL     OW15766   1.176   3.735   2.763  0.0385  0.1711 -0.7110
 1435SOL    HW115767   1.088   3.739   2.724 -0.7098 -0.1618  0.9288
 1435SOL    HW215768   1.229   3.683   2.702 -2.5130 -0.9413 -2.0027
 1436SOL     OW15769   3.971   4.427   4.774 -0.6133 -0.4770  0.0556
 1436SOL    HW115770   4.010   4.357   4.826  2.0090  0.0118 -1.2480
 1436SOL    HW215771   3.897   4.383   4.732 -1.3689 -1.1835  2.1169
 1437SOL     OW15772   3.743   3.190  15.840  0.8914 -0.3319 -0.5034
 1437SOL    HW115773   3.736   3.156  15.929 -1.3506  0.2085 -0.4762
 1437SOL    HW215774   3.653   3.217  15.822  0.8132  0.0460  0.4599
 1438SOL     OW15775   2.151   4.395   3.959 -0.3427  0.4656 -0.1549
 1438SOL    HW115776   2.221   4.454   3.985  2.0248 -2.3390 -0.1170
 1438SOL    HW215777   2.153   4.396   3.864  1.1825  1.5722 -0.1082
 1439SOL     OW15778   0.546   3.561   9.108  1.0090  0.7676 -0.3163
 1439SOL    HW115779   0.581   3.474   9.089  0.3128 -0.0300  2.0905
 1439SOL    HW215780   0.608   3.587   9.177  0.1463  2.9991 -0.3700
 1440SOL     OW15781   1.620   3.597  15.161 -0.2236 -0.8244  0.4008
 1440SOL    HW115782   1.658   3.510  15.174  0.9197 -0.1158  1.7525
 1440SOL    HW215783   1.685   3.639  15.105  1.6140 -1.9921  1.6716
 1441SOL     OW15784   3.947   1.855   5.071 -0.2869  0.4983 -0.5645
 1441SOL    HW115785   4.012   1.925   5.072  1.9426 -1.5529 -3.6952
 1441SOL    HW215786   3.860   1.893   5.059 -1.4641 -2.2251 -0.6591
 1442SOL     OW15787   2.691   3.209   1.804  0.3437  0.2843 -0.0727
 1442SOL    HW115788   2.667   3.181   1.716  1.8298  0.6352 -0.5816
 1442SOL    HW215789   2.780   3.242   1.789  0.3798  0.0431 -0.3751
 1443SOL     OW15790   2.210   4.197  16.851 -0.0574  0.0939 -0.3001
 1443SOL    HW115791   2.271   4.242  16.793  0.3082  0.3233  0.2563
 1443SOL    HW215792   2.209   4.248  16.932 -0.5180  0.3484 -0.4682
 1444SOL     OW15793   0.307   0.382  14.729 -0.6706  0.3687  0.3489
 1444SOL    HW115794   0.359   0.462  14.723  0.9003 -0.6086  0.6847
 1444SOL    HW215795   0.297   0.355  14.638 -1.7075  0.8821  0.3088
 1445SOL     OW15796   3.929   1.544  12.177  0.2680 -0.5179  0.1552
 1445SOL    HW115797   3.851   1.595  12.153  1.2868  0.5639 -0.8817
 1445SOL    HW215798   3.893   1.457  12.192  1.0810 -1.0100 -0.7172
 1446SOL     OW15799   1.118   3.529   1.218 -0.5114  0.2333 -0.6022
 1446SOL    HW115800   1.209   3.499   1.219 -0.3149  0.9986  2.4282
 1446SOL    HW215801   1.080   3.466   1.156 -0.6522  1.3114 -1.6200
 1447SOL     OW15802   3.160   4.265  12.825 -0.0503 -0.4158 -0.3605
 1447SOL    HW115803   3.255   4.277  12.832  0.1655 -0.4361 -3.4379
 1447SOL    HW215804   3.135   4.268  12.918  0.2931 -0.9138 -0.2513
 1448SOL     OW15805   2.788   1.614  16.863  0.1275 -0.5030  0.0973
 1448SOL    HW115806   2.712   1.672  16.863  0.3215 -0.2445 -0.0625
 1448SOL    HW215807   2.793   1.590  16.771  1.3821  0.6409 -0.1392
 1449SOL     OW15808   0.361   1.853   0.863 -0.0526 -0.0580 -0.0388
 1449SOL    HW115809   0.404   1.771   0.888  3.4612  1.5883 -0.6331
 1449SOL    HW215810   0.378   1.907   0.941  2.7654  1.1894 -1.4876
 1450SOL     OW15811   1.465   2.689  17.687  0.1229  0.1085 -0.2476
 1450SOL    HW115812   1.390   2.706  17.631 -1.0830  0.7090  1.5311
 1450SOL    HW215813   1.500   2.779  17.684  0.8472 -0.2114 -1.2619
 1451SOL     OW15814   3.578   1.276  13.399  0.0162  0.2096 -0.3532
 1451SOL    HW115815   3.573   1.181  13.406  0.2278  0.1854 -0.5200
 1451SOL    HW215816   3.530   1.303  13.477 -1.0206 -1.8666 -0.2797
 1452SOL     OW15817   4.199   3.515   8.353 -0.6834 -0.0234 -0.8374
 1452SOL    HW115818   4.279   3.529   8.404  0.6913 -1.8651 -2.4959
 1452SOL    HW215819   4.149   3.452   8.405 -0.9309  2.7466  2.2892
 1453SOL     OW15820   3.290   4.052   2.216 -0.3676 -0.1310  0.2532
 1453SOL    HW115821   3.228   4.024   2.148 -0.8152 -0.2596  0.7177
 1453SOL    HW215822   3.345   3.973   2.217  1.2270  0.9152 -3.2234
 1454SOL     OW15823   2.312   1.008   8.551  0.5129 -0.1782 -0.3905
 1454SOL    HW115824   2.287   1.098   8.529  0.2835  0.5914  3.0660
 1454SOL    HW215825   2.285   0.949   8.481 -0.5312  2.4433 -2.2209
 1455SOL     OW15826   4.215   3.109   7.295 -0.4915 -0.6756  0.0940
 1455SOL    HW115827   4.198   3.087   7.386 -3.1899 -1.6544 -0.6329
 1455SOL    HW215828   4.189   3.199   7.273 -1.3229 -1.5547 -2.5507
 1456SOL     OW15829   0.014   3.763   3.677  0.2203  0.4177 -0.4052
 1456SOL    HW115830   0.052   3.721   3.599 -0.1005 -1.4541  0.4543
 1456SOL    HW215831   4.650   3.769   3.640 -1.3615 -1.0469  3.1197
 1457SOL     OW15832   1.798   0.589   5.362  0.0122  0.1611 -0.2031
 1457SOL    HW115833   1.792   0.514   5.421 -0.6204 -0.1662 -0.6842
 1457SOL    HW215834   1.706   0.600   5.336  0.1107  0.4771 -0.4208
 1458SOL     OW15835   0.715   3.525   7.269 -0.0323  0.0337 -0.2718
 1458SOL    HW115836   0.645   3.501   7.209 -0.2427 -1.2408  0.4924
 1458SOL    HW215837   0.739   3.441   7.306  0.2498  0.8830  1.4986
 1459SOL     OW15838   3.375   2.879   4.680  0.1755  0.2194 -0.0385
 1459SOL    HW115839   3.382   2.974   4.688 -1.1620  0.2280  0.9655
 1459SOL    HW215840   3.438   2.868   4.608 -0.9409 -1.9775 -0.6930
 1460SOL     OW15841   1.277   3.471   7.167 -0.1379 -0.3508  0.3250
 1460SOL    HW115842   1.336   3.512   7.230 -1.9323  1.7137  0.6986
 1460SOL    HW215843   1.334   3.424   7.107 -0.8065  0.0986 -0.6718
 1461SOL     OW15844   4.193   3.886  10.106  0.2207  0.0773  0.2451
 1461SOL    HW115845   4.170   3.973  10.072 -0.9966 -0.6217 -0.6857
 1461SOL    HW215846   4.281   3.901  10.142 -0.4951  1.7978  1.2786
 1462SOL     OW15847   0.452   3.953  13.163  0.3298 -0.0887 -0.3051
 1462SOL    HW115848   0.514   3.881  13.170 -0.2879 -0.5109  0.8383
 1462SOL    HW215849   0.425   3.963  13.255  0.1215 -2.5776 -0.0836
 1463SOL     OW15850   2.801   3.498  11.904  0.1659 -0.2108  0.0678
 1463SOL    HW115851   2.712   3.497  11.869  0.0590  0.6844  0.3120
 1463SOL    HW215852   2.787   3.564  11.971  0.6514  0.4652 -0.5020
 1464SOL     OW15853   0.765   4.113   3.193  0.0422  0.3841  0.8718
 1464SOL    HW115854   0.728   4.196   3.224 -1.7704 -0.9589  2.2784
 1464SOL    HW215855   0.701   4.044   3.207 -1.2226  1.9945  3.0865
 1465SOL     OW15856   4.260   3.381   7.006 -0.2426 -0.3378  0.4003
 1465SOL    HW115857   4.208   3.368   7.085  0.9685  0.0430  1.2462
 1465SOL    HW215858   4.340   3.423   7.037 -0.5968  1.8393 -1.5920
 1466SOL     OW15859   3.519   1.620  15.525  0.0958 -0.2063  0.3004
 1466SOL    HW115860   3.525   1.713  15.503  0.2962 -0.2057  0.3615
 1466SOL    HW215861   3.601   1.586  15.489  0.2529  1.3184 -0.7886
 1467SOL     OW15862   4.427   1.868   5.968 -0.2481 -0.1348  0.1138
 1467SOL    HW115863   4.517   1.836   5.975 -0.4158 -0.6603 -0.1061
 1467SOL    HW215864   4.379   1.819   6.034 -1.1985  0.4596 -0.1401
 1468SOL     OW15865   0.446   3.212   3.111  0.7718  0.4087 -0.3245
 1468SOL    HW115866   0.356   3.224   3.080  1.0033  2.0185 -0.3893
 1468SOL    HW215867   0.439   3.258   3.194 -3.2881  0.3633 -0.6522
 1469SOL     OW15868   2.869   2.652   5.414 -0.1285  0.2595  1.0300
 1469SOL    HW115869   2.833   2.564   5.404 -1.6037  0.6570  2.8600
 1469SOL    HW215870   2.943   2.631   5.471  0.6191  3.3592  1.1590
 1470SOL     OW15871   0.964   4.208   9.056  0.2899 -0.2356  0.8428
 1470SOL    HW115872   0.980   4.261   9.133  2.1262  1.3431 -0.6347
 1470SOL    HW215873   0.976   4.118   9.087  1.1763 -0.4459 -0.1322
 1471SOL     OW15874   1.597   0.605  11.036 -0.1856  0.1450 -0.2994
 1471SOL    HW115875   1.652   0.626  11.112  0.9661  1.1819 -1.4121
 1471SOL    HW215876   1.587   0.512  11.056  1.6764 -0.2129 -0.9673
 1472SOL     OW15877   1.708   4.233   6.806 -0.2525  0.4581 -0.3744
 1472SOL    HW115878   1.703   4.308   6.747  0.0843  1.4299  0.8621
 1472SOL    HW215879   1.800   4.208   6.797 -0.5624 -1.6152  2.4367
 1473SOL     OW15880   0.790   2.599  10.869  0.3282 -0.4529  0.1421
 1473SOL    HW115881   0.839   2.540  10.926  1.1537 -1.5406 -1.6684
 1473SOL    HW215882   0.843   2.678  10.877  0.0325  0.0044 -2.4252
 1474SOL     OW15883   2.341   3.057  12.725  0.1116 -0.2451 -0.4882
 1474SOL    HW115884   2.252   3.045  12.695 -0.7380  2.8004  0.7800
 1474SOL    HW215885   2.362   2.995  12.795  0.2448 -0.9775 -1.1799
 1475SOL     OW15886   3.893   2.307   1.887  0.2288  0.0473  0.3794
 1475SOL    HW115887   3.935   2.278   1.806 -1.4867  0.9949 -0.8322
 1475SOL    HW215888   3.822   2.356   1.847 -0.0596  0.4465  1.3666
 1476SOL     OW15889   1.641   1.980  14.584  0.1440 -0.3705 -0.2096
 1476SOL    HW115890   1.619   2.069  14.556  1.2434 -0.0477 -0.0561
 1476SOL    HW215891   1.682   2.003  14.668 -0.2327  1.8293 -0.6247
 1477SOL     OW15892   1.972   1.769   7.575 -0.3261 -0.2422  0.5062
 1477SOL    HW115893   1.884   1.806   7.580 -0.0693  0.3514  0.5445
 1477SOL    HW215894   2.018   1.850   7.553 -0.4196 -0.7770 -1.7142
 1478SOL     OW15895   3.293   3.761   2.510  0.0876  0.7716 -0.3501
 1478SOL    HW115896   3.354   3.832   2.528 -0.1503  0.7386  0.5566
 1478SOL    HW215897   3.354   3.703   2.465  0.6246  1.0705  0.0028
 1479SOL     OW15898   4.183   1.947   1.727 -0.5498  0.1886  0.1960
 1479SOL    HW115899   4.173   2.037   1.695  1.3029  0.0343 -0.7681
 1479SOL    HW215900   4.113   1.945   1.792 -0.3502 -2.3196  0.3243
 1480SOL     OW15901   2.307   0.942   5.427 -0.1473  0.2911  0.2934
 1480SOL    HW115902   2.281   1.020   5.378 -2.3009 -0.5167  0.1590
 1480SOL    HW215903   2.282   0.965   5.517  1.7700  1.5855  0.5179
 1481SOL     OW15904   0.470   2.001   1.423  0.1972 -0.2283  0.0541
 1481SOL    HW115905   0.490   2.026   1.333 -2.0512 -1.5718 -0.7902
 1481SOL    HW215906   0.445   1.909   1.418  1.1998 -0.5728  1.2085
 1482SOL     OW15907   2.107   1.074   0.666 -0.3278 -0.1786  1.0691
 1482SOL    HW115908   2.108   1.038   0.755 -1.0685  0.5721  1.3765
 1482SOL    HW215909   2.177   1.021   0.627  0.9256  3.3552 -1.4590
 1483SOL     OW15910   0.071   0.306   4.119 -0.3546  0.1326  0.1162
 1483SOL    HW115911   4.705   0.285   4.141 -0.5641  0.8087 -0.0723
 1483SOL    HW215912   0.111   0.227   4.155 -1.2929 -1.0257 -1.4106
 1484SOL     OW15913   2.613   0.461   6.100 -0.9436  0.1912 -0.3283
 1484SOL    HW115914   2.578   0.455   6.188  0.1648  1.9200  0.2316
 1484SOL    HW215915   2.531   0.489   6.061 -1.8289  0.6051  1.8493
 1485SOL     OW15916   0.523   1.240   8.549  0.3580  0.5795  0.0906
 1485SOL    HW115917   0.610   1.242   8.589 -0.6953 -2.1095  2.5651
 1485SOL    HW215918   0.504   1.334   8.544  0.2792  0.4356 -2.2752
 1486SOL     OW15919   4.710   1.995  13.943 -0.7034 -0.0379  0.2147
 1486SOL    HW115920   4.623   2.001  13.903 -1.1425  2.8349  1.6378
 1486SOL    HW215921   4.687   2.044  14.022  3.4215 -0.6376  1.7598
 1487SOL     OW15922   0.719   2.792   3.782 -0.7656  0.1926  0.1351
 1487SOL    HW115923   0.716   2.728   3.711 -0.3340 -0.8744  1.0755
 1487SOL    HW215924   0.626   2.810   3.795 -1.1333 -1.4150 -0.2891
 1488SOL     OW15925   0.577   0.936  10.279 -0.0013 -0.5365  0.1326
 1488SOL    HW115926   0.564   1.031  10.288 -1.5077 -0.6050 -1.1842
 1488SOL    HW215927   0.571   0.903  10.368 -0.2305 -1.3026 -0.1718
 1489SOL     OW15928   4.561   3.205   7.042 -0.2975  0.4936  0.4127
 1489SOL    HW115929   4.648   3.226   7.074 -0.0525 -0.2090  0.2193
 1489SOL    HW215930   4.513   3.209   7.125 -1.1459  0.2834 -0.0608
 1490SOL     OW15931   0.244   2.951  13.150  0.0021 -0.1706  0.0838
 1490SOL    HW115932   0.314   2.890  13.126  0.1651 -0.2823  0.8592
 1490SOL    HW215933   0.273   2.973  13.238 -0.6489  0.3750  0.1567
 1491SOL     OW15934   0.081   1.188  14.579 -0.0492  0.2295  0.4476
 1491SOL    HW115935   0.172   1.159  14.586 -0.2668 -0.0493  2.1866
 1491SOL    HW215936   0.091   1.270  14.628 -1.5484  0.2792  0.6589
 1492SOL     OW15937   3.450   0.647   9.058  0.3805  0.0556 -0.9206
 1492SOL    HW115938   3.410   0.733   9.067  1.0156  0.0121  2.4202
 1492SOL    HW215939   3.381   0.603   9.008 -1.6048 -0.0791  1.9291
 1493SOL     OW15940   3.358   2.939   8.790 -0.0260 -0.1191  0.8155
 1493SOL    HW115941   3.354   3.029   8.758 -0.4816 -1.5750 -3.3123
 1493SOL    HW215942   3.397   2.952   8.876 -2.2295 -1.5444  2.0281
 1494SOL     OW15943   3.440   1.058   3.309  0.3167  0.2120 -0.0718
 1494SOL    HW115944   3.509   1.117   3.339 -0.1627 -1.2275  3.7760
 1494SOL    HW215945   3.471   1.052   3.218 -0.6982 -0.9452 -0.3388
 1495SOL     OW15946   1.836   4.632   7.843  0.6031 -0.3585 -0.4738
 1495SOL    HW115947   1.786   4.581   7.907 -1.5320 -1.3550 -2.9262
 1495SOL    HW215948   1.922   4.591   7.847  0.3202 -1.0818 -2.1017
 1496SOL     OW15949   1.162   4.636   7.836 -0.3866 -0.3441  0.0514
 1496SOL    HW115950   1.181   4.697   7.764 -0.7463  2.0298  1.9488
 1496SOL    HW215951   1.244   4.614   7.880  0.1303  0.9360 -0.2482
 1497SOL     OW15952   2.257   0.643   2.189 -0.3277 -0.1863 -0.0130
 1497SOL    HW115953   2.262   0.596   2.273  2.4885 -0.5054 -0.3432
 1497SOL    HW215954   2.168   0.629   2.157 -0.8774 -2.3587  2.4226
 1498SOL     OW15955   4.169   2.233   4.445  0.4017 -0.1817  0.8538
 1498SOL    HW115956   4.104   2.275   4.389  0.8483  2.3080  2.2068
 1498SOL    HW215957   4.186   2.150   4.401  1.2886  1.8093 -2.5126
 1499SOL     OW15958   2.216   0.031  17.375  0.5935 -0.3778  0.1267
 1499SOL    HW115959   2.301   0.073  17.362 -1.1237  3.0223 -0.1500
 1499SOL    HW215960   2.184   0.096  17.438  1.9538  2.6626 -2.3308
 1500SOL     OW15961   3.071   1.884  14.029  0.3692  0.2602 -0.2475
 1500SOL    HW115962   3.146   1.881  14.089 -1.2205  0.8670  1.7650
 1500SOL    HW215963   3.114   1.885  13.944  0.7567  3.2209 -0.0219
 1501SOL     OW15964   2.284   3.325   5.040  0.4148 -0.1267 -0.0659
 1501SOL    HW115965   2.328   3.249   5.002  0.1925  0.2956 -1.1718
 1501SOL    HW215966   2.332   3.326   5.123 -1.3727  0.1091  0.9614
 1502SOL     OW15967   4.217   4.603   8.654  0.5657  0.4802  0.7403
 1502SOL    HW115968   4.228   4.511   8.630  2.2881  0.8049  0.3215
 1502SOL    HW215969   4.160   4.639   8.586  3.2110  2.8442 -0.2290
 1503SOL     OW15970   3.494   2.777  17.532 -0.1455 -0.1789 -0.4569
 1503SOL    HW115971   3.572   2.757  17.584  0.2226  0.1280 -0.8832
 1503SOL    HW215972   3.529   2.738  17.452 -0.6415 -0.2298 -0.6463
 1504SOL     OW15973   0.670   3.865   7.886  0.7441  0.5522  0.2653
 1504SOL    HW115974   0.618   3.910   7.819  1.7846 -1.3542 -1.8232
 1504SOL    HW215975   0.683   3.940   7.944  0.1011  0.8574  0.0128
 1505SOL     OW15976   2.894   1.247  15.096 -0.4300 -0.2602 -0.0668
 1505SOL    HW115977   2.813   1.254  15.146 -0.5682 -0.3046 -0.2808
 1505SOL    HW215978   2.963   1.201  15.142 -1.0065  0.2506  1.2977
 1506SOL     OW15979   1.310   4.341   1.300 -0.1474 -0.0616 -0.3840
 1506SOL    HW115980   1.359   4.365   1.221 -1.2725 -1.0121 -1.3638
 1506SOL    HW215981   1.257   4.421   1.310 -1.6556 -1.1095 -0.0625
 1507SOL     OW15982   2.297   1.908   6.597 -0.1246 -0.4575 -0.6584
 1507SOL    HW115983   2.367   1.934   6.657 -0.6822 -3.0144  1.0794
 1507SOL    HW215984   2.346   1.900   6.516 -0.6042  0.2791 -1.0294
 1508SOL     OW15985   3.286   1.814  16.730 -0.1230 -0.4016  0.1587
 1508SOL    HW115986   3.198   1.846  16.707 -0.3328 -0.1995  1.2204
 1508SOL    HW215987   3.274   1.788  16.821 -1.1280  0.3610  0.2436
 1509SOL     OW15988   4.418   3.571   4.669 -0.3997 -0.1748  0.5265
 1509SOL    HW115989   4.402   3.602   4.758 -1.1724  1.0541 -0.0503
 1509SOL    HW215990   4.479   3.501   4.692 -1.9246 -1.6364  0.1168
 1510SOL     OW15991   3.148   1.665  11.759 -0.1053  0.5918 -0.2035
 1510SOL    HW115992   3.122   1.674  11.667  1.1321 -0.4045 -0.6368
 1510SOL    HW215993   3.175   1.755  11.781 -1.3202  1.0083 -0.4083
 1511SOL     OW15994   0.498   2.905   8.268 -0.1367  0.4386 -0.2385
 1511SOL    HW115995   0.431   2.956   8.223 -1.0998 -0.8150 -0.2206
 1511SOL    HW215996   0.500   2.969   8.340  0.4796  0.1159  0.0350
 1512SOL     OW15997   2.941   4.192  17.292 -0.3398  0.1893  0.1870
 1512SOL    HW115998   2.945   4.287  17.307 -0.1557  0.2772 -0.3922
 1512SOL    HW215999   3.034   4.172  17.291  0.0220  1.8621 -0.6510
 1513SOL     OW16000   2.418   4.149   5.763 -0.2138 -0.3695 -0.5973
 1513SOL    HW116001   2.360   4.073   5.758 -0.8108 -0.0149  0.9590
 1513SOL    HW216002   2.351   4.217   5.762 -1.0393 -1.1751 -0.0347
 1514SOL     OW16003   2.668   4.667   2.396  0.2268 -0.5030  0.2834
 1514SOL    HW116004   2.718   4.637   2.320  1.5661  0.6715  0.7080
 1514SOL    HW216005   2.645   4.580   2.428  0.1302  0.1616  1.9941
 1515SOL     OW16006   3.050   4.253   7.984 -0.2563  0.7931  0.0308
 1515SOL    HW116007   3.110   4.295   7.922 -1.6387  1.2812 -0.9576
 1515SOL    HW216008   3.009   4.332   8.020  1.7367  2.1763 -0.6690
 1516SOL     OW16009   0.664   4.685   9.360  0.3766  0.9066 -0.4223
 1516SOL    HW116010   0.689   4.596   9.385  0.0612  0.3745 -1.9466
 1516SOL    HW216011   0.579   4.666   9.321  0.6956  0.2809 -0.8216
 1517SOL     OW16012   2.317   1.085   9.944  0.0322 -0.3294 -0.0726
 1517SOL    HW116013   2.300   1.177   9.922 -0.5036 -1.2197 -3.2861
 1517SOL    HW216014   2.377   1.104  10.016 -0.3181  0.6444 -0.0355
 1518SOL     OW16015   3.375   2.063   3.205 -0.3686 -0.4674 -0.4048
 1518SOL    HW116016   3.315   2.117   3.155  2.8412  1.9870 -1.6383
 1518SOL    HW216017   3.385   2.105   3.290  1.9423 -0.9895 -0.4091
 1519SOL     OW16018   0.658   4.603  10.480 -0.3554  0.2228 -0.1537
 1519SOL    HW116019   0.688   4.539  10.415 -0.7744 -0.3634  0.2438
 1519SOL    HW216020   0.741   4.627  10.522  0.3368 -0.1392 -1.2886
 1520SOL     OW16021   4.315   2.579   9.383 -0.2778 -0.2461  0.8454
 1520SOL    HW116022   4.388   2.564   9.442  0.1151 -0.1787  0.3768
 1520SOL    HW216023   4.261   2.501   9.390  2.1286 -1.8895  1.1413
 1521SOL     OW16024   0.890   2.335   5.351 -0.0752 -0.1474 -0.1900
 1521SOL    HW116025   0.821   2.400   5.336 -0.0546  0.1898  1.2144
 1521SOL    HW216026   0.853   2.289   5.426  0.5955 -0.2028  0.1122
 1522SOL     OW16027   0.826   1.800   2.474  0.2066  0.3881  0.2489
 1522SOL    HW116028   0.887   1.860   2.431  1.3937 -1.9453 -1.3480
 1522SOL    HW216029   0.884   1.738   2.518  0.1458  0.1378 -0.0241
 1523SOL     OW16030   0.443   2.748   8.927  0.1683  0.0420 -0.6093
 1523SOL    HW116031   0.386   2.785   8.994 -0.2297 -0.8882 -0.4216
 1523SOL    HW216032   0.418   2.655   8.928 -2.2637  0.7083 -0.9281
 1524SOL     OW16033   1.721   3.417  12.081 -0.2970  0.3375 -0.2796
 1524SOL    HW116034   1.697   3.413  11.988 -1.3482 -0.1021  0.0215
 1524SOL    HW216035   1.814   3.392  12.080 -0.8817 -1.8398  1.0055
 1525SOL     OW16036   3.499   1.499   7.932  0.1544  0.6353 -0.3288
 1525SOL    HW116037   3.456   1.571   7.979  1.7206  1.6033 -0.3804
 1525SOL    HW216038   3.457   1.419   7.962 -1.4211  1.6310  0.1326
 1526SOL     OW16039   2.668   2.371   8.001  0.1364  0.0911 -0.0109
 1526SOL    HW116040   2.587   2.374   7.950  1.4262 -3.0602 -2.2296
 1526SOL    HW216041   2.698   2.460   7.981 -0.4676  0.2559 -0.1712
 1527SOL     OW16042   2.939   2.496  11.616 -0.1452  0.0281 -0.2793
 1527SOL    HW116043   2.911   2.422  11.562 -1.1679  0.2196  0.0017
 1527SOL    HW216044   3.015   2.529  11.568 -1.0702 -1.3820 -2.7525
 1528SOL     OW16045   2.282   1.736   3.877  0.5596  0.1971 -0.5554
 1528SOL    HW116046   2.266   1.756   3.969 -0.8505  2.6028 -1.3201
 1528SOL    HW216047   2.274   1.642   3.891  2.2567 -0.0779 -1.4039
 1529SOL     OW16048   1.042   4.440   2.645 -0.0124  0.1144 -0.0285
 1529SOL    HW116049   1.119   4.464   2.697 -0.1305 -0.4883  0.4227
 1529SOL    HW216050   1.072   4.360   2.602 -0.8336 -0.9361  1.3406
 1530SOL     OW16051   3.028   1.460   6.477 -0.7342  0.4696 -0.4891
 1530SOL    HW116052   3.021   1.491   6.386  0.3980 -2.4305 -1.5844
 1530SOL    HW216053   2.957   1.397   6.469  0.4360 -1.1164  1.6301
 1531SOL     OW16054   1.602   1.034   2.030 -0.1668 -0.1412 -0.0364
 1531SOL    HW116055   1.537   1.040   1.961 -0.1639  2.8039  0.2435
 1531SOL    HW216056   1.589   1.122   2.066  0.6298  0.4089 -1.0991
 1532SOL     OW16057   0.689   4.457   1.177 -0.0627 -0.2426 -0.1799
 1532SOL    HW116058   0.607   4.440   1.223 -0.3234 -0.7806 -0.8307
 1532SOL    HW216059   0.744   4.509   1.236 -1.0922 -1.0843  1.5162
 1533SOL     OW16060   4.063   1.525  11.605 -0.0890  0.7978 -0.4162
 1533SOL    HW116061   4.105   1.573  11.535  0.2559 -2.2660 -2.3118
 1533SOL    HW216062   4.142   1.489  11.646  0.9017  1.2621 -1.9415
 1534SOL     OW16063   3.414   4.714  11.632  0.0292  0.2824  1.1486
 1534SOL    HW116064   3.366   0.064  11.596  0.1321 -0.0129  0.4093
 1534SOL    HW216065   3.438   4.666  11.553 -1.6924 -0.5955  1.1579
 1535SOL     OW16066   4.297   3.153  14.020 -0.2941 -0.1762 -0.0255
 1535SOL    HW116067   4.205   3.154  13.993 -0.5727 -0.1848  0.8987
 1535SOL    HW216068   4.336   3.097  13.953  2.4105 -1.3843  2.5246
 1536SOL     OW16069   4.684   4.534   6.103  0.4179 -0.2988 -0.2688
 1536SOL    HW116070   4.680   4.620   6.061  1.9020  0.6246  1.4938
 1536SOL    HW216071   0.022   4.490   6.046 -2.4793 -2.1837 -1.9873
 1537SOL     OW16072   4.316   0.459   0.261 -0.1922  0.4537 -0.2273
 1537SOL    HW116073   4.312   0.364   0.272  0.2917  0.2211 -2.0512
 1537SOL    HW216074   4.246   0.474   0.197 -2.3691  0.8950  2.2551
 1538SOL     OW16075   0.901   4.423  12.083 -0.0391  0.5250  0.0263
 1538SOL    HW116076   0.970   4.393  12.024 -2.2987 -1.4666 -1.5783
 1538SOL    HW216077   0.885   4.339  12.126  0.8227  0.2414 -0.2064
 1539SOL     OW16078   1.599   1.748   5.848  0.3378  0.4412  0.6000
 1539SOL    HW116079   1.628   1.826   5.896  1.0931 -0.2058  1.1989
 1539SOL    HW216080   1.666   1.681   5.865 -1.1136 -0.9037  0.9830
 1540SOL     OW16081   1.108   2.293   2.305 -0.5684  0.2637 -0.3371
 1540SOL    HW116082   1.131   2.382   2.331  0.3179 -0.4756  1.4287
 1540SOL    HW216083   1.186   2.246   2.335 -0.2403  0.5982 -0.6681
 1541SOL     OW16084   3.934   2.454   4.703 -0.4604 -0.1205 -0.3748
 1541SOL    HW116085   3.913   2.375   4.752  0.6529  0.4285  1.0134
 1541SOL    HW216086   3.887   2.444   4.621 -0.5015 -0.0111 -0.3653
 1542SOL     OW16087   4.146   3.968   7.063  0.4989 -0.2539 -0.0914
 1542SOL    HW116088   4.141   4.051   7.110 -0.7200 -0.8359  0.7848
 1542SOL    HW216089   4.058   3.934   7.077 -0.0260  0.7461 -0.9850
 1543SOL     OW16090   3.579   2.301   1.992 -0.1980  0.0181  0.5824
 1543SOL    HW116091   3.564   2.376   2.050 -1.3504  1.6502 -1.8503
 1543SOL    HW216092   3.492   2.265   1.975 -0.1572  0.3556 -0.3170
 1544SOL     OW16093   2.806   0.572   3.251  1.1337 -0.6444  0.1605
 1544SOL    HW116094   2.817   0.666   3.265 -0.5971 -0.7483  2.2410
 1544SOL    HW216095   2.725   0.569   3.302  0.3961 -1.2923 -1.0761
 1545SOL     OW16096   1.554   0.210   6.953 -0.3217  1.1173 -0.5377
 1545SOL    HW116097   1.564   0.305   6.948  0.8674  0.9558 -1.2994
 1545SOL    HW216098   1.465   0.186   6.928  0.0720 -2.1182  1.1546
 1546SOL     OW16099   1.710   0.104  11.996  0.9569 -0.1233 -0.3045
 1546SOL    HW116100   1.790   0.052  12.008  0.5333 -0.5437  0.6636
 1546SOL    HW216101   1.675   0.075  11.913 -0.7652 -0.2192  0.4648
 1547SOL     OW16102   2.688   1.905   4.283  0.3042 -0.0828  0.0701
 1547SOL    HW116103   2.707   1.920   4.376 -1.5677 -2.3722  0.8201
 1547SOL    HW216104   2.767   1.938   4.240 -0.9406  1.4975 -1.0162
 1548SOL     OW16105   3.337   4.351   3.828  0.4025  0.5170  0.3185
 1548SOL    HW116106   3.267   4.371   3.890 -1.9708  2.3485 -2.9574
 1548SOL    HW216107   3.399   4.292   3.871 -0.8309 -1.3891 -0.5046
 1549SOL     OW16108   2.309   0.892   9.435  0.1681 -0.1582 -0.3193
 1549SOL    HW116109   2.241   0.903   9.502 -1.8259 -1.1973 -2.1594
 1549SOL    HW216110   2.365   0.837   9.489 -0.7751 -0.5966  0.2100
 1550SOL     OW16111   1.870   1.918   7.312 -0.3823 -0.2832 -0.1657
 1550SOL    HW116112   1.919   1.990   7.351  1.1704 -2.0222  1.0578
 1550SOL    HW216113   1.818   1.892   7.388 -2.2208  0.5485 -1.1244
 1551SOL     OW16114   2.604   2.627  15.111 -0.2471  0.2556 -0.4438
 1551SOL    HW116115   2.606   2.665  15.023 -0.4513  0.7347 -0.2404
 1551SOL    HW216116   2.590   2.538  15.080 -1.2924 -0.3984  1.9796
 1552SOL     OW16117   2.571   0.033   8.558  0.0240 -0.0569  0.2328
 1552SOL    HW116118   2.502   0.055   8.495  0.3686 -1.1263 -0.5152
 1552SOL    HW216119   2.625   0.111   8.568  0.9064 -0.3384 -2.2193
 1553SOL     OW16120   3.327   3.829  13.666  0.1625 -0.6984 -0.2251
 1553SOL    HW116121   3.239   3.803  13.691 -0.0024 -0.1181 -0.1868
 1553SOL    HW216122   3.360   3.859  13.750 -0.5470  2.4052 -1.0467
 1554SOL     OW16123   0.562   3.999   5.659  0.3736 -0.4685 -0.8097
 1554SOL    HW116124   0.539   3.911   5.689  1.1217 -1.1085 -2.1384
 1554SOL    HW216125   0.476   4.037   5.640 -0.4663 -1.2070  1.3965
 1555SOL     OW16126   3.380   0.917  11.818 -0.6354 -0.1949  0.3866
 1555SOL    HW116127   3.458   0.939  11.868  0.4396 -3.0837 -0.0325
 1555SOL    HW216128   3.367   0.828  11.851 -0.1167 -0.8260 -1.1148
 1556SOL     OW16129   2.881   2.151   8.076  0.6074 -0.0189 -0.0191
 1556SOL    HW116130   2.888   2.186   8.165  0.2518  0.2871 -0.1153
 1556SOL    HW216131   2.803   2.199   8.049  0.7628  1.0533  1.4228
 1557SOL     OW16132   1.675   2.380   7.779  0.5714  0.3333  0.0044
 1557SOL    HW116133   1.635   2.334   7.853  1.4687 -1.2556 -0.4976
 1557SOL    HW216134   1.601   2.401   7.722  0.4441 -0.1993 -0.0255
 1558SOL     OW16135   2.602   1.102   4.336  0.4912 -0.1131  0.2792
 1558SOL    HW116136   2.534   1.101   4.268  0.9770  0.4456 -0.2109
 1558SOL    HW216137   2.649   1.019   4.322 -2.5803 -1.9421  0.7377
 1559SOL     OW16138   2.822   2.144  10.332  0.4376 -0.0149  0.3270
 1559SOL    HW116139   2.812   2.053  10.362  1.5234  0.5592  2.4265
 1559SOL    HW216140   2.819   2.184  10.418 -0.3198 -1.4400  0.9508
 1560SOL     OW16141   2.130   1.738  14.358  0.2395 -0.4018  0.1187
 1560SOL    HW116142   2.142   1.795  14.281 -0.7050 -0.5578 -0.1500
 1560SOL    HW216143   2.046   1.775  14.387  0.7402  1.2808 -0.5534
 1561SOL     OW16144   0.985   0.578   3.607  0.7650  0.0445  0.3764
 1561SOL    HW116145   0.897   0.558   3.639  0.3426  1.7023  0.2546
 1561SOL    HW216146   1.002   0.517   3.535 -1.7431  0.4715 -0.5907
 1562SOL     OW16147   1.944   3.392   5.831 -0.3711  0.2764 -0.2991
 1562SOL    HW116148   1.987   3.365   5.750 -0.5599 -0.2423 -0.2251
 1562SOL    HW216149   2.013   3.412   5.894 -0.2586  0.4230 -0.4670
 1563SOL     OW16150   1.819   3.681   2.247  0.2682 -0.2430  0.0813
 1563SOL    HW116151   1.903   3.636   2.249 -1.0407 -2.8428 -2.7420
 1563SOL    HW216152   1.752   3.615   2.229 -0.8702  0.5922  1.2764
 1564SOL     OW16153   1.480   2.071   4.920  0.3013 -0.1235  0.5231
 1564SOL    HW116154   1.428   2.001   4.879  0.7992 -0.8810  1.1770
 1564SOL    HW216155   1.486   2.025   5.004 -0.1486 -1.0838  0.0400
 1565SOL     OW16156   3.361   0.832  14.330 -0.0516  0.8900  1.0087
 1565SOL    HW116157   3.363   0.909  14.386  0.9044 -0.0252  2.2435
 1565SOL    HW216158   3.385   0.874  14.247  1.8141 -0.5132  0.8193
 1566SOL     OW16159   1.327   0.081   9.004 -0.1485  0.4319 -0.4366
 1566SOL    HW116160   1.392   0.149   8.985  0.8938 -0.8066 -1.3393
 1566SOL    HW216161   1.331   0.053   8.913  0.8698 -2.7222  0.5830
 1567SOL     OW16162   4.404   1.335   2.684 -0.6794  0.3663  0.1111
 1567SOL    HW116163   4.464   1.319   2.758  0.8895 -0.2373 -1.2800
 1567SOL    HW216164   4.450   1.411   2.648 -1.4633  1.6272  1.7895
 1568SOL     OW16165   3.336   2.329   0.271 -0.1001  0.2050 -0.5354
 1568SOL    HW116166   3.407   2.380   0.233 -0.1649  0.4955 -0.2616
 1568SOL    HW216167   3.344   2.343   0.365 -0.3892 -0.5565 -0.3982
 1569SOL     OW16168   3.468   3.433   6.318 -0.0737  0.4864 -0.4510
 1569SOL    HW116169   3.525   3.365   6.283 -0.2744  0.4848 -0.7694
 1569SOL    HW216170   3.472   3.497   6.247 -0.0856  0.9663 -0.0174
 1570SOL     OW16171   1.735   4.502   1.634  0.5642 -0.3168 -0.1829
 1570SOL    HW116172   1.810   4.515   1.577 -0.3955  0.9948 -1.1725
 1570SOL    HW216173   1.670   4.462   1.576 -1.6631  0.6541  1.6378
 1571SOL     OW16174   0.512   0.265   1.320 -0.1852 -0.1439 -0.3620
 1571SOL    HW116175   0.564   0.333   1.279  0.2908  0.5242  1.3410
 1571SOL    HW216176   0.434   0.313   1.347 -0.2483  0.1401 -1.0570
 1572SOL     OW16177   2.288   2.027  14.643  0.1134 -0.4544 -0.1104
 1572SOL    HW116178   2.303   1.940  14.680  0.5087  0.4528  1.8344
 1572SOL    HW216179   2.377   2.060  14.634  0.2605 -0.7040  0.4064
 1573SOL     OW16180   0.718   4.678   4.203 -0.4237 -0.0208  0.3015
 1573SOL    HW116181   0.622   4.678   4.203 -0.4284  1.9953  1.4702
 1573SOL    HW216182   0.749   4.592   4.231  0.9606  0.1141 -0.8045
 1574SOL     OW16183   0.562   2.524  17.035 -0.0746 -0.1584  0.0266
 1574SOL    HW116184   0.538   2.463  16.965 -1.2240  0.2480  0.0716
 1574SOL    HW216185   0.644   2.481  17.059 -0.6334 -1.0272  0.4220
 1575SOL     OW16186   1.568   1.740  11.663 -0.2044 -0.4796 -0.3378
 1575SOL    HW116187   1.556   1.690  11.582  1.4880 -0.9083 -0.3416
 1575SOL    HW216188   1.487   1.789  11.653  1.2984  1.8859 -1.2188
 1576SOL     OW16189   0.513   4.031   4.221 -0.2537 -0.0096  0.1159
 1576SOL    HW116190   0.598   4.074   4.236 -1.0410  1.7721 -0.5407
 1576SOL    HW216191   0.537   3.954   4.274 -1.0009  0.5103  1.1966
 1577SOL     OW16192   3.311   1.943   7.477 -0.0385  0.4845  0.0726
 1577SOL    HW116193   3.322   2.023   7.425  0.2778  1.2668  1.3677
 1577SOL    HW216194   3.401   1.917   7.456  0.2252 -0.9360  3.1029
 1578SOL     OW16195   3.501   0.018  10.319 -0.1153  0.1380  0.2971
 1578SOL    HW116196   3.459   4.701  10.394 -1.8158 -0.5982 -1.0775
 1578SOL    HW216197   3.554   0.080  10.369 -0.9561  0.2034  1.1054
 1579SOL     OW16198   3.039   3.629   3.935 -0.6798 -0.4461  0.4494
 1579SOL    HW116199   3.096   3.704   3.955  2.4357 -2.3737 -1.1016
 1579SOL    HW216200   3.101   3.566   3.971 -0.0073  0.2858  0.5764
 1580SOL     OW16201   4.682   3.403   3.089 -0.6560 -0.6928 -0.1461
 1580SOL    HW116202   4.658   3.396   3.181 -0.6998  0.6264 -0.0523
 1580SOL    HW216203   4.683   3.313   3.057 -2.1832 -1.3489  1.6650
 1581SOL     OW16204   2.637   3.519  13.871  0.2302 -0.3130 -0.5016
 1581SOL    HW116205   2.543   3.534  13.878  0.4907  0.9180  0.3677
 1581SOL    HW216206   2.635   3.443  13.813  1.0173 -0.5882 -0.1711
 1582SOL     OW16207   4.432   1.116   5.667 -0.0335  1.1505  0.1355
 1582SOL    HW116208   4.389   1.045   5.620 -0.3124 -0.6387  3.1739
 1582SOL    HW216209   4.430   1.073   5.752  0.1414  1.3797  0.2572
 1583SOL     OW16210   3.085   4.505   7.562  0.1324  0.0860  0.2289
 1583SOL    HW116211   3.017   4.560   7.524 -1.2714 -1.0739  1.0569
 1583SOL    HW216212   3.065   4.416   7.533 -0.0103  0.7146 -1.6039
 1584SOL     OW16213   0.999   1.877   5.791  0.1724  0.5145  0.1949
 1584SOL    HW116214   0.960   1.806   5.842 -4.0068  1.6774 -1.3932
 1584SOL    HW216215   1.093   1.874   5.807  0.3217  3.2522 -0.2062
 1585SOL     OW16216   1.054   4.405  17.591 -0.8861 -0.6256 -0.0792
 1585SOL    HW116217   1.043   4.378  17.499 -1.5686 -1.7741  0.3376
 1585SOL    HW216218   1.069   4.500  17.587  1.2357 -1.0120 -1.5108
 1586SOL     OW16219   0.180   3.106   6.862 -0.1563 -0.1453  0.2470
 1586SOL    HW116220   0.124   3.029   6.874 -0.6391 -0.2992 -3.0322
 1586SOL    HW216221   0.165   3.108   6.767 -1.4262 -0.9548  0.4410
 1587SOL     OW16222   2.912   4.618   3.938 -0.1488 -0.2854 -0.1734
 1587SOL    HW116223   2.982   4.681   3.919 -0.7520  0.8719  1.5282
 1587SOL    HW216224   2.929   4.551   3.872 -2.7417 -0.6243 -0.4758
 1588SOL     OW16225   0.583   2.916   7.182  0.1086 -0.5166  0.4457
 1588SOL    HW116226   0.632   2.917   7.101  1.1606 -1.2238  1.0810
 1588SOL    HW216227   0.620   2.999   7.212  3.1949 -0.4711 -3.5210
 1589SOL     OW16228   4.189   1.941   3.888  0.2914 -0.0195 -0.5185
 1589SOL    HW116229   4.145   2.013   3.933 -2.8267 -0.2089 -3.2698
 1589SOL    HW216230   4.185   1.870   3.951 -2.0366 -0.8566 -1.6181
 1590SOL     OW16231   1.028   0.712  11.684 -0.0901  0.2538  0.2302
 1590SOL    HW116232   1.005   0.786  11.627 -0.4176 -1.2143 -1.5194
 1590SOL    HW216233   1.092   0.761  11.736 -0.6959  2.3195 -0.9429
 1591SOL     OW16234   2.166   3.555   7.523  0.2621 -0.5795  0.1158
 1591SOL    HW116235   2.126   3.637   7.492  0.3454 -1.1337 -1.4786
 1591SOL    HW216236   2.121   3.494   7.464  1.3266 -0.9239 -0.3297
 1592SOL     OW16237   1.261   0.266   5.389  0.1413 -0.0346  0.4994
 1592SOL    HW116238   1.199   0.217   5.444  0.1763 -0.3610  0.2483
 1592SOL    HW216239   1.256   0.223   5.303 -1.2322 -0.0011  0.5611
 1593SOL     OW16240   2.226   4.270   6.183 -0.1628  0.4766 -0.4653
 1593SOL    HW116241   2.311   4.309   6.164  0.8206 -1.1060  0.6691
 1593SOL    HW216242   2.168   4.346   6.183 -1.4216 -0.4808 -1.2999
 1594SOL     OW16243   3.015   1.640   5.109 -0.3283 -0.3420 -0.0496
 1594SOL    HW116244   3.018   1.548   5.081  0.4755  0.3587 -2.2153
 1594SOL    HW216245   2.934   1.650   5.159  0.6895  2.6408  0.9817
 1595SOL     OW16246   4.565   1.877  14.437  0.0224  0.1969 -0.5828
 1595SOL    HW116247   4.469   1.872  14.447 -0.2955  0.3607 -3.6071
 1595SOL    HW216248   4.570   1.945  14.370  0.9002 -0.5980 -1.3222
 1596SOL     OW16249   2.596   4.466  11.708  0.6253  0.2594  0.1933
 1596SOL    HW116250   2.652   4.400  11.751 -0.3323 -1.6541 -1.4847
 1596SOL    HW216251   2.583   4.537  11.771 -0.2561  1.0065 -0.8553
 1597SOL     OW16252   2.866   1.013   5.300  0.3943  0.3458 -0.1152
 1597SOL    HW116253   2.794   0.957   5.330  0.0732 -0.0849 -1.7240
 1597SOL    HW216254   2.810   1.082   5.264 -0.4389 -0.1416  0.2315
 1598SOL     OW16255   4.402   0.243   5.453  0.0388  0.4619 -0.4172
 1598SOL    HW116256   4.393   0.272   5.544  2.2284 -1.0215  0.2791
 1598SOL    HW216257   4.489   0.275   5.431  0.9425 -0.6505  1.5500
 1599SOL     OW16258   0.756   4.365   7.901  0.1055  0.3810  0.0207
 1599SOL    HW116259   0.838   4.402   7.870 -1.1281  0.7831 -2.7705
 1599SOL    HW216260   0.722   4.321   7.823 -2.4153  3.6710 -0.7488
 1600SOL     OW16261   1.944   0.814   3.036  0.3410 -0.0707 -0.1271
 1600SOL    HW116262   1.891   0.734   3.036 -1.1328  0.9025  0.0578
 1600SOL    HW216263   1.915   0.836   2.947  0.9327 -2.4858 -0.9437
 1601SOL     OW16264   1.925   3.282   9.408 -0.4847  0.2438  0.9098
 1601SOL    HW116265   1.994   3.261   9.472  0.3340 -0.6405 -0.2709
 1601SOL    HW216266   1.851   3.281   9.469 -2.3219 -1.0157 -1.3504
 1602SOL     OW16267   2.884   4.589   9.426  0.2902  0.8578  0.0859
 1602SOL    HW116268   2.889   4.684   9.430 -2.9940  1.0762 -1.2441
 1602SOL    HW216269   2.953   4.562   9.487  0.5637 -3.4538 -2.1259
 1603SOL     OW16270   1.776   1.547   3.552 -0.5952  0.0403  0.6644
 1603SOL    HW116271   1.808   1.610   3.617  1.1910 -1.7344  1.5090
 1603SOL    HW216272   1.681   1.556   3.555 -0.6030 -0.0894  0.8272
 1604SOL     OW16273   3.968   2.347   4.275 -0.1194 -0.2212 -0.3089
 1604SOL    HW116274   3.876   2.365   4.294 -0.7101 -2.5589 -0.8568
 1604SOL    HW216275   3.954   2.298   4.194 -1.2963 -1.3328  0.5592
 1605SOL     OW16276   1.431   3.373   0.179  0.4659  0.2961  0.0853
 1605SOL    HW116277   1.400   3.403   0.093  1.7151  0.1943 -0.4057
 1605SOL    HW216278   1.384   3.289   0.185 -2.2691  1.6656 -2.0163
 1606SOL     OW16279   1.206   0.571   5.497 -0.5047 -0.1722 -0.1210
 1606SOL    HW116280   1.117   0.538   5.488 -1.6248  2.5237  1.0131
 1606SOL    HW216281   1.257   0.515   5.438 -3.0119 -1.1187 -1.3991
 1607SOL     OW16282   2.117   3.867  12.658  0.3603 -0.5507 -0.7178
 1607SOL    HW116283   2.084   3.892  12.572  0.2358  0.1128 -0.4752
 1607SOL    HW216284   2.121   3.954  12.698 -0.9558  0.2448 -2.3263
 1608SOL     OW16285   2.544   2.202   2.379 -0.7130 -0.0384 -0.0690
 1608SOL    HW116286   2.583   2.273   2.328 -1.1354  0.4370  0.2684
 1608SOL    HW216287   2.453   2.229   2.385 -1.2385 -1.8134  0.0552
 1609SOL     OW16288   1.685   3.243   4.081  0.4011 -0.9056  0.2761
 1609SOL    HW116289   1.621   3.198   4.027  1.7713 -0.4105 -1.7816
 1609SOL    HW216290   1.759   3.182   4.077  0.2075 -1.0730 -0.7232
 1610SOL     OW16291   0.656   0.957   7.180  0.2847  0.3766  0.1641
 1610SOL    HW116292   0.576   0.974   7.231  1.8253  2.7984  1.7374
 1610SOL    HW216293   0.683   1.048   7.180  0.0522  0.4340 -1.3832
 1611SOL     OW16294   2.940   4.480   6.761  0.0754 -0.6970 -0.2328
 1611SOL    HW116295   2.946   4.567   6.801 -1.3273 -0.0766 -1.3436
 1611SOL    HW216296   2.950   4.422   6.836  1.8938 -0.3559 -0.2129
 1612SOL     OW16297   2.069   3.207  15.524  0.5166 -0.1147 -0.0030
 1612SOL    HW116298   2.072   3.169  15.612  2.6546  0.8337  0.3374
 1612SOL    HW216299   2.053   3.297  15.551  2.0337  0.0225  0.4708
 1613SOL     OW16300   4.600   2.806   7.772 -0.2541 -0.4022  0.4692
 1613SOL    HW116301   4.654   2.733   7.741  2.5897  0.4644  3.4144
 1613SOL    HW216302   4.658   2.880   7.751  1.8761 -2.3751 -0.6338
 1614SOL     OW16303   0.166   4.195   5.402 -0.2203 -0.8945 -0.2767
 1614SOL    HW116304   0.169   4.281   5.359  2.6250 -1.6225 -1.5257
 1614SOL    HW216305   0.123   4.229   5.480 -0.3961 -1.6510 -0.0549
 1615SOL     OW16306   0.877   3.127   4.163 -0.6666  0.2638  0.0532
 1615SOL    HW116307   0.888   3.219   4.186  0.2606 -0.7175  3.5292
 1615SOL    HW216308   0.812   3.106   4.229  2.0981  0.2571  2.7921
 1616SOL     OW16309   1.144   3.107   7.194 -0.0960  0.0780  0.4548
 1616SOL    HW116310   1.225   3.089   7.145  0.6660  1.6710  1.1339
 1616SOL    HW216311   1.075   3.119   7.129  1.8365 -1.0143 -1.8210
 1617SOL     OW16312   2.630   0.373   3.863  0.1091  0.3839  0.3535
 1617SOL    HW116313   2.655   0.360   3.771 -0.8458 -0.4140  0.2021
 1617SOL    HW216314   2.699   0.436   3.883  3.1198 -1.9610 -2.6360
 1618SOL     OW16315   2.520   0.661   7.942 -0.1137 -0.0455  0.0857
 1618SOL    HW116316   2.434   0.695   7.968 -0.8665 -0.5655 -1.6874
 1618SOL    HW216317   2.570   0.729   7.986 -1.7806  0.1675  1.6422
 1619SOL     OW16318   3.272   0.087   5.365 -0.4936 -0.0963 -0.1814
 1619SOL    HW116319   3.264   0.172   5.409 -1.0484 -0.9165  1.3163
 1619SOL    HW216320   3.201   0.039   5.408  0.8595 -2.1233 -0.1953
 1620SOL     OW16321   1.603   1.844   6.862 -0.0771  0.1906 -0.0217
 1620SOL    HW116322   1.622   1.779   6.929  0.0340 -0.0449 -0.2814
 1620SOL    HW216323   1.606   1.922   6.918  0.0574  0.7108 -0.7505
 1621SOL     OW16324   4.530   0.543   4.134 -0.0216 -0.1404  0.2739
 1621SOL    HW116325   4.457   0.481   4.126  0.0404  0.2010 -2.7316
 1621SOL    HW216326   4.503   0.593   4.058 -2.7129  0.8724  1.8937
 1622SOL     OW16327   1.283   3.382   3.007 -0.6977  0.0022 -0.2914
 1622SOL    HW116328   1.198   3.407   3.045 -0.4506  0.6397 -0.1692
 1622SOL    HW216329   1.292   3.427   2.923 -3.6637  1.1841  0.0232
 1623SOL     OW16330   1.254   4.664   5.067  0.1651 -0.0948  0.0716
 1623SOL    HW116331   1.204   4.670   4.985  1.7873 -0.2841 -0.9265
 1623SOL    HW216332   1.245   4.573   5.094  0.7709  0.4542  2.1276
 1624SOL     OW16333   0.952   1.363  16.292  0.0039 -0.0307  0.1751
 1624SOL    HW116334   1.033   1.405  16.319  0.2553  0.8657 -1.9357
 1624SOL    HW216335   0.920   1.348  16.381  0.8692  0.8339  0.6309
 1625SOL     OW16336   0.424   1.386   8.848 -0.1476  0.0771  0.1929
 1625SOL    HW116337   0.419   1.303   8.801 -1.7018 -0.2508  0.9425
 1625SOL    HW216338   0.519   1.399   8.857  0.3910 -3.1494 -0.6714
 1626SOL     OW16339   0.777   0.441   1.929  0.0791 -0.5070  0.6336
 1626SOL    HW116340   0.754   0.470   2.017 -0.8241  2.3612 -0.5532
 1626SOL    HW216341   0.714   0.369   1.923 -0.3113 -0.2220  1.2541
 1627SOL     OW16342   0.921   3.871   8.982  0.2756  0.2146  0.2776
 1627SOL    HW116343   0.939   3.885   8.888  2.7320 -0.6579  0.6089
 1627SOL    HW216344   0.826   3.883   8.983  0.4039  1.3011 -0.5761
 1628SOL     OW16345   0.917   3.994   6.001  0.6624  0.2540 -0.1433
 1628SOL    HW116346   0.822   3.989   5.990  0.8924 -0.4410 -1.8647
 1628SOL    HW216347   0.929   3.978   6.094  0.9346 -1.5674 -0.4992
 1629SOL     OW16348   3.559   2.340   5.005  0.1984 -0.9985 -0.3712
 1629SOL    HW116349   3.565   2.384   4.920  2.4937  1.8723  1.2815
 1629SOL    HW216350   3.475   2.296   4.996 -0.8920  1.2629 -1.3941
 1630SOL     OW16351   0.715   2.005   9.134 -0.6225 -0.3162 -0.8789
 1630SOL    HW116352   0.764   2.054   9.199 -0.5692 -0.6484 -0.6697
 1630SOL    HW216353   0.632   2.052   9.140 -0.1924  0.2846  0.4136
 1631SOL     OW16354   3.579   0.770   4.305  0.0127 -0.8710 -0.5721
 1631SOL    HW116355   3.617   0.704   4.247  1.1143 -1.9559  1.3793
 1631SOL    HW216356   3.585   0.833   4.233 -0.8195 -2.0801 -1.6967
 1632SOL     OW16357   1.881   1.328  17.285 -0.4730  0.2215  0.3855
 1632SOL    HW116358   1.786   1.326  17.295 -0.3191 -1.3423  1.5263
 1632SOL    HW216359   1.901   1.413  17.325  2.1945  0.1735 -0.8714
 1633SOL     OW16360   3.948   4.501   3.058 -0.0765  0.5198 -0.1806
 1633SOL    HW116361   4.017   4.565   3.071  0.4503 -0.1828  0.4557
 1633SOL    HW216362   3.975   4.464   2.973  0.1823 -2.0467  1.0280
 1634SOL     OW16363   2.054   4.050   3.257 -0.4676 -0.3940  0.3462
 1634SOL    HW116364   2.071   4.050   3.163  0.2661 -0.6819  0.4746
 1634SOL    HW216365   2.127   3.993   3.282  0.0165  0.4138  0.7427
 1635SOL     OW16366   2.310   3.056   9.326  0.1599  0.0283  0.0126
 1635SOL    HW116367   2.228   3.077   9.281 -0.8609 -0.3536  1.6515
 1635SOL    HW216368   2.356   2.993   9.271  0.1896 -0.1366  0.2261
 1636SOL     OW16369   2.393   4.158   4.652  0.5851 -0.4176  0.4352
 1636SOL    HW116370   2.369   4.088   4.591 -1.4108  0.7057 -0.0833
 1636SOL    HW216371   2.337   4.138   4.727 -1.3848  0.9011 -0.6828
 1637SOL     OW16372   0.477   1.594   6.362 -0.3731 -0.3175  0.5624
 1637SOL    HW116373   0.385   1.594   6.336  0.4567  0.2883 -2.4121
 1637SOL    HW216374   0.510   1.518   6.315  0.3869 -0.3964  1.2355
 1638SOL     OW16375   3.139   4.301   2.465 -0.0640  0.2460 -0.0549
 1638SOL    HW116376   3.157   4.386   2.424  1.6587 -0.0943  0.0049
 1638SOL    HW216377   3.126   4.253   2.384  0.8448  0.0535 -0.0811
 1639SOL     OW16378   0.919   4.279  16.463 -0.6133 -0.3986 -0.0433
 1639SOL    HW116379   0.844   4.259  16.407 -0.5654 -1.4941  0.2843
 1639SOL    HW216380   0.943   4.191  16.490  0.9480  0.8628  2.8387
 1640SOL     OW16381   2.634   4.083   9.576  0.2710  0.2186 -0.3401
 1640SOL    HW116382   2.708   4.026   9.596 -1.6779 -2.2062 -0.0783
 1640SOL    HW216383   2.594   4.046   9.497  0.5004 -2.7641  0.9790
 1641SOL     OW16384   1.376   0.119   8.426  0.1412  0.1125 -0.5580
 1641SOL    HW116385   1.340   0.149   8.343  0.4047  1.5234 -0.1601
 1641SOL    HW216386   1.317   0.045   8.438 -0.0515  0.4389  0.5479
 1642SOL     OW16387   3.230   4.468   8.928  0.3493  0.4043 -0.3753
 1642SOL    HW116388   3.241   4.496   9.019 -0.5195  0.9761 -0.4465
 1642SOL    HW216389   3.301   4.515   8.884  0.7430 -0.0696 -0.2398
 1643SOL     OW16390   1.306   3.164   7.848  0.3668 -0.6921 -0.2762
 1643SOL    HW116391   1.399   3.180   7.865  0.5188 -2.8430  0.8176
 1643SOL    HW216392   1.268   3.231   7.905  0.5469  0.6424 -1.7000
 1644SOL     OW16393   0.323   1.260   8.157  0.0670 -0.2945  0.3019
 1644SOL    HW116394   0.362   1.176   8.133  1.7785  0.6294 -0.1803
 1644SOL    HW216395   0.289   1.291   8.073 -0.0426  0.9483  0.7936
 1645SOL     OW16396   3.594   0.873  11.577  0.0008  0.6037  0.2844
 1645SOL    HW116397   3.623   0.914  11.495 -1.9017 -0.5229 -0.9627
 1645SOL    HW216398   3.680   0.857  11.614 -0.2590  0.6736  0.9245
 1646SOL     OW16399   3.724   2.352  14.362  0.4443 -0.4022  0.0684
 1646SOL    HW116400   3.802   2.397  14.394 -1.5904  1.4232  2.4910
 1646SOL    HW216401   3.653   2.413  14.380  2.4634  2.2943 -1.1746
 1647SOL     OW16402   1.815   3.972   2.836  0.3216  0.1372  0.4159
 1647SOL    HW116403   1.897   3.933   2.806  0.3097  0.7316 -0.3939
 1647SOL    HW216404   1.826   4.061   2.805 -2.2425 -0.0135 -0.9242
 1648SOL     OW16405   3.834   2.619   5.216  0.2167  0.2283 -0.4606
 1648SOL    HW116406   3.821   2.524   5.219  1.1065  0.1979  2.0364
 1648SOL    HW216407   3.883   2.635   5.297 -0.2909  0.1494 -0.1386
 1649SOL     OW16408   4.240   3.558   5.915 -0.2759 -0.7555  0.6831
 1649SOL    HW116409   4.198   3.640   5.889  0.0562 -0.9198 -0.3492
 1649SOL    HW216410   4.286   3.589   5.993 -2.1501  2.1483  0.6453
 1650SOL     OW16411   3.577   1.173   9.129  0.1327 -0.4171 -0.4846
 1650SOL    HW116412   3.638   1.146   9.197 -3.1352  1.0396  3.0257
 1650SOL    HW216413   3.520   1.229   9.181 -0.7623 -1.2306 -0.5811
 1651SOL     OW16414   4.407   2.031   8.407  0.3624 -0.4427  0.5214
 1651SOL    HW116415   4.313   2.032   8.390  0.1082  2.6074  2.2256
 1651SOL    HW216416   4.412   2.120   8.442 -0.5626 -0.3451  0.3928
 1652SOL     OW16417   1.308   3.196   9.235  0.0378 -0.9010 -0.2359
 1652SOL    HW116418   1.401   3.186   9.217  0.0300 -0.4083 -0.5528
 1652SOL    HW216419   1.314   3.280   9.280  1.2793 -1.0862 -0.0575
 1653SOL     OW16420   2.557   3.705   8.430  0.2757 -0.1926  0.4210
 1653SOL    HW116421   2.512   3.623   8.452 -0.4351  0.5187  1.6318
 1653SOL    HW216422   2.530   3.709   8.339 -0.1544 -0.0232  0.5596
 1654SOL     OW16423   0.486   0.225   2.982  0.4110 -0.0563 -0.3613
 1654SOL    HW116424   0.431   0.237   3.059 -0.0422  0.5549 -0.7788
 1654SOL    HW216425   0.564   0.182   3.016  0.8730  0.3389 -0.9089
 1655SOL     OW16426   2.198   0.301  12.776  0.0086  0.3614 -0.3096
 1655SOL    HW116427   2.142   0.325  12.702  0.1508  1.3196 -0.1062
 1655SOL    HW216428   2.246   0.382  12.791  0.8751 -0.0079 -1.0634
 1656SOL     OW16429   1.131   3.540   5.137 -0.5782 -0.2853 -0.7143
 1656SOL    HW116430   1.152   3.567   5.048  3.1431 -1.1474 -0.0954
 1656SOL    HW216431   1.039   3.558   5.157 -1.3786 -3.6014 -1.3832
 1657SOL     OW16432   0.079   4.681  10.140  0.1842  0.0761  0.1599
 1657SOL    HW116433   0.053   4.591  10.119  0.7044 -0.1656  0.5643
 1657SOL    HW216434   4.715   4.712  10.163  0.0064  0.4407 -1.0543
 1658SOL     OW16435   1.795   3.806   6.275  0.7851 -0.1663 -0.6387
 1658SOL    HW116436   1.806   3.749   6.198  0.1232  1.4548 -1.9462
 1658SOL    HW216437   1.838   3.884   6.239 -1.8699  1.7233  0.3316
 1659SOL     OW16438   2.480   2.261  12.384 -0.3201 -0.6521  0.4231
 1659SOL    HW116439   2.479   2.199  12.457 -1.0157  0.0253  0.9845
 1659SOL    HW216440   2.428   2.214  12.319  0.7635  0.2478 -1.1142
 1660SOL     OW16441   4.119   0.524   5.363  0.5339 -0.2875 -0.1459
 1660SOL    HW116442   4.100   0.573   5.282  0.3725 -1.3331 -0.7400
 1660SOL    HW216443   4.075   0.443   5.336 -2.0961  0.7657  0.9642
 1661SOL     OW16444   2.250   0.372   4.945  0.4757 -0.3838 -0.5354
 1661SOL    HW116445   2.185   0.428   4.903 -1.1386 -1.7616  0.1260
 1661SOL    HW216446   2.241   0.291   4.895  0.8810 -2.1069  2.1919
 1662SOL     OW16447   4.435   3.083  10.262  0.1347 -0.2023  0.4302
 1662SOL    HW116448   4.514   3.133  10.240  1.3132 -1.4542  1.8161
 1662SOL    HW216449   4.418   3.096  10.355 -0.4711 -0.3942  0.3457
 1663SOL     OW16450   0.110   3.797   9.495  0.0425 -0.1898  0.4197
 1663SOL    HW116451   0.146   3.731   9.436  0.6755  1.4193 -0.9887
 1663SOL    HW216452   0.182   3.806   9.558  0.1585 -1.3112  0.4454
 1664SOL     OW16453   3.040   4.029   0.074 -0.2305 -0.3304 -0.6392
 1664SOL    HW116454   3.012   3.937   0.072  0.4379 -0.5367 -0.5499
 1664SOL    HW216455   3.004   4.056   0.159 -0.8386 -1.3175 -0.5790
 1665SOL     OW16456   3.153   0.265   6.706 -0.3967  0.2400  0.1268
 1665SOL    HW116457   3.073   0.316   6.692 -1.2783 -1.4843 -1.0970
 1665SOL    HW216458   3.126   0.174   6.716  0.9874  0.0231  1.8679
 1666SOL     OW16459   1.584   3.613   1.109 -0.4609  0.4658 -0.9453
 1666SOL    HW116460   1.648   3.631   1.040  2.3247  0.5963  1.6678
 1666SOL    HW216461   1.496   3.615   1.072 -1.1063  2.7212  0.7306
 1667SOL     OW16462   2.611   2.419   3.088  0.2339  0.4535  0.7626
 1667SOL    HW116463   2.702   2.448   3.084 -0.2986  1.9899 -0.6502
 1667SOL    HW216464   2.567   2.500   3.062 -1.6401 -0.5186  0.9143
 1668SOL     OW16465   3.627   2.217  17.680 -0.4539 -0.0808 -0.0041
 1668SOL    HW116466   3.645   2.270   0.058  0.4288 -0.8450  0.3242
 1668SOL    HW216467   3.622   2.132   0.026  1.3802 -0.7655 -1.0831
 1669SOL     OW16468   2.948   0.427   0.279  0.4475 -0.9004  0.2041
 1669SOL    HW116469   3.030   0.466   0.309  1.9972 -3.2718 -0.8516
 1669SOL    HW216470   2.888   0.480   0.330  1.3009 -0.3371  0.6160
 1670SOL     OW16471   4.187   0.473   1.295 -0.4347  0.2938 -0.0051
 1670SOL    HW116472   4.148   0.485   1.209 -0.8021  1.1608  0.2873
 1670SOL    HW216473   4.267   0.524   1.280 -0.0473  0.3980  2.4080
 1671SOL     OW16474   2.416   4.456   7.857 -0.2247  0.2529 -0.2768
 1671SOL    HW116475   2.392   4.380   7.804 -0.4301  0.7688 -0.9177
 1671SOL    HW216476   2.510   4.435   7.860  0.0733  1.4411 -1.1906
 1672SOL     OW16477   3.400   2.544   8.213  0.5585  0.3239 -0.4515
 1672SOL    HW116478   3.440   2.582   8.135  0.8832  2.6199  0.8405
 1672SOL    HW216479   3.472   2.543   8.276  0.5912  0.8233 -0.4822
 1673SOL     OW16480   0.232   2.119   3.528 -0.6361 -1.0552  0.3726
 1673SOL    HW116481   0.199   2.031   3.544  0.2446 -1.3803  0.4333
 1673SOL    HW216482   0.167   2.170   3.576 -1.1156  0.9867 -2.4261
 1674SOL     OW16483   4.213   3.752   4.057  0.0051 -0.0086  0.1324
 1674SOL    HW116484   4.145   3.800   4.105 -0.7041 -1.2966  0.3887
 1674SOL    HW216485   4.237   3.696   4.131  3.0796  0.3647 -0.5752
 1675SOL     OW16486   1.204   4.487  12.094 -0.5506  0.1211 -0.2321
 1675SOL    HW116487   1.148   4.532  12.157  0.9870  2.4187 -0.5017
 1675SOL    HW216488   1.279   4.546  12.094  0.3241 -0.9899  1.6662
 1676SOL     OW16489   0.820   3.220   3.778  0.3414 -0.1079  0.0501
 1676SOL    HW116490   0.867   3.287   3.728 -0.3466  1.1347  1.0823
 1676SOL    HW216491   0.882   3.148   3.764 -0.1893 -0.3670 -0.9705
 1677SOL     OW16492   2.307   2.238  17.565 -0.6528 -0.0819  0.3471
 1677SOL    HW116493   2.319   2.276  17.653  1.3310  0.9908 -0.3786
 1677SOL    HW216494   2.372   2.293  17.521 -0.5554 -0.0582  0.5197
 1678SOL     OW16495   1.811   3.086   3.520 -0.1859  0.3151  0.6329
 1678SOL    HW116496   1.856   3.045   3.447 -1.3607  0.5380 -0.2110
 1678SOL    HW216497   1.877   3.119   3.582  0.3660  0.8406 -0.2398
 1679SOL     OW16498   1.133   1.806   7.512 -0.2099  0.0743  0.4146
 1679SOL    HW116499   1.107   1.715   7.497 -2.6203  1.0357 -1.2040
 1679SOL    HW216500   1.227   1.790   7.506 -0.0530  1.3768 -0.3760
 1680SOL     OW16501   2.586   4.249   5.588 -0.4392  0.0821 -0.1530
 1680SOL    HW116502   2.525   4.208   5.649  0.6445  0.1852  1.0064
 1680SOL    HW216503   2.674   4.253   5.626 -0.2141 -1.3175 -0.5136
 1681SOL     OW16504   2.864   4.185  11.441 -0.1611 -0.3262  0.1514
 1681SOL    HW116505   2.816   4.268  11.447  0.5369  0.0834  0.0637
 1681SOL    HW216506   2.837   4.149  11.525 -0.0735 -2.1165 -0.5769
 1682SOL     OW16507   2.619   2.615  10.608 -0.0922  0.1784 -0.2969
 1682SOL    HW116508   2.611   2.520  10.596 -1.8090  0.5465 -2.0640
 1682SOL    HW216509   2.559   2.622  10.682 -1.7646  0.6102 -1.6888
 1683SOL     OW16510   2.228   2.591   7.928  0.1043  0.4851  0.2017
 1683SOL    HW116511   2.245   2.609   8.020 -0.0721  0.5664  0.2165
 1683SOL    HW216512   2.176   2.511   7.931  0.6006  0.1642  0.3542
 1684SOL     OW16513   0.515   3.076   5.279 -0.1376  0.0045  0.0298
 1684SOL    HW116514   0.515   3.036   5.192 -1.2452  0.2162 -0.0655
 1684SOL    HW216515   0.460   3.153   5.265 -0.5393 -0.2718  0.0914
 1685SOL     OW16516   2.501   0.336  11.671  0.3233  0.3316 -0.2852
 1685SOL    HW116517   2.495   0.241  11.667 -0.1987  0.3604 -0.1522
 1685SOL    HW216518   2.498   0.350  11.765  0.0364 -2.4098  0.0971
 1686SOL     OW16519   2.953   1.554  15.174  0.1311  0.4342 -0.1553
 1686SOL    HW116520   2.884   1.537  15.238 -0.3432  0.0461 -0.7790
 1686SOL    HW216521   2.953   1.480  15.114 -0.3208  0.3658 -0.0701
 1687SOL     OW16522   0.453   1.363  10.102 -1.1295 -0.3139  0.0906
 1687SOL    HW116523   0.359   1.355  10.082 -1.0068 -0.6909 -0.3341
 1687SOL    HW216524   0.455   1.458  10.113  0.3418 -0.2861 -0.4591
 1688SOL     OW16525   1.403   3.053   7.070 -0.5765  0.3684 -0.5965
 1688SOL    HW116526   1.390   3.019   6.982  0.8028 -0.8605 -0.3328
 1688SOL    HW216527   1.479   2.997   7.088  0.9100  1.8513 -2.3019
 1689SOL     OW16528   2.776   2.380   2.284  0.0584  0.6753  0.1836
 1689SOL    HW116529   2.790   2.457   2.228 -1.4845 -0.9570 -2.4582
 1689SOL    HW216530   2.790   2.420   2.370  0.8498 -2.6717  1.6082
 1690SOL     OW16531   0.030   1.705  14.248 -0.4223 -0.3563  0.0919
 1690SOL    HW116532   4.680   1.646  14.236 -0.0577 -0.2028 -2.8469
 1690SOL    HW216533   0.071   1.704  14.161 -1.4678 -0.6353 -0.3962
 1691SOL     OW16534   2.910   3.572   8.310 -0.1120  0.0519 -0.2786
 1691SOL    HW116535   2.936   3.480   8.304  1.4870  0.5834 -1.5172
 1691SOL    HW216536   2.868   3.601   8.230 -1.7110 -1.6218 -0.0389
 1692SOL     OW16537   0.409   2.901   3.819  0.0948  0.0760 -1.0122
 1692SOL    HW116538   0.327   2.907   3.770  1.0359  3.8865 -2.1545
 1692SOL    HW216539   0.441   2.991   3.832  0.7850 -0.5866  1.7294
 1693SOL     OW16540   1.474   1.535  13.613  0.3836 -0.3636 -0.3750
 1693SOL    HW116541   1.509   1.613  13.572  1.4565 -0.1489  0.9439
 1693SOL    HW216542   1.447   1.484  13.536  0.7822 -2.0683  0.6033
 1694SOL     OW16543   1.898   2.296   8.429 -0.3523  0.8834 -0.1134
 1694SOL    HW116544   1.830   2.260   8.487  0.2561 -0.7625 -0.4058
 1694SOL    HW216545   1.947   2.356   8.484 -1.8039  2.4135 -0.4943
 1695SOL     OW16546   2.931   4.715   4.295 -0.3065 -0.0136  0.0983
 1695SOL    HW116547   3.021   0.005   4.321 -0.4379 -0.6624  0.9248
 1695SOL    HW216548   2.930   4.623   4.268  0.7711  0.2144 -0.6878
 1696SOL     OW16549   3.333   0.522  15.176 -0.4701 -0.2289  0.2358
 1696SOL    HW116550   3.306   0.471  15.099 -2.5430  0.6074  0.4052
 1696SOL    HW216551   3.251   0.543  15.219 -0.0782 -2.0074  1.8776
 1697SOL     OW16552   4.120   1.441  15.309 -0.0767  0.0647  0.5782
 1697SOL    HW116553   4.120   1.349  15.338 -1.4558 -0.2317 -0.3656
 1697SOL    HW216554   4.166   1.438  15.226 -2.6914  1.5753 -0.9044
 1698SOL     OW16555   2.591   4.163  15.375  0.3245  0.1894  0.0331
 1698SOL    HW116556   2.573   4.098  15.443  1.8460 -0.8366 -0.5395
 1698SOL    HW216557   2.683   4.183  15.393  1.0637 -2.1318 -1.0967
 1699SOL     OW16558   4.515   4.033   3.800  0.2687  0.5150  0.2601
 1699SOL    HW116559   4.547   4.101   3.741  2.0023 -1.8317 -1.4909
 1699SOL    HW216560   4.438   4.023   3.744 -0.4011  0.9781  1.0901
 1700SOL     OW16561   3.458   1.351  15.539  0.2785  0.1028  0.3273
 1700SOL    HW116562   3.421   1.307  15.463 -1.4739 -1.0746  1.8539
 1700SOL    HW216563   3.467   1.443  15.515 -0.8049 -0.5107 -2.4177
 1701SOL     OW16564   3.100   3.412   7.884  0.3804 -0.5886 -0.7858
 1701SOL    HW116565   3.107   3.452   7.970  0.4654  2.1375 -2.0588
 1701SOL    HW216566   3.195   3.396   7.880  1.0322  2.5178  2.4593
 1702SOL     OW16567   2.711   3.733  12.071  0.0771  0.0327  0.9091
 1702SOL    HW116568   2.642   3.740  12.138 -0.4251 -0.2947  0.4325
 1702SOL    HW216569   2.757   3.816  12.082 -2.3261  1.6068 -0.9400
 1703SOL     OW16570   0.917   2.194   0.373  0.1212 -0.1221 -0.0445
 1703SOL    HW116571   0.987   2.139   0.336 -0.1371  1.3059 -2.6837
 1703SOL    HW216572   0.848   2.153   0.321 -0.4084 -0.7239  1.1195
 1704SOL     OW16573   0.704   0.479   2.176  0.5397 -0.2639  0.8554
 1704SOL    HW116574   0.622   0.524   2.197  0.4037 -0.6304  1.1227
 1704SOL    HW216575   0.769   0.523   2.231  0.0096  1.6158 -0.0330
 1705SOL     OW16576   0.273   1.989   5.094 -0.2178 -0.3667  0.1612
 1705SOL    HW116577   0.347   2.049   5.099  0.5234 -1.2910  0.1584
 1705SOL    HW216578   0.246   1.987   5.003  2.4568  2.0042 -0.6683
 1706SOL     OW16579   2.205   3.025   7.646  0.2186  0.5597 -0.1704
 1706SOL    HW116580   2.123   3.000   7.604 -0.4550  0.3709  1.2707
 1706SOL    HW216581   2.228   2.937   7.676 -1.5928  0.2925  0.4181
 1707SOL     OW16582   4.514   0.387  14.336  0.1223  0.6216  0.6567
 1707SOL    HW116583   4.431   0.433  14.343 -1.1463 -1.0439 -3.8480
 1707SOL    HW216584   4.556   0.446  14.274 -0.3804 -0.5474 -0.7771
 1708SOL     OW16585   1.774   2.198  12.214 -0.3338 -0.1383  0.0554
 1708SOL    HW116586   1.689   2.221  12.251  0.3700  2.2099  0.2034
 1708SOL    HW216587   1.821   2.269  12.256  0.3773  0.8516 -2.3951
 1709SOL     OW16588   2.801   0.255   8.633  0.0119 -0.0824  0.1091
 1709SOL    HW116589   2.841   0.191   8.574 -0.3139 -2.5530  2.5434
 1709SOL    HW216590   2.789   0.333   8.579 -0.6415 -1.2542 -1.4535
 1710SOL     OW16591   1.585   1.341   4.735  0.2039  0.5253 -0.0010
 1710SOL    HW116592   1.514   1.341   4.671  0.2646  0.7685 -0.0680
 1710SOL    HW216593   1.559   1.266   4.788 -1.0860  2.1602  1.6774
 1711SOL     OW16594   0.396   2.133   1.707 -0.0798  0.4205  0.4381
 1711SOL    HW116595   0.484   2.113   1.737  0.4448  3.6662  1.0279
 1711SOL    HW216596   0.403   2.107   1.615  0.8908  0.9602  0.3689
 1712SOL     OW16597   0.663   2.594   6.734 -0.9784 -0.3524  0.1047
 1712SOL    HW116598   0.575   2.628   6.750 -1.0625 -0.6165  0.1914
 1712SOL    HW216599   0.710   2.666   6.778 -0.3582 -0.5272 -0.2642
 1713SOL     OW16600   1.780   1.485   2.839 -0.5139  0.0822  0.0143
 1713SOL    HW116601   1.854   1.446   2.793 -1.1219 -0.0525 -0.8565
 1713SOL    HW216602   1.735   1.505   2.757 -3.5161  1.4511  2.0127
 1714SOL     OW16603   3.413   0.858  10.841  0.8169 -0.1092  0.8304
 1714SOL    HW116604   3.338   0.845  10.899  0.7652  1.3990  1.1144
 1714SOL    HW216605   3.369   0.915  10.778  1.1814 -0.6520  0.0946
 1715SOL     OW16606   3.664   3.069   8.103 -0.1460  0.0011 -0.2898
 1715SOL    HW116607   3.652   3.150   8.054  1.1233 -0.7396 -1.8122
 1715SOL    HW216608   3.653   3.092   8.196 -0.3791  0.9285 -0.5475
 1716SOL     OW16609   0.070   1.916   7.222 -0.4524 -0.4338 -0.0000
 1716SOL    HW116610   0.103   1.828   7.242 -1.5048 -1.0714 -1.0356
 1716SOL    HW216611   4.709   1.892   7.185 -1.1682 -1.1583  2.1140
 1717SOL     OW16612   3.956   1.009   1.522 -0.4378 -0.1796 -0.0907
 1717SOL    HW116613   3.980   1.090   1.477  0.4987 -0.3536  0.0797
 1717SOL    HW216614   3.957   0.945   1.450  0.1816 -1.9113  1.4494
 1718SOL     OW16615   1.134   3.345   8.356  0.1053 -0.0250  0.0012
 1718SOL    HW116616   1.118   3.366   8.264  2.8172 -0.9068 -0.6625
 1718SOL    HW216617   1.227   3.359   8.371  0.1108 -1.2897  1.1900
 1719SOL     OW16618   3.975   1.537   3.678 -0.3623  0.4577 -0.0316
 1719SOL    HW116619   4.040   1.606   3.688  0.1068 -0.3802  2.7944
 1719SOL    HW216620   4.024   1.470   3.725 -3.8162  0.6313  3.8797
 1720SOL     OW16621   0.145   0.887   2.974 -0.1713  0.0837 -0.5014
 1720SOL    HW116622   0.151   0.975   3.011 -2.3282  0.7736 -1.8153
 1720SOL    HW216623   0.092   0.898   2.894 -0.6152 -0.0959 -0.2317
 1721SOL     OW16624   2.132   3.163   1.037 -0.1754  0.1466  0.5871
 1721SOL    HW116625   2.221   3.192   1.057 -0.8879  1.7759  1.4222
 1721SOL    HW216626   2.116   3.190   0.946 -0.0215  1.2015  0.8792
 1722SOL     OW16627   0.101   4.540   5.648  0.2164 -0.1087  0.9269
 1722SOL    HW116628   0.035   4.478   5.616 -0.5648  1.4104 -0.4047
 1722SOL    HW216629   0.181   4.490   5.664 -0.5535 -1.8038 -0.4993
 1723SOL     OW16630   4.127   0.854  17.373  0.6488 -0.0927  0.7703
 1723SOL    HW116631   4.119   0.948  17.355 -0.7866 -0.6568 -1.5245
 1723SOL    HW216632   4.152   0.820  17.287  1.0775  1.5522  0.2547
 1724SOL     OW16633   4.579   0.505   3.777  0.1343 -0.2149  0.4163
 1724SOL    HW116634   4.578   0.409   3.783  0.9524 -0.3483 -1.4805
 1724SOL    HW216635   4.659   0.537   3.819 -0.1476  1.4962 -0.3634
 1725SOL     OW16636   2.414   3.386   6.937 -0.0387  0.0045  0.2528
 1725SOL    HW116637   2.405   3.476   6.969  0.3445  0.1219  0.0431
 1725SOL    HW216638   2.327   3.386   6.897 -0.1723 -0.1621  0.5499
 1726SOL     OW16639   2.907   1.715   6.745  0.2488  0.2060 -0.6982
 1726SOL    HW116640   2.912   1.801   6.704  0.3978  0.2949 -0.4955
 1726SOL    HW216641   2.893   1.742   6.836 -0.0646  1.5697 -1.1500
 1727SOL     OW16642   3.136   1.186   4.069 -0.9496 -0.0950  0.4517
 1727SOL    HW116643   3.189   1.196   3.990 -0.8410 -2.3839  0.2289
 1727SOL    HW216644   3.086   1.267   4.063 -1.8448 -0.6775  0.1080
 1728SOL     OW16645   4.678   1.257   4.388  0.1788 -0.4878  0.3967
 1728SOL    HW116646   4.606   1.225   4.443  0.3468 -0.3198  0.7192
 1728SOL    HW216647   0.032   1.240   4.441 -1.2841 -1.5101  2.2363
 1729SOL     OW16648   0.747   3.001   9.668 -0.0141 -0.3642  0.4080
 1729SOL    HW116649   0.728   2.936   9.736  0.7257  1.1746  2.0525
 1729SOL    HW216650   0.795   2.942   9.609 -0.6185  0.1795 -0.6305
 1730SOL     OW16651   1.565   0.226  13.944  0.0030  0.0469 -0.6459
 1730SOL    HW116652   1.580   0.320  13.936  3.7610 -0.4417  0.3287
 1730SOL    HW216653   1.627   0.204  14.014 -0.9315 -1.1063 -0.1977
 1731SOL     OW16654   3.349   0.687  16.743 -0.1898  0.2283 -0.1601
 1731SOL    HW116655   3.365   0.627  16.816 -1.7702  0.7371  0.6039
 1731SOL    HW216656   3.346   0.621  16.674  1.5929  0.2040 -0.2279
 1732SOL     OW16657   2.300   1.210   7.411 -0.1452  0.1389  0.3500
 1732SOL    HW116658   2.318   1.162   7.331 -1.9372  2.3776 -1.4054
 1732SOL    HW216659   2.310   1.140   7.476  0.8530 -0.2319 -0.2193
 1733SOL     OW16660   1.331   4.253   7.913  0.3585  0.3014 -0.1882
 1733SOL    HW116661   1.410   4.301   7.889  0.3984 -0.1965 -1.0209
 1733SOL    HW216662   1.315   4.208   7.831  1.0577  0.7839 -0.5822
 1734SOL     OW16663   1.805   0.711   4.032  0.1861 -0.0930 -0.0916
 1734SOL    HW116664   1.899   0.701   4.016  0.1628 -1.0771  0.4365
 1734SOL    HW216665   1.808   0.806   4.048 -2.0478  0.4517 -2.7784
 1735SOL     OW16666   3.129   2.847   5.253 -0.7557  0.4588  0.1945
 1735SOL    HW116667   3.136   2.856   5.348 -0.0277  1.4255  0.0475
 1735SOL    HW216668   3.039   2.876   5.237 -0.6888  0.1522 -0.7361
 1736SOL     OW16669   3.018   4.175   8.975  0.1300  0.2182  0.6400
 1736SOL    HW116670   2.931   4.173   9.014  0.9217 -0.0080  2.3805
 1736SOL    HW216671   3.069   4.192   9.054  0.5555  0.7652  0.2508
 1737SOL     OW16672   3.564   0.033   5.409 -0.0962  0.3368  0.1024
 1737SOL    HW116673   3.474   0.002   5.399  1.0209 -2.6632 -0.6927
 1737SOL    HW216674   3.553   0.092   5.484 -0.3939 -0.7411  0.9136
 1738SOL     OW16675   2.370   0.080  14.806 -0.4368  0.2975 -0.6202
 1738SOL    HW116676   2.385   0.037  14.722  2.2821  0.3765 -0.1960
 1738SOL    HW216677   2.308   0.144  14.773  0.6285  1.0297 -1.2121
 1739SOL     OW16678   0.917   4.634   1.587 -1.2528  0.3073  0.2502
 1739SOL    HW116679   0.894   4.603   1.500  3.0827  0.8781 -1.0709
 1739SOL    HW216680   0.835   4.678   1.611 -0.4915  1.6088  0.4587
 1740SOL     OW16681   0.548   2.309   4.504  0.7778 -0.0622  0.0202
 1740SOL    HW116682   0.612   2.335   4.570  0.2021  0.5825  0.3097
 1740SOL    HW216683   0.527   2.219   4.531  1.1162  0.2997  1.4753
 1741SOL     OW16684   3.869   3.113   3.818 -0.1214  0.7684 -0.3451
 1741SOL    HW116685   3.789   3.136   3.865  2.2817  2.1218  3.0787
 1741SOL    HW216686   3.839   3.043   3.760 -0.5962  1.0100 -0.3916
 1742SOL     OW16687   3.045   0.835  11.689 -0.2666  0.1133 -0.0908
 1742SOL    HW116688   3.105   0.886  11.743  0.5387 -0.4248 -0.4802
 1742SOL    HW216689   2.963   0.863  11.731  1.9854  2.8875  2.3735
 1743SOL     OW16690   2.127   0.688   7.726  0.0239 -0.3944  0.7080
 1743SOL    HW116691   2.106   0.599   7.699 -0.7302  0.9665 -3.1582
 1743SOL    HW216692   2.101   0.694   7.818 -2.6128  1.6869 -0.1659
 1744SOL     OW16693   1.708   3.550   6.436 -0.0593  0.5909  0.2913
 1744SOL    HW116694   1.767   3.585   6.369 -0.2935 -0.2882 -0.3799
 1744SOL    HW216695   1.642   3.618   6.444 -1.1501 -0.6490  1.8377
 1745SOL     OW16696   0.876   2.738  14.593  0.0980 -0.2552 -0.4055
 1745SOL    HW116697   0.908   2.828  14.585  0.7478 -0.5413 -1.0853
 1745SOL    HW216698   0.895   2.710  14.683  1.0887  0.2881 -0.4413
 1746SOL     OW16699   3.163   1.248   2.300  0.6481 -0.3139  0.0625
 1746SOL    HW116700   3.202   1.280   2.219  3.7897 -2.0938  0.8806
 1746SOL    HW216701   3.073   1.278   2.286  0.6536  1.6883  4.2810
 1747SOL     OW16702   3.104   3.090   3.069 -0.7445 -0.2887  0.0198
 1747SOL    HW116703   3.115   2.996   3.083 -1.3695 -0.0543  2.0241
 1747SOL    HW216704   3.157   3.093   2.990 -1.6735 -1.5566 -0.6582
 1748SOL     OW16705   4.322   2.028  15.886 -0.2271  0.4199  0.0723
 1748SOL    HW116706   4.336   2.007  15.793 -1.9582  0.5822 -0.2420
 1748SOL    HW216707   4.253   2.093  15.873 -0.2831  0.8466  2.6473
 1749SOL     OW16708   2.132   1.745  17.668 -0.5700 -0.0590 -0.0811
 1749SOL    HW116709   2.174   1.829  17.687 -1.7474  0.0525  2.0239
 1749SOL    HW216710   2.182   1.722  17.590  0.0066 -1.0304  0.5742
 1750SOL     OW16711   3.020   0.563  14.690  0.1494  0.1536  0.6696
 1750SOL    HW116712   3.087   0.565  14.622 -1.4701 -0.4070 -0.9598
 1750SOL    HW216713   3.003   0.469  14.696 -0.2856  0.3222  2.0969
 1751SOL     OW16714   2.928   0.153   6.378  0.0875  0.5673  0.4745
 1751SOL    HW116715   2.929   0.074   6.431  0.9798  0.2866  0.0392
 1751SOL    HW216716   2.846   0.144   6.330 -0.1020 -0.0462  0.9083
 1752SOL     OW16717   0.889   4.345   9.698 -0.0159 -0.0668 -0.7650
 1752SOL    HW116718   0.951   4.332   9.627  0.4087  0.5277 -0.4970
 1752SOL    HW216719   0.814   4.372   9.645  1.1164  1.3465 -1.6221
 1753SOL     OW16720   1.608   0.135   5.242 -0.5354  0.3192 -0.1745
 1753SOL    HW116721   1.695   0.138   5.281 -0.1624 -1.0969 -0.8642
 1753SOL    HW216722   1.563   0.214   5.272 -1.1538  0.0592 -0.4046
 1754SOL     OW16723   3.254   0.958   6.423 -0.3135 -0.0861 -0.0653
 1754SOL    HW116724   3.254   1.048   6.390  1.8900  0.0482  0.3393
 1754SOL    HW216725   3.342   0.960   6.459 -0.8425 -0.1493  1.2566
 1755SOL     OW16726   0.821   0.333  13.162 -0.3379 -0.1980 -0.7648
 1755SOL    HW116727   0.833   0.257  13.220 -0.1349 -0.1703 -0.7735
 1755SOL    HW216728   0.725   0.339  13.159 -0.4408 -2.1906 -1.2858
 1756SOL     OW16729   2.534   2.352  10.597 -0.0054 -0.3930  0.3376
 1756SOL    HW116730   2.525   2.258  10.581 -0.1422 -0.2271 -0.5591
 1756SOL    HW216731   2.457   2.368  10.651 -0.6814  0.7359 -0.9497
 1757SOL     OW16732   4.675   4.485   3.719 -0.2360  0.5623  0.2455
 1757SOL    HW116733   4.601   4.431   3.691 -0.2871  1.1514 -0.7814
 1757SOL    HW216734   4.687   4.536   3.639 -0.6438  0.8448  0.3681
 1758SOL     OW16735   4.597   1.076   8.312  0.5320 -0.5332 -0.3797
 1758SOL    HW116736   4.552   1.035   8.386  2.0791  0.3959  1.0958
 1758SOL    HW216737   4.567   1.166   8.311 -0.8093 -0.9817 -0.2027
 1759SOL     OW16738   0.094   2.539  10.940  0.1009 -0.2121 -0.1272
 1759SOL    HW116739   0.103   2.616  10.884  1.8743 -1.6635 -1.8429
 1759SOL    HW216740   0.154   2.476  10.901  0.7249 -0.1266  0.7027
 1760SOL     OW16741   3.372   0.652  11.925  0.3073 -0.1305 -0.6155
 1760SOL    HW116742   3.381   0.623  11.834 -0.0510 -0.2578 -0.6116
 1760SOL    HW216743   3.379   0.570  11.974 -0.3328  0.1394 -0.0702
 1761SOL     OW16744   2.357   0.016   2.726  0.2464  0.1029 -0.0681
 1761SOL    HW116745   2.375   0.070   2.803  0.1278 -2.3371  1.6542
 1761SOL    HW216746   2.411   0.065   2.663 -1.5866  1.6863 -0.4173
 1762SOL     OW16747   3.960   2.577  13.285  0.0611  0.0779  0.2025
 1762SOL    HW116748   3.905   2.647  13.249 -0.0201  0.5295  1.2079
 1762SOL    HW216749   4.041   2.627  13.297 -0.2410  0.8988 -1.1457
 1763SOL     OW16750   2.815   2.873   8.288  0.0342 -0.1568  0.8766
 1763SOL    HW116751   2.846   2.784   8.302  1.0133 -0.4447 -2.9527
 1763SOL    HW216752   2.726   2.860   8.253 -0.5582  3.2749  1.0491
 1764SOL     OW16753   1.347   4.718   7.235  0.1383  0.0756  0.3690
 1764SOL    HW116754   1.264   0.028   7.202 -0.8849 -4.4362 -1.6575
 1764SOL    HW216755   1.382   0.074   7.273 -3.4889  1.0470  1.6407
 1765SOL     OW16756   0.330   1.945   5.740 -0.0297 -0.5212 -0.0917
 1765SOL    HW116757   0.401   1.901   5.692 -0.5384 -1.5091  0.0617
 1765SOL    HW216758   0.283   1.980   5.664  0.4489 -1.7794 -0.9729
 1766SOL     OW16759   1.816   1.276   8.334 -0.8543  0.1673  0.4680
 1766SOL    HW116760   1.853   1.206   8.387 -0.9728 -0.2807 -0.0396
 1766SOL    HW216761   1.724   1.254   8.319 -1.0164  1.1262  0.0396
 1767SOL     OW16762   0.336   3.435  17.191 -0.0608  0.0959  0.0084
 1767SOL    HW116763   0.388   3.504  17.150  0.0190 -1.8360 -3.1414
 1767SOL    HW216764   0.376   3.359  17.149  1.0787  1.4917 -1.4502
 1768SOL     OW16765   2.880   0.713   0.497  0.7705  0.4020  0.5710
 1768SOL    HW116766   2.960   0.706   0.445  0.8347  2.9382  0.3360
 1768SOL    HW216767   2.814   0.688   0.432  0.6320  2.1176  0.0408
 1769SOL     OW16768   4.314   0.506  15.497 -0.0300  0.6553  0.1888
 1769SOL    HW116769   4.362   0.523  15.416  1.3780  0.2843  0.9323
 1769SOL    HW216770   4.382   0.471  15.555  0.6638 -1.2067 -1.7662
 1770SOL     OW16771   2.014   0.410   5.610  0.4058  0.0154 -0.0164
 1770SOL    HW116772   2.062   0.493   5.621 -0.3602  0.9270 -3.5683
 1770SOL    HW216773   1.926   0.438   5.632  0.6237 -0.3149  1.2801
 1771SOL     OW16774   4.122   0.859   0.167 -0.5059  0.8237  0.3828
 1771SOL    HW116775   4.176   0.842   0.090 -0.5766  1.8155  0.1082
 1771SOL    HW216776   4.059   0.788   0.165 -1.2430  1.4572  1.5248
 1772SOL     OW16777   3.417   3.510   8.734  0.5472  0.3588  0.2053
 1772SOL    HW116778   3.426   3.591   8.785  0.1556 -0.0857  0.9696
 1772SOL    HW216779   3.476   3.450   8.779 -1.0951 -0.0415  1.8287
 1773SOL     OW16780   2.284   3.107   7.019 -0.6786 -0.5076  0.1957
 1773SOL    HW116781   2.336   3.185   6.998 -0.6043 -0.2491  1.2924
 1773SOL    HW216782   2.196   3.143   7.007 -1.2386 -1.9023  0.1216
 1774SOL     OW16783   4.285   1.926   0.295 -0.3870 -0.5611  0.4025
 1774SOL    HW116784   4.289   1.971   0.211  0.2603 -3.2945 -1.0428
 1774SOL    HW216785   4.221   1.856   0.280  0.1500 -0.8351 -0.6179
 1775SOL     OW16786   2.085   0.155   5.529 -0.4342  0.6906  0.4184
 1775SOL    HW116787   2.071   0.119   5.616 -0.1060  3.2220  1.4894
 1775SOL    HW216788   2.103   0.245   5.555 -1.1346  0.9573 -0.0124
 1776SOL     OW16789   0.743   1.862   9.522  0.1873  0.3900 -0.5818
 1776SOL    HW116790   0.649   1.881   9.513  0.0790 -0.1470 -0.5800
 1776SOL    HW216791   0.774   1.928   9.461 -0.7473  1.1921 -0.1893
 1777SOL     OW16792   3.829   0.945   4.325  0.0579  0.0170  0.0824
 1777SOL    HW116793   3.739   0.911   4.319  0.2753 -0.5737  0.1530
 1777SOL    HW216794   3.828   0.965   4.419  2.3267 -0.9421  0.3135
 1778SOL     OW16795   1.720   3.576   4.634  0.0691  0.1115 -0.3141
 1778SOL    HW116796   1.722   3.667   4.663 -1.8915 -0.0278  0.3064
 1778SOL    HW216797   1.673   3.529   4.703 -0.1173  1.4533  0.4699
 1779SOL     OW16798   1.681   4.696   8.099  0.2406  0.3820 -0.1480
 1779SOL    HW116799   1.737   4.618   8.104  1.7639  1.5053  0.2350
 1779SOL    HW216800   1.687   0.011   8.186  1.6792  0.5132 -0.3031
 1780SOL     OW16801   4.354   2.185   6.590  0.6595 -0.9353  0.3228
 1780SOL    HW116802   4.411   2.165   6.664 -0.6465 -1.4340  1.1796
 1780SOL    HW216803   4.411   2.230   6.527  1.0900 -1.8587  0.0484
 1781SOL     OW16804   4.698   2.610   7.592 -0.1979  0.4318  0.6967
 1781SOL    HW116805   4.624   2.639   7.539  0.0040 -1.4120 -0.6162
 1781SOL    HW216806   4.668   2.521   7.612  0.1780  0.1003 -0.1780
 1782SOL     OW16807   4.461   1.846  13.419  0.0555 -0.3728  0.4127
 1782SOL    HW116808   4.393   1.838  13.485  0.2006  2.4682  0.9149
 1782SOL    HW216809   4.450   1.770  13.362  1.0911 -0.1700 -0.0629
 1783SOL     OW16810   3.732   1.002   7.166  0.0597 -0.3478  0.1391
 1783SOL    HW116811   3.809   0.945   7.166 -1.1258 -1.9596 -1.3152
 1783SOL    HW216812   3.687   0.985   7.249 -2.0924 -0.1150 -0.9843
 1784SOL     OW16813   4.560   4.212  15.977  0.2139 -0.3564  0.5972
 1784SOL    HW116814   4.533   4.129  16.018  0.3452 -1.0139 -0.6474
 1784SOL    HW216815   4.653   4.213  16.001 -0.1656 -1.1734  2.1394
 1785SOL     OW16816   3.433   0.908   0.301 -0.1738  0.4116 -0.0632
 1785SOL    HW116817   3.427   1.004   0.309 -0.9765  0.3736 -0.1628
 1785SOL    HW216818   3.526   0.887   0.308  0.2385  1.1917 -2.9127
 1786SOL     OW16819   1.555   1.696   3.223 -0.1898  0.2952  0.5861
 1786SOL    HW116820   1.622   1.725   3.161  0.6207  0.6472  1.6279
 1786SOL    HW216821   1.513   1.782   3.227 -1.4909 -0.2684 -1.0475
 1787SOL     OW16822   1.538   0.470   7.366  0.0659 -0.4656 -0.0952
 1787SOL    HW116823   1.602   0.488   7.435 -1.3517  0.2754  1.0236
 1787SOL    HW216824   1.461   0.517   7.398  1.4669  2.0140 -0.3969
 1788SOL     OW16825   1.423   3.098   8.385  0.8289 -0.2382  0.0671
 1788SOL    HW116826   1.481   3.118   8.311  1.5311  2.5810  1.3759
 1788SOL    HW216827   1.355   3.045   8.343  1.1014 -0.9938  0.5743
 1789SOL     OW16828   2.488   2.789   6.118 -0.0036  0.3884  0.0856
 1789SOL    HW116829   2.513   2.792   6.026 -0.1185  0.0374  0.0453
 1789SOL    HW216830   2.574   2.813   6.153 -0.9036  2.9164  0.5586
 1790SOL     OW16831   1.485   1.260   5.982  0.3005 -0.2940  0.0596
 1790SOL    HW116832   1.458   1.342   6.022  1.8428 -0.0751  0.6729
 1790SOL    HW216833   1.579   1.273   5.970  0.5145 -1.2870  0.6152
 1791SOL     OW16834   1.211   3.808   9.257  0.2428  0.0717 -0.4172
 1791SOL    HW116835   1.286   3.749   9.265 -1.0394 -1.7383 -1.7903
 1791SOL    HW216836   1.217   3.863   9.335 -1.7923  0.8992 -0.8342
 1792SOL     OW16837   3.120   1.560   8.921 -0.4841  0.1996 -0.0418
 1792SOL    HW116838   3.152   1.575   9.010  0.8004 -2.7347 -0.0053
 1792SOL    HW216839   3.197   1.530   8.872 -0.5890  0.7592 -0.5323
 1793SOL     OW16840   3.945   3.158   6.385 -0.2072  0.3943  0.6613
 1793SOL    HW116841   3.876   3.092   6.395 -0.4595  0.4272 -0.8976
 1793SOL    HW216842   4.007   3.113   6.442 -0.2864  0.4011  0.7536
 1794SOL     OW16843   3.867   3.431   7.036  0.3005  0.3900  0.3350
 1794SOL    HW116844   3.798   3.377   6.999  0.4497  0.7625 -0.4934
 1794SOL    HW216845   3.830   3.520   7.030 -1.1133 -0.2146  0.1426
 1795SOL     OW16846   1.535   2.125   7.926  0.3826 -0.5653 -0.2983
 1795SOL    HW116847   1.532   2.053   7.862  1.4690  0.0346 -1.0162
 1795SOL    HW216848   1.489   2.084   7.999 -1.5902 -0.1877 -1.3211
 1796SOL     OW16849   0.603   3.787  15.388  0.2333 -0.1256  0.3132
 1796SOL    HW116850   0.570   3.769  15.476 -0.2561 -0.5836  0.0325
 1796SOL    HW216851   0.650   3.871  15.384  0.2341 -0.2317 -2.1068
 1797SOL     OW16852   1.658   4.466   6.372  0.1471 -0.6330  0.0957
 1797SOL    HW116853   1.632   4.555   6.348 -1.4113 -1.1849 -0.2452
 1797SOL    HW216854   1.578   4.422   6.344 -0.7958  1.1716 -0.0356
 1798SOL     OW16855   0.621   1.756   2.853  0.0956 -0.0246  0.6189
 1798SOL    HW116856   0.702   1.738   2.900  1.2835 -0.9164 -1.8075
 1798SOL    HW216857   0.635   1.841   2.811  1.2329 -0.3362  0.3838
 1799SOL     OW16858   2.847   3.017   2.094 -0.1499 -0.7686  0.3351
 1799SOL    HW116859   2.883   2.956   2.030 -2.1795 -2.0264  0.3823
 1799SOL    HW216860   2.753   3.008   2.078 -0.1968  2.4594 -1.1278
 1800SOL     OW16861   2.953   3.811   2.360 -0.0776 -0.4554 -0.1259
 1800SOL    HW116862   3.032   3.759   2.373 -0.6071 -1.2028  0.0613
 1800SOL    HW216863   2.885   3.744   2.358 -1.3706  0.8601 -0.4634
 1801SOL     OW16864   2.075   0.450   7.925 -0.0558  0.0940 -0.1234
 1801SOL    HW116865   2.065   0.400   8.005  0.2749 -1.0141 -0.7719
 1801SOL    HW216866   2.039   0.536   7.944 -2.9633 -1.1488  0.0168
 1802SOL     OW16867   2.967   2.606   4.471  0.0893 -0.3514 -0.3987
 1802SOL    HW116868   3.027   2.681   4.476  0.4200 -0.4979 -2.3077
 1802SOL    HW216869   2.880   2.646   4.478  0.4296  0.4029 -0.4747
 1803SOL     OW16870   2.043   2.843   7.054  0.2393 -0.1234  0.1423
 1803SOL    HW116871   2.089   2.779   6.999  1.1463  0.1800  0.5413
 1803SOL    HW216872   2.069   2.922   7.007  0.8024 -0.6037 -0.3571
 1804SOL     OW16873   0.255   4.033   6.188 -0.3433  0.3252 -0.1948
 1804SOL    HW116874   0.326   4.020   6.251  0.9714 -1.1970 -1.9904
 1804SOL    HW216875   0.198   3.957   6.201  0.5022 -0.0418  1.4532
 1805SOL     OW16876   3.126   0.488   7.071  0.4805  0.1555  0.0402
 1805SOL    HW116877   3.112   0.425   7.142 -0.5994  0.6367  0.2500
 1805SOL    HW216878   3.033   0.493   7.048  0.5725 -1.0430 -0.6029
 1806SOL     OW16879   4.047   2.101   3.677 -0.0385  0.2649 -0.0134
 1806SOL    HW116880   4.067   2.009   3.690 -0.0067  0.1276 -1.0279
 1806SOL    HW216881   3.965   2.109   3.629 -0.6200  1.3258  1.1429
 1807SOL     OW16882   3.763   0.843   5.004  0.5523 -0.0040  0.6982
 1807SOL    HW116883   3.681   0.850   5.054  0.2762 -1.3830  0.4264
 1807SOL    HW216884   3.793   0.753   5.013  1.8899  0.3839  0.0399
 1808SOL     OW16885   2.302   0.766   3.026  0.8727 -0.3562 -0.1993
 1808SOL    HW116886   2.396   0.749   3.032  1.0371  1.4252  2.6314
 1808SOL    HW216887   2.295   0.779   2.932 -2.1857 -0.0052  0.0742
 1809SOL     OW16888   0.653   0.715   8.470  0.3025  0.3275  0.2106
 1809SOL    HW116889   0.561   0.690   8.456  0.5461 -0.4533  0.0618
 1809SOL    HW216890   0.649   0.769   8.549  1.0944 -0.9614  1.1125
 1810SOL     OW16891   4.126   1.511  12.537 -0.0709 -0.5750  0.1242
 1810SOL    HW116892   4.155   1.488  12.448  0.2980  1.1273 -0.1889
 1810SOL    HW216893   4.130   1.606  12.532 -0.9942 -0.5468  0.0669
 1811SOL     OW16894   3.420   1.330   7.341 -0.0325  0.1228  0.3271
 1811SOL    HW116895   3.477   1.299   7.411 -0.1843 -0.0961  0.3521
 1811SOL    HW216896   3.462   1.411   7.311 -1.1372  0.1949 -0.9985
 1812SOL     OW16897   1.083   1.758   0.221  0.1627 -0.2216  0.1946
 1812SOL    HW116898   1.034   1.702   0.282  1.4515 -0.6377  0.8341
 1812SOL    HW216899   1.175   1.750   0.244 -0.1955 -1.6919  1.1469
 1813SOL     OW16900   1.879   4.197   5.878  0.2479  0.3874  0.2838
 1813SOL    HW116901   1.872   4.293   5.880  0.3326  0.4761 -2.8201
 1813SOL    HW216902   1.808   4.178   5.939  2.6859  1.3869  3.4273
 1814SOL     OW16903   3.277   1.905   3.597  0.0338 -0.6576  0.1773
 1814SOL    HW116904   3.214   1.978   3.595 -0.7888 -1.3999 -0.8788
 1814SOL    HW216905   3.216   1.832   3.605 -0.5439 -0.5109 -2.9252
 1815SOL     OW16906   1.518   3.379   5.632  0.4928 -0.5636  0.0773
 1815SOL    HW116907   1.563   3.295   5.637 -0.2752 -1.2712 -4.5587
 1815SOL    HW216908   1.590   3.439   5.651 -1.4652  1.9673 -0.6216
 1816SOL     OW16909   4.103   3.504   4.716  0.0076 -0.2715  0.6185
 1816SOL    HW116910   4.080   3.569   4.783 -1.4153  1.4992 -1.6154
 1816SOL    HW216911   4.163   3.554   4.662  1.1743 -2.2663  0.0672
 1817SOL     OW16912   2.038   2.353   7.509 -0.2089  0.0530  0.1922
 1817SOL    HW116913   2.102   2.407   7.463 -0.0122 -1.2528 -1.0828
 1817SOL    HW216914   2.104   2.318   7.568 -0.4763  0.0316  0.4787
 1818SOL     OW16915   1.702   4.178   1.868  0.5323  0.8461  0.6507
 1818SOL    HW116916   1.781   4.232   1.863  0.2639  1.1265 -0.5308
 1818SOL    HW216917   1.721   4.129   1.948  0.4763  0.0525  0.1732
 1819SOL     OW16918   3.378   2.524   6.125 -0.2252  0.4210  0.4408
 1819SOL    HW116919   3.437   2.465   6.079  0.2838  1.6421 -0.4590
 1819SOL    HW216920   3.309   2.467   6.160 -0.3243 -0.2037 -0.7930
 1820SOL     OW16921   3.380   2.621   3.058  0.4192  0.0210 -0.1960
 1820SOL    HW116922   3.445   2.665   3.113  0.1161  0.9922 -0.6172
 1820SOL    HW216923   3.415   2.628   2.969  0.8134  0.7843  0.0189
 1821SOL     OW16924   2.900   2.703   2.863  0.6641  0.1833  0.2070
 1821SOL    HW116925   2.890   2.617   2.823 -2.1160 -0.1340  1.5749
 1821SOL    HW216926   2.994   2.720   2.856  0.7638 -0.6777 -0.4907
 1822SOL     OW16927   3.349   2.720  15.815  0.2051  0.1193 -0.0364
 1822SOL    HW116928   3.357   2.649  15.751 -0.6816  0.3698 -0.4228
 1822SOL    HW216929   3.429   2.700  15.864  1.2067  1.6751 -1.0217
 1823SOL     OW16930   3.067   1.691   3.670  0.0548  0.0392  0.2861
 1823SOL    HW116931   2.977   1.692   3.638  0.2834  1.9624 -0.3413
 1823SOL    HW216932   3.110   1.607   3.659 -1.2179 -0.5519 -0.1545
 1824SOL     OW16933   1.482   0.230   8.859  0.5030  0.2904 -0.0619
 1824SOL    HW116934   1.421   0.255   8.789  2.2555 -2.7649 -2.7079
 1824SOL    HW216935   1.533   0.159   8.820  1.9863 -0.1244  2.6476
 1825SOL     OW16936   0.222   0.330   9.143 -0.3070 -0.3689 -0.6368
 1825SOL    HW116937   0.312   0.303   9.124  1.2474  2.3789  2.8100
 1825SOL    HW216938   0.226   0.371   9.230  1.4191  0.0232 -0.9082
 1826SOL     OW16939   3.465   4.344   6.230  0.1404  0.4941  0.0550
 1826SOL    HW116940   3.405   4.380   6.165 -2.0209 -1.0828  1.1606
 1826SOL    HW216941   3.458   4.251   6.207  1.7885 -0.0841  1.9767
 1827SOL     OW16942   2.308   1.678   2.203  0.2967 -0.3965  0.0898
 1827SOL    HW116943   2.263   1.738   2.143 -1.3630 -1.2375  0.4858
 1827SOL    HW216944   2.263   1.598   2.175  0.0681  0.4729 -2.0251
 1828SOL     OW16945   4.291   1.090  12.505 -0.1427 -0.6167 -0.0031
 1828SOL    HW116946   4.361   1.139  12.547  1.6303 -1.4781 -1.9546
 1828SOL    HW216947   4.320   1.082  12.414 -1.4813 -1.5711 -0.3501
 1829SOL     OW16948   3.508   2.558   3.595 -0.0076  0.4550  0.1565
 1829SOL    HW116949   3.475   2.486   3.542 -0.1309  1.6728 -1.4419
 1829SOL    HW216950   3.556   2.509   3.662 -0.3878 -0.3062 -0.1326
 1830SOL     OW16951   0.527   2.125   7.654  0.5210 -0.0889  0.4200
 1830SOL    HW116952   0.614   2.138   7.617 -0.1930  1.4259 -0.7280
 1830SOL    HW216953   0.479   2.171   7.585 -1.4501  0.7948  2.3590
 1831SOL     OW16954   0.007   1.616   2.591 -0.1811  0.4184  0.2110
 1831SOL    HW116955   4.678   1.555   2.540 -1.2849  2.4613 -1.0650
 1831SOL    HW216956   0.048   1.549   2.645 -1.2113 -2.0390 -2.0516
 1832SOL     OW16957   0.950   3.099   4.595  1.2331  0.7242  0.1072
 1832SOL    HW116958   0.875   3.096   4.655  1.6242  1.2889  0.6256
 1832SOL    HW216959   1.011   3.032   4.625 -0.6783 -0.7280  0.7959
 1833SOL     OW16960   1.092   4.354   8.831  0.1260 -0.3917  0.1317
 1833SOL    HW116961   1.067   4.291   8.899 -0.1956  0.0426  0.4138
 1833SOL    HW216962   1.139   4.424   8.877  0.4776  1.0516 -2.4623
 1834SOL     OW16963   1.491   2.296  13.803  0.8690 -0.1484  0.3248
 1834SOL    HW116964   1.562   2.286  13.740  0.6193  1.0690 -0.1456
 1834SOL    HW216965   1.432   2.364  13.768  1.0804 -0.2582 -0.2369
 1835SOL     OW16966   0.874   3.142   9.962 -0.2985  0.0947  0.0125
 1835SOL    HW116967   0.780   3.138   9.980 -0.4264  1.5286 -0.3553
 1835SOL    HW216968   0.886   3.047   9.957 -2.2633 -0.1813  0.3972
 1836SOL     OW16969   4.264   3.868   7.361  0.5415  0.1942  0.5382
 1836SOL    HW116970   4.334   3.931   7.374 -0.9171  1.9671 -0.1334
 1836SOL    HW216971   4.182   3.915   7.378  0.8566  1.6050 -1.8393
 1837SOL     OW16972   2.283   0.821   7.245  0.4971  0.3772  0.1427
 1837SOL    HW116973   2.207   0.838   7.300  1.3795 -0.0188  1.4735
 1837SOL    HW216974   2.231   0.810   7.165  2.0802 -1.1574 -0.6823
 1838SOL     OW16975   4.201   2.775   5.779 -0.1257  0.2286 -0.9025
 1838SOL    HW116976   4.224   2.745   5.691 -0.8931 -1.1140 -0.6524
 1838SOL    HW216977   4.106   2.784   5.778 -0.0256  1.2916 -0.0960
 1839SOL     OW16978   0.519   4.521   7.952  0.4344  0.2438 -0.6090
 1839SOL    HW116979   0.609   4.490   7.946  0.2529 -0.3386 -0.3349
 1839SOL    HW216980   0.487   4.516   7.862  0.9742  0.6405 -0.8237
 1840SOL     OW16981   4.272   3.558   8.090 -0.4564 -0.1025  0.3189
 1840SOL    HW116982   4.261   3.465   8.070 -2.7103  0.1445  0.4923
 1840SOL    HW216983   4.245   3.562   8.182  1.2346 -2.3200  0.9340
 1841SOL     OW16984   4.633   1.000   0.771  0.3402  0.4873 -0.4443
 1841SOL    HW116985   4.718   0.955   0.772 -0.4618 -0.9745  0.5827
 1841SOL    HW216986   4.668   1.087   0.791 -0.8250  0.5787  1.2244
 1842SOL     OW16987   1.711   2.018   6.424 -0.1065  0.2150 -0.0296
 1842SOL    HW116988   1.634   2.044   6.474  1.1300  3.4194  0.2044
 1842SOL    HW216989   1.756   2.100   6.404  3.2228 -1.9470 -1.3223
 1843SOL     OW16990   4.607   3.613   5.115  0.2760  0.0986 -0.5444
 1843SOL    HW116991   4.645   3.641   5.198 -1.5131 -0.3950  0.4601
 1843SOL    HW216992   4.573   3.691   5.071 -1.0400  0.0229  0.3251
 1844SOL     OW16993   3.705   1.469   3.637  0.5461  0.0188 -0.9697
 1844SOL    HW116994   3.779   1.503   3.686  0.4873  0.5975 -1.2831
 1844SOL    HW216995   3.643   1.530   3.678  2.2796  0.2140  1.3625
 1845SOL     OW16996   4.179   3.280   6.764  0.5350  0.2671 -0.4641
 1845SOL    HW116997   4.219   3.283   6.851 -1.1471 -0.9938  0.3705
 1845SOL    HW216998   4.235   3.223   6.712  0.4097 -1.5325  1.3886
 1846SOL     OW16999   1.602   0.024   2.483 -0.0488 -0.1731  0.1634
 1846SOL    HW117000   1.667   4.682   2.460 -1.6776 -0.8570 -2.5426
 1846SOL    HW217001   1.577   0.004   2.573 -1.4889 -0.6610 -0.3373
 1847SOL     OW17002   1.047   1.677   4.441  0.0313  0.4019  0.6674
 1847SOL    HW117003   1.023   1.637   4.358 -1.2440  1.2851  0.6048
 1847SOL    HW217004   1.034   1.609   4.507  0.0387 -0.7442 -0.5330
 1848SOL     OW17005   2.037   3.185  10.035  0.0871  0.1747  0.1896
 1848SOL    HW117006   2.039   3.181   9.939  2.0428  2.9117  0.0947
 1848SOL    HW217007   2.130   3.192  10.058  0.4675  1.0460 -1.6009
 1849SOL     OW17008   4.102   4.680  15.517  0.0195 -0.8278 -0.8235
 1849SOL    HW117009   4.147   0.036  15.492  0.2221 -0.6487  0.0846
 1849SOL    HW217010   4.027   4.658  15.461 -0.6616  0.1354 -0.2790
 1850SOL     OW17011   2.586   2.877   5.438  0.1406  0.0544 -0.1231
 1850SOL    HW117012   2.579   2.916   5.525  0.8466  0.1076 -0.0946
 1850SOL    HW217013   2.571   2.949   5.378 -1.0545 -2.8026 -3.2658
 1851SOL     OW17014   4.443   4.049   7.355 -0.4053 -0.2821 -0.0216
 1851SOL    HW117015   4.530   4.016   7.334 -0.6316 -0.6271 -0.4129
 1851SOL    HW217016   4.455   4.134   7.313 -2.0064 -0.6091 -1.1171
 1852SOL     OW17017   0.309   4.129  14.323  0.1626 -0.9177 -0.0942
 1852SOL    HW117018   0.313   4.114  14.229  1.2527  0.5567 -0.2928
 1852SOL    HW217019   0.215   4.125  14.336  0.0817  0.4909 -0.2612
 1853SOL     OW17020   1.003   3.434   3.157 -0.1195 -0.4241  0.3770
 1853SOL    HW117021   1.001   3.351   3.204  0.0581  0.4607  1.9112
 1853SOL    HW217022   0.922   3.429   3.107  0.6025 -0.6950 -0.7746
 1854SOL     OW17023   0.019   3.214   3.566 -0.2632 -0.3058 -0.5556
 1854SOL    HW117024   0.084   3.176   3.508 -1.5441 -0.9357 -1.5719
 1854SOL    HW217025   4.720   3.132   3.608 -0.2428  1.1716  2.3182
 1855SOL     OW17026   2.772   3.004   1.354  0.1314 -0.4784  0.1871
 1855SOL    HW117027   2.820   2.948   1.292 -2.6360  0.0755 -2.4432
 1855SOL    HW217028   2.800   2.954   1.431  0.7142  0.7007  0.7431
 1856SOL     OW17029   1.030   2.650   5.057  0.3272  0.2075 -0.0560
 1856SOL    HW117030   1.043   2.637   5.150 -1.8788  0.5110  0.2855
 1856SOL    HW217031   0.947   2.603   5.048 -1.1183  2.5162  1.2687
 1857SOL     OW17032   3.748   2.979  15.360  0.0375 -0.6756 -0.0303
 1857SOL    HW117033   3.760   3.072  15.342 -0.2739 -0.4833  0.7755
 1857SOL    HW217034   3.658   2.979  15.391  0.2942  1.5533  0.6835
 1858SOL     OW17035   2.193   1.159   2.088  0.2380 -0.2033  0.0443
 1858SOL    HW117036   2.228   1.239   2.050  0.3424  0.8417  2.3498
 1858SOL    HW217037   2.213   1.099   2.015  2.8397 -1.4810  1.7984
 1859SOL     OW17038   0.926   0.136   4.125  0.3897 -1.1784 -0.0066
 1859SOL    HW117039   0.975   0.092   4.055  0.4716 -1.0786 -0.0119
 1859SOL    HW217040   0.865   0.070   4.158 -0.7787  0.9177  2.0170
 1860SOL     OW17041   3.341   3.551   2.673  0.6897 -0.8096  0.0801
 1860SOL    HW117042   3.315   3.599   2.594 -2.2027 -1.3287  0.7140
 1860SOL    HW217043   3.313   3.613   2.740  0.4115 -0.4058 -0.4105
 1861SOL     OW17044   0.873   3.578   5.147 -0.3632  0.1336  0.6546
 1861SOL    HW117045   0.814   3.540   5.212 -0.5274 -2.9825 -1.3166
 1861SOL    HW217046   0.813   3.652   5.132  1.0557  1.0753 -0.3337
 1862SOL     OW17047   1.983   3.805   0.478  0.0344 -0.1111 -0.6953
 1862SOL    HW117048   2.009   3.762   0.560  0.5629  1.7256  0.1063
 1862SOL    HW217049   1.902   3.848   0.503 -0.5601 -0.5685 -1.8605
 1863SOL     OW17050   3.066   0.319   3.845  0.7902  0.1134  0.8049
 1863SOL    HW117051   3.109   0.367   3.774  2.2176 -1.0738  0.8654
 1863SOL    HW217052   2.980   0.361   3.841  0.1287 -1.2023  1.0587
 1864SOL     OW17053   3.056   4.381   0.430  0.6992 -0.6434  0.4306
 1864SOL    HW117054   3.125   4.445   0.449 -0.4092 -0.1032  2.5140
 1864SOL    HW217055   3.013   4.421   0.354  1.3401 -0.6082  0.0865
 1865SOL     OW17056   1.923   1.508   5.520 -0.5078 -0.4642  0.3904
 1865SOL    HW117057   1.847   1.506   5.579 -1.7580  2.2499 -1.1194
 1865SOL    HW217058   1.892   1.455   5.447 -0.1268  0.0048 -0.1107
 1866SOL     OW17059   3.376   0.594   1.101  0.5023 -0.0287  0.1249
 1866SOL    HW117060   3.443   0.598   1.170  0.2303 -0.1587  0.3980
 1866SOL    HW217061   3.365   0.681   1.064  1.1347 -0.4730 -1.1102
 1867SOL     OW17062   2.818   1.227   5.991  0.2610  0.6230 -0.0552
 1867SOL    HW117063   2.738   1.199   5.946  0.0799  1.8823 -0.5185
 1867SOL    HW217064   2.794   1.242   6.082  0.1640  0.7258 -0.0974
 1868SOL     OW17065   1.342   3.886   1.605  0.1109 -0.0980 -0.3185
 1868SOL    HW117066   1.342   3.850   1.516 -2.0863 -0.6448 -0.1107
 1868SOL    HW217067   1.434   3.910   1.613  0.0297  0.9299 -2.2782
 1869SOL     OW17068   2.124   3.233   0.762 -0.1362  0.0844 -0.6083
 1869SOL    HW117069   2.181   3.166   0.723  1.8426  1.6836 -0.4485
 1869SOL    HW217070   2.036   3.228   0.725 -0.0818 -0.9487 -0.6135
 1870SOL     OW17071   1.934   4.270  11.311 -0.2887 -0.6289 -0.1395
 1870SOL    HW117072   1.904   4.200  11.252 -1.7668 -0.1086 -0.0181
 1870SOL    HW217073   2.001   4.222  11.360  0.2656  0.4284  0.1341
 1871SOL     OW17074   2.900   0.048   8.483  0.0888  0.1147  0.2296
 1871SOL    HW117075   2.834   4.704   8.474 -0.1373  0.8506 -3.6256
 1871SOL    HW217076   2.956   0.013   8.552  0.1312  1.9555  1.1484
 1872SOL     OW17077   4.673   1.568   5.335 -0.1488  0.4325  0.2953
 1872SOL    HW117078   4.653   1.648   5.383 -0.0678  1.4934 -1.4382
 1872SOL    HW217079   4.633   1.582   5.249 -0.6843  1.2244  0.6787
 1873SOL     OW17080   0.524   4.231   3.592 -0.3697 -0.7553  0.2771
 1873SOL    HW117081   0.583   4.173   3.640 -1.3516 -2.4259 -0.5390
 1873SOL    HW217082   0.488   4.176   3.523  0.1903  1.3840 -1.7373
 1874SOL     OW17083   2.151   3.218  15.261  0.1644  0.1503 -0.5948
 1874SOL    HW117084   2.123   3.181  15.345 -0.5728 -0.5310 -1.1443
 1874SOL    HW217085   2.089   3.291  15.258  0.6976  0.5251 -2.3517
 1875SOL     OW17086   0.352   3.050   5.643  0.3648 -0.3479 -0.0065
 1875SOL    HW117087   0.355   2.957   5.667  1.2868 -0.2772  0.1496
 1875SOL    HW217088   0.426   3.048   5.582  0.7408 -1.5451  0.4881
 1876SOL     OW17089   1.206   3.200  17.205 -0.2833 -0.1444  0.0474
 1876SOL    HW117090   1.290   3.189  17.248  0.6429 -1.2583 -2.0277
 1876SOL    HW217091   1.152   3.181  17.282  1.1503  0.3017  1.1383
 1877SOL     OW17092   0.532   0.197  10.608  0.0545 -0.0171 -0.2616
 1877SOL    HW117093   0.601   0.260  10.628 -0.7634 -0.1989  3.2053
 1877SOL    HW217094   0.453   0.249  10.622  0.4738  0.9331 -1.4407
 1878SOL     OW17095   3.243   0.677  14.531  0.2964  0.2696 -0.2392
 1878SOL    HW117096   3.275   0.741  14.595 -0.8386  0.3761  0.2242
 1878SOL    HW217097   3.271   0.718  14.450  2.1672  0.3847  0.4462
 1879SOL     OW17098   3.066   0.408   2.426 -0.4182 -0.3893 -0.2194
 1879SOL    HW117099   3.004   0.338   2.407 -0.6143 -0.3317  0.2151
 1879SOL    HW217100   3.018   0.475   2.377 -0.2560 -2.0085 -2.5942
 1880SOL     OW17101   4.619   2.566   5.777  0.3137  0.0283 -0.2440
 1880SOL    HW117102   4.543   2.611   5.814 -1.2412 -1.0182 -2.1777
 1880SOL    HW217103   4.679   2.566   5.851 -0.6355  0.5223  0.5249
 1881SOL     OW17104   3.833   2.377  16.445  0.5197 -0.3387 -0.2285
 1881SOL    HW117105   3.782   2.398  16.523  0.2262  0.8795 -0.7416
 1881SOL    HW217106   3.806   2.288  16.424  1.0358 -0.2810 -1.1558
 1882SOL     OW17107   4.231   4.429   7.460  0.6973  0.0086 -0.0285
 1882SOL    HW117108   4.178   4.491   7.510 -0.2599  0.1167 -1.1930
 1882SOL    HW217109   4.264   4.485   7.390  1.8548 -0.1804  0.3556
 1883SOL     OW17110   3.266   0.567  13.437  0.1728 -0.0414 -0.0537
 1883SOL    HW117111   3.263   0.497  13.502 -1.1392 -0.8078 -0.9463
 1883SOL    HW217112   3.176   0.595  13.453  0.4120  0.8219 -0.2051
 1884SOL     OW17113   3.345   0.707   0.481  0.0227 -0.2025 -0.6837
 1884SOL    HW117114   3.408   0.748   0.539  0.6591 -0.0077 -1.5131
 1884SOL    HW217115   3.374   0.751   0.401  0.1094  0.9742 -0.0081
 1885SOL     OW17116   3.751   0.114   5.748 -0.3928 -0.3727 -0.3335
 1885SOL    HW117117   3.668   0.124   5.703 -0.1355 -0.5294 -0.8436
 1885SOL    HW217118   3.776   0.205   5.767 -1.7337  0.0554 -0.6424
 1886SOL     OW17119   4.416   1.312   3.082  0.1114  0.5916  0.5305
 1886SOL    HW117120   4.412   1.241   3.146 -0.7167 -0.6954 -0.9578
 1886SOL    HW217121   4.350   1.276   3.023 -1.3801  0.5455  2.2206
 1887SOL     OW17122   1.688   4.157   6.051 -0.3746 -0.0810  0.2998
 1887SOL    HW117123   1.617   4.203   6.005  0.4079 -2.0238 -2.8711
 1887SOL    HW217124   1.664   4.159   6.143 -0.8112 -0.1827  0.1919
 1888SOL     OW17125   1.898   0.972   7.927 -0.2381  0.5298 -0.2202
 1888SOL    HW117126   1.816   1.020   7.913 -1.8077 -1.9778  0.3263
 1888SOL    HW217127   1.967   1.035   7.907 -0.3400  0.1782 -1.6663
 1889SOL     OW17128   2.392   0.159   8.392  0.6437  0.6656  0.0916
 1889SOL    HW117129   2.326   0.154   8.322  0.8875 -0.6267 -0.0516
 1889SOL    HW217130   2.395   0.251   8.415 -1.1305  0.1327  2.4877
 1890SOL     OW17131   3.098   2.581  17.356 -0.4878 -0.8160  0.2081
 1890SOL    HW117132   3.154   2.628  17.418  0.5086 -2.5560  0.6459
 1890SOL    HW217133   3.132   2.497  17.389  2.6022 -0.6739 -2.5551
 1891SOL     OW17134   1.278   0.736   1.021 -0.0089  0.0757 -0.6778
 1891SOL    HW117135   1.269   0.656   0.968 -0.7449 -2.8120  3.8064
 1891SOL    HW217136   1.363   0.723   1.062 -0.8799  1.7531  1.6960
 1892SOL     OW17137   0.648   2.469   6.250  0.0296  0.3252 -0.3648
 1892SOL    HW117138   0.601   2.529   6.192 -2.2266 -0.6849  0.4214
 1892SOL    HW217139   0.602   2.473   6.334  0.1884 -1.9106 -0.1660
 1893SOL     OW17140   0.873   2.720   2.299 -0.0946  0.5704  0.1873
 1893SOL    HW117141   0.855   2.648   2.360  1.1917  1.1678  1.2802
 1893SOL    HW217142   0.837   2.797   2.343 -0.6034  1.0303 -1.0575
 1894SOL     OW17143   4.645   2.691   3.372 -0.0979  0.0726 -0.6691
 1894SOL    HW117144   4.694   2.650   3.301  0.5129 -0.9197  0.3143
 1894SOL    HW217145   4.634   2.781   3.341 -0.0730  0.8306  1.4897
 1895SOL     OW17146   2.647   0.538   1.690 -0.0913  0.0489  0.5132
 1895SOL    HW117147   2.712   0.493   1.636  0.5767  3.3935 -1.4931
 1895SOL    HW217148   2.669   0.631   1.679  0.9917 -0.3286 -0.5604
 1896SOL     OW17149   3.584   3.241  10.217 -0.4555  0.3111  0.5809
 1896SOL    HW117150   3.531   3.309  10.258  1.6986  1.9448  0.6649
 1896SOL    HW217151   3.519   3.172  10.232  1.2085 -1.0820  1.4200
 1897SOL     OW17152   0.931   0.381   1.724  0.0486  0.5183 -0.0135
 1897SOL    HW117153   0.899   0.432   1.650 -0.2472  0.9481  0.4132
 1897SOL    HW217154   0.864   0.394   1.791 -0.2851  1.3214 -0.4996
 1898SOL     OW17155   0.266   3.765  16.337 -0.4937 -0.2750 -0.1636
 1898SOL    HW117156   0.352   3.723  16.343 -0.5765 -0.2531  1.1791
 1898SOL    HW217157   0.286   3.854  16.367  0.0964 -0.3706 -0.2755
 1899SOL     OW17158   2.068   0.935   7.608  0.1156 -0.3568 -0.2882
 1899SOL    HW117159   2.155   0.975   7.611 -0.0735  0.1631 -1.9808
 1899SOL    HW217160   2.089   0.851   7.648  0.9610  0.1175  0.2683
 1900SOL     OW17161   0.647   1.259  16.171  0.3223 -0.5647  0.0558
 1900SOL    HW117162   0.720   1.274  16.231  0.3650 -1.9717  0.3656
 1900SOL    HW217163   0.569   1.260  16.226  0.1784  0.2112 -0.1653
 1901SOL     OW17164   4.439   1.929   2.206 -0.4907 -0.5913 -0.6171
 1901SOL    HW117165   4.352   1.968   2.202  0.9120  2.6233  1.1016
 1901SOL    HW217166   4.489   2.008   2.191 -1.5390  0.2787  0.4769
 1902SOL     OW17167   1.704   0.643   3.765  0.2112  0.1331  0.0452
 1902SOL    HW117168   1.745   0.640   3.851 -2.5466 -0.8098  1.3206
 1902SOL    HW217169   1.659   0.559   3.767 -1.0066  0.7293 -2.7888
 1903SOL     OW17170   2.847   3.940   9.561  0.2161  0.2491  0.4849
 1903SOL    HW117171   2.831   3.909   9.472  0.1999 -0.8912  0.8893
 1903SOL    HW217172   2.908   3.875   9.595 -0.4915 -0.7203 -0.1177
 1904SOL     OW17173   1.347   1.918   3.177  0.2218  0.3648  0.4209
 1904SOL    HW117174   1.260   1.877   3.174  2.1427 -3.4853 -2.0740
 1904SOL    HW217175   1.324   2.011   3.178  1.9005  0.7846 -0.3702
 1905SOL     OW17176   1.548   4.476  13.102 -0.0443 -0.1191  0.6373
 1905SOL    HW117177   1.595   4.440  13.026 -0.1725  0.0647  0.4726
 1905SOL    HW217178   1.484   4.406  13.116 -0.8258  0.4657 -0.0445
 1906SOL     OW17179   2.704   4.102   0.541 -0.1188 -0.0014 -0.1775
 1906SOL    HW117180   2.718   4.185   0.495  2.6469  0.0833  0.8643
 1906SOL    HW217181   2.609   4.093   0.530 -0.1575  0.8058 -0.5188
 1907SOL     OW17182   4.428   4.705   4.163 -0.2503 -0.0104  0.4666
 1907SOL    HW117183   4.408   4.665   4.078 -1.7579  2.6109 -0.4213
 1907SOL    HW217184   4.342   4.701   4.205 -0.4131  0.6425  0.2034
 1908SOL     OW17185   1.319   4.062   8.277  0.0106  0.5598  0.0072
 1908SOL    HW117186   1.372   4.070   8.356  0.5888 -0.1463 -0.3151
 1908SOL    HW217187   1.232   4.066   8.317 -0.7330 -1.6973 -1.3786
 1909SOL     OW17188   1.423   3.939  13.291  0.7233 -0.5465 -0.3672
 1909SOL    HW117189   1.506   3.985  13.304  0.7146 -0.2395 -1.4165
 1909SOL    HW217190   1.406   3.936  13.197 -0.9721 -0.4058 -0.0750
 1910SOL     OW17191   1.237   3.682   4.944  0.2250  0.1156 -0.4250
 1910SOL    HW117192   1.188   3.756   4.980  1.0339  0.9270 -0.9901
 1910SOL    HW217193   1.324   3.693   4.983  0.7052 -1.9254 -0.9326
 1911SOL     OW17194   3.987   3.507   1.675 -0.4913 -0.7066 -0.0062
 1911SOL    HW117195   3.982   3.599   1.647 -0.1060 -0.1586  1.7817
 1911SOL    HW217196   4.021   3.517   1.763 -0.0917  0.6314 -0.3046
 1912SOL     OW17197   4.274   1.673   4.361 -0.1513 -0.1959 -0.0094
 1912SOL    HW117198   4.270   1.622   4.280  2.7116  0.5401 -0.6041
 1912SOL    HW217199   4.258   1.606   4.426 -1.1718 -0.5709 -0.6415
 1913SOL     OW17200   3.647   4.039   5.553  0.1735 -0.4404 -0.8300
 1913SOL    HW117201   3.666   4.124   5.513  0.0439  0.5861  1.3069
 1913SOL    HW217202   3.720   4.027   5.613  0.0537 -0.5727 -0.7120
 1914SOL     OW17203   3.015   3.684   2.804 -0.4969  0.1705  0.5982
 1914SOL    HW117204   2.928   3.650   2.820 -0.3653 -0.0675  0.8071
 1914SOL    HW217205   3.004   3.748   2.733  0.7003  0.2824  0.5085
 1915SOL     OW17206   4.336   1.729  14.681  0.7519  0.6436  0.1055
 1915SOL    HW117207   4.377   1.737  14.767  0.1444 -0.4159  0.5041
 1915SOL    HW217208   4.291   1.813  14.677  2.4311  1.5221 -0.0163
 1916SOL     OW17209   1.268   0.880   3.979  0.1285  0.5009  0.1549
 1916SOL    HW117210   1.350   0.863   3.931 -1.1697  0.2066 -1.9424
 1916SOL    HW217211   1.293   0.917   4.064  1.3013  0.2917 -0.0888
 1917SOL     OW17212   2.424   3.624   7.465 -0.0866  0.1579 -0.3590
 1917SOL    HW117213   2.439   3.532   7.486 -1.0108  0.5342  1.9374
 1917SOL    HW217214   2.328   3.621   7.469 -0.0836  0.0085 -0.4314
 1918SOL     OW17215   0.794   1.956   3.868  0.4239 -0.9758 -0.2858
 1918SOL    HW117216   0.730   2.022   3.897  0.6969 -0.7887 -0.1157
 1918SOL    HW217217   0.836   1.937   3.952 -0.8221 -0.6764  0.4073
 1919SOL     OW17218   3.379   2.968   0.375 -0.4107  0.2417  0.0972
 1919SOL    HW117219   3.358   3.033   0.308 -0.6589  0.4715  0.3915
 1919SOL    HW217220   3.376   2.884   0.330  1.6147  1.1062 -1.6466
 1920SOL     OW17221   2.321   2.935   8.096  0.7587  0.3628  0.1422
 1920SOL    HW117222   2.338   3.022   8.131 -0.2314  0.7102 -0.2392
 1920SOL    HW217223   2.269   2.895   8.166 -0.8339  0.1397 -1.1688
 1921SOL     OW17224   1.689   2.863   6.611 -0.0668 -0.3043 -0.1640
 1921SOL    HW117225   1.651   2.950   6.621 -2.2346 -1.2170 -0.4762
 1921SOL    HW217226   1.780   2.884   6.588  0.1359 -0.9179  0.0696
 1922SOL     OW17227   4.196   4.650   4.322  0.2532 -0.2409 -0.2180
 1922SOL    HW117228   4.218   4.567   4.363  1.2263 -1.7118 -3.6542
 1922SOL    HW217229   4.173   4.705   4.396  1.2717 -0.5422  0.3146
 1923SOL     OW17230   4.496   1.197   3.545  0.2661 -0.1811  0.1720
 1923SOL    HW117231   4.565   1.166   3.603  0.7259  0.6900  0.0883
 1923SOL    HW217232   4.542   1.211   3.462  0.0459  1.0534  0.2602
 1924SOL     OW17233   2.519   0.217   8.813 -0.3118 -0.2617  0.2652
 1924SOL    HW117234   2.542   0.276   8.884 -1.8125  0.0865  0.4531
 1924SOL    HW217235   2.553   0.260   8.734  1.2460  0.9116  1.5878
 1925SOL     OW17236   4.289   3.008   0.197 -0.3317  0.0715  0.2859
 1925SOL    HW117237   4.212   3.063   0.213 -1.2807 -1.4566  1.0078
 1925SOL    HW217238   4.287   2.962   0.282  1.0162 -2.4236 -1.0375
 1926SOL     OW17239   3.339   2.182  11.344  0.0851 -0.2723  0.2336
 1926SOL    HW117240   3.400   2.111  11.362 -0.0464 -0.1981  1.0061
 1926SOL    HW217241   3.406   2.248  11.326 -1.2287  1.3275  1.0951
 1927SOL     OW17242   2.947   0.204   2.329  0.5508 -0.1651  0.0845
 1927SOL    HW117243   3.038   0.182   2.312  0.0659 -1.7949 -0.4069
 1927SOL    HW217244   2.912   0.115   2.340 -1.0444  0.2139 -1.9608
 1928SOL     OW17245   3.794   1.582  16.310 -0.1284  0.2112 -0.4171
 1928SOL    HW117246   3.843   1.504  16.285 -2.0869 -1.1424 -0.1153
 1928SOL    HW217247   3.836   1.585  16.396 -2.0040 -1.4123  0.5760
 1929SOL     OW17248   1.293   3.053   0.629  0.1099  0.9296 -0.9862
 1929SOL    HW117249   1.208   3.077   0.666  0.4869  2.0870 -0.8613
 1929SOL    HW217250   1.342   3.005   0.697  0.2576  0.6659 -1.2821
 1930SOL     OW17251   4.092   2.175   7.271  0.3724 -0.2292 -0.6621
 1930SOL    HW117252   4.077   2.263   7.305  2.4681 -0.9291  2.0851
 1930SOL    HW217253   4.005   2.137   7.252  0.3952 -1.5754  1.8793
 1931SOL     OW17254   4.493   0.650   7.887  0.3147 -0.7665  0.0144
 1931SOL    HW117255   4.462   0.710   7.819 -1.6524 -2.7023 -0.8202
 1931SOL    HW217256   4.414   0.603   7.915  0.3197 -0.2805  0.8314
 1932SOL     OW17257   2.089   4.707   3.656 -0.3570  0.0280 -0.2095
 1932SOL    HW117258   2.098   0.046   3.584 -0.3756  1.2085  0.8274
 1932SOL    HW217259   2.047   0.034   3.725  1.3976  1.1369  0.0296
 1933SOL     OW17260   4.682   4.514   4.800 -0.2669  0.1683 -0.2786
 1933SOL    HW117261   4.627   4.436   4.803  1.6955 -1.1868  0.3267
 1933SOL    HW217262   0.043   4.479   4.827  0.7883  2.3050 -0.8461
 1934SOL     OW17263   0.379   1.062   5.333 -0.1547  0.5754  0.0020
 1934SOL    HW117264   0.288   1.066   5.305 -0.1017 -2.5707 -0.6913
 1934SOL    HW217265   0.393   1.147   5.373  0.2029 -0.5764  2.3292
 1935SOL     OW17266   1.740   1.967  12.882 -1.1291 -0.4558  0.0763
 1935SOL    HW117267   1.777   2.047  12.919  0.5193 -1.1954  0.0407
 1935SOL    HW217268   1.781   1.899  12.935 -1.6014  0.1849  1.2556
 1936SOL     OW17269   4.364   2.621   3.509  0.2989 -0.0226  0.6933
 1936SOL    HW117270   4.307   2.680   3.461  2.2968  0.2082 -1.3707
 1936SOL    HW217271   4.311   2.541   3.499  2.9566 -1.8204  0.8595
 1937SOL     OW17272   1.895   2.028  16.446  0.0310 -0.3950  0.5755
 1937SOL    HW117273   1.812   1.981  16.448 -0.8419  1.1294 -0.2377
 1937SOL    HW217274   1.885   2.095  16.379 -0.1758 -0.6442  0.3575
 1938SOL     OW17275   3.871   3.880  16.732  0.0694  0.4745 -0.0757
 1938SOL    HW117276   3.824   3.963  16.733  0.8602  0.9304 -0.4339
 1938SOL    HW217277   3.824   3.829  16.798  0.2317  1.1782  0.5870
 1939SOL     OW17278   4.315   2.786   0.016 -0.1777 -0.0310  0.1267
 1939SOL    HW117279   4.264   2.852   0.062  2.8942  1.5751  1.2440
 1939SOL    HW217280   4.273   2.702   0.034 -1.5045  0.2402 -1.7085
 1940SOL     OW17281   0.253   4.468  11.883 -0.0107  0.1858 -0.0018
 1940SOL    HW117282   0.319   4.536  11.869 -0.4645  0.5445 -0.4013
 1940SOL    HW217283   0.226   4.450  11.793  0.9320 -0.2222 -0.2052
 1941SOL     OW17284   0.771   3.255   5.341  0.0620  0.3410 -0.2782
 1941SOL    HW117285   0.769   3.223   5.250  0.8611 -0.5680  0.0260
 1941SOL    HW217286   0.716   3.333   5.333  1.1175  1.3653  2.6007
 1942SOL     OW17287   2.379   3.962  11.549  0.2761  0.2601 -0.2178
 1942SOL    HW117288   2.319   3.889  11.539  1.6111 -0.7234 -1.0971
 1942SOL    HW217289   2.458   3.908  11.538  0.9084  0.7602  1.8291
 1943SOL     OW17290   1.624   1.461  11.743  0.2838 -0.0232  0.1170
 1943SOL    HW117291   1.659   1.427  11.661  1.5551 -1.5563  1.2841
 1943SOL    HW217292   1.627   1.557  11.735  3.5352 -0.3299 -2.3455
 1944SOL     OW17293   0.218   4.377   6.048  0.0753 -0.4090  0.2170
 1944SOL    HW117294   0.257   4.305   5.999  0.7465  1.1822 -1.5685
 1944SOL    HW217295   0.243   4.454   5.998 -1.5192  0.9007  1.4416
 1945SOL     OW17296   2.757   0.879   8.369  0.4700  0.1923 -0.9017
 1945SOL    HW117297   2.690   0.933   8.411  0.7997  0.3254 -0.5555
 1945SOL    HW217298   2.745   0.800   8.421  2.7579 -0.3427 -1.1995
 1946SOL     OW17299   1.458   0.135   6.066 -0.1529  0.3274  0.4907
 1946SOL    HW117300   1.444   0.228   6.048 -0.6880 -0.1133 -1.3802
 1946SOL    HW217301   1.439   0.141   6.160 -1.4497 -1.7335  0.3763
 1947SOL     OW17302   3.462   3.618   1.176  0.3409  0.4750 -0.2072
 1947SOL    HW117303   3.442   3.587   1.088 -0.0367  0.3572 -0.0778
 1947SOL    HW217304   3.557   3.605   1.175  0.0895 -1.4136  1.9463
 1948SOL     OW17305   2.513   3.003  10.678 -0.2350 -0.0646 -0.0689
 1948SOL    HW117306   2.590   3.060  10.672 -1.9172  2.4787  2.7043
 1948SOL    HW217307   2.502   3.007  10.773 -1.5454  0.5056 -0.2473
 1949SOL     OW17308   2.734   3.969   8.945 -0.2787  0.3248 -0.0818
 1949SOL    HW117309   2.666   3.901   8.949 -0.8060  0.7438 -1.8532
 1949SOL    HW217310   2.714   4.031   9.015  1.1974  2.1204 -1.2592
 1950SOL     OW17311   0.898   4.654  14.638  0.0987 -0.3287  0.3755
 1950SOL    HW117312   0.900   4.615  14.551  1.8084 -3.5499  1.8681
 1950SOL    HW217313   0.859   4.591  14.698 -0.3890 -0.6001 -0.2297
 1951SOL     OW17314   3.493   1.393   1.352  0.9597  0.0053 -0.6763
 1951SOL    HW117315   3.468   1.472   1.304 -1.2122  0.4320  1.1338
 1951SOL    HW217316   3.487   1.410   1.446 -1.7328  2.1874 -1.2131
 1952SOL     OW17317   2.697   2.585   0.824  0.4076 -0.2588 -0.6196
 1952SOL    HW117318   2.631   2.600   0.757 -0.6877 -0.0866  0.5029
 1952SOL    HW217319   2.757   2.659   0.817 -0.7993  0.6607 -1.1648
 1953SOL     OW17320   2.417   0.928   8.241 -0.3693  0.1795 -0.7118
 1953SOL    HW117321   2.398   1.022   8.234  0.0916  0.1762 -1.9692
 1953SOL    HW217322   2.477   0.928   8.167 -1.5359  0.1961 -1.6603
 1954SOL     OW17323   2.946   3.214   4.000 -0.3230  0.0036  0.7440
 1954SOL    HW117324   2.959   3.120   3.988 -0.2782 -0.1049  1.5921
 1954SOL    HW217325   2.864   3.215   4.050  0.6345  1.8367  2.2859
 1955SOL     OW17326   1.471   0.973   7.872  0.1470 -0.2267  0.2372
 1955SOL    HW117327   1.487   0.929   7.955  5.4103  0.5542 -0.3908
 1955SOL    HW217328   1.384   1.011   7.883  1.0561  0.9619  3.4107
 1956SOL     OW17329   2.999   4.214   8.674 -0.1915 -0.1988  0.7639
 1956SOL    HW117330   3.001   4.186   8.765 -2.0154 -0.3069  0.7654
 1956SOL    HW217331   2.911   4.181   8.656  0.7424 -1.7939 -0.8928
 1957SOL     OW17332   4.498   3.856   0.100  0.6498  0.0548 -0.0876
 1957SOL    HW117333   4.458   3.920   0.041  1.0361 -0.0864 -0.5024
 1957SOL    HW217334   4.451   3.778   0.068  1.5356 -0.1831 -0.7976
 1958SOL     OW17335   3.291   4.106   6.332  0.2609  0.1593 -0.5806
 1958SOL    HW117336   3.349   4.117   6.407  0.2692  1.3237 -0.7593
 1958SOL    HW217337   3.241   4.184   6.355  2.5636  2.7193 -4.4054
 1959SOL     OW17338   1.178   1.438   2.474  0.1134  0.6203  0.1634
 1959SOL    HW117339   1.167   1.369   2.409 -2.4050 -0.3869  1.6592
 1959SOL    HW217340   1.265   1.413   2.505  1.2743  1.7072 -2.1702
 1960SOL     OW17341   4.713   1.053   2.302  0.2390 -0.3043 -0.0625
 1960SOL    HW117342   0.071   1.020   2.266 -0.0709  0.1129 -1.1816
 1960SOL    HW217343   4.665   0.970   2.310 -1.0807  0.6088  1.4391
 1961SOL     OW17344   2.523   2.337   5.849  0.4642  0.3292  0.0236
 1961SOL    HW117345   2.517   2.417   5.797 -2.1995  0.2186  0.1393
 1961SOL    HW217346   2.593   2.295   5.798  1.1268  0.0423  1.1540
 1962SOL     OW17347   0.738   4.429   9.457 -0.0957  0.2329 -0.2593
 1962SOL    HW117348   0.771   4.416   9.368  1.2816  0.4402  0.2301
 1962SOL    HW217349   0.680   4.353   9.451  1.0041 -0.6393  0.0723
 1963SOL     OW17350   3.521   0.865   5.162 -0.2611 -0.3597  0.1685
 1963SOL    HW117351   3.514   0.870   5.257 -2.1249  0.6262 -0.0060
 1963SOL    HW217352   3.460   0.938   5.144 -2.1014 -1.5802  1.4515
 1964SOL     OW17353   3.913   4.102   3.409 -0.2431  0.7403  0.2801
 1964SOL    HW117354   3.915   4.176   3.469  1.3957  1.9250 -1.2692
 1964SOL    HW217355   3.909   4.147   3.325 -0.8815  0.7924  0.3323
 1965SOL     OW17356   1.849   3.553   9.243  0.1929  0.1279 -0.3913
 1965SOL    HW117357   1.772   3.518   9.197 -1.0642  1.3272  0.7660
 1965SOL    HW217358   1.905   3.476   9.240 -1.4495 -0.9833 -2.9084
 1966SOL     OW17359   0.946   3.717   2.656 -0.3676  0.0230 -0.1249
 1966SOL    HW117360   0.897   3.796   2.634 -1.1426 -0.0976  1.1280
 1966SOL    HW217361   0.988   3.701   2.572  0.1342  0.0914  0.1107
 1967SOL     OW17362   2.067   3.045  15.751 -0.4683  0.0134  0.1657
 1967SOL    HW117363   2.015   3.017  15.826  1.5345  0.1501  1.6029
 1967SOL    HW217364   2.149   3.051  15.799 -0.2815  0.0121 -0.1596
 1968SOL     OW17365   0.107   2.663  11.193 -0.8500  0.1174  0.3023
 1968SOL    HW117366   0.096   2.603  11.267  0.5668  2.3122  2.2869
 1968SOL    HW217367   0.094   2.598  11.124  0.9922  0.1948 -0.1255
 1969SOL     OW17368   1.095   2.199  16.040 -0.5535 -0.3783  0.0216
 1969SOL    HW117369   1.145   2.235  15.966 -0.1694  0.3560  0.6339
 1969SOL    HW217370   1.008   2.219  16.006 -0.9688  0.8257  1.7708
 1970SOL     OW17371   2.058   4.169  11.557 -1.0162 -0.1096  0.2164
 1970SOL    HW117372   1.989   4.105  11.575 -0.3969 -0.3423  1.6985
 1970SOL    HW217373   2.128   4.142  11.616 -1.0095 -0.4894  0.0361
 1971SOL     OW17374   2.087   2.368   6.819 -0.5478 -0.5242  0.6106
 1971SOL    HW117375   2.108   2.417   6.899 -0.9155  0.5213  0.0713
 1971SOL    HW217376   2.180   2.369   6.795 -0.2965 -1.3573  1.5376
 1972SOL     OW17377   3.124   1.901   5.486  0.2782  0.2422 -0.1707
 1972SOL    HW117378   3.121   1.881   5.392 -0.1536 -2.1795  0.3486
 1972SOL    HW217379   3.109   1.995   5.485 -0.3317  0.1399 -0.6151
 1973SOL     OW17380   4.652   0.630   4.367 -0.6504 -0.1545 -0.1429
 1973SOL    HW117381   4.634   0.595   4.280  2.3708 -1.4934 -0.2179
 1973SOL    HW217382   4.623   0.720   4.353 -0.6852 -0.6493 -3.4515
 1974SOL     OW17383   0.320   4.162   5.972  0.0669  0.3932 -0.6665
 1974SOL    HW117384   0.309   4.104   6.048  1.0546  4.2155  2.4146
 1974SOL    HW217385   0.411   4.158   5.945 -0.2278  1.3757 -1.7720
 1975SOL     OW17386   3.350   2.341   5.541  0.1488 -0.5838  0.2015
 1975SOL    HW117387   3.293   2.387   5.480 -0.0046 -1.4049 -0.2737
 1975SOL    HW217388   3.363   2.262   5.488  0.7053  1.2953 -2.4122
 1976SOL     OW17389   0.222   2.932   5.004 -0.0816 -0.0870 -0.2922
 1976SOL    HW117390   0.192   2.990   4.933 -1.7640 -2.4948 -1.5723
 1976SOL    HW217391   0.170   2.852   5.006  0.0638 -0.1889 -0.6526
 1977SOL     OW17392   3.682   3.744   3.680 -0.0976 -0.2161  0.4012
 1977SOL    HW117393   3.708   3.817   3.624  1.0063 -2.8651 -2.5323
 1977SOL    HW217394   3.757   3.688   3.657  0.7845  1.7088 -1.4544
 1978SOL     OW17395   1.406   1.602   5.995 -0.8733  0.0445 -0.0870
 1978SOL    HW117396   1.454   1.664   5.941 -3.3989  0.9528 -1.2821
 1978SOL    HW217397   1.464   1.592   6.071  0.5397 -0.2510 -1.2090
 1979SOL     OW17398   1.199   1.521  14.311 -0.1193  0.2674  0.9207
 1979SOL    HW117399   1.287   1.527  14.348 -0.3387 -1.5148  1.7122
 1979SOL    HW217400   1.180   1.614  14.297 -1.3041 -0.1176 -0.0271
 1980SOL     OW17401   4.171   2.689   7.500 -0.1064  0.2471 -0.2846
 1980SOL    HW117402   4.219   2.616   7.540 -1.3216 -0.1432  0.4426
 1980SOL    HW217403   4.173   2.645   7.415 -0.5055 -0.7502  0.2174
 1981SOL     OW17404   1.512   2.797   5.089  0.1003  0.1636  0.4063
 1981SOL    HW117405   1.437   2.744   5.062 -0.6150  0.5745  1.5561
 1981SOL    HW217406   1.552   2.748   5.161  3.3927 -1.3289 -2.4273
 1982SOL     OW17407   0.460   0.392   2.378  0.6973  0.5539 -0.4471
 1982SOL    HW117408   0.367   0.369   2.382  0.1523  3.1554  1.5804
 1982SOL    HW217409   0.485   0.370   2.468 -2.3969 -1.6438 -0.1274
 1983SOL     OW17410   1.173   0.499  16.813 -0.1361  0.1113  0.6303
 1983SOL    HW117411   1.161   0.564  16.882 -1.7098 -2.5620  2.8928
 1983SOL    HW217412   1.116   0.523  16.740  2.4303  1.4687 -0.9262
 1984SOL     OW17413   1.685   4.288  11.014 -0.3094 -0.6485 -0.0697
 1984SOL    HW117414   1.741   4.213  10.998 -0.6695 -1.1306  0.9069
 1984SOL    HW217415   1.627   4.262  11.086  2.0904  0.8360  2.3933
 1985SOL     OW17416   1.431   2.130   1.961 -0.5522  0.0765  0.0341
 1985SOL    HW117417   1.481   2.157   1.884 -3.0513 -1.6116 -2.1714
 1985SOL    HW217418   1.407   2.040   1.937  0.6637 -0.2034 -0.1355
 1986SOL     OW17419   3.153   2.981  10.119  0.1579 -0.1747 -0.1722
 1986SOL    HW117420   3.095   2.982  10.043  0.7039 -0.8468 -0.5879
 1986SOL    HW217421   3.096   2.979  10.196 -0.5231 -0.0611 -0.6724
 1987SOL     OW17422   1.303   0.804   9.619  0.3272  0.6272  0.0793
 1987SOL    HW117423   1.210   0.789   9.639  0.7138 -0.7659  0.8675
 1987SOL    HW217424   1.302   0.790   9.525 -0.0124 -0.5812  0.2560
 1988SOL     OW17425   0.351   1.191   2.638 -0.3159  0.4302 -0.0845
 1988SOL    HW117426   0.343   1.135   2.715 -2.4852  0.2084 -0.4667
 1988SOL    HW217427   0.446   1.200   2.628 -0.2459  0.6859  0.7933
 1989SOL     OW17428   4.488   0.444   2.439  0.3508 -0.0907 -0.3479
 1989SOL    HW117429   4.580   0.467   2.427  0.9243 -2.8168 -1.2473
 1989SOL    HW217430   4.469   0.366   2.387  2.3191 -0.1933 -0.8974
 1990SOL     OW17431   2.910   2.020   7.807 -0.4351 -0.4604  0.3907
 1990SOL    HW117432   2.877   2.054   7.891 -1.5581 -1.8502  0.5136
 1990SOL    HW217433   3.003   2.020   7.828 -0.3170  2.5637 -0.1107
 1991SOL     OW17434   3.521   1.398   2.941 -0.2394  0.1361 -0.9403
 1991SOL    HW117435   3.549   1.408   2.850 -1.7898 -0.7169 -1.5090
 1991SOL    HW217436   3.456   1.468   2.939 -2.3462 -1.7831  0.2688
 1992SOL     OW17437   1.658   4.497   5.293 -0.3258  0.3930 -0.2223
 1992SOL    HW117438   1.588   4.438   5.322 -1.3830  0.5183 -2.5253
 1992SOL    HW217439   1.609   4.532   5.218  1.4429 -0.1376 -1.6351
 1993SOL     OW17440   1.448   3.148  15.952  0.0412 -0.0075  0.1301
 1993SOL    HW117441   1.364   3.179  15.986  0.0639  1.0059 -0.7369
 1993SOL    HW217442   1.457   3.204  15.875 -0.9550  0.3146  0.2558
 1994SOL     OW17443   3.918   1.594   2.538 -0.5316 -0.3050  0.1396
 1994SOL    HW117444   3.916   1.522   2.601 -0.6854  0.6663  1.2295
 1994SOL    HW217445   4.009   1.614   2.516 -0.7038  0.8377  0.4647
 1995SOL     OW17446   4.490   0.146   0.826 -0.0350 -0.1015  0.3210
 1995SOL    HW117447   4.477   0.239   0.807  3.6135  0.4795  0.4773
 1995SOL    HW217448   4.561   0.123   0.765  1.7517  0.3414  2.2364
 1996SOL     OW17449   3.893   0.777   1.891 -0.4941  0.1945  0.2075
 1996SOL    HW117450   3.876   0.782   1.985 -1.1994 -1.2468  0.1510
 1996SOL    HW217451   3.880   0.682   1.889  1.2767 -0.0697  1.5730
 1997SOL     OW17452   0.199   0.073   8.044  0.4450 -0.0355  0.4571
 1997SOL    HW117453   0.295   0.079   8.045  0.5271 -1.2759 -0.3958
 1997SOL    HW217454   0.183   0.030   7.960  1.5885 -0.1677  0.3102
 1998SOL     OW17455   2.697   2.106   0.959  0.1309 -0.0380 -0.5108
 1998SOL    HW117456   2.726   2.141   0.875 -0.1346 -0.6713 -0.8616
 1998SOL    HW217457   2.627   2.170   0.977  0.8761  1.0086 -1.2956
 1999SOL     OW17458   3.790   1.079  15.842 -0.0897 -0.3819 -0.7392
 1999SOL    HW117459   3.711   1.093  15.789 -1.4150  0.3754  1.4673
 1999SOL    HW217460   3.769   1.117  15.927 -2.7640 -1.9772 -0.6847
 2000SOL     OW17461   4.615   0.854   0.542  0.2376  0.1012  0.0920
 2000SOL    HW117462   4.711   0.853   0.545  0.1674 -0.1798  2.4004
 2000SOL    HW217463   4.608   0.921   0.610  0.3468 -0.4058  0.6146
 2001SOL     OW17464   1.121   0.200   6.482  0.4015 -0.0664 -0.2542
 2001SOL    HW117465   1.182   0.141   6.439  1.2231  0.0384  0.7760
 2001SOL    HW217466   1.092   0.258   6.412 -0.3868  1.1815  1.0955
 2002SOL     OW17467   2.760   3.527  12.400 -0.4559  0.2236 -0.2832
 2002SOL    HW117468   2.755   3.486  12.313  0.2880  0.5665 -0.4809
 2002SOL    HW217469   2.670   3.514  12.429 -0.2633  0.0135  0.2143
 2003SOL     OW17470   1.841   2.675   2.923 -0.3373 -0.0662  0.0947
 2003SOL    HW117471   1.840   2.670   2.827 -0.1163  1.3330  0.0168
 2003SOL    HW217472   1.909   2.741   2.934 -0.3683  0.3214 -1.9506
 2004SOL     OW17473   1.034   3.150  17.396  0.2417 -0.4985 -0.0472
 2004SOL    HW117474   0.950   3.175  17.434  0.5105 -0.0313  0.2433
 2004SOL    HW217475   1.051   3.067  17.442  0.6098 -0.6033 -0.3705
 2005SOL     OW17476   3.136   2.715   0.877  0.0010  0.5281 -0.0594
 2005SOL    HW117477   3.109   2.664   0.953 -1.8425  2.9314  0.9146
 2005SOL    HW217478   3.063   2.701   0.816 -0.4859 -1.6323  1.0272
 2006SOL     OW17479   0.656   3.385   3.938  0.0250  0.1116 -0.2718
 2006SOL    HW117480   0.705   3.324   3.884 -0.0334 -0.2491  0.0754
 2006SOL    HW217481   0.636   3.459   3.881  0.7072 -0.2543 -0.9763
 2007SOL     OW17482   0.615   1.692   0.750  0.2886  0.9165  0.1373
 2007SOL    HW117483   0.667   1.617   0.721 -0.8118 -0.5942  2.0380
 2007SOL    HW217484   0.599   1.661   0.840 -0.2568  0.4923 -0.1036
 2008SOL     OW17485   0.538   3.820   4.823  0.1728  0.3992  0.0027
 2008SOL    HW117486   0.450   3.808   4.786  0.1406 -1.2510  0.6474
 2008SOL    HW217487   0.544   3.914   4.804  0.7951  0.4561  0.5244
 2009SOL     OW17488   3.878   3.825   3.049 -0.2138 -0.2482  0.2053
 2009SOL    HW117489   3.799   3.799   3.097 -0.7719 -0.1980 -0.6823
 2009SOL    HW217490   3.938   3.751   3.043  1.1414  0.9980 -1.4399
 2010SOL     OW17491   1.744   3.630   8.428  0.3980  0.3557  0.0427
 2010SOL    HW117492   1.818   3.606   8.483 -0.2133 -0.6772  0.4082
 2010SOL    HW217493   1.738   3.554   8.370  1.6782 -0.2880  0.7636
 2011SOL     OW17494   4.279   0.454   4.942  0.4621 -0.1262 -0.6574
 2011SOL    HW117495   4.304   0.368   4.909  0.1081 -0.9269  1.1655
 2011SOL    HW217496   4.310   0.454   5.033 -4.8633  0.6164  1.1776
 2012SOL     OW17497   2.257   2.614   0.178  0.6078  0.0527 -0.1307
 2012SOL    HW117498   2.258   2.526   0.140 -0.2061 -1.2289  2.7994
 2012SOL    HW217499   2.301   2.598   0.262  0.6017 -0.7755 -0.2854
 2013SOL     OW17500   4.055   2.582   9.490 -0.7205 -0.0914  0.4468
 2013SOL    HW117501   4.092   2.564   9.576  1.0591  0.5464 -0.1894
 2013SOL    HW217502   4.130   2.631   9.457 -1.1630 -0.3062 -0.8876
 2014SOL     OW17503   3.318   2.949  17.664 -0.0393  0.0607  0.0072
 2014SOL    HW117504   3.373   2.910  17.596  1.0318 -0.6932  1.3096
 2014SOL    HW217505   3.368   3.030  17.673 -2.0930  1.2759  0.4885
 2015SOL     OW17506   4.035   3.209   2.306 -0.2879  0.0188 -0.1814
 2015SOL    HW117507   4.094   3.284   2.318  0.1856 -0.2914 -0.5480
 2015SOL    HW217508   3.957   3.254   2.275 -0.9981 -1.9234 -1.1794
 2016SOL     OW17509   3.038   2.365  10.955  0.0052 -0.1107 -0.0831
 2016SOL    HW117510   3.025   2.290  10.897  1.4610 -2.5658  2.7365
 2016SOL    HW217511   3.132   2.378  10.941 -0.0985 -0.1869 -0.8192
 2017SOL     OW17512   1.282   2.362  15.308  0.0317 -0.6759 -0.1467
 2017SOL    HW117513   1.222   2.302  15.353  0.3359 -0.2620  0.8226
 2017SOL    HW217514   1.290   2.439  15.365  3.5286 -0.0082 -1.5400
 2018SOL     OW17515   0.945   2.778  13.155  0.1206  0.5009 -0.0123
 2018SOL    HW117516   0.987   2.822  13.228  1.0301  1.9798 -1.4161
 2018SOL    HW217517   0.858   2.764  13.191  0.3050 -1.2454 -0.2371
 2019SOL     OW17518   4.681   4.607   2.969  0.5254  0.3716 -1.0929
 2019SOL    HW117519   4.596   4.581   3.003  0.2283  0.8647 -1.4605
 2019SOL    HW217520   4.645   4.691   2.942  0.5055  0.4096 -0.9505
 2020SOL     OW17521   1.869   1.676   8.792  0.0629  0.1194  0.2042
 2020SOL    HW117522   1.943   1.718   8.835 -1.0490  0.9404  1.3070
 2020SOL    HW217523   1.904   1.647   8.707 -0.6612  1.3939 -0.5351
 2021SOL     OW17524   1.374   4.167   9.288  0.0689 -0.1832  0.8296
 2021SOL    HW117525   1.321   4.227   9.234 -0.9288 -0.6990  1.2307
 2021SOL    HW217526   1.418   4.238   9.334  1.8655  0.8074 -2.4400
 2022SOL     OW17527   1.328   0.110  13.848  0.2461 -0.6911 -0.4722
 2022SOL    HW117528   1.321   0.086  13.941  1.7280 -0.4515 -0.2945
 2022SOL    HW217529   1.407   0.162  13.840 -0.6883  0.6434 -0.9353
 2023SOL     OW17530   4.132   3.316   5.183  0.1394  0.2614  0.2223
 2023SOL    HW117531   4.217   3.360   5.188  0.6098 -0.5870 -0.3181
 2023SOL    HW217532   4.161   3.228   5.161  0.8028  0.3955  0.5253
 2024SOL     OW17533   2.064   0.373   3.352 -0.0519 -0.1731 -0.0355
 2024SOL    HW117534   2.035   0.384   3.442  1.0709 -1.0839  0.4357
 2024SOL    HW217535   2.025   0.452   3.315 -0.5868 -0.8952 -1.0208
 2025SOL     OW17536   4.088   0.600   7.416  0.3347  0.2625 -0.4343
 2025SOL    HW117537   4.151   0.671   7.403  0.6258  0.8995  4.6179
 2025SOL    HW217538   4.032   0.626   7.343 -0.8911 -0.8089  0.1181
 2026SOL     OW17539   3.302   0.711   6.045 -0.0280 -0.3617  0.4371
 2026SOL    HW117540   3.381   0.730   6.095  0.1310 -0.2347  0.1335
 2026SOL    HW217541   3.233   0.722   6.111 -0.2266 -0.6843  0.2838
 2027SOL     OW17542   3.383   1.120   5.149 -0.1797 -0.4459  0.3019
 2027SOL    HW117543   3.403   1.149   5.060  1.4282  1.5850  1.3158
 2027SOL    HW217544   3.293   1.089   5.144  0.2504 -1.5485 -0.4281
 2028SOL     OW17545   1.070   1.679  11.222  0.4066 -0.5325 -0.5045
 2028SOL    HW117546   1.091   1.763  11.262 -1.1404  0.0470 -0.9243
 2028SOL    HW217547   0.990   1.701  11.175  0.1376 -0.5804 -0.0663
 2029SOL     OW17548   4.491   0.488   2.716 -0.6426 -0.0016 -0.0377
 2029SOL    HW117549   4.553   0.559   2.703  2.2679 -2.5171 -0.0454
 2029SOL    HW217550   4.484   0.460   2.624 -0.9685 -0.3213  0.0834
 2030SOL     OW17551   1.948   0.277   6.689 -0.5279  0.2578  0.1443
 2030SOL    HW117552   2.043   0.287   6.696 -0.5196  0.0668  0.3342
 2030SOL    HW217553   1.925   0.237   6.773 -0.7362 -1.3540 -0.6815
 2031SOL     OW17554   3.401   0.513   7.691  0.7245  0.4852  0.2880
 2031SOL    HW117555   3.418   0.597   7.648 -0.0505  0.4660 -0.0612
 2031SOL    HW217556   3.464   0.514   7.763  1.1117 -0.1998 -0.0460
 2032SOL     OW17557   1.571   1.737  15.911 -0.1129 -0.3271  0.0284
 2032SOL    HW117558   1.537   1.666  15.856 -0.3323 -1.6693  1.8765
 2032SOL    HW217559   1.483   1.767  15.934 -1.0658 -0.0279 -4.0064
 2033SOL     OW17560   0.585   3.297  13.614  0.8448  0.1063 -0.1788
 2033SOL    HW117561   0.598   3.216  13.663  0.2300  0.9925  1.4612
 2033SOL    HW217562   0.640   3.364  13.654 -0.8552  1.4752 -0.0801
 2034SOL     OW17563   0.593   3.964   7.131 -0.1001  0.0624  0.2732
 2034SOL    HW117564   0.511   3.927   7.164  1.4812 -3.7023  0.0745
 2034SOL    HW217565   0.597   3.927   7.043  0.4409 -2.7792  1.4598
 2035SOL     OW17566   1.782   4.049   8.603 -0.6236 -0.1139 -0.2984
 2035SOL    HW117567   1.814   4.136   8.580  0.3823 -0.4849 -0.2831
 2035SOL    HW217568   1.707   4.072   8.658 -0.3530  1.5449 -0.6465
 2036SOL     OW17569   2.486   3.266   9.016  0.1436  0.5382  0.5575
 2036SOL    HW117570   2.495   3.317   8.935 -0.1901  1.0118  0.8208
 2036SOL    HW217571   2.476   3.177   8.983  2.9198  1.3141 -2.3707
 2037SOL     OW17572   2.191   2.436  12.201  0.1447 -0.3723 -0.1845
 2037SOL    HW117573   2.275   2.426  12.246 -0.2387 -1.5851  0.2528
 2037SOL    HW217574   2.222   2.440  12.110 -2.3466 -1.0004 -1.0534
 2038SOL     OW17575   2.677   2.486   6.092  0.2385  0.2017 -0.4295
 2038SOL    HW117576   2.701   2.497   6.000 -2.1428 -0.5208 -1.1517
 2038SOL    HW217577   2.741   2.536   6.144 -0.8742 -0.4491  1.5690
 2039SOL     OW17578   2.085   3.550   2.299  0.1552  0.2894  0.2409
 2039SOL    HW117579   2.142   3.556   2.222 -2.1322  0.1440 -1.4526
 2039SOL    HW217580   2.144   3.574   2.370  0.0054  0.1542  0.4129
 2040SOL     OW17581   4.167   4.197  10.049 -0.0042  0.2003  0.0412
 2040SOL    HW117582   4.170   4.223   9.957  1.8574 -1.2661 -0.3180
 2040SOL    HW217583   4.077   4.178  10.076 -0.3367  0.2061 -1.0577
 2041SOL     OW17584   0.866   2.267   2.146  0.2305 -0.1685 -0.0641
 2041SOL    HW117585   0.892   2.354   2.118  1.4574 -0.5307 -0.0537
 2041SOL    HW217586   0.943   2.265   2.203  1.1133  2.5928 -1.1750
 2042SOL     OW17587   4.111   2.052  12.580 -0.0514 -0.1853  0.3366
 2042SOL    HW117588   4.195   2.086  12.611 -0.5817  0.0301  1.5472
 2042SOL    HW217589   4.121   2.059  12.485 -1.6046 -0.6411  0.1401
 2043SOL     OW17590   2.193   1.901   4.406  0.5023  0.3492 -0.0802
 2043SOL    HW117591   2.286   1.878   4.416  0.5214  0.9670  1.1137
 2043SOL    HW217592   2.175   1.884   4.313  0.0416  1.6066 -0.2168
 2044SOL     OW17593   4.123   3.109  14.470  0.1201 -0.4234 -0.1425
 2044SOL    HW117594   4.096   3.034  14.417 -0.5920 -1.1186  1.2015
 2044SOL    HW217595   4.038   3.145  14.496  0.1525 -0.0636 -0.5429
 2045SOL     OW17596   2.658   2.054   7.216 -0.6912 -0.5255 -0.0418
 2045SOL    HW117597   2.570   2.042   7.181 -0.4254 -0.0353 -0.8829
 2045SOL    HW217598   2.649   1.982   7.278 -3.0103 -1.2898 -1.2734
 2046SOL     OW17599   2.582   0.356   2.459  0.3603  0.4421 -0.0676
 2046SOL    HW117600   2.643   0.376   2.530 -1.3969  0.0958  1.5456
 2046SOL    HW217601   2.641   0.356   2.384  1.2052  1.9454  0.6097
 2047SOL     OW17602   2.427   0.334   9.895 -0.4554 -0.1425  0.2537
 2047SOL    HW117603   2.334   0.314   9.888 -0.4172  0.1218 -1.0745
 2047SOL    HW217604   2.469   0.250   9.915 -0.7251 -0.3907 -0.2360
 2048SOL     OW17605   3.288   4.538   2.360 -0.1412 -0.2055  0.9633
 2048SOL    HW117606   3.348   4.585   2.417  0.3884  1.4468 -0.9272
 2048SOL    HW217607   3.332   4.556   2.277 -0.0397 -3.8443  0.2327
 2049SOL     OW17608   4.679   3.982   8.512  0.3566 -0.3013 -0.3057
 2049SOL    HW117609   4.661   3.895   8.547  2.2184 -0.4297  0.2791
 2049SOL    HW217610   4.632   4.039   8.573 -1.4969 -1.9689 -0.1456
 2050SOL     OW17611   0.172   0.805  16.656  0.2376  0.0184  0.1739
 2050SOL    HW117612   0.143   0.827  16.567 -0.8425 -1.3184  0.2075
 2050SOL    HW217613   0.103   0.849  16.706 -0.8385 -1.9807  0.4433
 2051SOL     OW17614   4.296   0.804   4.417 -0.2732  0.4312 -0.0901
 2051SOL    HW117615   4.370   0.746   4.398  0.0653  0.5954  0.7358
 2051SOL    HW217616   4.224   0.741   4.418  1.0277 -1.0859 -0.1580
 2052SOL     OW17617   3.052   1.878   2.076  0.0352 -0.2400 -0.1607
 2052SOL    HW117618   2.985   1.917   2.019  0.2303 -0.4519 -0.5325
 2052SOL    HW217619   3.130   1.925   2.046 -0.5426  0.1130 -1.0983
 2053SOL     OW17620   0.115   4.139   7.544 -0.0519 -0.0439  0.2258
 2053SOL    HW117621   0.020   4.147   7.559  0.0004 -0.5739  0.8118
 2053SOL    HW217622   0.158   4.216   7.578  1.2335  0.5211 -2.6708
 2054SOL     OW17623   1.240   1.713   2.401 -0.3994  0.0679  0.0900
 2054SOL    HW117624   1.194   1.636   2.436  0.9505 -0.0976  1.5186
 2054SOL    HW217625   1.276   1.681   2.318 -1.6508 -1.7656  0.2471
 2055SOL     OW17626   4.318   0.394   4.084  0.3931 -0.3703 -0.5992
 2055SOL    HW117627   4.257   0.466   4.069  1.3333  0.2418 -1.4696
 2055SOL    HW217628   4.266   0.347   4.149 -0.2681 -0.4210 -1.1608
 2056SOL     OW17629   1.646   3.225  10.377 -0.1623 -0.1464 -0.0036
 2056SOL    HW117630   1.581   3.231  10.308 -2.2051  1.0007  2.0247
 2056SOL    HW217631   1.724   3.242  10.323 -0.7540  0.4884 -0.6552
 2057SOL     OW17632   2.860   0.446   1.565 -0.1733 -0.3936  0.6615
 2057SOL    HW117633   2.889   0.476   1.479  0.9303 -0.7377  0.9205
 2057SOL    HW217634   2.938   0.431   1.617 -1.0339 -2.0780  1.4703
 2058SOL     OW17635   0.171   4.317   8.935  0.3315 -0.1867  0.0236
 2058SOL    HW117636   0.187   4.411   8.940 -0.2663 -0.0703 -0.2509
 2058SOL    HW217637   0.258   4.291   8.966  0.8711  2.0568  0.3780
 2059SOL     OW17638   1.176   2.024   8.631  0.3239  0.2038  0.2162
 2059SOL    HW117639   1.224   1.941   8.639  2.3281  1.5592  2.0809
 2059SOL    HW217640   1.092   1.990   8.600  0.8122 -1.4793  0.7426
 2060SOL     OW17641   0.974   0.632   1.067 -0.3916 -0.2641  0.1833
 2060SOL    HW117642   1.061   0.629   1.028 -0.8261 -0.3302 -0.7803
 2060SOL    HW217643   0.971   0.553   1.121 -0.8402  0.2242  0.8643
 2061SOL     OW17644   4.543   4.314   4.899  0.2936 -0.0266  0.3681
 2061SOL    HW117645   4.533   4.225   4.933 -0.5508 -0.4053 -0.8237
 2061SOL    HW217646   4.524   4.371   4.973 -0.5703  1.6887 -1.1725
 2062SOL     OW17647   1.251   3.772   2.415  0.0874 -0.3476 -0.2555
 2062SOL    HW117648   1.159   3.753   2.398 -0.8866  0.1396  4.2399
 2062SOL    HW217649   1.282   3.822   2.340  1.4368 -0.5875  0.1326
 2063SOL     OW17650   3.260   3.066   2.854 -0.7810 -0.0165 -0.2599
 2063SOL    HW117651   3.349   3.038   2.833 -1.4787  0.6735 -4.1065
 2063SOL    HW217652   3.221   3.045   2.769 -2.2627 -0.3745  0.5061
 2064SOL     OW17653   1.138   1.155   7.620  0.0349 -1.1035 -0.2618
 2064SOL    HW117654   1.165   1.235   7.575 -1.8144 -0.4928 -0.2934
 2064SOL    HW217655   1.227   1.125   7.634 -0.0852  0.4972  4.0435
 2065SOL     OW17656   2.417   2.660  11.416  0.1216  0.4690 -0.5832
 2065SOL    HW117657   2.334   2.696  11.384  1.5235  2.3477 -2.0930
 2065SOL    HW217658   2.422   2.573  11.378 -0.0817  0.7158 -1.1846
 2066SOL     OW17659   0.906   0.973   3.795 -0.1480  0.3113  0.3777
 2066SOL    HW117660   0.935   0.911   3.729  0.5244 -0.7894  1.7078
 2066SOL    HW217661   0.962   1.050   3.781 -0.0939 -0.2962 -2.7253
 2067SOL     OW17662   0.989   0.301   6.978 -0.5581 -0.0483 -0.2918
 2067SOL    HW117663   1.023   0.299   6.889  1.3815 -0.8543  0.4533
 2067SOL    HW217664   0.900   0.267   6.975 -0.8570  0.7929 -0.9421
 2068SOL     OW17665   1.562   1.719  14.815  0.0881  0.4672 -1.3018
 2068SOL    HW117666   1.531   1.700  14.904  1.4230 -1.9809 -1.3515
 2068SOL    HW217667   1.521   1.804  14.798  1.4238  1.1757 -0.9983
 2069SOL     OW17668   4.610   0.215   6.339 -0.5828  0.0450  0.7145
 2069SOL    HW117669   4.613   0.305   6.305  1.5681 -0.5351 -0.6312
 2069SOL    HW217670   4.605   0.228   6.433  1.2115 -0.2254  0.8489
 2070SOL     OW17671   4.094   1.794   6.727 -0.8415  0.2735  0.0769
 2070SOL    HW117672   4.081   1.861   6.795 -0.2065 -0.8204  1.2638
 2070SOL    HW217673   4.164   1.848   6.690 -1.2607 -0.1668 -1.3770
 2071SOL     OW17674   0.612   2.359   8.621  0.1513 -0.5861 -0.1525
 2071SOL    HW117675   0.534   2.374   8.674  2.1772  0.0765  2.6607
 2071SOL    HW217676   0.649   2.447   8.615 -0.5468 -0.1969  1.2309
 2072SOL     OW17677   1.013   0.739   8.988 -0.1156  0.5258 -0.7818
 2072SOL    HW117678   1.062   0.818   9.013  1.7727 -0.9485  0.1653
 2072SOL    HW217679   1.086   0.679   8.976 -3.8373 -3.3833 -3.5069
 2073SOL     OW17680   0.307   1.246   5.601 -0.3780 -0.8595  0.4602
 2073SOL    HW117681   0.386   1.255   5.548  0.0853  1.0904  1.4619
 2073SOL    HW217682   0.336   1.260   5.692  0.4549 -0.0969  0.0801
 2074SOL     OW17683   2.461   3.110   0.240  0.5957 -0.1486  0.3913
 2074SOL    HW117684   2.395   3.172   0.211  0.5901  0.9411  2.7497
 2074SOL    HW217685   2.405   3.062   0.301 -1.0188  0.0140 -0.9658
 2075SOL     OW17686   4.467   2.112   5.399 -0.1593  0.2579 -0.0231
 2075SOL    HW117687   4.498   2.109   5.490 -1.2285  1.9144  0.4049
 2075SOL    HW217688   4.527   2.186   5.386  0.5145 -0.3087 -0.1282
 2076SOL     OW17689   2.138   1.447   2.181 -0.2891  0.0430 -0.5053
 2076SOL    HW117690   2.072   1.489   2.236 -0.8096 -0.4654 -0.7448
 2076SOL    HW217691   2.148   1.359   2.215  3.1891  0.0943 -1.4056
 2077SOL     OW17692   2.638   0.961   7.842  0.2440 -0.2665  0.3754
 2077SOL    HW117693   2.665   0.993   7.928 -0.0328  2.2345 -0.4777
 2077SOL    HW217694   2.662   1.033   7.784 -2.5094  0.8217  0.5935
 2078SOL     OW17695   3.854   3.849   4.893 -0.1297  0.6060  0.4597
 2078SOL    HW117696   3.770   3.840   4.847 -0.9342 -0.0725  2.0716
 2078SOL    HW217697   3.823   3.901   4.967 -2.7532  1.1178 -0.9965
 2079SOL     OW17698   0.197   3.451   0.858  0.2874  0.4062 -0.5695
 2079SOL    HW117699   0.200   3.545   0.840  2.8754  0.1102 -1.6543
 2079SOL    HW217700   0.102   3.444   0.870  0.3926 -2.9886 -1.7369
 2080SOL     OW17701   1.634   4.054   8.018  0.4771 -0.0545 -0.2137
 2080SOL    HW117702   1.648   4.089   8.106 -1.6991 -0.5335  0.3355
 2080SOL    HW217703   1.558   4.107   7.994  1.1051  1.0125  0.1371
 2081SOL     OW17704   1.369   3.586  15.706  0.3399 -0.2045  0.3938
 2081SOL    HW117705   1.277   3.567  15.685 -0.4641  2.3360  1.6608
 2081SOL    HW217706   1.384   3.656  15.643 -0.7050  0.2746  0.6854
 2082SOL     OW17707   3.711   2.885   7.156 -0.4728  0.7280 -0.1486
 2082SOL    HW117708   3.709   2.850   7.067 -2.1125 -1.5826  0.8114
 2082SOL    HW217709   3.771   2.958   7.143  0.8356 -0.4974 -1.0345
 2083SOL     OW17710   4.610   0.659   5.803 -0.2433 -0.4992 -0.1900
 2083SOL    HW117711   4.675   0.725   5.828 -0.2109 -0.1901 -1.0785
 2083SOL    HW217712   4.561   0.661   5.885  2.4383 -3.6592  1.4861
 2084SOL     OW17713   4.168   0.659   0.420 -0.4686  0.0999 -0.1114
 2084SOL    HW117714   4.250   0.614   0.404 -0.6606 -0.1931 -0.2655
 2084SOL    HW217715   4.112   0.631   0.347 -2.3877 -0.7498  1.6989
 2085SOL     OW17716   4.217   4.445   4.503 -0.3910 -0.7545 -0.0788
 2085SOL    HW117717   4.249   4.483   4.585  0.6937 -1.2171 -0.2913
 2085SOL    HW217718   4.286   4.380   4.490  1.9388  2.3835 -3.3101
 2086SOL     OW17719   2.116   1.193   7.945  0.0977  0.4913 -0.1960
 2086SOL    HW117720   2.052   1.232   7.885 -0.9725  0.7415  1.1098
 2086SOL    HW217721   2.168   1.270   7.970  0.5455  0.2823 -0.4851
 2087SOL     OW17722   4.218   1.474  10.825 -0.1979 -1.5817 -0.0877
 2087SOL    HW117723   4.256   1.388  10.805 -0.9675 -1.4741 -2.0337
 2087SOL    HW217724   4.175   1.458  10.909  1.3257 -0.6437  0.8693
 2088SOL     OW17725   0.507   4.646  10.814 -0.4549  0.8670 -0.3068
 2088SOL    HW117726   0.459   4.601  10.745  0.0714  2.0905 -1.4714
 2088SOL    HW217727   0.548   4.721  10.769 -0.3405  0.9925  0.0064
 2089SOL     OW17728   1.719   3.337  12.786 -0.6063 -0.1071  0.4230
 2089SOL    HW117729   1.732   3.374  12.873 -0.4234  0.2300  0.2559
 2089SOL    HW217730   1.791   3.274  12.793 -1.0845 -0.4747  2.0647
 2090SOL     OW17731   2.838   3.284   0.809 -0.7886  0.3400  0.5682
 2090SOL    HW117732   2.890   3.363   0.795  0.1066 -0.4137 -0.3477
 2090SOL    HW217733   2.838   3.292   0.905 -0.4172 -0.6908  0.6563
 2091SOL     OW17734   3.590   2.201  15.222 -0.4034 -0.0046  0.3715
 2091SOL    HW117735   3.669   2.149  15.239  0.5996  0.3544 -3.1935
 2091SOL    HW217736   3.604   2.220  15.129  1.2474  0.8536  0.8007
 2092SOL     OW17737   1.554   3.531   8.617  0.0777  0.3509 -0.4277
 2092SOL    HW117738   1.646   3.551   8.596  0.2723  1.3593  1.4074
 2092SOL    HW217739   1.549   3.566   8.706 -0.5334  1.2696 -0.8167
 2093SOL     OW17740   1.048   0.316   6.713 -0.1877 -0.2036 -0.1126
 2093SOL    HW117741   1.026   0.403   6.680 -2.4005 -1.0657 -0.9207
 2093SOL    HW217742   1.083   0.278   6.632  0.4813  0.6261 -0.2075
 2094SOL     OW17743   0.488   2.166   9.324  0.0556  0.0370 -0.0018
 2094SOL    HW117744   0.455   2.225   9.391 -0.7296 -0.6097  0.1853
 2094SOL    HW217745   0.496   2.088   9.379  1.1395 -1.8688 -2.8597
 2095SOL     OW17746   3.418   2.698   1.560  1.1203  0.6336 -0.2698
 2095SOL    HW117747   3.385   2.648   1.485 -0.4631  0.9067  0.2314
 2095SOL    HW217748   3.457   2.628   1.613 -0.9081 -1.6027 -1.7482
 2096SOL     OW17749   1.173   2.119   6.265 -0.2130 -0.7193 -0.6693
 2096SOL    HW117750   1.256   2.166   6.262 -1.3768  1.2276 -1.9180
 2096SOL    HW217751   1.115   2.187   6.299 -0.9325 -1.8811  0.4056
 2097SOL     OW17752   1.819   1.099   8.898 -0.3097  0.0752 -0.1862
 2097SOL    HW117753   1.862   1.090   8.983  0.8749  0.2379 -0.7690
 2097SOL    HW217754   1.823   1.194   8.881 -0.5157  0.1548  0.2209
 2098SOL     OW17755   3.801   0.580   5.060 -0.1018 -0.0340  0.4184
 2098SOL    HW117756   3.787   0.539   5.146 -1.4239 -0.6638 -0.0897
 2098SOL    HW217757   3.743   0.524   5.008  1.3425  0.7729 -2.0499
 2099SOL     OW17758   3.391   1.643   2.947 -0.7103  0.6867 -0.2151
 2099SOL    HW117759   3.334   1.716   2.970 -2.2060 -0.6642  0.4464
 2099SOL    HW217760   3.477   1.681   2.965 -0.9101  0.6418  0.8889
 2100SOL     OW17761   3.916   2.850   2.717 -0.4219 -0.0405  0.2261
 2100SOL    HW117762   4.002   2.809   2.707  0.6883  2.7933 -2.2025
 2100SOL    HW217763   3.915   2.928   2.661 -2.3458 -0.6313 -0.5564
 2101SOL     OW17764   3.003   0.105   9.389 -0.2951 -0.5453  0.0888
 2101SOL    HW117765   2.960   0.150   9.317  0.3501  1.0858  0.7060
 2101SOL    HW217766   3.073   0.165   9.416 -2.3631  1.4572  1.0323
 2102SOL     OW17767   3.529   0.087   1.370  0.4030  0.0550  0.1463
 2102SOL    HW117768   3.610   0.132   1.346  0.5918  0.5158  1.6666
 2102SOL    HW217769   3.470   0.112   1.299 -0.5671  1.2604  1.3854
 2103SOL     OW17770   1.596   1.818   2.085 -0.3408  0.0179 -0.0080
 2103SOL    HW117771   1.533   1.882   2.119 -0.4593  0.5166 -1.1635
 2103SOL    HW217772   1.678   1.863   2.105 -0.2156 -1.4351  2.7540
 2104SOL     OW17773   3.061   0.328   7.293 -0.1528 -0.4201  0.3538
 2104SOL    HW117774   3.003   0.397   7.325  1.8886  1.3737  0.2171
 2104SOL    HW217775   3.140   0.344   7.345 -0.6079 -0.9784  1.2277
 2105SOL     OW17776   2.868   0.775   3.973  0.0250 -0.1717 -0.1613
 2105SOL    HW117777   2.799   0.748   4.035 -0.1000  0.0932 -0.1862
 2105SOL    HW217778   2.902   0.850   4.022  3.0696 -2.0479  0.5884
 2106SOL     OW17779   2.327   1.302  12.438 -0.1327  0.2266 -0.5507
 2106SOL    HW117780   2.235   1.297  12.412  0.1926  0.8906 -1.8484
 2106SOL    HW217781   2.318   1.320  12.531  3.8216 -3.2498  0.5032
 2107SOL     OW17782   4.187   2.169   9.615  0.3152  0.0202  0.4510
 2107SOL    HW117783   4.101   2.129   9.608  0.4071 -0.6312  3.2764
 2107SOL    HW217784   4.192   2.218   9.532 -1.9450 -0.9587 -0.2720
 2108SOL     OW17785   4.478   2.305   5.654  0.3826 -0.2003 -0.4841
 2108SOL    HW117786   4.539   2.370   5.690  0.6320 -0.2458 -0.8224
 2108SOL    HW217787   4.493   2.238   5.721  0.9579  0.0062 -0.4099
 2109SOL     OW17788   2.999   0.086   3.348  0.3064  0.6913  0.1085
 2109SOL    HW117789   2.995   0.002   3.394 -0.1940 -0.1388 -1.4340
 2109SOL    HW217790   3.041   0.048   3.271 -0.2783 -2.0798  1.1711
 2110SOL     OW17791   0.133   3.609   7.995 -0.1698  0.5130 -0.1238
 2110SOL    HW117792   0.058   3.622   7.936  0.1411 -1.1681 -0.9047
 2110SOL    HW217793   0.107   3.667   8.067 -2.1708  0.3504 -0.7022
 2111SOL     OW17794   2.980   2.809   1.961  0.4860 -0.6849 -0.8418
 2111SOL    HW117795   3.067   2.806   1.921  0.7342  4.0479 -0.7200
 2111SOL    HW217796   2.974   2.723   2.003 -3.0136  0.0475  0.1373
 2112SOL     OW17797   2.075   0.251   2.130  0.3300 -0.1192  0.6232
 2112SOL    HW117798   2.025   0.319   2.177 -2.3782 -1.1413 -0.7732
 2112SOL    HW217799   2.117   0.216   2.208  0.7934 -1.0933 -0.0681
 2113SOL     OW17800   0.833   2.061  16.059 -0.4002 -0.4937 -0.1881
 2113SOL    HW117801   0.889   2.063  16.136  0.0586 -2.1748 -0.4816
 2113SOL    HW217802   0.763   2.003  16.088 -1.2304  1.4245  1.6320
 2114SOL     OW17803   4.671   3.425   6.476 -0.2306  0.0473 -0.5122
 2114SOL    HW117804   4.619   3.363   6.528 -1.0309  1.3781  0.2951
 2114SOL    HW217805   0.024   3.371   6.465  0.4167  1.5288 -3.0928
 2115SOL     OW17806   0.580   1.182  11.591 -0.4917  0.1982 -0.2562
 2115SOL    HW117807   0.496   1.197  11.635 -1.1400  0.8798 -1.7020
 2115SOL    HW217808   0.590   1.093  11.622 -1.6805  0.3517  0.5486
 2116SOL     OW17809   1.699   4.642   9.098 -0.3876 -0.0509  0.1649
 2116SOL    HW117810   1.653   4.714   9.054 -1.6783 -1.4312 -0.7615
 2116SOL    HW217811   1.766   4.688   9.148 -2.3299  2.7590  0.2403
 2117SOL     OW17812   0.223   0.492   3.650  0.2989  0.4547 -0.0127
 2117SOL    HW117813   0.268   0.492   3.565  0.4204  1.3762  0.0514
 2117SOL    HW217814   0.299   0.517   3.703 -0.5320 -0.9273  1.8110
 2118SOL     OW17815   0.640   4.266   6.479  0.7409  0.0613  0.1192
 2118SOL    HW117816   0.593   4.189   6.510 -1.7153  1.6595  0.3991
 2118SOL    HW217817   0.581   4.296   6.409 -0.0213 -1.1277  0.2520
 2119SOL     OW17818   3.245   1.434   0.478  0.1314 -0.3240  0.1586
 2119SOL    HW117819   3.186   1.482   0.419  1.0880 -1.8455 -1.9970
 2119SOL    HW217820   3.204   1.350   0.497  0.4228 -0.3545  0.6428
 2120SOL     OW17821   2.103   0.095  12.035 -0.0739  0.8435 -0.0160
 2120SOL    HW117822   2.037   0.032  12.008 -0.8232  1.6785 -0.1029
 2120SOL    HW217823   2.144   0.043  12.104 -0.5926  0.5341  0.0599
 2121SOL     OW17824   3.102   3.212  13.237  0.2305  0.3211 -0.8163
 2121SOL    HW117825   3.119   3.222  13.143  1.2743  1.0624 -0.5449
 2121SOL    HW217826   3.072   3.121  13.236  2.1517 -0.3113  0.5440
 2122SOL     OW17827   3.578   0.702   3.050  0.5015  0.2273  0.6433
 2122SOL    HW117828   3.504   0.751   3.014  0.3005  0.8459  1.8807
 2122SOL    HW217829   3.578   0.622   2.998  0.3529  0.8007 -0.2250
 2123SOL     OW17830   3.130   3.293   1.172  0.7043  0.6338  0.1801
 2123SOL    HW117831   3.119   3.231   1.244 -0.0649  1.3528  0.6871
 2123SOL    HW217832   3.048   3.280   1.124  2.1930  0.8094 -2.4256
 2124SOL     OW17833   4.217   0.613   3.031 -0.3135 -0.3109 -0.2534
 2124SOL    HW117834   4.207   0.648   3.120 -0.1885  0.3792 -0.5118
 2124SOL    HW217835   4.124   0.600   3.014 -0.3224 -0.7187  0.1005
 2125SOL     OW17836   2.019   3.633  12.357 -0.3804  0.3069 -0.3811
 2125SOL    HW117837   2.069   3.606  12.280  0.5925 -0.2767  0.4613
 2125SOL    HW217838   1.930   3.610  12.331 -0.1821  0.8128 -1.5197
 2126SOL     OW17839   0.071   2.355   3.055 -0.3869 -0.2351 -0.0539
 2126SOL    HW117840   0.122   2.408   2.994  2.0346 -1.0046  1.2899
 2126SOL    HW217841   0.096   2.267   3.028 -2.5431 -0.3742 -1.5762
 2127SOL     OW17842   4.125   1.242  10.508  0.1321 -0.4634 -0.2725
 2127SOL    HW117843   4.178   1.313  10.474  0.8099 -0.5835  0.5422
 2127SOL    HW217844   4.118   1.174  10.441  3.6517  0.7418 -1.8204
 2128SOL     OW17845   1.917   3.811   8.712  0.2028 -0.3088  0.1243
 2128SOL    HW117846   1.895   3.822   8.805 -0.2783  0.8341 -0.1324
 2128SOL    HW217847   1.859   3.877   8.676  0.6774  1.7240  3.1009
 2129SOL     OW17848   3.613   2.711   4.531  0.4690 -0.1796 -0.2191
 2129SOL    HW117849   3.635   2.671   4.447 -2.0870 -1.2664 -0.3516
 2129SOL    HW217850   3.542   2.652   4.558 -0.8793  1.1954 -0.7807
 2130SOL     OW17851   1.446   1.671  10.489 -0.5498 -0.0316  0.5102
 2130SOL    HW117852   1.493   1.624  10.558  0.1579 -0.8300 -0.5151
 2130SOL    HW217853   1.368   1.701  10.535 -0.1117  0.7259  0.7637
 2131SOL     OW17854   1.377   3.811   7.526 -0.0868  0.1779  0.2332
 2131SOL    HW117855   1.347   3.834   7.438 -0.4005 -1.0976  0.0150
 2131SOL    HW217856   1.452   3.870   7.528 -0.3533  0.5965 -2.2420
 2132SOL     OW17857   1.489   2.982   9.043  0.2102 -0.5035  0.4075
 2132SOL    HW117858   1.529   3.000   8.958 -0.7360 -0.6471 -0.0554
 2132SOL    HW217859   1.525   3.058   9.089  2.4647 -1.0889 -0.3506
 2133SOL     OW17860   0.339   3.656   4.037 -0.2736 -0.1802 -0.5571
 2133SOL    HW117861   0.362   3.577   4.085 -0.0357 -0.1693 -0.6534
 2133SOL    HW217862   0.247   3.649   4.015 -0.6191 -0.9694  1.0892
 2134SOL     OW17863   1.563   1.145  17.559 -0.2497  0.1135  0.8856
 2134SOL    HW117864   1.590   1.231  17.527  1.8916 -1.0928 -0.5836
 2134SOL    HW217865   1.647   1.100  17.557 -1.3309 -1.8980  1.2461
 2135SOL     OW17866   0.138   1.864   1.942 -0.2081  0.5881 -0.3575
 2135SOL    HW117867   0.138   1.777   1.903 -1.9812 -0.0862  1.1449
 2135SOL    HW217868   0.167   1.832   2.028  2.6661  1.6154 -0.9315
 2136SOL     OW17869   3.668   2.769   6.869 -0.0791  0.7674 -0.4806
 2136SOL    HW117870   3.575   2.746   6.875 -0.1442  0.8663 -1.1485
 2136SOL    HW217871   3.693   2.691   6.820 -2.4321 -0.5211  0.3666
 2137SOL     OW17872   0.413   3.475  12.522 -0.1472  0.4402 -0.8336
 2137SOL    HW117873   0.337   3.482  12.581  0.4891  0.9960 -0.0854
 2137SOL    HW217874   0.396   3.542  12.456  0.9618  1.4263 -0.1158
 2138SOL     OW17875   0.575   0.754   7.003  0.4053  0.4573  0.2079
 2138SOL    HW117876   0.578   0.826   7.066  3.5336 -0.6811  1.3345
 2138SOL    HW217877   0.659   0.714   7.025  0.3541  0.2727  0.0617
 2139SOL     OW17878   3.154   2.936   3.645  0.0196  0.2148  0.1293
 2139SOL    HW117879   3.235   2.904   3.607 -0.0264  0.2028  0.0425
 2139SOL    HW217880   3.166   3.019   3.599  0.4623  0.5858  0.9068
 2140SOL     OW17881   4.627   0.566   4.619 -0.6642 -0.2932 -0.4992
 2140SOL    HW117882   4.579   0.484   4.614 -0.0050 -0.6383 -1.2121
 2140SOL    HW217883   4.634   0.590   4.526  0.6880  2.0538  0.1946
 2141SOL     OW17884   1.399   0.416   6.435 -0.1523 -0.2556 -0.6098
 2141SOL    HW117885   1.450   0.415   6.517  1.6452 -3.3456 -1.7404
 2141SOL    HW217886   1.327   0.473   6.460  0.1103  1.3023 -3.3977
 2142SOL     OW17887   0.089   2.681   6.731  0.4394  0.6039  0.6974
 2142SOL    HW117888   0.126   2.620   6.794  0.1932 -0.1536  0.1095
 2142SOL    HW217889   0.062   2.753   6.788  0.7983 -0.0839  1.7307
 2143SOL     OW17890   1.124   1.899  16.051 -0.2586  0.0902 -0.1844
 2143SOL    HW117891   1.054   1.847  16.009 -0.5889  0.4796 -0.1166
 2143SOL    HW217892   1.109   1.991  16.031  0.0463 -0.1341 -1.4254
 2144SOL     OW17893   1.326   1.315  15.291 -0.0126  0.2978  0.4766
 2144SOL    HW117894   1.317   1.290  15.200  0.8006 -0.6209  0.6453
 2144SOL    HW217895   1.233   1.316  15.315  0.4501 -0.9862  2.3318
 2145SOL     OW17896   0.978   0.319   6.267 -0.4472 -0.1719  0.6543
 2145SOL    HW117897   0.904   0.338   6.324 -1.0628 -1.8491  0.3995
 2145SOL    HW217898   0.999   0.406   6.230  2.3310 -1.1811 -0.1830
 2146SOL     OW17899   1.150   0.325   3.923  0.0261  0.6248 -0.3604
 2146SOL    HW117900   1.233   0.345   3.967  1.4276  0.2499 -2.7875
 2146SOL    HW217901   1.112   0.245   3.959 -0.4970  1.3767  0.7229
 2147SOL     OW17902   1.076   3.602   7.842 -0.2775 -0.4671  0.4571
 2147SOL    HW117903   1.006   3.652   7.798 -0.7983 -1.5737  0.0390
 2147SOL    HW217904   1.141   3.672   7.843 -2.7236  1.8186 -0.5143
 2148SOL     OW17905   1.301   2.160  10.056 -0.7229  0.3497 -0.2058
 2148SOL    HW117906   1.253   2.081  10.081  1.5619 -1.2354 -0.8735
 2148SOL    HW217907   1.229   2.207  10.014  0.6607  2.9041  0.2712
 2149SOL     OW17908   1.386   3.325   1.903  0.2471 -0.1550  0.2155
 2149SOL    HW117909   1.305   3.367   1.873  0.7079  1.4135  1.1908
 2149SOL    HW217910   1.419   3.296   1.818 -0.6723 -0.7675  0.0546
 2150SOL     OW17911   0.433   0.681   1.033  0.4360  0.1881  0.2910
 2150SOL    HW117912   0.390   0.714   1.112  1.6045  0.3620  0.8596
 2150SOL    HW217913   0.442   0.757   0.975 -0.2494  0.0873  0.0536
 2151SOL     OW17914   1.761   3.016   8.967  0.0696 -0.2467 -0.1082
 2151SOL    HW117915   1.764   2.985   8.877 -1.0034  0.9846 -0.5677
 2151SOL    HW217916   1.826   3.085   8.962 -2.1132  1.8680  0.6548
 2152SOL     OW17917   3.616   0.557   5.795 -0.5661 -0.2264  0.3234
 2152SOL    HW117918   3.689   0.607   5.760 -0.7825 -0.8262 -0.9697
 2152SOL    HW217919   3.540   0.611   5.774 -1.5515 -1.4563  0.6757
 2153SOL     OW17920   2.978   4.267   7.491  0.9340  0.0875  0.4114
 2153SOL    HW117921   2.896   4.289   7.448  0.6475  0.7240  1.2904
 2153SOL    HW217922   2.949   4.231   7.575 -0.1655  2.1893  0.9382
 2154SOL     OW17923   3.440   3.205   2.527  0.2455  0.1006 -0.4815
 2154SOL    HW117924   3.436   3.300   2.520  2.3752  0.0850 -1.9888
 2154SOL    HW217925   3.533   3.194   2.550  0.0153  1.7945  1.1959
 2155SOL     OW17926   2.656   2.979  17.654  0.0638  0.7199  0.2164
 2155SOL    HW117927   2.575   2.950  17.612  0.9232 -0.1810 -0.8536
 2155SOL    HW217928   2.675   2.918   0.026 -1.2792 -1.6728 -1.4594
 2156SOL     OW17929   0.260   4.579   3.959 -0.0575 -0.4404  0.3152
 2156SOL    HW117930   0.236   4.672   3.964  1.6592  0.0371 -0.0947
 2156SOL    HW217931   0.302   4.564   3.874 -1.9677  1.7962 -1.0435
 2157SOL     OW17932   3.293   0.240   5.761 -0.5359 -0.2830 -0.1143
 2157SOL    HW117933   3.326   0.305   5.823 -2.1805  0.6121 -0.1591
 2157SOL    HW217934   3.220   0.285   5.718 -0.0273 -0.2893 -0.9868
 2158SOL     OW17935   4.682   3.986  13.401 -0.6215 -0.5836 -0.6120
 2158SOL    HW117936   4.639   3.925  13.340  0.5421 -0.5094 -1.5023
 2158SOL    HW217937   4.594   4.015  13.427  0.8732  2.0414  1.5358
 2159SOL     OW17938   1.954   1.318   7.754 -0.4084 -0.2751 -0.0842
 2159SOL    HW117939   1.938   1.276   7.670 -0.6873 -0.7993  0.2286
 2159SOL    HW217940   1.994   1.400   7.724  1.0971 -0.8027  0.4747
 2160SOL     OW17941   4.040   4.570   9.105  0.0912  0.5989 -0.1071
 2160SOL    HW117942   4.046   4.598   9.197 -0.9641  1.0375 -0.1697
 2160SOL    HW217943   4.133   4.567   9.084  0.2820  4.3381  0.1735
 2161SOL     OW17944   4.662   1.122  12.197  0.6206 -0.7605 -0.2410
 2161SOL    HW117945   0.011   1.094  12.143  0.2681  1.2317 -1.7490
 2161SOL    HW217946   4.662   1.070  12.278 -0.6522  2.9594  2.1274
 2162SOL     OW17947   4.572   3.863  12.059 -0.0298  0.1234 -0.2267
 2162SOL    HW117948   4.484   3.848  12.025 -0.1535 -0.8057  0.4886
 2162SOL    HW217949   4.575   3.786  12.116  3.7316  1.6699  1.6652
 2163SOL     OW17950   1.140   3.969   5.871  0.3051 -0.0120  0.1523
 2163SOL    HW117951   1.142   3.874   5.865 -1.6606 -0.0373 -0.3206
 2163SOL    HW217952   1.052   3.973   5.910 -0.0579 -0.6189 -0.5946
 2164SOL     OW17953   0.137   2.315   8.906 -0.2041 -0.2975  0.2501
 2164SOL    HW117954   0.160   2.241   8.963 -0.9917 -1.7594 -1.3474
 2164SOL    HW217955   0.117   2.260   8.831  0.0270 -0.1060  0.0481
 2165SOL     OW17956   4.712   2.254   4.780 -0.4401  0.1257 -0.1987
 2165SOL    HW117957   4.693   2.172   4.734  0.2674 -0.8087  1.1608
 2165SOL    HW217958   4.630   2.301   4.763 -0.3902 -0.0128 -0.7960
 2166SOL     OW17959   1.404   3.539  10.503 -0.5950 -0.1400 -0.0528
 2166SOL    HW117960   1.381   3.490  10.424 -1.0317 -0.1564  0.0827
 2166SOL    HW217961   1.433   3.625  10.474 -1.3106  0.0021 -0.3550
 2167SOL     OW17962   0.657   2.249  14.743 -0.0380  0.1646 -0.4078
 2167SOL    HW117963   0.656   2.341  14.714  0.8082  0.5734  0.8291
 2167SOL    HW217964   0.728   2.216  14.688 -0.0392  0.3132 -0.4979
 2168SOL     OW17965   4.409   3.867   6.626  0.3373 -0.1477 -0.5373
 2168SOL    HW117966   4.357   3.795   6.660  1.4089 -0.1477  1.0853
 2168SOL    HW217967   4.410   3.848   6.532  0.9481  0.5958 -0.6905
 2169SOL     OW17968   4.300   3.027   2.262 -0.1485  0.0503  0.0050
 2169SOL    HW117969   4.219   3.059   2.301 -0.7415 -0.7581 -0.5696
 2169SOL    HW217970   4.351   3.107   2.276  0.1043 -0.1765  0.3661
 2170SOL     OW17971   4.656   2.004   8.512  0.5108  0.0189  0.3952
 2170SOL    HW117972   4.660   2.018   8.607 -0.3929  1.5283  0.2192
 2170SOL    HW217973   4.561   1.995   8.501  0.8032 -2.1019 -0.3505
 2171SOL     OW17974   4.722   1.456  16.038  0.6335  0.7763  0.0394
 2171SOL    HW117975   0.015   1.538  16.085 -2.6870  1.2017  0.4991
 2171SOL    HW217976   0.085   1.440  16.002  0.6253  0.6092  0.0968
 2172SOL     OW17977   4.603   0.684   8.454  0.0329  0.1883  0.4812
 2172SOL    HW117978   4.582   0.681   8.361  0.0658  1.0185  0.4523
 2172SOL    HW217979   4.545   0.753   8.485  0.2584  0.7375 -0.3223
 2173SOL     OW17980   1.284   2.772   4.418 -0.4297 -0.3332  0.3928
 2173SOL    HW117981   1.359   2.712   4.424  0.0225  0.1683 -0.2477
 2173SOL    HW217982   1.322   2.839   4.475 -0.7404 -0.2895  0.5476
 2174SOL     OW17983   2.041   0.439   4.754 -0.1001 -0.1994  0.4062
 2174SOL    HW117984   1.995   0.358   4.733 -2.0599  1.1605 -0.5757
 2174SOL    HW217985   2.079   0.445   4.666 -1.0736  4.1222  0.2695
 2175SOL     OW17986   2.511   3.784   6.442  0.9146 -0.3080  0.4999
 2175SOL    HW117987   2.522   3.876   6.418 -0.5665  0.7966  4.0499
 2175SOL    HW217988   2.484   3.789   6.534  0.7092 -2.2467  0.5415
 2176SOL     OW17989   2.459   0.796  12.133  0.1107  0.4048  0.2359
 2176SOL    HW117990   2.383   0.810  12.075  1.5146  0.8118 -1.5056
 2176SOL    HW217991   2.447   0.857  12.206  0.2648 -0.4389  0.9687
 2177SOL     OW17992   2.098   0.508   9.833  0.7313 -0.2093 -0.3302
 2177SOL    HW117993   2.005   0.492   9.822  0.7982 -2.0292  1.6192
 2177SOL    HW217994   2.139   0.423   9.851 -0.3802 -0.6936 -0.1099
 2178SOL     OW17995   1.885   2.176   2.640  0.4751 -0.1521 -0.0777
 2178SOL    HW117996   1.892   2.248   2.702  2.0761 -1.8970  1.7908
 2178SOL    HW217997   1.972   2.136   2.638  0.1007 -0.9450 -0.6911
 2179SOL     OW17998   0.525   3.691  16.394  0.3068  0.3781 -0.3729
 2179SOL    HW117999   0.508   3.615  16.450 -1.0207  0.1504 -1.1139
 2179SOL    HW218000   0.611   3.720  16.425 -0.0431  0.4909  0.5002
 2180SOL     OW18001   0.412   0.293   3.790  0.3506  0.0691 -0.0487
 2180SOL    HW118002   0.355   0.328   3.858  1.5094  0.8702  0.5019
 2180SOL    HW218003   0.347   0.291   3.719  0.1302  0.8590  0.1328
 2181SOL     OW18004   4.079   1.774  17.368 -0.1201  0.5452 -0.2028
 2181SOL    HW118005   4.082   1.686  17.330  2.6970  1.0076 -1.1220
 2181SOL    HW218006   4.137   1.820  17.307  0.8559 -1.1561 -0.5376
 2182SOL     OW18007   4.338   0.362   6.587  0.2251 -0.4712 -0.1095
 2182SOL    HW118008   4.330   0.450   6.548  0.1172  0.0083  0.9843
 2182SOL    HW218009   4.433   0.350   6.578  0.3156  1.9118 -2.4602
 2183SOL     OW18010   1.462   3.363   2.692  0.4311  0.1601  0.2774
 2183SOL    HW118011   1.537   3.376   2.633 -1.3644  1.1043 -1.7621
 2183SOL    HW218012   1.402   3.434   2.672 -0.5362 -0.7116  0.0913
 2184SOL     OW18013   0.509   1.172   2.912  0.1256  0.5094  0.2237
 2184SOL    HW118014   0.560   1.147   2.989 -2.0958 -2.5948  0.7147
 2184SOL    HW218015   0.583   1.197   2.857  0.5107  1.0284  0.9838
 2185SOL     OW18016   2.450   1.608   8.527  0.7744  0.1274  0.3629
 2185SOL    HW118017   2.384   1.645   8.586  1.0715 -1.0032  1.4145
 2185SOL    HW218018   2.523   1.608   8.589  0.2319 -1.1982  1.0174
 2186SOL     OW18019   1.114   2.383   2.777  0.1260  0.7117 -0.0720
 2186SOL    HW118020   1.181   2.325   2.812 -0.4481  0.4742  0.6205
 2186SOL    HW218021   1.154   2.464   2.808  1.7769 -0.5370  1.0340
 2187SOL     OW18022   3.222   3.509   4.518 -0.0258 -0.2219 -0.2688
 2187SOL    HW118023   3.227   3.498   4.613 -1.7906 -0.8381 -0.2348
 2187SOL    HW218024   3.127   3.511   4.503 -0.0756  1.8915  0.4055
 2188SOL     OW18025   2.980   3.962   4.099  0.4591 -0.8607 -0.2400
 2188SOL    HW118026   2.896   3.996   4.131  1.1553 -0.5696  1.3071
 2188SOL    HW218027   3.035   3.971   4.177 -0.8310  4.3013  0.0679
 2189SOL     OW18028   4.506   0.796  14.523  0.3174  0.6229 -0.4726
 2189SOL    HW118029   4.585   0.835  14.562  0.4170 -0.0616  0.0121
 2189SOL    HW218030   4.440   0.801  14.592  2.1265 -0.5724  1.3747
 2190SOL     OW18031   0.373   3.649   2.046  0.3939 -0.1653  0.2672
 2190SOL    HW118032   0.278   3.646   2.058  0.8671 -3.3815  3.2531
 2190SOL    HW218033   0.382   3.727   1.992  0.5870 -1.7978 -2.0436
 2191SOL     OW18034   1.987   3.516   7.751 -0.2730 -0.1654 -0.0222
 2191SOL    HW118035   1.970   3.424   7.732  0.4009 -0.4606  0.8035
 2191SOL    HW218036   2.052   3.531   7.682  0.6751 -0.4172  0.8213
 2192SOL     OW18037   2.334   2.343  14.761  0.1621 -0.4152  0.9123
 2192SOL    HW118038   2.380   2.260  14.771  0.2027 -0.3771  1.0360
 2192SOL    HW218039   2.249   2.309  14.733 -0.3731  2.0613 -0.4374
 2193SOL     OW18040   0.108   3.898   4.182  0.9468  0.0301  0.5962
 2193SOL    HW118041   0.080   3.960   4.114 -1.2352 -2.1684 -0.4841
 2193SOL    HW218042   0.071   3.821   4.140  1.2417  0.2147 -0.0070
 2194SOL     OW18043   1.061   2.820  11.709  0.1595 -0.0132  0.0464
 2194SOL    HW118044   1.019   2.907  11.714 -0.7519 -0.6297  3.1221
 2194SOL    HW218045   1.133   2.835  11.770 -0.9142  2.3278  0.7580
 2195SOL     OW18046   2.569   4.431   2.525 -0.1306 -0.8974  0.0493
 2195SOL    HW118047   2.543   4.340   2.540 -0.9608 -0.2058  2.9255
 2195SOL    HW218048   2.515   4.452   2.449 -0.5938 -0.8071  0.4049
 2196SOL     OW18049   3.289   1.633   8.004  0.5103  0.0910  0.0910
 2196SOL    HW118050   3.250   1.679   7.929  0.7240  0.7925  0.4085
 2196SOL    HW218051   3.218   1.577   8.036 -0.1233 -0.0269 -1.5230
 2197SOL     OW18052   4.212   3.855   8.648 -0.9517  0.0891  0.3179
 2197SOL    HW118053   4.287   3.879   8.593 -1.9218 -1.0898 -1.5116
 2197SOL    HW218054   4.187   3.767   8.622  1.0958  0.0930 -1.6393
 2198SOL     OW18055   3.654   1.720   3.094  0.3919 -0.1416  0.0406
 2198SOL    HW118056   3.725   1.660   3.069  1.2763  0.0117  2.1432
 2198SOL    HW218057   3.606   1.667   3.158  1.1834  0.5800  1.2311
 2199SOL     OW18058   4.392   2.048   4.902  0.5926 -0.0052  0.1271
 2199SOL    HW118059   4.323   2.003   4.950  0.2382  1.4805  1.0117
 2199SOL    HW218060   4.380   2.023   4.811  1.4492  0.9553 -0.2574
 2200SOL     OW18061   3.308   2.955  13.945 -0.9333 -0.6342  0.1239
 2200SOL    HW118062   3.350   3.011  13.879 -2.9393  0.2149 -0.4274
 2200SOL    HW218063   3.218   2.955  13.913 -0.7475  0.8427 -0.4236
 2201SOL     OW18064   1.079   4.126   9.594 -0.0812 -0.2791  0.2151
 2201SOL    HW118065   1.150   4.071   9.561  0.4432  1.6683 -1.8784
 2201SOL    HW218066   1.108   4.211   9.562  0.1038 -0.6624 -0.6252
 2202SOL     OW18067   0.356   4.490   3.311 -0.3147 -0.0569 -0.0345
 2202SOL    HW118068   0.312   4.508   3.394  0.2354  0.8659  0.0674
 2202SOL    HW218069   0.312   4.550   3.250  2.1848  2.0349  0.2004
 2203SOL     OW18070   0.663   2.389   3.234  0.6988 -0.4459 -0.2501
 2203SOL    HW118071   0.716   2.385   3.314 -0.7587  0.1826  0.7337
 2203SOL    HW218072   0.722   2.420   3.165  1.4788 -0.0193  0.5948
 2204SOL     OW18073   1.837   3.145   7.337 -0.4736 -0.2411 -0.0862
 2204SOL    HW118074   1.828   3.233   7.373  2.8634  0.0699 -0.0327
 2204SOL    HW218075   1.751   3.106   7.349 -0.1158 -1.3315 -1.0414
 2205SOL     OW18076   3.527   0.788   6.172 -0.1559  0.2503 -0.8929
 2205SOL    HW118077   3.512   0.856   6.106 -1.5544 -0.5876 -1.4205
 2205SOL    HW218078   3.583   0.733   6.116 -1.1883  0.4759 -2.1433
 2206SOL     OW18079   4.064   1.319  11.359  0.0541 -0.0455 -0.1604
 2206SOL    HW118080   3.990   1.283  11.410 -0.3692  0.8455 -0.1422
 2206SOL    HW218081   4.017   1.346  11.280  1.1039  0.7020 -0.5222
 2207SOL     OW18082   1.261   3.706  16.789 -0.4768 -0.4588  0.2746
 2207SOL    HW118083   1.312   3.782  16.759 -0.4596 -0.7442 -0.4014
 2207SOL    HW218084   1.329   3.654  16.831 -0.8674 -1.7541 -0.7237
 2208SOL     OW18085   1.749   3.917   5.476 -0.4702 -0.0641 -0.3346
 2208SOL    HW118086   1.703   3.993   5.441  0.9495  1.1441  0.4474
 2208SOL    HW218087   1.696   3.910   5.556 -0.7462 -0.0314 -0.5137
 2209SOL     OW18088   3.445   0.794   9.585  0.1598 -0.2030  0.4113
 2209SOL    HW118089   3.506   0.859   9.550  0.0965  0.3316  1.2864
 2209SOL    HW218090   3.423   0.744   9.507  3.3987 -0.9112 -0.0367
 2210SOL     OW18091   2.341   0.419   2.917 -0.8312  0.6267  0.2648
 2210SOL    HW118092   2.431   0.416   2.949  0.2130  4.0619 -2.3163
 2210SOL    HW218093   2.301   0.498   2.954 -0.0914  1.5303 -0.8824
 2211SOL     OW18094   1.818   3.723   7.590  0.1788  0.5567  0.2722
 2211SOL    HW118095   1.789   3.642   7.631 -0.3496  0.4295 -0.3533
 2211SOL    HW218096   1.794   3.701   7.500 -0.9498 -0.7145  0.8801
 2212SOL     OW18097   1.463   1.392   2.526  0.3415  0.2268 -0.3771
 2212SOL    HW118098   1.479   1.414   2.618  1.0620  1.7950 -0.8825
 2212SOL    HW218099   1.513   1.459   2.479 -0.5792  0.4109 -1.0905
 2213SOL     OW18100   4.139   0.911  15.634  0.1224  0.6128 -0.4739
 2213SOL    HW118101   4.046   0.892  15.625 -1.0860  5.2779  2.0983
 2213SOL    HW218102   4.164   0.819  15.643  1.0596  0.6385 -2.8678
 2214SOL     OW18103   3.209   0.319   2.629 -0.3382 -0.3083 -0.1112
 2214SOL    HW118104   3.160   0.367   2.696 -1.2227  1.6746 -2.1720
 2214SOL    HW218105   3.171   0.357   2.550 -2.1768  0.2627  1.0520
 2215SOL     OW18106   2.331   0.654  13.072  0.3467 -0.4978  0.2554
 2215SOL    HW118107   2.325   0.585  13.005 -0.1049  0.5010 -0.7417
 2215SOL    HW218108   2.282   0.605  13.138 -1.5637  1.1931  0.0899
 2216SOL     OW18109   3.857   0.969   5.439  0.0608  0.0372  0.2156
 2216SOL    HW118110   3.816   0.958   5.525  0.9644  0.3274  0.6711
 2216SOL    HW218111   3.945   0.932   5.439  0.1398  0.2380  0.8024
 2217SOL     OW18112   0.296   1.829   0.571 -0.1651  0.1633 -0.1357
 2217SOL    HW118113   0.360   1.769   0.535 -0.7581 -0.8036  0.4255
 2217SOL    HW218114   0.326   1.845   0.660 -0.4129 -1.2234  0.1821
 2218SOL     OW18115   4.011   1.220   3.098 -0.6307  0.1524  0.3584
 2218SOL    HW118116   4.046   1.218   3.187  0.8790  3.6856 -0.1611
 2218SOL    HW218117   4.083   1.210   3.035 -2.6373 -0.5456 -1.8268
 2219SOL     OW18118   3.863   3.906   4.484  0.4981 -0.0941 -0.1461
 2219SOL    HW118119   3.921   3.925   4.558 -1.0146  1.9843  0.5112
 2219SOL    HW218120   3.851   3.998   4.460  3.4026  0.1592 -0.5953
 2220SOL     OW18121   1.691   4.132   2.143 -0.2604  0.5918  0.3359
 2220SOL    HW118122   1.609   4.142   2.192 -0.3628 -0.3776  0.3646
 2220SOL    HW218123   1.712   4.225   2.150 -1.1404  0.9457 -1.7935
 2221SOL     OW18124   3.628   0.227  12.201 -0.1411 -0.1265  0.2152
 2221SOL    HW118125   3.665   0.182  12.277 -0.1979 -2.2860 -1.0239
 2221SOL    HW218126   3.704   0.255  12.151  0.1519 -2.7523 -0.7906
 2222SOL     OW18127   3.783   1.149   5.204 -0.4056 -0.4510  0.0629
 2222SOL    HW118128   3.704   1.123   5.156 -0.2448 -2.4046  0.8607
 2222SOL    HW218129   3.807   1.071   5.253  1.0747 -0.6626 -1.0000
 2223SOL     OW18130   0.604   1.527   7.221  0.4414  0.3744 -0.1644
 2223SOL    HW118131   0.554   1.552   7.144  0.9420  0.5741 -0.4251
 2223SOL    HW218132   0.631   1.610   7.261 -0.8463 -0.2705  2.0583
 2224SOL     OW18133   4.645   1.939   4.694  0.4021 -0.2910 -0.0180
 2224SOL    HW118134   4.657   1.927   4.600 -0.9461  1.4029 -0.4010
 2224SOL    HW218135   4.551   1.941   4.679  0.5926  1.1791 -0.9813
 2225SOL     OW18136   1.223   0.807   4.624  0.0993 -0.0973 -0.2171
 2225SOL    HW118137   1.149   0.747   4.614 -1.1691  1.4373 -0.0269
 2225SOL    HW218138   1.291   0.741   4.635 -0.5139 -0.4025  1.8062
 2226SOL     OW18139   0.674   3.104  11.590 -0.7759 -0.1839  0.3803
 2226SOL    HW118140   0.657   3.014  11.566  0.4507 -0.1815 -0.4892
 2226SOL    HW218141   0.594   3.150  11.566 -0.2412 -0.5343 -2.0125
 2227SOL     OW18142   1.914   0.554   8.542 -0.1425  0.2937 -0.3200
 2227SOL    HW118143   1.868   0.616   8.598 -0.5246 -1.4602  1.3006
 2227SOL    HW218144   1.988   0.539   8.600 -0.2750  0.9418  0.0184
 2228SOL     OW18145   2.635   1.814   1.782  0.3191 -0.0266  0.0153
 2228SOL    HW118146   2.643   1.726   1.819 -3.4885 -0.8614 -1.1832
 2228SOL    HW218147   2.654   1.792   1.690 -1.2971 -0.3578 -0.2422
 2229SOL     OW18148   2.644   1.198   7.571 -0.4878  0.2375  0.0671
 2229SOL    HW118149   2.563   1.216   7.620 -1.6026 -1.9726 -0.9857
 2229SOL    HW218150   2.680   1.283   7.546 -1.1961  0.8003  0.9210
 2230SOL     OW18151   3.839   0.862  10.046  0.1827 -0.1475  0.1730
 2230SOL    HW118152   3.929   0.860  10.013  1.2117  0.3059  2.9283
 2230SOL    HW218153   3.839   0.936  10.106  1.4378 -0.1603  0.2032
 2231SOL     OW18154   0.131   2.116   8.376 -0.0825 -0.6133  0.1667
 2231SOL    HW118155   0.057   2.069   8.415 -1.5235  0.6935 -1.0328
 2231SOL    HW218156   0.200   2.092   8.438  1.7625  3.6052 -0.2490
 2232SOL     OW18157   2.812   2.350   5.343  0.2993 -0.2985 -0.4871
 2232SOL    HW118158   2.721   2.362   5.316  0.4654  3.1421  0.4810
 2232SOL    HW218159   2.825   2.276   5.284 -1.5611 -0.5518 -0.5711
 2233SOL     OW18160   1.288   3.627  12.564 -0.0773  0.4533  0.4849
 2233SOL    HW118161   1.216   3.565  12.577 -0.3817  0.9908  1.3008
 2233SOL    HW218162   1.261   3.673  12.643  0.6484 -0.0496  1.0242
 2234SOL     OW18163   2.580   0.057  11.566  0.4307  0.2527  0.6760
 2234SOL    HW118164   2.537   4.719  11.508  1.5660  1.0517 -1.0271
 2234SOL    HW218165   2.674   0.048  11.550 -0.4406 -1.4907 -3.6583
 2235SOL     OW18166   3.698   0.330   7.107  0.0196  0.2986 -0.9968
 2235SOL    HW118167   3.686   0.422   7.133 -2.3659  0.0288 -1.1769
 2235SOL    HW218168   3.706   0.286   7.191 -0.6862 -0.0226 -1.1032
 2236SOL     OW18169   3.229   3.957   5.422 -0.5280  0.4402  0.0643
 2236SOL    HW118170   3.238   4.012   5.344 -1.7389 -0.8404 -0.9845
 2236SOL    HW218171   3.135   3.968   5.436 -1.1790 -3.1468 -1.5845
 2237SOL     OW18172   0.632   4.480   2.574  0.9563 -0.2373  0.4826
 2237SOL    HW118173   0.657   4.491   2.482  1.4337 -1.6706  0.4578
 2237SOL    HW218174   0.711   4.505   2.621 -0.6910  1.8594  2.1179
 2238SOL     OW18175   0.252   3.706  11.072 -0.3926 -0.1265 -0.5589
 2238SOL    HW118176   0.189   3.757  11.021  0.8291  1.8787 -0.0520
 2238SOL    HW218177   0.328   3.700  11.014  0.7691  2.7104  0.7063
 2239SOL     OW18178   2.488   1.618   1.998 -0.3738  0.0905  0.5744
 2239SOL    HW118179   2.471   1.524   2.011 -0.9105  0.6122  3.6467
 2239SOL    HW218180   2.440   1.660   2.069  1.9262  0.6887  1.7937
 2240SOL     OW18181   0.187   2.078   0.612 -0.4394 -0.3667 -0.5931
 2240SOL    HW118182   0.094   2.071   0.590 -0.8173 -0.6711  1.1418
 2240SOL    HW218183   0.227   1.997   0.581  0.4257 -0.7921  1.6576
 2241SOL     OW18184   2.187   0.458  13.211  0.2079  0.3984 -0.9207
 2241SOL    HW118185   2.217   0.393  13.275 -3.3259 -2.2138 -1.9017
 2241SOL    HW218186   2.110   0.481  13.265 -1.2221 -2.7692 -1.6120
 2242SOL     OW18187   0.793   4.443  14.817  0.3550  0.0067  0.4148
 2242SOL    HW118188   0.723   4.475  14.874 -0.3511  1.8387 -1.5046
 2242SOL    HW218189   0.740   4.412  14.743  0.6821  2.4700 -0.8593
 2243SOL     OW18190   0.362   1.937  10.914 -0.2344 -0.0101 -0.4906
 2243SOL    HW118191   0.293   1.993  10.950 -0.1075 -0.8672  1.0701
 2243SOL    HW218192   0.306   1.884  10.856  0.7397 -2.2293  0.5896
 2244SOL     OW18193   4.062   3.408   8.866 -0.0705 -0.4485  0.6877
 2244SOL    HW118194   4.048   3.325   8.910  2.9667 -1.6777 -0.6410
 2244SOL    HW218195   3.990   3.402   8.803  1.0582  1.0398 -0.7567
 2245SOL     OW18196   0.878   3.383   6.850  0.5407 -0.2771  0.1143
 2245SOL    HW118197   0.959   3.424   6.882  0.9523 -0.6882 -0.3975
 2245SOL    HW218198   0.870   3.313   6.914  0.4353 -2.5999 -2.4485
 2246SOL     OW18199   3.366   1.266  10.187 -0.0467  0.5467 -0.1675
 2246SOL    HW118200   3.344   1.182  10.147  1.7102 -0.2629  0.5966
 2246SOL    HW218201   3.309   1.264  10.264  0.6095  0.2148  0.3065
 2247SOL     OW18202   2.963   4.447   4.286  0.1479 -0.0080 -0.0016
 2247SOL    HW118203   2.884   4.416   4.331  0.4426  1.0745  1.2664
 2247SOL    HW218204   3.041   4.431   4.338  0.3742  2.4671  0.4155
 2248SOL     OW18205   4.215   3.139   5.838  0.0876 -0.1525 -0.4855
 2248SOL    HW118206   4.268   3.219   5.836  1.1024 -0.8181  0.0345
 2248SOL    HW218207   4.245   3.102   5.921 -0.5871 -1.3014 -0.7535
 2249SOL     OW18208   2.595   0.117   5.671  0.3852 -0.0516  0.5345
 2249SOL    HW118209   2.528   0.141   5.735  1.7429  2.4280  1.0383
 2249SOL    HW218210   2.543   0.073   5.604 -0.6412  0.8784  0.7160
 2250SOL     OW18211   4.619   0.250   7.128 -0.2005 -0.1905 -0.5937
 2250SOL    HW118212   4.531   0.278   7.152  1.1277  2.3304  1.3244
 2250SOL    HW218213   4.615   0.270   7.034  2.6763 -0.7492 -0.8503
 2251SOL     OW18214   2.047   1.328   8.600  0.4238 -0.4612  0.0469
 2251SOL    HW118215   2.030   1.417   8.569 -2.5734  0.2849  3.7834
 2251SOL    HW218216   2.092   1.290   8.525  1.3319  0.1030  0.3012
 2252SOL     OW18217   2.237   0.284   9.627  0.4705 -0.2385 -0.3503
 2252SOL    HW118218   2.215   0.255   9.715  2.1510  1.9790  0.7813
 2252SOL    HW218219   2.245   0.198   9.587  3.8457  0.4045 -1.0339
 2253SOL     OW18220   1.860   0.700  10.383 -0.1476 -0.0878  0.6975
 2253SOL    HW118221   1.950   0.709  10.352 -1.0014  0.7416 -1.5482
 2253SOL    HW218222   1.833   0.787  10.354  0.8597  0.3226  1.0085
 2254SOL     OW18223   2.521   4.116   5.337 -0.3110  0.1858 -0.0884
 2254SOL    HW118224   2.525   4.034   5.386  0.8182  0.0282 -0.4482
 2254SOL    HW218225   2.547   4.179   5.405 -0.9600 -0.6986  0.9848
 2255SOL     OW18226   3.896   2.849   2.375  0.1071 -0.3093  0.0742
 2255SOL    HW118227   3.944   2.931   2.389  0.6321  0.3481 -5.7489
 2255SOL    HW218228   3.814   2.889   2.345  0.0484 -1.1148 -0.8200
 2256SOL     OW18229   0.358   0.954   5.749  0.2242  0.5045  0.2924
 2256SOL    HW118230   0.363   0.915   5.662  0.3807  0.0860  0.4856
 2256SOL    HW218231   0.443   0.996   5.752 -0.6131  2.2853 -1.2674
 2257SOL     OW18232   0.290   1.939   7.824  0.7072  0.4236 -0.0582
 2257SOL    HW118233   0.213   1.995   7.822  0.7200  0.4340 -0.1992
 2257SOL    HW218234   0.344   1.962   7.900 -0.9823  1.5093  0.8297
 2258SOL     OW18235   2.170   0.516  15.756  0.0886 -0.1646  0.3140
 2258SOL    HW118236   2.095   0.575  15.749 -0.2379 -0.8159 -1.6016
 2258SOL    HW218237   2.141   0.438  15.804 -2.9214 -0.9608 -2.8163
 2259SOL     OW18238   1.401   3.151   3.307 -0.6705 -0.1504 -0.0197
 2259SOL    HW118239   1.485   3.197   3.304  1.2859 -3.8191 -1.1811
 2259SOL    HW218240   1.347   3.230   3.303  0.3963  0.5466 -0.8564
 2260SOL     OW18241   4.278   4.485   5.517 -0.5689 -1.2320 -0.0189
 2260SOL    HW118242   4.287   4.470   5.611  2.6112 -0.2340 -0.1521
 2260SOL    HW218243   4.343   4.552   5.497 -1.2638 -0.6106 -0.2006
 2261SOL     OW18244   0.992   0.155   2.449 -0.2963  0.2023  0.5882
 2261SOL    HW118245   1.072   0.147   2.501  0.3865  0.8646 -0.3719
 2261SOL    HW218246   1.017   0.219   2.382  0.4500  0.6907  1.3361
 2262SOL     OW18247   3.687   3.232   5.786  0.0645 -0.2161 -0.3170
 2262SOL    HW118248   3.666   3.139   5.779  1.3183 -0.3970 -1.6787
 2262SOL    HW218249   3.628   3.251   5.859  0.3831  2.2960 -0.7082
 2263SOL     OW18250   1.593   2.531   7.390  0.0327 -0.3342  0.1760
 2263SOL    HW118251   1.658   2.462   7.400 -0.9324 -1.2033  0.5188
 2263SOL    HW218252   1.649   2.608   7.397 -0.8049  0.5003 -2.3203
 2264SOL     OW18253   3.488   3.493   4.692 -0.5788  0.1144 -0.0226
 2264SOL    HW118254   3.578   3.486   4.724  0.2252 -0.7720 -2.4207
 2264SOL    HW218255   3.448   3.415   4.729  2.5155 -1.1485  0.6963
 2265SOL     OW18256   1.270   2.508  15.898  0.7822 -0.4371  0.2232
 2265SOL    HW118257   1.313   2.438  15.849 -0.7480 -1.3393  0.1578
 2265SOL    HW218258   1.269   2.578  15.833 -2.8540 -1.1133 -0.4697
 2266SOL     OW18259   1.883   3.924   1.270 -0.5219 -0.2454  0.5612
 2266SOL    HW118260   1.942   3.897   1.199 -0.2609 -1.2459  1.1579
 2266SOL    HW218261   1.905   4.016   1.285 -0.7321 -0.2740  1.0441
 2267SOL     OW18262   0.823   3.342  11.686 -0.5368  0.6612 -0.2933
 2267SOL    HW118263   0.779   3.265  11.648  1.6557 -0.8516  0.2017
 2267SOL    HW218264   0.749   3.397  11.708 -1.5999 -0.7668 -0.2769
 2268SOL     OW18265   3.438   2.930  16.318  0.2281 -0.2162 -0.5654
 2268SOL    HW118266   3.527   2.928  16.353  0.3528 -0.0041 -0.8771
 2268SOL    HW218267   3.423   3.024  16.304  0.0914 -0.1645 -0.0902
 2269SOL     OW18268   0.707   3.934   3.414  0.4427  0.4042  0.1956
 2269SOL    HW118269   0.768   3.873   3.372  0.3717 -0.0905  0.8030
 2269SOL    HW218270   0.758   3.976   3.484  0.7813  1.3893 -0.6466
 2270SOL     OW18271   0.736   3.079   6.644 -0.6079  0.3650  0.0358
 2270SOL    HW118272   0.822   3.096   6.682 -0.2884 -1.7715  0.2761
 2270SOL    HW218273   0.759   3.005   6.587  2.6506  1.6734 -0.3570
 2271SOL     OW18274   0.318   0.451   1.200  0.2830 -0.6453  0.2858
 2271SOL    HW118275   0.347   0.378   1.146  0.9413 -0.2636  0.1129
 2271SOL    HW218276   0.351   0.525   1.148 -0.0026 -0.6763  0.0592
 2272SOL     OW18277   2.473   2.987   8.937 -0.4132 -0.5080 -0.3951
 2272SOL    HW118278   2.561   2.949   8.932 -0.5403 -0.8861  0.2600
 2272SOL    HW218279   2.434   2.949   8.858 -1.0140 -1.6154  0.4244
 2273SOL     OW18280   2.158   3.275   5.335 -0.3376  0.4916 -0.1560
 2273SOL    HW118281   2.222   3.277   5.264 -0.9328  0.1249 -0.7037
 2273SOL    HW218282   2.219   3.251   5.406 -1.7980 -2.8140  0.0132
 2274SOL     OW18283   0.017   1.450   3.345  0.2527 -0.5094 -0.8483
 2274SOL    HW118284   0.055   1.366   3.318 -2.1740 -1.3904 -1.4580
 2274SOL    HW218285   4.660   1.464   3.297  0.1551 -0.0143 -0.5363
 2275SOL     OW18286   1.417   3.714   7.902 -0.0110 -0.0511  0.2214
 2275SOL    HW118287   1.393   3.778   7.969  0.7258 -0.7489  1.1460
 2275SOL    HW218288   1.360   3.758   7.838  1.1916  0.7126 -0.3272
 2276SOL     OW18289   1.874   4.546   1.386 -0.3316 -0.2129 -0.1266
 2276SOL    HW118290   1.848   4.454   1.374  0.2751 -0.2278 -1.2581
 2276SOL    HW218291   1.969   4.537   1.394 -0.4986 -0.9855  1.0676
 2277SOL     OW18292   1.628   1.556  10.676 -0.2197 -0.2413  0.5536
 2277SOL    HW118293   1.587   1.609  10.744 -1.1894  1.3332 -1.2238
 2277SOL    HW218294   1.655   1.478  10.725 -0.0922  0.4157  1.5265
 2278SOL     OW18295   0.267   2.207   9.572 -0.2095  0.8039  0.1016
 2278SOL    HW118296   0.243   2.120   9.542  0.8677  1.1451 -1.7386
 2278SOL    HW218297   0.295   2.198   9.663  1.5192  1.5804 -0.3575
 2279SOL     OW18298   0.776   0.397   6.438 -0.3357 -0.1621  0.1827
 2279SOL    HW118299   0.784   0.362   6.526 -0.5627  0.0614  0.2914
 2279SOL    HW218300   0.736   0.479   6.465 -0.1678 -0.1991  0.5397
 2280SOL     OW18301   3.615   0.124   1.876 -0.5446 -0.0882 -0.5723
 2280SOL    HW118302   3.641   0.054   1.815  1.5620 -0.3239  0.5679
 2280SOL    HW218303   3.523   0.100   1.887 -1.2230  0.9331 -3.7812
 2281SOL     OW18304   0.669   0.163   1.932  0.0051 -0.3518 -0.4953
 2281SOL    HW118305   0.642   0.152   1.841 -2.5358 -1.2046  0.3708
 2281SOL    HW218306   0.603   0.115   1.981 -0.2369 -0.5894 -1.0537
 2282SOL     OW18307   3.435   1.383   1.643  0.3374 -0.0430 -0.3341
 2282SOL    HW118308   3.464   1.428   1.723 -0.1568  0.2569 -0.3243
 2282SOL    HW218309   3.398   1.299   1.668  0.4846 -0.1061 -0.3311
 2283SOL     OW18310   3.594   2.658   4.270  0.1075 -0.2929 -0.7985
 2283SOL    HW118311   3.649   2.728   4.235 -0.5149  0.9425  0.6980
 2283SOL    HW218312   3.528   2.660   4.200  0.3135  2.2536 -0.9229
 2284SOL     OW18313   4.233   2.123   1.137 -0.0214  0.1113 -0.5081
 2284SOL    HW118314   4.245   2.209   1.098  0.7969 -0.2092 -0.9594
 2284SOL    HW218315   4.191   2.078   1.064 -2.3537 -0.0935  0.9607
 2285SOL     OW18316   4.558   1.071   6.323 -0.3354  0.6079  0.2497
 2285SOL    HW118317   4.592   0.994   6.277 -2.2660 -0.1668  0.1018
 2285SOL    HW218318   4.558   1.143   6.260 -1.6489 -1.1737 -1.7731
 2286SOL     OW18319   3.152   2.597   0.531 -0.1612 -0.1754 -0.0710
 2286SOL    HW118320   3.141   2.691   0.548 -0.4123 -0.1197 -0.5284
 2286SOL    HW218321   3.225   2.600   0.469  1.1149  3.2567  1.5864
 2287SOL     OW18322   3.459   1.120   6.865  0.0331  0.3377  0.1466
 2287SOL    HW118323   3.441   1.125   6.959 -0.0909  0.6145  0.1080
 2287SOL    HW218324   3.412   1.191   6.822 -1.0590  0.0345  0.8315
 2288SOL     OW18325   4.319   0.211   2.375  0.1789  0.1160  0.2207
 2288SOL    HW118326   4.259   0.283   2.397  1.1093  1.4984 -1.7990
 2288SOL    HW218327   4.264   0.136   2.395  0.6471 -0.5933 -1.1735
 2289SOL     OW18328   3.874   1.149   3.893  0.2444 -0.6596  0.2172
 2289SOL    HW118329   3.825   1.225   3.924  1.1946 -0.1123  0.3711
 2289SOL    HW218330   3.804   1.094   3.858  0.5629 -1.3961  0.7371
 2290SOL     OW18331   2.183   0.985   8.777 -0.6343 -0.2483  0.3724
 2290SOL    HW118332   2.235   0.963   8.700 -0.0500  0.4182  0.5727
 2290SOL    HW218333   2.204   1.079   8.775 -1.0506 -0.1440  1.0759
 2291SOL     OW18334   3.816   0.576   3.785 -0.4547  0.0545  0.0519
 2291SOL    HW118335   3.880   0.602   3.851 -0.4037  2.9815 -1.1553
 2291SOL    HW218336   3.804   0.486   3.816 -1.2295 -0.7885 -2.6623
 2292SOL     OW18337   4.693   3.314   7.877 -0.4559  0.0011  0.0731
 2292SOL    HW118338   4.645   3.394   7.897 -0.0620  0.7265 -1.8839
 2292SOL    HW218339   0.051   3.332   7.924 -0.1914  1.0834 -0.8050
 2293SOL     OW18340   1.715   1.930  13.729  0.1637 -0.2562 -0.3263
 2293SOL    HW118341   1.739   1.936  13.821  0.6180 -1.5227 -0.3643
 2293SOL    HW218342   1.706   2.024  13.713 -0.5863 -0.0822  1.1781
 2294SOL     OW18343   1.064   1.533   9.325 -0.4089 -0.1687  0.2461
 2294SOL    HW118344   1.094   1.614   9.367 -0.9200 -0.6382  1.4909
 2294SOL    HW218345   1.150   1.491   9.324  0.4572  1.6059 -1.8854
 2295SOL     OW18346   3.335   4.426  10.868  0.4062  0.0567 -0.0881
 2295SOL    HW118347   3.339   4.492  10.938 -2.2674  0.2666 -0.1525
 2295SOL    HW218348   3.264   4.472  10.824 -0.1105 -1.7174 -1.0963
 2296SOL     OW18349   3.837   1.595  17.524  0.4147 -0.2271 -0.2396
 2296SOL    HW118350   3.883   1.671  17.488  0.2857 -0.5516 -1.1026
 2296SOL    HW218351   3.753   1.607  17.480 -0.2577  1.0844  1.3838
 2297SOL     OW18352   3.577   2.013   2.883  0.7495 -0.0545  0.5358
 2297SOL    HW118353   3.630   1.943   2.922  0.6227 -1.0205 -1.0303
 2297SOL    HW218354   3.507   1.960   2.844  0.9525 -0.2905  0.4917
 2298SOL     OW18355   2.625   1.885  15.917 -0.0699  0.4827  0.1623
 2298SOL    HW118356   2.647   1.887  16.010  0.0647 -0.6547  0.1488
 2298SOL    HW218357   2.671   1.967  15.899  1.6062 -0.5080 -0.0459
 2299SOL     OW18358   3.992   3.312  14.807 -0.2239  0.3535  0.1440
 2299SOL    HW118359   4.078   3.341  14.778  0.5570 -2.1968 -0.1138
 2299SOL    HW218360   4.000   3.317  14.903 -0.8455  0.4374  0.1928
 2300SOL     OW18361   4.357   1.565  14.457  0.6940  0.3199 -0.4241
 2300SOL    HW118362   4.267   1.537  14.441 -0.2853  2.1634  1.7853
 2300SOL    HW218363   4.339   1.605  14.542  0.1587 -1.4662  0.3076
 2301SOL     OW18364   0.237   2.643   3.861  0.0984 -0.1146 -0.3101
 2301SOL    HW118365   0.220   2.607   3.948  2.1291  0.2846  0.2621
 2301SOL    HW218366   0.163   2.615   3.807  0.5086 -0.2917 -0.7851
 2302SOL     OW18367   1.704   1.105  11.178 -0.0466  0.5705  0.3189
 2302SOL    HW118368   1.672   1.015  11.166 -0.8557  0.7666  1.0170
 2302SOL    HW218369   1.674   1.120  11.267 -1.4548  1.1194 -0.2495
 2303SOL     OW18370   2.572   3.251   6.136  0.2632 -0.4513 -1.1122
 2303SOL    HW118371   2.557   3.248   6.231 -2.4714  0.1179 -1.5423
 2303SOL    HW218372   2.665   3.226   6.129 -0.2275 -2.8715  0.7795
 2304SOL     OW18373   2.850   1.447   0.264  0.0074 -0.1412 -0.2479
 2304SOL    HW118374   2.764   1.415   0.237 -0.9042  1.1528  1.1683
 2304SOL    HW218375   2.850   1.426   0.357  0.9990  1.4604  0.1062
 2305SOL     OW18376   2.770   2.558   3.348 -0.0074 -0.3207  0.0259
 2305SOL    HW118377   2.828   2.523   3.416  0.8632  0.8569 -0.1095
 2305SOL    HW218378   2.804   2.522   3.267  0.9523 -1.0116  0.7361
 2306SOL     OW18379   3.744   2.232   8.632  0.1190  0.3506  0.3061
 2306SOL    HW118380   3.817   2.217   8.693 -0.6020  0.6535  1.2421
 2306SOL    HW218381   3.737   2.326   8.621  1.3587  0.6650  2.1640
 2307SOL     OW18382   1.715   1.006   6.608 -0.2702 -0.0761  0.3627
 2307SOL    HW118383   1.627   1.044   6.614 -0.2265 -0.2399  1.8763
 2307SOL    HW218384   1.771   1.076   6.643  0.2742 -0.2274 -0.2125
 2308SOL     OW18385   3.153   2.670   2.577 -0.3919 -0.0727 -0.0281
 2308SOL    HW118386   3.160   2.703   2.667  3.1552 -0.3085 -0.2251
 2308SOL    HW218387   3.228   2.611   2.579 -0.6371 -0.3931 -0.2067
 2309SOL     OW18388   4.611   0.449   6.020  0.4359  0.2417 -0.0078
 2309SOL    HW118389   4.662   0.426   5.942 -0.2955  0.2517 -0.4911
 2309SOL    HW218390   4.531   0.401   6.000 -0.9087  2.2860  0.5323
 2310SOL     OW18391   4.396   1.771   7.522 -0.2616  0.0176 -0.0587
 2310SOL    HW118392   4.464   1.714   7.559 -0.6045 -1.5483 -1.8526
 2310SOL    HW218393   4.388   1.736   7.433  1.6479 -0.1735 -0.1664
 2311SOL     OW18394   4.110   2.311   6.618 -0.3822 -0.5026 -0.2980
 2311SOL    HW118395   4.176   2.250   6.587  1.3645  0.9949  0.4475
 2311SOL    HW218396   4.043   2.328   6.551  1.9130 -1.2355 -2.7686
 2312SOL     OW18397   4.628   3.746   7.817  0.0386 -0.3593  0.6218
 2312SOL    HW118398   4.589   3.778   7.735  0.8037  0.2934  0.5120
 2312SOL    HW218399   4.592   3.658   7.824  1.9771 -1.1983  0.0729
 2313SOL     OW18400   3.804   1.504   6.384 -0.2928 -0.0813  0.0194
 2313SOL    HW118401   3.717   1.537   6.406 -0.8577 -0.2821 -1.9267
 2313SOL    HW218402   3.789   1.467   6.297  2.0845  1.1772 -0.8955
 2314SOL     OW18403   1.081   2.952  12.988 -0.2997 -0.0200  0.1556
 2314SOL    HW118404   1.174   2.937  13.002 -0.2661  0.1687  0.1324
 2314SOL    HW218405   1.046   2.887  13.049  1.0572  1.0748  2.0931
 2315SOL     OW18406   4.425   1.679   8.038  0.0602 -0.2508 -0.1170
 2315SOL    HW118407   4.459   1.592   8.014 -0.7111 -1.3448  2.7973
 2315SOL    HW218408   4.485   1.701   8.109 -0.0875  1.7713 -0.6232
 2316SOL     OW18409   3.690   2.940  16.450 -0.6790 -0.1245  0.3044
 2316SOL    HW118410   3.755   2.965  16.515 -1.5501  0.5125  0.9201
 2316SOL    HW218411   3.704   2.845  16.445 -2.5190 -0.3905  0.1644
 2317SOL     OW18412   3.788   2.823  15.607  0.0368 -0.0582 -0.2050
 2317SOL    HW118413   3.767   2.883  15.535  1.2478 -0.0234 -0.5387
 2317SOL    HW218414   3.721   2.851  15.669  1.4167  1.6556  0.5352
 2318SOL     OW18415   4.694   1.717   5.703 -0.5831 -0.4091 -0.2309
 2318SOL    HW118416   0.056   1.744   5.731 -0.3334 -0.3576 -1.0529
 2318SOL    HW218417   4.694   1.731   5.608 -0.0089 -0.8958 -0.3015
 2319SOL     OW18418   0.531   3.161  17.434  0.3320 -0.4354  0.4712
 2319SOL    HW118419   0.525   3.066  17.431 -0.9406 -0.2552 -2.4470
 2319SOL    HW218420   0.471   3.187  17.504  0.7358 -0.4614  0.8295
 2320SOL     OW18421   1.373   1.056   1.856  0.0344 -0.1763 -0.2818
 2320SOL    HW118422   1.322   0.978   1.836 -0.4937 -0.2120  1.1964
 2320SOL    HW218423   1.307   1.121   1.878 -0.5434 -1.0091  0.4451
 2321SOL     OW18424   0.129   1.904   5.957  0.8128  0.0401  0.2530
 2321SOL    HW118425   0.192   1.922   5.887  1.7815 -0.8131  0.8885
 2321SOL    HW218426   0.145   1.964   6.030  0.5369 -0.1998  0.5095
 2322SOL     OW18427   2.892   2.619  14.812  0.2282  0.2518 -0.1210
 2322SOL    HW118428   2.976   2.666  14.809  0.9440 -0.9481  1.3645
 2322SOL    HW218429   2.913   2.530  14.786 -1.0334 -0.0641 -0.0309
 2323SOL     OW18430   0.897   4.171  14.789  0.7179  0.1582  0.1274
 2323SOL    HW118431   0.862   4.257  14.766  0.3071 -0.0321  0.0372
 2323SOL    HW218432   0.816   4.121  14.777 -0.8702  2.8201 -0.1026
 2324SOL     OW18433   4.282   2.393   8.110  0.8644 -0.1069 -0.9968
 2324SOL    HW118434   4.340   2.359   8.042  0.6592 -1.3456 -0.5634
 2324SOL    HW218435   4.307   2.334   8.181 -0.2491  2.6694  1.6977
 2325SOL     OW18436   3.034   4.472   8.468 -0.2041 -0.0176 -0.2703
 2325SOL    HW118437   2.977   4.448   8.395  1.2651 -1.0239 -1.0764
 2325SOL    HW218438   3.048   4.562   8.438  0.7353  0.1834  0.7805
 2326SOL     OW18439   3.622   2.955   4.004  0.0977 -0.0077 -0.7443
 2326SOL    HW118440   3.623   3.049   3.987  1.0797  0.0855 -0.1435
 2326SOL    HW218441   3.558   2.927   3.938 -0.4295  0.8634 -0.6064
 2327SOL     OW18442   2.781   3.591  15.439  0.1135  0.1996  0.2714
 2327SOL    HW118443   2.851   3.642  15.481 -0.1945  1.7488 -1.0710
 2327SOL    HW218444   2.810   3.607  15.349 -0.2991  0.8613  0.2487
 2328SOL     OW18445   1.047   3.998   4.160 -0.2154 -0.0117  1.1683
 2328SOL    HW118446   0.957   3.998   4.129  0.7544 -1.9252 -1.6728
 2328SOL    HW218447   1.101   4.016   4.083 -2.9293  0.5298 -0.6093
 2329SOL     OW18448   4.023   0.289   3.270 -0.7651 -0.0488  0.2319
 2329SOL    HW118449   3.979   0.251   3.347  1.5836  0.9367  2.0775
 2329SOL    HW218450   4.060   0.368   3.311  2.6959 -0.1470 -2.6721
 2330SOL     OW18451   0.588   3.815  13.700 -0.6561  0.1080  0.0028
 2330SOL    HW118452   0.554   3.841  13.785 -0.3285  0.0397  0.1538
 2330SOL    HW218453   0.652   3.880  13.671 -0.9561 -0.2529 -1.4795
 2331SOL     OW18454   0.146   1.834   3.301 -0.4726 -0.0238  0.2777
 2331SOL    HW118455   0.138   1.807   3.209  1.0973 -5.3896  1.7355
 2331SOL    HW218456   0.136   1.929   3.289 -1.9519 -0.1556  0.5688
 2332SOL     OW18457   1.214   3.841   7.739  0.4030 -0.5848  0.5644
 2332SOL    HW118458   1.177   3.924   7.769 -1.3890 -1.7100  1.4459
 2332SOL    HW218459   1.253   3.873   7.658  0.1700 -0.4885  0.4919
 2333SOL     OW18460   4.305   3.947   4.422  0.1079 -0.3710  0.1246
 2333SOL    HW118461   4.374   3.999   4.463 -0.3658  2.0958 -2.1815
 2333SOL    HW218462   4.355   3.940   4.340  0.9853 -1.3140  0.7349
 2334SOL     OW18463   3.491   3.369   8.098  0.1587  0.1012 -0.3013
 2334SOL    HW118464   3.585   3.387   8.102  0.6005 -2.0636 -1.2349
 2334SOL    HW218465   3.478   3.293   8.155  0.0297  0.9945  0.8662
 2335SOL     OW18466   3.811   0.369   5.803  0.4521  0.2513  0.0480
 2335SOL    HW118467   3.830   0.349   5.894  0.5923 -0.6331 -0.1704
 2335SOL    HW218468   3.738   0.430   5.808 -0.7512 -0.8895 -3.1764
 2336SOL     OW18469   2.241   4.645   1.598 -0.1499  0.5990 -0.1262
 2336SOL    HW118470   2.268   0.012   1.604  0.8554  0.2189  1.1864
 2336SOL    HW218471   2.306   4.591   1.644 -1.8380 -0.1500  1.3928
 2337SOL     OW18472   1.376   3.417  12.389 -0.3309 -0.0296  0.5917
 2337SOL    HW118473   1.333   3.479  12.449  0.5660  0.2189  0.9795
 2337SOL    HW218474   1.446   3.384  12.445 -0.5346 -1.9267 -0.2991
 2338SOL     OW18475   1.235   3.208   6.272  0.6467  0.0683 -0.2786
 2338SOL    HW118476   1.240   3.191   6.178 -2.1874  1.2543 -0.6517
 2338SOL    HW218477   1.288   3.135   6.302 -0.3825 -0.5254  0.0737
 2339SOL     OW18478   1.956   0.831   8.653 -0.3757 -0.2232 -0.1188
 2339SOL    HW118479   1.999   0.873   8.728 -3.7756 -0.7784  2.1138
 2339SOL    HW218480   1.875   0.802   8.694 -0.1498 -2.2276 -1.1013
 2340SOL     OW18481   2.177   1.294   1.355  0.1011 -0.2572 -0.3002
 2340SOL    HW118482   2.116   1.227   1.386 -2.0169  2.0401  0.5592
 2340SOL    HW218483   2.189   1.261   1.266 -1.8300 -2.8829  0.4343
 2341SOL     OW18484   2.814   4.699   2.004 -0.0697 -0.1055 -0.1121
 2341SOL    HW118485   2.840   4.607   2.008  1.9839  0.5209  0.8724
 2341SOL    HW218486   2.878   0.010   2.066  0.7068 -1.4103 -0.1662
 2342SOL     OW18487   4.456   2.518   7.376  0.3779  0.2851 -0.2591
 2342SOL    HW118488   4.424   2.428   7.366  1.5426  0.2530 -3.6785
 2342SOL    HW218489   4.376   2.565   7.352 -1.2740 -2.9027 -1.0409
 2343SOL     OW18490   0.517   2.819   6.517 -0.0240  0.3651 -0.4124
 2343SOL    HW118491   0.479   2.800   6.603 -0.1251 -1.5035 -0.8728
 2343SOL    HW218492   0.611   2.804   6.530 -0.4112 -1.6829 -0.0924
 2344SOL     OW18493   4.391   4.642   3.581  0.2464 -0.7105 -0.4306
 2344SOL    HW118494   4.397   4.666   3.488 -2.5245 -0.2855 -0.5013
 2344SOL    HW218495   4.439   4.718   3.613 -1.8332  0.4271  0.0319
 2345SOL     OW18496   0.521   2.799   3.030 -0.1536  0.1720  0.5586
 2345SOL    HW118497   0.597   2.747   3.002 -0.3885  1.2457 -2.0708
 2345SOL    HW218498   0.562   2.846   3.103 -0.3414  1.7749 -0.3750
 2346SOL     OW18499   2.813   3.874  12.973 -0.2284  0.0989 -0.2051
 2346SOL    HW118500   2.784   3.867  12.882  0.9708  0.8212 -0.6424
 2346SOL    HW218501   2.752   3.814  13.016  0.2928  0.9585  1.7699
 2347SOL     OW18502   2.440   2.200   3.695 -0.2042 -0.3792 -1.1216
 2347SOL    HW118503   2.492   2.258   3.640 -0.1375  1.7048  1.1487
 2347SOL    HW218504   2.500   2.166   3.762 -0.6525  0.5965 -0.2378
 2348SOL     OW18505   4.462   3.572   2.172  0.0418  0.1609 -0.5420
 2348SOL    HW118506   4.501   3.556   2.087  1.8646 -1.9500  0.6884
 2348SOL    HW218507   4.533   3.555   2.234  1.1568  0.0037 -1.8576
 2349SOL     OW18508   1.270   4.113   6.236  0.2387  0.4616  0.4232
 2349SOL    HW118509   1.175   4.119   6.235  0.3616  1.9628 -1.0970
 2349SOL    HW218510   1.274   4.018   6.247  0.7933  0.2430 -1.8470
 2350SOL     OW18511   2.994   1.804   9.006 -0.4276  0.1328  1.0105
 2350SOL    HW118512   3.008   1.711   8.984 -0.9828  0.3141 -0.0678
 2350SOL    HW218513   3.047   1.809   9.086 -2.1247 -0.2012  2.1591
 2351SOL     OW18514   2.128   4.648  14.365 -0.3333  0.7284  0.1337
 2351SOL    HW118515   2.198   4.694  14.412 -2.1167  3.6664 -0.0869
 2351SOL    HW218516   2.184   4.579  14.329  0.2816  0.1921  2.0889
 2352SOL     OW18517   0.887   0.193   2.161  0.5572  0.6905  0.9237
 2352SOL    HW118518   0.828   0.190   2.086  2.0939  1.4262 -0.3261
 2352SOL    HW218519   0.829   0.180   2.236 -0.0160  0.5140  0.4465
 2353SOL     OW18520   3.953   2.633   5.464 -0.3316  0.3932 -0.0600
 2353SOL    HW118521   3.903   2.552   5.468 -1.9367  1.4005  0.5013
 2353SOL    HW218522   3.989   2.628   5.553  1.7507 -0.1533 -0.9476
 2354SOL     OW18523   3.878   3.717  14.201  1.0509  0.0705  0.5719
 2354SOL    HW118524   3.923   3.643  14.163  2.5189  2.2944 -2.0135
 2354SOL    HW218525   3.785   3.706  14.180  1.5029  0.0733 -1.4523
 2355SOL     OW18526   3.128   1.154   3.045 -0.0788 -0.4067 -0.1926
 2355SOL    HW118527   3.218   1.147   3.013 -0.3347 -1.6969 -0.6190
 2355SOL    HW218528   3.084   1.204   2.976  2.9701  1.6197 -0.6652
 2356SOL     OW18529   0.450   3.979   3.951 -0.0355 -0.4127  0.2714
 2356SOL    HW118530   0.475   3.967   4.042  0.5747  2.2514  0.4577
 2356SOL    HW218531   0.361   3.945   3.947 -1.1550  2.4143  2.1853
 2357SOL     OW18532   1.017   3.455   0.144 -0.3727 -0.9773 -0.2929
 2357SOL    HW118533   1.052   3.384   0.090  0.4329  1.2876 -2.7477
 2357SOL    HW218534   0.926   3.469   0.118  0.0278  2.0946 -0.0977
 2358SOL     OW18535   4.255   2.856   2.051  0.0788  0.0049  0.0393
 2358SOL    HW118536   4.303   2.910   1.989  2.0450 -3.5841 -1.5732
 2358SOL    HW218537   4.283   2.903   2.130  0.4786 -0.6345  0.2776
 2359SOL     OW18538   3.403   2.024   0.263 -0.3864 -0.3085 -0.3257
 2359SOL    HW118539   3.387   2.115   0.242 -1.8229 -0.0521  1.8096
 2359SOL    HW218540   3.409   1.986   0.176 -0.4561  0.5077 -0.6839
 2360SOL     OW18541   1.799   4.220   4.473 -0.2246 -0.3163  0.0894
 2360SOL    HW118542   1.885   4.252   4.502 -1.5960  2.0302  1.5613
 2360SOL    HW218543   1.744   4.231   4.550 -0.2206 -0.9569  0.1804
 2361SOL     OW18544   4.122   0.655  10.155  0.1178 -0.0469 -0.2979
 2361SOL    HW118545   4.103   0.652  10.061 -0.6304  1.9927 -0.2034
 2361SOL    HW218546   4.197   0.715  10.155 -1.0112  1.3392  0.5000
 2362SOL     OW18547   0.698   1.552  16.081 -0.1291  0.2214  0.3992
 2362SOL    HW118548   0.646   1.474  16.096 -0.0202 -0.3082 -1.8801
 2362SOL    HW218549   0.681   1.568  15.988  0.4468 -0.9901  0.0870
 2363SOL     OW18550   0.708   4.531  17.620 -0.0741 -0.3719  0.3467
 2363SOL    HW118551   0.771   4.563  17.685  0.1401 -0.8705  0.3857
 2363SOL    HW218552   0.644   4.602  17.623 -1.8142 -1.9447  0.7806
 2364SOL     OW18553   3.410   4.599   1.499  0.1618  0.2087  0.5200
 2364SOL    HW118554   3.369   4.541   1.435 -1.1262 -0.1488  1.6573
 2364SOL    HW218555   3.425   4.679   1.447 -1.3817  0.0724 -0.1538
 2365SOL     OW18556   3.751   0.757  10.346 -0.4702 -0.9161  0.0090
 2365SOL    HW118557   3.695   0.821  10.390 -0.2344  0.1603 -1.2474
 2365SOL    HW218558   3.719   0.745  10.257  1.0898  0.0723 -0.6756
 2366SOL     OW18559   0.772   2.841   0.531 -0.2225 -0.4552 -0.2568
 2366SOL    HW118560   0.779   2.755   0.573 -0.8254 -0.4308 -0.0957
 2366SOL    HW218561   0.686   2.864   0.566  1.0866 -0.5108  2.9859
 2367SOL     OW18562   0.963   1.141   6.825  0.9128  0.1838  0.4078
 2367SOL    HW118563   1.005   1.060   6.794  0.8565  1.3227 -2.5550
 2367SOL    HW218564   0.995   1.202   6.759  0.7088 -0.1591 -0.0075
 2368SOL     OW18565   1.941   4.692   2.446 -0.2125 -0.1255 -0.2074
 2368SOL    HW118566   1.961   4.686   2.353  0.6336 -0.6450  0.0009
 2368SOL    HW218567   1.883   4.616   2.448 -1.0688  0.6147  3.0679
 2369SOL     OW18568   4.403   0.355  13.356 -0.6521  0.2484 -0.6976
 2369SOL    HW118569   4.400   0.261  13.338 -2.1122  0.0875  0.3733
 2369SOL    HW218570   4.364   0.393  13.278 -0.6835 -0.4602 -1.0273
 2370SOL     OW18571   1.978   3.913   2.148 -0.3899 -0.2205  0.6369
 2370SOL    HW118572   2.043   3.854   2.110  1.5994  2.6744 -0.4648
 2370SOL    HW218573   2.042   3.977   2.176  1.0956 -1.2828 -0.3464
 2371SOL     OW18574   4.466   2.670  17.137  0.0075 -0.1745  0.4031
 2371SOL    HW118575   4.467   2.760  17.168 -0.2043 -0.6089  1.6820
 2371SOL    HW218576   4.556   2.642  17.157  0.3444  0.6873  0.0801
 2372SOL     OW18577   3.947   0.110   4.986  0.3161 -0.9893 -0.3266
 2372SOL    HW118578   4.026   0.059   4.970  2.2253  2.2790 -1.1452
 2372SOL    HW218579   3.954   0.168   4.911 -2.9280 -0.7969 -0.4808
 2373SOL     OW18580   0.937   2.434   6.153 -0.2653  0.0784 -0.0998
 2373SOL    HW118581   0.955   2.369   6.221  1.3104 -0.6436 -1.2217
 2373SOL    HW218582   0.850   2.460   6.184 -0.1015  0.3155  0.1693
 2374SOL     OW18583   4.163   4.269   6.534 -0.1041  0.2538 -0.0949
 2374SOL    HW118584   4.220   4.239   6.604 -0.5065 -0.8274 -0.2439
 2374SOL    HW218585   4.115   4.191   6.509  0.8278 -0.4982  0.4791
 2375SOL     OW18586   1.962   4.004   4.952 -0.3740 -0.1950 -0.1783
 2375SOL    HW118587   1.970   3.990   5.046 -1.7306  1.0969  0.1333
 2375SOL    HW218588   1.945   3.914   4.925  0.8113 -0.3535 -0.4030
 2376SOL     OW18589   0.384   4.674  10.500  0.4125  0.0189  0.1208
 2376SOL    HW118590   0.480   4.672  10.492  0.4826  1.5012  0.5766
 2376SOL    HW218591   0.363   0.040  10.523 -0.6796  0.1638 -1.4889
 2377SOL     OW18592   4.044   3.003  15.236  0.3428 -0.7102 -0.0977
 2377SOL    HW118593   3.968   3.020  15.291 -0.3642 -0.1042 -1.2572
 2377SOL    HW218594   4.003   2.957  15.163 -0.2901 -2.0591  1.1233
 2378SOL     OW18595   3.520   3.793   8.576 -0.3020 -0.0321 -0.3655
 2378SOL    HW118596   3.490   3.804   8.666  2.4923  0.3852  0.5217
 2378SOL    HW218597   3.436   3.802   8.531 -1.2230 -1.0857  1.1474
 2379SOL     OW18598   0.038   0.904   4.619  0.4867 -0.1663  0.3278
 2379SOL    HW118599   0.089   0.885   4.540 -0.4016 -3.4787  0.5566
 2379SOL    HW218600   4.703   0.973   4.588  1.0222  1.0952  2.1464
 2380SOL     OW18601   1.041   2.931   5.003 -0.0389 -0.2551  0.1907
 2380SOL    HW118602   1.051   2.837   5.015  1.0592 -0.2052 -0.3240
 2380SOL    HW218603   0.950   2.927   4.977 -0.5984  3.1066  1.5241
 2381SOL     OW18604   1.137   1.892  17.154  0.2415 -0.4667 -0.5274
 2381SOL    HW118605   1.052   1.937  17.146  0.8719  0.8825  0.4357
 2381SOL    HW218606   1.162   1.922  17.241 -0.7949  2.5234 -1.2460
 2382SOL     OW18607   2.493   3.959   3.827  0.3507 -0.2944  0.6304
 2382SOL    HW118608   2.399   3.941   3.815  0.4796 -1.2061  1.0118
 2382SOL    HW218609   2.494   4.045   3.785 -0.2228  1.1233  3.5146
 2383SOL     OW18610   1.399   3.818  10.813 -0.2958 -0.4932  0.1626
 2383SOL    HW118611   1.350   3.836  10.733  0.9531  1.6290 -0.1025
 2383SOL    HW218612   1.411   3.723  10.803 -0.6768 -0.8033  2.5843
 2384SOL     OW18613   1.872   1.935  12.128 -0.3375 -0.2418 -0.4383
 2384SOL    HW118614   1.808   1.870  12.099  1.2731 -2.0494  0.0346
 2384SOL    HW218615   1.824   2.017  12.139 -1.3652 -1.0100  0.7987
 2385SOL     OW18616   2.648   0.512   8.129 -0.1293 -0.0730 -0.0458
 2385SOL    HW118617   2.586   0.570   8.086  0.9539 -0.5874 -2.3183
 2385SOL    HW218618   2.634   0.520   8.224 -0.4226  0.5360 -0.1408
 2386SOL     OW18619   2.168   1.602   5.582 -0.6445  0.5895  0.3137
 2386SOL    HW118620   2.196   1.515   5.612 -0.0914  0.9884  0.9544
 2386SOL    HW218621   2.077   1.575   5.573 -0.2820 -0.9585  1.2324
 2387SOL     OW18622   2.182   4.570   7.157 -0.4275  0.2157 -0.1222
 2387SOL    HW118623   2.144   4.486   7.184 -2.8150  1.6893  1.1286
 2387SOL    HW218624   2.122   4.596   7.087  1.9000 -0.5635 -2.4027
 2388SOL     OW18625   2.304   3.426   6.312  0.4874 -0.3334  0.3540
 2388SOL    HW118626   2.216   3.404   6.343  0.4966  0.3120  0.8333
 2388SOL    HW218627   2.274   3.486   6.243 -0.4084 -0.7474  0.3883
 2389SOL     OW18628   1.157   0.241   4.806  0.2599 -0.1789 -0.5356
 2389SOL    HW118629   1.106   0.265   4.729  1.8934 -0.4523 -1.6842
 2389SOL    HW218630   1.152   0.319   4.861 -1.2397 -0.5827 -0.0872
 2390SOL     OW18631   1.563   4.679  10.053 -0.0774  0.6232 -0.1844
 2390SOL    HW118632   1.575   4.714   9.965  1.5460  3.2490  1.0736
 2390SOL    HW218633   1.642   4.627  10.066 -0.2321  0.0256 -1.6734
 2391SOL     OW18634   4.639   4.206  15.281  0.2379  0.5710  0.2071
 2391SOL    HW118635   4.668   4.213  15.372  0.3143  0.0070  0.2264
 2391SOL    HW218636   4.660   4.116  15.257  0.7817  0.3586  1.4338
 2392SOL     OW18637   4.402   3.201   3.117 -0.1688  0.3523  0.5059
 2392SOL    HW118638   4.451   3.145   3.056  0.8572  0.3673  1.3100
 2392SOL    HW218639   4.410   3.149   3.197  2.5517 -1.4264 -0.9102
 2393SOL     OW18640   3.779   2.812   4.160 -0.0878 -0.1634  1.0709
 2393SOL    HW118641   3.866   2.789   4.128  0.0748 -1.0644  2.1327
 2393SOL    HW218642   3.736   2.867   4.095  0.9082 -1.5177 -0.7397
 2394SOL     OW18643   1.461   2.803   8.019  0.0500 -0.3370  0.2425
 2394SOL    HW118644   1.431   2.716   7.991  0.5058  1.2729 -5.1513
 2394SOL    HW218645   1.396   2.852   7.968 -0.4231 -0.2078  0.9673
 2395SOL     OW18646   2.583   1.900   6.447 -1.0899  0.1774 -0.3707
 2395SOL    HW118647   2.524   1.824   6.446  0.6455 -1.1846  1.0596
 2395SOL    HW218648   2.670   1.860   6.444 -1.2493 -0.2413  0.7244
 2396SOL     OW18649   4.533   4.299  13.030  0.6314 -0.4937  0.0687
 2396SOL    HW118650   4.604   4.322  12.970  0.2245  1.8029  0.4534
 2396SOL    HW218651   4.570   4.213  13.049  1.2739  0.2897  2.3288
 2397SOL     OW18652   2.362   1.023   7.608  0.0142  0.1442  0.1648
 2397SOL    HW118653   2.398   1.085   7.672  0.0628 -0.3558  0.6264
 2397SOL    HW218654   2.439   0.970   7.585 -0.8806 -0.8693 -0.4664
 2398SOL     OW18655   4.199   4.423  14.709 -0.0453 -0.4599  0.0875
 2398SOL    HW118656   4.239   4.477  14.641  0.0007  1.0627  1.3509
 2398SOL    HW218657   4.227   4.341  14.668 -1.7531 -1.7872  1.5513
 2399SOL     OW18658   3.512   1.977  11.355  0.0844  0.0914  0.4561
 2399SOL    HW118659   3.579   1.972  11.423 -0.0448  2.7316  0.7785
 2399SOL    HW218660   3.560   1.923  11.291  0.0255  1.9024 -1.1187
 2400SOL     OW18661   2.330   0.050  15.070 -0.4469  0.2620 -0.8662
 2400SOL    HW118662   2.328   0.072  14.976  2.1816 -0.6319 -1.1369
 2400SOL    HW218663   2.405   4.716  15.080 -2.2983 -2.2745 -1.8530
 2401SOL     OW18664   3.109   2.480   1.691  0.1307  0.4409  0.4873
 2401SOL    HW118665   3.187   2.497   1.745  0.9668  0.4086 -0.7185
 2401SOL    HW218666   3.146   2.431   1.618 -1.6385 -2.1578  1.3091
 2402SOL     OW18667   3.638   3.721   4.138 -0.1715 -0.0520  0.1473
 2402SOL    HW118668   3.732   3.721   4.124 -0.2888  1.5444 -0.5645
 2402SOL    HW218669   3.624   3.712   4.232  0.9226  0.2660  0.3398
 2403SOL     OW18670   0.851   2.549  10.587  0.0608 -0.6638 -0.8450
 2403SOL    HW118671   0.775   2.493  10.576  0.2708 -1.0524 -0.3214
 2403SOL    HW218672   0.844   2.587  10.675  1.1372 -2.0246 -0.1747
 2404SOL     OW18673   0.016   1.568   8.674  0.2285  0.0003 -0.2433
 2404SOL    HW118674   0.004   1.481   8.635 -0.7698 -0.8527  1.9762
 2404SOL    HW218675   0.091   1.555   8.731 -0.2189 -0.0838  0.3246
 2405SOL     OW18676   0.567   2.615   6.024 -0.4004  0.2146 -0.0918
 2405SOL    HW118677   0.559   2.696   5.973  0.6071  0.4478  0.1078
 2405SOL    HW218678   0.599   2.550   5.962  0.0889 -0.5318  0.9387
 2406SOL     OW18679   3.734   0.338   1.768 -0.1783 -0.1485 -0.5831
 2406SOL    HW118680   3.829   0.331   1.782  0.0508  0.2683 -1.9303
 2406SOL    HW218681   3.704   0.251   1.794  0.7292 -0.2416  0.1760
 2407SOL     OW18682   1.112   1.706   8.304  0.0026  0.6176 -0.2154
 2407SOL    HW118683   1.061   1.759   8.365 -0.3089  1.0828 -0.8849
 2407SOL    HW218684   1.118   1.757   8.223  0.0746  1.6989  0.4817
 2408SOL     OW18685   2.164   2.595   4.916  0.3238 -0.3279 -0.9473
 2408SOL    HW118686   2.155   2.690   4.919 -0.7721 -0.4254 -1.1419
 2408SOL    HW218687   2.179   2.581   5.010 -0.1379 -0.1796 -0.8529
 2409SOL     OW18688   2.914   0.592   8.343 -0.5669  0.5580 -0.5716
 2409SOL    HW118689   2.821   0.575   8.356 -0.6974  2.0158  0.3440
 2409SOL    HW218690   2.945   0.641   8.419  0.8211 -0.8299 -0.2443
 2410SOL     OW18691   0.293   4.022   6.897 -0.4615 -0.0434 -0.5316
 2410SOL    HW118692   0.350   3.946   6.884 -0.9203 -0.2599 -1.2867
 2410SOL    HW218693   0.332   4.087   6.838  0.9950  0.2546  0.7606
 2411SOL     OW18694   2.254   1.510   6.990  0.7523  0.1207 -0.1693
 2411SOL    HW118695   2.275   1.467   6.907 -3.9359 -3.0811  0.3469
 2411SOL    HW218696   2.212   1.593   6.967 -2.4714 -1.8391 -1.3243
 2412SOL     OW18697   0.116   0.337   1.651  0.1898  0.0926  0.0485
 2412SOL    HW118698   0.187   0.296   1.601  0.0021  0.5653 -0.5915
 2412SOL    HW218699   0.165   0.390   1.714  0.3414 -0.2521  0.2243
 2413SOL     OW18700   2.245   2.932   7.299 -0.4072 -0.6985 -0.0259
 2413SOL    HW118701   2.219   2.912   7.209 -2.7443 -1.1880  0.7662
 2413SOL    HW218702   2.205   2.864   7.352  1.6932 -2.4913 -0.7272
 2414SOL     OW18703   2.970   1.731   8.160  0.1947  0.0990 -0.1951
 2414SOL    HW118704   3.048   1.779   8.186  1.5691 -0.9700 -2.3653
 2414SOL    HW218705   2.976   1.647   8.207  0.9795  0.3883  0.2206
 2415SOL     OW18706   4.256   4.521   8.902  0.0727 -0.5672  0.4685
 2415SOL    HW118707   4.255   4.526   8.806  2.7990  0.4916  0.4746
 2415SOL    HW218708   4.303   4.441   8.925  2.6856  1.2695  1.5874
 2416SOL     OW18709   1.627   1.774   8.122  0.1267  0.5540  0.3571
 2416SOL    HW118710   1.598   1.705   8.182  3.7045  0.1291  1.5671
 2416SOL    HW218711   1.703   1.731   8.085 -0.3987 -0.5251  0.5487
 2417SOL     OW18712   0.100   2.161   5.750  0.0818 -0.1108  0.1552
 2417SOL    HW118713   0.186   2.198   5.732  0.1879 -0.0941  0.6901
 2417SOL    HW218714   0.096   2.156   5.846  1.2307 -0.0834  0.2059
 2418SOL     OW18715   1.513   2.634   0.983 -0.1818  0.4150 -0.1593
 2418SOL    HW118716   1.555   2.720   0.985 -0.4849  0.5782 -1.0479
 2418SOL    HW218717   1.463   2.653   1.062 -1.9709 -1.7646 -0.7487
 2419SOL     OW18718   1.449   3.297  12.163  0.2386 -0.0402 -0.2392
 2419SOL    HW118719   1.537   3.333  12.154 -0.0507  0.5749 -0.6649
 2419SOL    HW218720   1.424   3.354  12.236 -0.1927  0.9945 -1.1927
 2420SOL     OW18721   3.286   4.106   8.532 -0.0133  0.0646 -0.0844
 2420SOL    HW118722   3.283   4.010   8.527 -1.6849  0.1204 -0.2948
 2420SOL    HW218723   3.357   4.118   8.595  0.9244  1.2960 -1.4005
 2421SOL     OW18724   4.031   1.450   2.214 -0.0981 -0.2048  0.7656
 2421SOL    HW118725   4.110   1.487   2.174  0.8299 -1.3096  1.6000
 2421SOL    HW218726   3.959   1.488   2.163  0.7274 -0.2788 -0.4745
 2422SOL     OW18727   2.546   3.278   3.143  0.7815  0.4611 -0.3963
 2422SOL    HW118728   2.609   3.245   3.208 -1.1299 -2.7761 -0.1936
 2422SOL    HW218729   2.488   3.206   3.119  1.2185  0.1492 -0.5216
 2423SOL     OW18730   3.993   4.526   0.045 -0.3891 -0.1517  0.0467
 2423SOL    HW118731   4.004   4.436   0.014  0.3335 -0.8460  2.3141
 2423SOL    HW218732   3.952   4.503   0.129 -2.1189  1.8140 -0.2699
 2424SOL     OW18733   3.061   1.248   5.775  0.0904 -0.1455 -0.2692
 2424SOL    HW118734   3.081   1.160   5.807  0.7846 -0.5761 -1.8577
 2424SOL    HW218735   3.080   1.292   5.857  1.7293 -2.8854  0.8330
 2425SOL     OW18736   2.392   4.695   1.078  1.1036  0.0688 -0.1692
 2425SOL    HW118737   2.391   4.694   1.174 -1.4130  0.8961 -0.1867
 2425SOL    HW218738   2.451   0.045   1.069  1.3972 -0.5183 -2.8814
 2426SOL     OW18739   2.390   4.083   4.239  0.6593 -0.2327  0.0486
 2426SOL    HW118740   2.387   4.179   4.248  3.2526 -0.0966 -0.5779
 2426SOL    HW218741   2.307   4.069   4.194  0.6618 -3.1020  0.9618
 2427SOL     OW18742   3.900   1.808   5.348 -0.1493 -0.7156  0.3540
 2427SOL    HW118743   3.881   1.714   5.346  0.0715 -0.7348 -0.9731
 2427SOL    HW218744   3.905   1.837   5.257 -2.5458 -1.2228  0.0490
 2428SOL     OW18745   1.558   4.584   3.945 -0.4790  0.3457  0.0310
 2428SOL    HW118746   1.534   4.495   3.968  1.5171  0.4017  2.2834
 2428SOL    HW218747   1.587   4.576   3.854 -2.8356  0.5232 -0.7172
 2429SOL     OW18748   4.220   1.119   9.070 -0.1526 -0.5666 -0.2332
 2429SOL    HW118749   4.293   1.066   9.100 -0.7123 -2.3349 -2.0002
 2429SOL    HW218750   4.251   1.148   8.984  0.2651  1.5975  0.6569
 2430SOL     OW18751   1.781   0.213  10.655 -0.1447 -0.0758 -0.1513
 2430SOL    HW118752   1.688   0.221  10.631  0.0198  1.8093 -0.2073
 2430SOL    HW218753   1.798   0.292  10.706  0.3739  0.4737 -1.1879
 2431SOL     OW18754   2.505   0.263   4.538 -0.7041  0.1262 -0.3790
 2431SOL    HW118755   2.447   0.323   4.586 -1.0215  0.5592 -1.3215
 2431SOL    HW218756   2.435   0.205   4.506 -0.1509 -1.5582  1.4227
 2432SOL     OW18757   2.567   1.784  16.788  0.5364  0.2580  0.1111
 2432SOL    HW118758   2.533   1.874  16.790  2.5119  0.9989  0.8573
 2432SOL    HW218759   2.501   1.744  16.731  0.5180  0.9755 -0.3837
 2433SOL     OW18760   2.310   4.482   9.131 -0.2679  0.7570 -0.1010
 2433SOL    HW118761   2.332   4.399   9.089 -0.2450  1.5201 -1.5863
 2433SOL    HW218762   2.218   4.498   9.109 -0.3647  1.4034  0.7611
 2434SOL     OW18763   0.707   0.766  16.003 -0.3141  0.1015  0.9955
 2434SOL    HW118764   0.802   0.769  16.017 -0.1196 -2.3658  0.1521
 2434SOL    HW218765   0.688   0.860  16.005 -1.5521 -0.1197 -0.1493
 2435SOL     OW18766   3.866   1.671  10.112 -0.0861 -0.2045 -0.6199
 2435SOL    HW118767   3.840   1.589  10.071  2.2613 -0.7486 -1.0160
 2435SOL    HW218768   3.782   1.718  10.115 -0.5478 -0.9528 -1.6890
 2436SOL     OW18769   1.482   2.011  10.888 -0.1663 -0.0078 -0.2310
 2436SOL    HW118770   1.570   1.986  10.917  0.2762  0.5695 -1.0956
 2436SOL    HW218771   1.496   2.041  10.798  2.5620  0.1334  0.2287
 2437SOL     OW18772   0.123   2.887   1.176 -0.2371 -0.2647  0.0105
 2437SOL    HW118773   0.120   2.977   1.209 -0.7876 -0.5876  0.8577
 2437SOL    HW218774   0.212   2.865   1.203 -1.4701 -0.1964  4.1607
 2438SOL     OW18775   0.653   2.118   2.989 -0.4612  0.1811  0.2105
 2438SOL    HW118776   0.604   2.190   2.948  0.9124  0.7937 -0.3986
 2438SOL    HW218777   0.662   2.047   2.925  0.0245  0.8226 -0.4376
 2439SOL     OW18778   2.320   1.759   4.201 -0.4245 -0.3167 -0.1426
 2439SOL    HW118779   2.330   1.784   4.293 -0.3502 -0.5150 -0.0976
 2439SOL    HW218780   2.367   1.830   4.157  1.4072  0.7056  3.4333
 2440SOL     OW18781   3.292   1.980  10.128  0.2632 -0.4975  0.2853
 2440SOL    HW118782   3.253   2.045  10.187 -0.6717 -1.8620  1.1850
 2440SOL    HW218783   3.256   1.996  10.041 -2.1461  2.4451  1.8120
 2441SOL     OW18784   2.459   2.281   0.911  0.4050  0.0883  0.7072
 2441SOL    HW118785   2.434   2.374   0.904 -0.5922 -0.2490 -0.1869
 2441SOL    HW218786   2.398   2.253   0.979 -0.7079 -0.7457 -0.6453
 2442SOL     OW18787   4.540   1.459  13.063  0.5238  0.1348  0.2330
 2442SOL    HW118788   4.613   1.503  13.107 -0.0869  0.4847  0.8933
 2442SOL    HW218789   4.472   1.516  13.099 -1.0415 -1.1051 -0.7185
 2443SOL     OW18790   0.819   0.401   4.113  0.3021 -0.2751  0.0378
 2443SOL    HW118791   0.845   0.310   4.099 -0.5812 -0.4178 -0.6451
 2443SOL    HW218792   0.875   0.448   4.051 -1.1068 -0.1870 -1.1523
 2444SOL     OW18793   0.931   4.300   5.812 -0.4819 -0.3585 -0.2831
 2444SOL    HW118794   1.015   4.278   5.852 -0.5226 -1.9306 -1.0959
 2444SOL    HW218795   0.885   4.217   5.805 -2.3499  0.6354  0.2233
 2445SOL     OW18796   0.168   4.551   2.160  0.1483 -0.0217  0.3247
 2445SOL    HW118797   0.213   4.527   2.079  1.2576  0.2189  0.8631
 2445SOL    HW218798   0.206   4.493   2.226 -0.5710  0.7630  1.4239
 2446SOL     OW18799   1.923   4.059   9.944 -0.4985 -0.2003 -0.0777
 2446SOL    HW118800   1.980   4.024  10.013 -0.1230 -0.4466 -0.5127
 2446SOL    HW218801   1.850   4.088   9.999 -0.5298 -1.3940  0.4937
 2447SOL     OW18802   2.623   3.140  11.301  0.0146  0.3271 -0.2928
 2447SOL    HW118803   2.647   3.180  11.385  0.2802  0.7430 -0.5663
 2447SOL    HW218804   2.614   3.209  11.235 -2.6161  0.5310  0.3089
 2448SOL     OW18805   1.146   3.176   0.042 -1.0414 -0.4863  0.9820
 2448SOL    HW118806   1.219   3.165   0.102 -0.6343  2.0670  0.9758
 2448SOL    HW218807   1.161   3.099  17.686 -0.4107  0.1608  0.2596
 2449SOL     OW18808   0.455   1.686  11.304 -0.1609  0.7122 -0.3717
 2449SOL    HW118809   0.502   1.608  11.331 -2.0008  0.8124  3.1036
 2449SOL    HW218810   0.401   1.680  11.382  1.9974  1.4823  1.1968
 2450SOL     OW18811   1.977   0.558   7.081  0.0627 -0.3071  0.2217
 2450SOL    HW118812   1.972   0.520   7.169 -2.1481  2.0944  1.1051
 2450SOL    HW218813   1.893   0.601   7.071  0.2604  0.3807  1.5463
 2451SOL     OW18814   4.401   4.263   9.002  0.0444 -0.2960  0.4546
 2451SOL    HW118815   4.449   4.346   9.012  0.3507 -0.3702 -0.4521
 2451SOL    HW218816   4.486   4.221   8.988  0.3045  0.7341 -1.1306
 2452SOL     OW18817   4.087   3.195   0.192 -0.0641 -0.2763 -0.2111
 2452SOL    HW118818   4.135   3.277   0.204 -2.1850  0.6212  2.2618
 2452SOL    HW218819   4.008   3.225   0.237 -0.0528 -0.0457 -0.3425
 2453SOL     OW18820   3.477   3.833  13.414 -0.1518 -0.7683  0.2187
 2453SOL    HW118821   3.419   3.838  13.489  0.1161  0.4120  0.3573
 2453SOL    HW218822   3.556   3.868  13.456 -1.3585  1.8701  0.3118
 2454SOL     OW18823   1.409   1.055  15.345  0.1000  0.2851  0.0026
 2454SOL    HW118824   1.383   1.147  15.348 -1.7390 -0.1806 -1.7241
 2454SOL    HW218825   1.485   1.072  15.288  0.2003 -0.1896 -0.0100
 2455SOL     OW18826   0.236   1.319   1.454  0.1568 -0.1017  0.0082
 2455SOL    HW118827   0.183   1.343   1.378  1.7568  1.6438 -0.5278
 2455SOL    HW218828   0.221   1.384   1.522 -0.5569 -1.5463  1.2410
 2456SOL     OW18829   1.472   3.283   8.814  0.1835  0.3130 -0.0836
 2456SOL    HW118830   1.426   3.288   8.897  0.0298 -2.3755 -0.0058
 2456SOL    HW218831   1.414   3.224   8.765  0.1222  2.0373 -2.0507
 2457SOL     OW18832   2.622   1.668   3.893  0.3762  0.9370  0.0653
 2457SOL    HW118833   2.676   1.747   3.899  0.1662  1.1899 -1.3544
 2457SOL    HW218834   2.556   1.702   3.833 -0.2142 -0.4895 -0.0977
 2458SOL     OW18835   4.177   3.599   2.219  0.6956  0.1282 -0.6334
 2458SOL    HW118836   4.222   3.684   2.228  0.5504  0.4057 -2.6721
 2458SOL    HW218837   4.245   3.535   2.197  1.7160  1.1751 -0.5663
 2459SOL     OW18838   1.385   3.380   8.458  0.5617 -0.1761 -0.1466
 2459SOL    HW118839   1.385   3.289   8.429 -0.9661 -0.0181 -0.6435
 2459SOL    HW218840   1.463   3.385   8.514 -0.1411 -0.8492  0.8818
 2460SOL     OW18841   1.571   1.781   3.650  0.1173  0.1746 -0.2760
 2460SOL    HW118842   1.485   1.799   3.688 -0.1151 -0.3243 -0.5563
 2460SOL    HW218843   1.555   1.813   3.560  0.2989  1.2407  0.0655
 2461SOL     OW18844   0.146   2.938   5.285  0.2420 -0.0742 -0.2267
 2461SOL    HW118845   0.181   2.938   5.196  0.6893  1.9322 -0.0558
 2461SOL    HW218846   0.055   2.920   5.265 -0.1229  0.7312  0.6876
 2462SOL     OW18847   0.269   0.345   5.867 -0.5706 -0.0134 -0.2914
 2462SOL    HW118848   0.176   0.355   5.852 -0.8898 -0.4929  1.3443
 2462SOL    HW218849   0.287   0.433   5.835  0.0110 -1.0741 -2.9196
 2463SOL     OW18850   0.388   0.596   8.205 -0.0583 -0.5754 -0.4783
 2463SOL    HW118851   0.436   0.519   8.174 -0.0592 -1.8801  2.8270
 2463SOL    HW218852   0.448   0.665   8.178 -1.0675  0.3604 -0.3073
 2464SOL     OW18853   1.363   0.554  15.519 -0.4403 -0.4128  0.1315
 2464SOL    HW118854   1.335   0.596  15.601  1.3043  0.0992  0.4621
 2464SOL    HW218855   1.286   0.531  15.467 -1.3561  0.0069  1.2941
 2465SOL     OW18856   3.728   1.732  12.160  0.7651  0.2128  0.2198
 2465SOL    HW118857   3.637   1.701  12.167  0.7545 -0.0603 -1.2143
 2465SOL    HW218858   3.729   1.803  12.096  0.0650 -1.1412 -1.2902
 2466SOL     OW18859   2.198   3.368   2.750  0.6369 -0.3497  0.1315
 2466SOL    HW118860   2.113   3.405   2.775 -0.2279 -1.2675 -1.4661
 2466SOL    HW218861   2.251   3.446   2.763  0.2355  0.1361 -1.2376
 2467SOL     OW18862   2.381   4.414   1.916 -0.0415  0.2749 -0.5035
 2467SOL    HW118863   2.417   4.435   1.830 -0.1339 -0.9862 -0.8451
 2467SOL    HW218864   2.346   4.501   1.935  0.7343  0.3720  0.4485
 2468SOL     OW18865   0.635   2.179   2.242  0.1507 -0.0479 -0.5180
 2468SOL    HW118866   0.728   2.196   2.228  0.6419 -2.1152  0.2288
 2468SOL    HW218867   0.601   2.210   2.158 -1.6415  0.6771  0.4654
 2469SOL     OW18868   1.851   3.713   2.558  0.3415 -0.2533  0.3204
 2469SOL    HW118869   1.859   3.733   2.465  3.0325  0.1887  0.6315
 2469SOL    HW218870   1.933   3.746   2.596  1.2201 -0.4633 -1.4116
 2470SOL     OW18871   1.857   2.608   8.472 -0.1011 -0.2020 -0.2544
 2470SOL    HW118872   1.883   2.563   8.552 -0.2884  0.5612  0.2398
 2470SOL    HW218873   1.762   2.596   8.472  0.2195 -2.7339 -0.8680
 2471SOL     OW18874   1.071   1.471  11.424 -0.1028  0.0417 -0.2136
 2471SOL    HW118875   1.052   1.508  11.338  0.8675  0.9734 -0.0268
 2471SOL    HW218876   1.024   1.388  11.418  0.8771 -0.6109  1.4597
 2472SOL     OW18877   0.368   3.510   4.305  0.0226  0.3602 -0.4440
 2472SOL    HW118878   0.453   3.553   4.308  0.6124 -0.9342  1.1484
 2472SOL    HW218879   0.395   3.437   4.249  0.4665 -1.8574  2.7113
 2473SOL     OW18880   3.317   2.390   1.501  0.2238  0.3271  0.5212
 2473SOL    HW118881   3.324   2.295   1.510 -0.9900  0.4968  3.0761
 2473SOL    HW218882   3.404   2.418   1.472 -0.3245 -0.2007 -1.6140
 2474SOL     OW18883   0.393   0.074  16.615  0.1452  0.7200 -0.0308
 2474SOL    HW118884   0.372   0.103  16.527 -2.0050  1.5452  0.7502
 2474SOL    HW218885   0.343   0.111  16.689  2.5573  1.3809  1.2592
 2475SOL     OW18886   0.083   3.806   6.190 -0.0257 -0.5346  0.4657
 2475SOL    HW118887   0.061   3.714   6.196 -2.1547 -0.1294 -1.2157
 2475SOL    HW218888   0.059   3.830   6.280  0.4941 -1.7302  0.9123
 2476SOL     OW18889   4.720   1.807   1.548 -0.2171  0.0081 -0.1299
 2476SOL    HW118890   4.680   1.893   1.535 -1.0555 -0.6540 -2.0002
 2476SOL    HW218891   4.702   1.804   1.642  0.1086  0.4952 -0.0514
 2477SOL     OW18892   1.480   3.774  11.962  0.0337 -0.3134 -0.2618
 2477SOL    HW118893   1.401   3.731  11.994 -1.1446  0.4834 -2.0778
 2477SOL    HW218894   1.456   3.865  11.981 -0.6963 -0.1941 -1.8252
 2478SOL     OW18895   1.009   0.852   3.564  0.0314 -0.1750 -0.8755
 2478SOL    HW118896   0.924   0.885   3.536  0.4418 -1.0374 -3.2054
 2478SOL    HW218897   0.996   0.757   3.562 -2.8235  0.2034  0.5700
 2479SOL     OW18898   1.824   4.005   9.207 -0.3596  0.0172 -0.1408
 2479SOL    HW118899   1.729   4.006   9.203 -0.3928  0.7935  0.9337
 2479SOL    HW218900   1.848   4.086   9.251  0.4470 -0.5510  0.4843
 2480SOL     OW18901   0.953   1.973   4.718  0.3618 -0.3518 -0.7011
 2480SOL    HW118902   0.902   1.917   4.776  1.1167  0.2826  0.5848
 2480SOL    HW218903   1.023   2.004   4.776 -1.2362  0.0103  1.0193
 2481SOL     OW18904   2.438   1.339   2.067  0.0108 -0.1771 -0.0047
 2481SOL    HW118905   2.502   1.354   2.136 -1.1765 -1.4324  1.3821
 2481SOL    HW218906   2.461   1.262   2.015  0.4388  0.7055 -1.1188
 2482SOL     OW18907   2.131   2.029   5.138 -0.6791  0.1916  0.6239
 2482SOL    HW118908   2.086   2.095   5.190  0.0032  0.9034  0.2994
 2482SOL    HW218909   2.130   2.066   5.050  2.2166 -3.9455 -1.1417
 2483SOL     OW18910   2.768   4.194   9.131  0.2946 -0.1184 -0.5864
 2483SOL    HW118911   2.815   4.274   9.155  2.8366 -2.4482  2.2045
 2483SOL    HW218912   2.691   4.223   9.083 -1.0250 -0.9064  1.0507
 2484SOL     OW18913   3.336   0.397   6.864 -0.1961  0.3571 -0.6569
 2484SOL    HW118914   3.272   0.343   6.817  0.3399 -0.9498  0.1325
 2484SOL    HW218915   3.279   0.440   6.927 -1.9505 -2.6931 -0.1758
 2485SOL     OW18916   0.918   3.044   7.341  0.0442 -0.1258 -0.1472
 2485SOL    HW118917   0.996   3.094   7.317  0.7449 -0.5634  1.2194
 2485SOL    HW218918   0.911   3.050   7.437 -0.7178  1.7477 -0.3145
 2486SOL     OW18919   2.450   2.672   6.969  0.5917  0.1589 -0.2741
 2486SOL    HW118920   2.512   2.695   7.039  2.4083 -0.1913 -1.7699
 2486SOL    HW218921   2.364   2.668   7.011 -0.7948  0.9756 -3.0474
 2487SOL     OW18922   0.498   0.371  11.380 -0.1009 -0.0531  0.1693
 2487SOL    HW118923   0.475   0.278  11.384 -0.0611  0.0230  2.3609
 2487SOL    HW218924   0.581   0.360  11.428  0.6696 -2.9647 -1.8621
 2488SOL     OW18925   0.709   3.904  15.663  0.0907  0.3900  0.1034
 2488SOL    HW118926   0.666   3.925  15.746  0.6119 -0.1798  0.5186
 2488SOL    HW218927   0.787   3.960  15.666  0.9592 -0.8826  2.0465
 2489SOL     OW18928   2.440   1.212   7.770  0.8569 -0.4954 -0.0066
 2489SOL    HW118929   2.464   1.300   7.739  2.9017  0.2680  3.7139
 2489SOL    HW218930   2.439   1.235   7.863 -1.9026  1.2840 -0.4985
 2490SOL     OW18931   3.586   1.772   6.066  0.1477  0.1545  0.1191
 2490SOL    HW118932   3.564   1.850   6.014 -1.0870 -0.5711 -0.4415
 2490SOL    HW218933   3.677   1.776   6.094 -0.2019  2.2331  1.0021
 2491SOL     OW18934   0.617   1.876  10.824  0.2323  0.0158 -0.5863
 2491SOL    HW118935   0.629   1.806  10.889 -1.1146  1.7511  1.5215
 2491SOL    HW218936   0.534   1.915  10.850  0.5040  0.7306 -0.7904
 2492SOL     OW18937   3.268   4.225   5.488  0.8640 -0.0657 -0.6151
 2492SOL    HW118938   3.240   4.136   5.510 -0.5443 -0.0473 -2.3661
 2492SOL    HW218939   3.189   4.250   5.441 -1.2609 -0.6377  2.6958
 2493SOL     OW18940   2.687   1.793   5.678  0.3565  0.3558 -0.5427
 2493SOL    HW118941   2.617   1.750   5.628 -0.2928  0.2068  0.4951
 2493SOL    HW218942   2.675   1.756   5.765 -0.0688  2.3018  0.2144
 2494SOL     OW18943   1.405   4.631   8.106  0.1422 -0.0001  0.3153
 2494SOL    HW118944   1.496   4.658   8.119  1.5510 -3.8272 -1.6003
 2494SOL    HW218945   1.362   4.708   8.143 -0.0582  0.3588 -0.6646
 2495SOL     OW18946   3.402   3.468   7.026 -0.3281 -0.3089 -0.4153
 2495SOL    HW118947   3.350   3.548   7.015 -0.4045 -0.1812  0.9296
 2495SOL    HW218948   3.429   3.450   6.936  1.5727  0.1330  0.0605
 2496SOL     OW18949   2.122   1.545   6.305  0.8880  0.1258  0.2354
 2496SOL    HW118950   2.126   1.621   6.247  1.2689 -0.0428  0.0380
 2496SOL    HW218951   2.136   1.596   6.385 -3.7715  1.0539  0.4332
 2497SOL     OW18952   2.185   2.529   5.755 -0.2836  0.2489  0.6731
 2497SOL    HW118953   2.151   2.449   5.717  0.8499  1.2567 -2.4104
 2497SOL    HW218954   2.208   2.498   5.843  0.4437 -1.8470 -0.2617
 2498SOL     OW18955   4.379   0.087   2.857  0.1766 -0.0743  0.4555
 2498SOL    HW118956   4.469   0.119   2.849  0.6738 -1.3302  0.9906
 2498SOL    HW218957   4.395   0.038   2.937  1.6668  1.7932  1.3051
 2499SOL     OW18958   4.659   1.593  14.554  0.1587 -0.9192  0.2305
 2499SOL    HW118959   4.660   1.633  14.641  0.4268  1.3818 -0.8117
 2499SOL    HW218960   4.568   1.563  14.551 -0.4236  0.6901  1.5916
 2500SOL     OW18961   2.605   4.277  12.562 -0.6382  0.3891 -0.0765
 2500SOL    HW118962   2.525   4.307  12.518 -1.1091 -1.0490 -0.1876
 2500SOL    HW218963   2.676   4.324  12.518  2.1985 -1.3491  2.6103
 2501SOL     OW18964   2.847   0.373   4.459  0.2390 -0.2111  0.6813
 2501SOL    HW118965   2.860   0.353   4.366 -2.5778  0.0061  0.2257
 2501SOL    HW218966   2.913   0.439   4.480  0.3596  0.3512 -1.4971
 2502SOL     OW18967   1.576   3.219   7.921 -0.8789  0.1657  0.1372
 2502SOL    HW118968   1.649   3.281   7.927 -0.9726  0.5390 -2.6225
 2502SOL    HW218969   1.625   3.150   7.877 -1.4555 -0.8397  1.0776
 2503SOL     OW18970   3.903   3.059   7.070  0.3904  0.1678  0.0263
 2503SOL    HW118971   3.889   3.109   6.990  1.1428 -0.9692 -0.8099
 2503SOL    HW218972   3.904   3.135   7.128  1.3336 -0.0724  0.3253
 2504SOL     OW18973   0.124   4.073   8.805  0.3782  0.0527 -0.2042
 2504SOL    HW118974   0.146   4.157   8.845  2.8383 -1.3114  1.3804
 2504SOL    HW218975   0.038   4.046   8.837  0.7150  0.4768  1.0859
 2505SOL     OW18976   0.303   4.337   5.628  0.1437  0.2289 -0.1123
 2505SOL    HW118977   0.301   4.242   5.637 -1.0991  0.2294 -0.2843
 2505SOL    HW218978   0.390   4.344   5.590 -0.2312 -1.1221 -1.2229
 2506SOL     OW18979   1.378   0.760   1.392  0.4655  0.3412  0.3556
 2506SOL    HW118980   1.403   0.672   1.362 -1.9437  0.1228 -0.9692
 2506SOL    HW218981   1.295   0.732   1.431 -1.4083  1.4308 -2.8597
 2507SOL     OW18982   0.077   2.883   6.052  0.1287 -0.1697  0.2063
 2507SOL    HW118983   0.053   2.975   6.051 -1.2639 -0.5514 -1.9891
 2507SOL    HW218984   0.169   2.873   6.075  0.7595  2.5729 -1.2132
 2508SOL     OW18985   2.253   1.422   5.201  0.4366 -0.1554  0.0657
 2508SOL    HW118986   2.323   1.418   5.135  0.6511  0.0793  0.2784
 2508SOL    HW218987   2.228   1.512   5.176 -0.8888 -0.3342  0.7747
 2509SOL     OW18988   0.169   2.079  13.721  0.2122  0.1414  0.7676
 2509SOL    HW118989   0.109   2.029  13.777  1.7446 -1.3184  1.1061
 2509SOL    HW218990   0.108   2.138  13.677 -1.3664  0.2326  3.0461
 2510SOL     OW18991   3.709   1.077  13.051 -0.0736 -0.3858  0.0539
 2510SOL    HW118992   3.755   1.153  13.014  0.7677  0.1404  2.2229
 2510SOL    HW218993   3.720   1.093  13.144 -0.3457 -2.6566  0.4774
 2511SOL     OW18994   4.546   1.285   0.666  0.9388  0.1679  0.2376
 2511SOL    HW118995   4.501   1.202   0.685 -0.1749  0.8492  0.5786
 2511SOL    HW218996   4.535   1.330   0.749  1.0098  0.0095  0.3332
 2512SOL     OW18997   2.301   2.283   6.512  0.0679  0.5583  0.4804
 2512SOL    HW118998   2.275   2.308   6.424  2.2638  1.2639  0.0348
 2512SOL    HW218999   2.218   2.249   6.548 -0.0992 -1.2658 -1.6859
 2513SOL     OW19000   3.015   2.591  12.775  0.0965 -0.2085  0.0885
 2513SOL    HW119001   2.945   2.613  12.713  0.3618 -0.5213 -0.3166
 2513SOL    HW219002   3.074   2.549  12.713  0.7496  2.0890 -0.8540
 2514SOL     OW19003   1.304   3.095   1.648 -0.2123  0.1890  0.3239
 2514SOL    HW119004   1.374   3.034   1.671  1.3688  2.0125  0.3873
 2514SOL    HW219005   1.227   3.063   1.695  1.2084 -2.7531  0.6478
 2515SOL     OW19006   3.726   0.223   2.592 -0.0099  0.2268  0.0473
 2515SOL    HW119007   3.707   0.134   2.620 -0.9981  1.4727  3.3247
 2515SOL    HW219008   3.643   0.265   2.614 -0.9984 -1.4073 -0.5326
 2516SOL     OW19009   3.763   4.591   4.114 -0.2108  0.3732 -0.3159
 2516SOL    HW119010   3.732   4.537   4.042 -0.7237 -0.1651  0.3027
 2516SOL    HW219011   3.853   4.561   4.115 -1.1607 -2.5083 -1.9600
 2517SOL     OW19012   1.731   0.074   9.803 -0.2949  0.1205  0.0066
 2517SOL    HW119013   1.740   4.711   9.765 -0.7755 -0.9627  2.3885
 2517SOL    HW219014   1.821   0.103   9.818 -0.9431  1.6692  0.9069
 2518SOL     OW19015   0.308   0.650   9.679 -0.5013 -0.3595  0.5717
 2518SOL    HW119016   0.360   0.585   9.633  1.7495  0.6547  1.7027
 2518SOL    HW219017   0.356   0.646   9.762 -1.0764 -0.3544  0.9120
 2519SOL     OW19018   0.446   0.634   2.222  0.4134  0.7070  0.0350
 2519SOL    HW119019   0.432   0.540   2.237  2.5072  0.0515 -2.1409
 2519SOL    HW219020   0.399   0.672   2.297  1.2444  0.4593  0.6841
 2520SOL     OW19021   3.713   0.597  17.270  0.5005  0.7162  0.2924
 2520SOL    HW119022   3.759   0.671  17.311  1.5342  0.0930  0.2487
 2520SOL    HW219023   3.653   0.644  17.212 -1.2873 -0.8718  0.8186
 2521SOL     OW19024   3.009   1.559   2.501  0.0008  0.2600  0.7081
 2521SOL    HW119025   2.947   1.574   2.430 -0.6131 -1.6898  0.8096
 2521SOL    HW219026   3.089   1.600   2.469  0.1219 -0.1377  0.4907
 2522SOL     OW19027   3.281   2.762   6.353  0.2122  0.0321  0.0896
 2522SOL    HW119028   3.313   2.677   6.384  0.5440 -0.2662 -1.0939
 2522SOL    HW219029   3.205   2.740   6.300 -0.2648  1.4138  0.1856
 2523SOL     OW19030   2.565   1.323   4.106 -0.5959 -0.7136 -0.2022
 2523SOL    HW119031   2.554   1.228   4.095  3.0973 -1.2413  0.7160
 2523SOL    HW219032   2.560   1.361   4.018  0.7607 -2.9938 -1.2828
 2524SOL     OW19033   3.553   3.876   5.845  0.3244  0.0062  0.0996
 2524SOL    HW119034   3.628   3.921   5.806  1.3143 -1.2454  0.5851
 2524SOL    HW219035   3.513   3.950   5.891 -1.2935 -0.5240 -0.4763
 2525SOL     OW19036   0.162   1.173  13.590 -0.2256 -0.0056  0.7014
 2525SOL    HW119037   0.187   1.130  13.672  2.1099  1.8093  0.9676
 2525SOL    HW219038   0.250   1.197  13.561 -0.7567  0.5178 -0.4618
 2526SOL     OW19039   4.535   3.928  17.373  0.3737 -0.6361  0.9878
 2526SOL    HW119040   4.596   3.857  17.387 -0.6167 -0.9098  3.8206
 2526SOL    HW219041   4.565   3.959  17.287  0.9706 -4.9624 -0.3445
 2527SOL     OW19042   0.499   0.591  16.701  0.7956  0.4499 -0.2450
 2527SOL    HW119043   0.408   0.574  16.676  1.1674 -2.9102  0.7305
 2527SOL    HW219044   0.508   0.539  16.781  0.1350 -0.3736 -0.7099
 2528SOL     OW19045   2.437   0.246  14.032 -0.2581  0.3662  0.0906
 2528SOL    HW119046   2.434   0.341  14.044 -0.1360  0.6636 -2.2691
 2528SOL    HW219047   2.356   0.230  14.081  0.6618 -0.3181  1.3749
 2529SOL     OW19048   4.429   0.044  14.980 -0.4193 -0.5500 -0.1389
 2529SOL    HW119049   4.462   0.018  15.066 -1.8698  1.2073  0.9407
 2529SOL    HW219050   4.412   4.683  14.940 -1.8446 -1.0710  1.5921
 2530SOL     OW19051   4.414   2.546  13.200  0.4843 -0.5219 -0.2016
 2530SOL    HW119052   4.319   2.554  13.206  0.9035  2.3782  2.1403
 2530SOL    HW219053   4.436   2.618  13.258 -0.4790  0.5676 -1.1983
 2531SOL     OW19054   1.719   2.230   8.630 -0.4066 -0.0044  0.7453
 2531SOL    HW119055   1.638   2.219   8.579  0.9439 -0.4996 -1.2662
 2531SOL    HW219056   1.721   2.151   8.684 -2.1213  0.3056  1.2965
 2532SOL     OW19057   4.475   4.158   8.292 -0.3632  0.6566 -0.4602
 2532SOL    HW119058   4.467   4.220   8.219  0.8598  0.6049 -0.6399
 2532SOL    HW219059   4.567   4.172   8.317 -0.1597 -0.6363 -0.4965
 2533SOL     OW19060   3.522   4.318   6.763 -0.1565 -0.4999 -0.3127
 2533SOL    HW119061   3.605   4.347   6.723  0.5924  0.8302  2.2475
 2533SOL    HW219062   3.482   4.404   6.771  0.0577 -0.2430 -1.8606
 2534SOL     OW19063   3.172   0.498   8.687  0.4339  0.4103 -0.7288
 2534SOL    HW119064   3.169   0.408   8.653 -0.0019 -0.0198  0.4634
 2534SOL    HW219065   3.263   0.521   8.667  1.2076 -1.2327  0.8668
 2535SOL     OW19066   3.205   2.110   8.923 -0.3299 -0.8280  1.0219
 2535SOL    HW119067   3.221   2.018   8.948  2.2671 -0.1261  1.9410
 2535SOL    HW219068   3.258   2.103   8.843 -1.0637 -2.7784  0.7047
 2536SOL     OW19069   1.000   1.675   6.534  0.1943 -0.6686  0.9011
 2536SOL    HW119070   1.082   1.626   6.538  0.0996 -0.9844 -1.1697
 2536SOL    HW219071   1.012   1.744   6.470  1.1159 -0.1897  1.5980
 2537SOL     OW19072   3.519   0.277   3.639  0.0340  0.4942 -0.7478
 2537SOL    HW119073   3.493   0.188   3.614 -3.7461  1.9031 -1.8426
 2537SOL    HW219074   3.535   0.265   3.732  3.1832  2.3153 -1.0327
 2538SOL     OW19075   3.895   2.352   1.587 -0.1938  0.0895 -0.1018
 2538SOL    HW119076   3.856   2.355   1.500 -0.6970 -1.6750  0.0732
 2538SOL    HW219077   3.834   2.411   1.632  0.6162  1.3776 -0.7050
 2539SOL     OW19078   3.413   2.390   6.435 -0.3310 -0.2538  0.1735
 2539SOL    HW119079   3.496   2.347   6.455  0.3220  0.1483 -1.7054
 2539SOL    HW219080   3.411   2.466   6.494 -1.2400  0.2451 -0.5094
 2540SOL     OW19081   0.175   3.135   2.453 -0.3588  0.1487  0.5973
 2540SOL    HW119082   0.098   3.188   2.431 -0.8818 -0.1995  1.5795
 2540SOL    HW219083   0.245   3.181   2.407 -0.8997  1.1908  0.7966
 2541SOL     OW19084   2.206   4.088   6.882  0.1713  0.1120 -0.4593
 2541SOL    HW119085   2.227   4.002   6.918 -0.9566 -0.4955 -1.2454
 2541SOL    HW219086   2.249   4.152   6.938  3.0064 -1.2275 -1.1300
 2542SOL     OW19087   1.664   2.977  11.306  0.0554 -0.1523 -0.3807
 2542SOL    HW119088   1.576   2.964  11.269 -0.8011  0.7306  1.3491
 2542SOL    HW219089   1.716   2.932  11.240 -2.7924 -2.9761 -0.6856
 2543SOL     OW19090   1.947   4.109  17.231 -0.2429 -0.1713  0.2135
 2543SOL    HW119091   1.914   4.034  17.281 -0.4380  0.0100  0.3559
 2543SOL    HW219092   2.015   4.136  17.292 -0.9296  1.4615  0.2396
 2544SOL     OW19093   1.689   3.010   4.364  0.3260 -0.0512  0.2591
 2544SOL    HW119094   1.623   3.024   4.431 -1.2198 -2.0970 -0.8325
 2544SOL    HW219095   1.719   3.097   4.337  1.8594 -0.4696  0.5706
 2545SOL     OW19096   3.368   2.356  13.625 -0.0090  0.3093  0.0135
 2545SOL    HW119097   3.316   2.374  13.547 -1.8886 -0.2127  1.1353
 2545SOL    HW219098   3.435   2.421  13.604  0.3063 -0.7393 -2.1875
 2546SOL     OW19099   2.789   1.015   2.367 -0.0087  0.6289  0.7512
 2546SOL    HW119100   2.752   0.927   2.380  1.2214  0.0507  0.2945
 2546SOL    HW219101   2.703   1.057   2.355  0.6016  1.6330 -0.0829
 2547SOL     OW19102   1.451   2.249  12.210  0.1131  0.0144  0.5212
 2547SOL    HW119103   1.384   2.237  12.277  0.0830  0.5625  0.5959
 2547SOL    HW219104   1.381   2.270  12.147 -1.0111 -1.7642  1.1900
 2548SOL     OW19105   0.341   0.196   8.590 -0.1137  0.0973 -0.1712
 2548SOL    HW119106   0.336   0.183   8.495 -2.3978 -1.1772  0.1156
 2548SOL    HW219107   0.410   0.134   8.613 -0.6501 -0.2005  0.6669
 2549SOL     OW19108   1.910   4.348   1.782  0.1739  0.2620  0.0177
 2549SOL    HW119109   1.841   4.400   1.739  0.4070  0.5825  0.0329
 2549SOL    HW219110   1.989   4.350   1.728  1.1419  0.9760  1.4650
 2550SOL     OW19111   3.400   4.666   8.786 -0.1338 -0.3139 -0.5126
 2550SOL    HW119112   3.397   4.692   8.694  0.0636  2.3802  0.2421
 2550SOL    HW219113   3.492   4.644   8.801  0.2316  1.1649 -0.6777
 2551SOL     OW19114   1.149   1.479   5.762 -0.1195  0.2581  0.3627
 2551SOL    HW119115   1.169   1.415   5.830 -1.1583  1.5455  1.8839
 2551SOL    HW219116   1.076   1.524   5.806 -1.2396  1.1032 -2.3835
 2552SOL     OW19117   1.600   1.646   8.692  0.2002 -0.3677 -0.2521
 2552SOL    HW119118   1.686   1.651   8.733  0.1411 -1.6363  0.0263
 2552SOL    HW219119   1.587   1.733   8.654  1.2539  0.1566  0.5985
 2553SOL     OW19120   3.521   3.666   0.186 -0.1726  0.4678 -0.4348
 2553SOL    HW119121   3.487   3.644   0.098  4.0063  0.5968 -2.0639
 2553SOL    HW219122   3.469   3.745   0.204  0.7391  1.0797 -0.4787
 2554SOL     OW19123   3.566   0.131   7.728  0.2688  0.2325 -0.4534
 2554SOL    HW119124   3.643   0.186   7.714  1.3028 -1.2864 -0.7497
 2554SOL    HW219125   3.568   0.083   7.645  0.2838 -1.3985  0.4747
 2555SOL     OW19126   0.576   4.233   7.122 -0.0823 -0.0801 -0.0617
 2555SOL    HW119127   0.594   4.254   7.030  0.4888  2.4538  0.6093
 2555SOL    HW219128   0.582   4.138   7.123 -3.5214 -0.2917 -0.5602
 2556SOL     OW19129   2.348   1.414   9.657 -0.2529  0.2461  0.9384
 2556SOL    HW119130   2.336   1.350   9.727 -1.3957  0.6279  1.0875
 2556SOL    HW219131   2.345   1.495   9.707 -1.4098  0.1461  1.0300
 2557SOL     OW19132   4.376   1.657  16.991  0.6862  0.2069 -0.1814
 2557SOL    HW119133   4.376   1.569  17.029 -1.7140  1.5859  2.9673
 2557SOL    HW219134   4.464   1.658  16.953  1.0424 -0.4034  0.6245
 2558SOL     OW19135   0.014   4.665  13.501  0.0424 -0.6749  0.4148
 2558SOL    HW119136   0.074   4.679  13.575  0.4422 -1.1540  0.1734
 2558SOL    HW219137   4.678   4.619  13.559 -1.3657  0.7776  0.1261
 2559SOL     OW19138   3.326   1.937  13.254  0.2809  0.0919 -0.1102
 2559SOL    HW119139   3.277   1.985  13.187 -0.7434  1.8441  1.9112
 2559SOL    HW219140   3.331   1.997  13.328  0.2879  0.4736 -0.4174
 2560SOL     OW19141   3.196   0.295   9.403  0.4144 -0.0790  0.3347
 2560SOL    HW119142   3.229   0.297   9.313  0.9211 -2.1353  0.4805
 2560SOL    HW219143   3.282   0.309   9.442  1.0439 -1.6462 -0.4833
 2561SOL     OW19144   3.929   2.567  15.959 -0.1546 -0.5925 -0.2464
 2561SOL    HW119145   3.980   2.595  15.884  0.7691 -1.0194  0.2186
 2561SOL    HW219146   3.921   2.474  15.939  0.5855 -0.5687 -0.6571
 2562SOL     OW19147   0.039   0.575  13.073 -0.0774  0.0276 -0.6288
 2562SOL    HW119148   4.720   0.534  13.147  1.6152  1.6356  1.2477
 2562SOL    HW219149   4.718   0.535  12.998  0.1195 -0.3498 -0.5477
 2563SOL     OW19150   3.590   2.186  10.964  0.2726  0.4797  0.0829
 2563SOL    HW119151   3.645   2.199  10.886  0.8693 -0.8739  0.2723
 2563SOL    HW219152   3.521   2.132  10.924 -0.5991  1.1837  0.6423
 2564SOL     OW19153   3.746   1.639   9.205 -0.7291 -0.1121 -0.4270
 2564SOL    HW119154   3.677   1.574   9.220  0.1949 -0.6163  1.6484
 2564SOL    HW219155   3.812   1.591   9.155 -1.8737 -3.1039  0.9196
 2565SOL     OW19156   3.806   0.956   8.464 -0.0812  0.3355 -0.1754
 2565SOL    HW119157   3.832   0.913   8.545  0.5642  1.6332  0.3128
 2565SOL    HW219158   3.849   1.041   8.480  3.3532 -1.3328 -0.4962
 2566SOL     OW19159   1.304   0.182   6.899  0.1192 -0.2828 -0.1857
 2566SOL    HW119160   1.268   0.095   6.880 -0.4458  0.0512 -0.6464
 2566SOL    HW219161   1.298   0.170   6.994 -1.1510  1.1338 -0.0904
 2567SOL     OW19162   3.511   0.487  17.470 -0.0182  0.4926  0.0031
 2567SOL    HW119163   3.571   0.444  17.530  0.3569  0.9357 -0.0492
 2567SOL    HW219164   3.561   0.564  17.440 -2.2332  0.4945 -3.7429
 2568SOL     OW19165   3.410   2.282   2.684  0.1400  0.0689  0.2424
 2568SOL    HW119166   3.488   2.268   2.630 -0.7240 -0.7231 -0.7857
 2568SOL    HW219167   3.454   2.294   2.768 -2.6983 -2.8907  2.1785
 2569SOL     OW19168   1.330   2.114   3.999  0.2202  0.9136  0.2792
 2569SOL    HW119169   1.261   2.162   3.954  0.4052  2.5550  1.7462
 2569SOL    HW219170   1.329   2.159   4.083  0.8041  0.5500  0.4841
 2570SOL     OW19171   0.657   3.303   8.230  0.1531  0.1651 -0.3710
 2570SOL    HW119172   0.574   3.256   8.225 -0.9459  2.2875 -2.5367
 2570SOL    HW219173   0.724   3.237   8.249 -0.2031 -0.5283 -1.4800
 2571SOL     OW19174   0.945   2.009  14.314  0.6392  0.6505 -0.0786
 2571SOL    HW119175   0.991   2.072  14.369  0.5783 -1.3011  2.1954
 2571SOL    HW219176   0.862   2.056  14.303  1.1917  1.6411 -0.0017
 2572SOL     OW19177   3.870   3.451   2.671 -0.1032  0.2122  0.2175
 2572SOL    HW119178   3.778   3.451   2.644  0.3330  2.2584 -1.2948
 2572SOL    HW219179   3.875   3.409   2.756  2.3760 -0.4165 -0.2329
 2573SOL     OW19180   0.215   3.553   0.554  0.0355  0.2319  0.1127
 2573SOL    HW119181   0.282   3.487   0.576  1.4636  1.2866 -1.0713
 2573SOL    HW219182   0.191   3.520   0.468 -0.3736  0.2448  0.2242
 2574SOL     OW19183   1.350   2.576  15.475  0.1715 -0.8021 -0.2698
 2574SOL    HW119184   1.367   2.668  15.492  2.4770 -1.0875 -1.0224
 2574SOL    HW219185   1.429   2.563  15.423  0.1362  1.3330 -0.8459
 2575SOL     OW19186   3.240   4.696   8.154  0.2116  0.0184 -0.3127
 2575SOL    HW119187   3.235   4.676   8.061  0.0382 -0.7586 -0.1388
 2575SOL    HW219188   3.152   0.010   8.149  0.5645  0.7787 -0.5778
 2576SOL     OW19189   1.403   4.216   4.643  0.2403  0.2359 -0.1217
 2576SOL    HW119190   1.377   4.147   4.704  0.0325  0.5627  0.1544
 2576SOL    HW219191   1.495   4.234   4.666  0.5438 -0.4560 -0.7974
 2577SOL     OW19192   1.362   0.342   1.733 -0.6914  0.0049 -0.5377
 2577SOL    HW119193   1.448   0.310   1.707 -0.6824 -1.8347  1.7150
 2577SOL    HW219194   1.305   0.283   1.684  0.6065 -0.7174 -1.1716
 2578SOL     OW19195   3.759   1.155   2.442  0.4475 -0.5558 -0.1692
 2578SOL    HW119196   3.769   1.097   2.517 -2.0227 -2.9693 -1.6637
 2578SOL    HW219197   3.844   1.198   2.438  0.5409 -0.5983  1.4636
 2579SOL     OW19198   3.824   1.684   1.798 -0.0834  0.4657  0.1612
 2579SOL    HW119199   3.732   1.680   1.771  1.0262 -0.1320 -3.4946
 2579SOL    HW219200   3.822   1.638   1.882 -0.6837 -0.6202 -0.4506
 2580SOL     OW19201   0.821   3.755   4.122 -0.4458  0.5078 -0.4976
 2580SOL    HW119202   0.759   3.708   4.066  0.6199 -0.4593 -0.8561
 2580SOL    HW219203   0.786   3.843   4.106 -0.6879  0.2688 -1.2953
 2581SOL     OW19204   2.207   1.468   2.645  0.3357  0.3023  0.3870
 2581SOL    HW119205   2.152   1.545   2.661 -0.4253 -0.5373  1.8207
 2581SOL    HW219206   2.253   1.456   2.728 -0.6650  2.0164  1.2106
 2582SOL     OW19207   2.489   4.291   9.690 -0.0023 -0.3235  0.2302
 2582SOL    HW119208   2.523   4.202   9.679  1.2531  0.3381 -1.1888
 2582SOL    HW219209   2.572   4.336   9.704 -0.5049  1.3756 -2.1525
 2583SOL     OW19210   4.227   2.732  17.397  0.7781 -0.1794 -0.0865
 2583SOL    HW119211   4.242   2.638  17.393  0.6513 -0.1579 -0.9259
 2583SOL    HW219212   4.301   2.759  17.451  0.7907 -1.8990  0.7442
 2584SOL     OW19213   3.005   2.315   2.902  0.4257 -0.5952  0.3798
 2584SOL    HW119214   2.969   2.372   2.834  1.4706 -1.0705 -0.5666
 2584SOL    HW219215   3.094   2.346   2.919 -0.6414  2.8774 -0.4111
 2585SOL     OW19216   4.333   3.939   2.878  0.4792  0.1703  0.4172
 2585SOL    HW119217   4.297   3.938   2.967 -2.0771 -0.4069 -0.6309
 2585SOL    HW219218   4.421   3.905   2.891 -0.1153 -1.5410 -0.1078
 2586SOL     OW19219   4.046   0.354  16.273 -0.3288 -0.5370  0.1298
 2586SOL    HW119220   4.086   0.282  16.225  0.2233 -0.9583  1.2186
 2586SOL    HW219221   4.039   0.416  16.200 -3.6704  1.3131  2.0203
 2587SOL     OW19222   3.884   0.038   1.702 -0.3254 -0.2061 -0.1851
 2587SOL    HW119223   3.923   0.099   1.640  1.1150 -0.0538  0.8741
 2587SOL    HW219224   3.803   0.008   1.659  1.0547  0.2276 -3.0880
 2588SOL     OW19225   2.574   3.984   7.855 -0.3199  0.9240 -0.0763
 2588SOL    HW119226   2.556   3.909   7.912  0.1869  1.6335  0.9867
 2588SOL    HW219227   2.636   4.036   7.905 -1.4858  2.0447  0.1837
 2589SOL     OW19228   4.106   0.934  10.354 -0.2307 -0.2972  0.4095
 2589SOL    HW119229   4.181   0.902  10.304 -0.3901 -1.0363  0.6396
 2589SOL    HW219230   4.062   0.854  10.382  1.3470 -1.3193 -0.0433
 2590SOL     OW19231   3.498   2.325   6.998  0.7011 -0.1856 -0.2885
 2590SOL    HW119232   3.474   2.233   6.995 -0.3795  0.0736  0.5917
 2590SOL    HW219233   3.445   2.356   7.071  0.3444  1.0509 -1.0686
 2591SOL     OW19234   1.757   1.363   7.919  0.3496  0.2435 -0.6683
 2591SOL    HW119235   1.829   1.354   7.856  0.9054 -0.4925  0.0689
 2591SOL    HW219236   1.698   1.415   7.866  0.7656 -3.9943 -5.3458
 2592SOL     OW19237   4.458   4.575   9.272 -0.1767 -0.0450 -0.2764
 2592SOL    HW119238   4.530   4.536   9.323  0.4719  1.8831  0.2831
 2592SOL    HW219239   4.384   4.516   9.287 -1.4139  1.3612 -0.9281
 2593SOL     OW19240   0.415   3.289   2.646  0.0517  0.0128  0.0813
 2593SOL    HW119241   0.425   3.378   2.682 -0.4109 -0.5343  1.5639
 2593SOL    HW219242   0.493   3.286   2.592  0.1112 -1.8505  0.3014
 2594SOL     OW19243   2.787   2.690  17.682 -0.8866 -0.4229 -0.3062
 2594SOL    HW119244   2.747   2.696   0.069 -0.5448  0.4346 -0.2042
 2594SOL    HW219245   2.854   2.627   0.008  1.1283  1.3248 -1.2649
 2595SOL     OW19246   3.492   0.172   9.558  0.1534 -0.0022 -0.0881
 2595SOL    HW119247   3.469   0.163   9.651  2.1349  3.2567  0.7131
 2595SOL    HW219248   3.442   0.251   9.540  0.0596 -0.8333 -3.3521
 2596SOL     OW19249   2.039   1.578   8.564 -0.1462 -0.2762 -0.0778
 2596SOL    HW119250   2.102   1.618   8.624 -0.6426  1.7871 -0.9248
 2596SOL    HW219251   2.046   1.641   8.493  1.1192  0.2782  0.5382
 2597SOL     OW19252   3.157   1.147   2.552  0.2508 -0.1451  0.3585
 2597SOL    HW119253   3.173   1.173   2.462  0.2429 -1.6661 -0.0897
 2597SOL    HW219254   3.065   1.169   2.564  0.1876 -0.5127  0.5682
 2598SOL     OW19255   3.371   3.687   5.064  0.1919 -0.6817  0.1873
 2598SOL    HW119256   3.416   3.767   5.088  0.4251 -1.5242  2.6583
 2598SOL    HW219257   3.427   3.671   4.988  0.5237 -3.1251  0.9148
 2599SOL     OW19258   1.168   0.342  17.368 -0.0593  0.2538 -0.4436
 2599SOL    HW119259   1.264   0.341  17.370 -0.0534  0.7560 -0.4967
 2599SOL    HW219260   1.150   0.425  17.412  0.7233  0.2329 -0.0691
 2600SOL     OW19261   3.704   1.355   8.584 -0.3004 -0.1231  0.1417
 2600SOL    HW119262   3.637   1.300   8.543  1.0501 -1.0787 -0.8185
 2600SOL    HW219263   3.659   1.436   8.605  0.6207 -0.0243  1.7310
 2601SOL     OW19264   0.937   2.029   2.337  0.2765  0.0156 -0.0929
 2601SOL    HW119265   0.932   2.109   2.390 -3.9890 -0.2081 -0.1268
 2601SOL    HW219266   1.010   2.044   2.276 -0.0277 -0.1620 -0.4993
 2602SOL     OW19267   4.181   2.714  16.471 -0.2923 -0.2883  0.1806
 2602SOL    HW119268   4.243   2.717  16.399 -0.5057  0.6379  0.0358
 2602SOL    HW219269   4.232   2.743  16.547  1.2920  0.7599 -1.2766
 2603SOL     OW19270   2.335   4.657   0.299 -0.3906  0.0013 -0.4050
 2603SOL    HW119271   2.315   4.715   0.226  1.5166  0.9061 -0.1870
 2603SOL    HW219272   2.266   4.674   0.363  0.6818  0.3909  0.6446
 2604SOL     OW19273   0.603   0.520   3.956 -0.2203 -0.2131 -0.4250
 2604SOL    HW119274   0.601   0.611   3.986  0.6882  0.0856 -1.2904
 2604SOL    HW219275   0.683   0.494   4.003 -1.1481 -0.4861  1.0140
 2605SOL     OW19276   1.388   0.377   8.132 -0.0556  0.1191  0.5131
 2605SOL    HW119277   1.349   0.461   8.105  0.9892  0.2307 -0.6551
 2605SOL    HW219278   1.458   0.396   8.195  1.3646 -0.1892 -0.9798
 2606SOL     OW19279   1.781   3.202   6.346  0.5878  0.5266 -0.2456
 2606SOL    HW119280   1.816   3.267   6.284 -0.9745  1.7554  0.1350
 2606SOL    HW219281   1.737   3.143   6.284  0.2206 -1.3996  1.8448
 2607SOL     OW19282   1.325   4.471   6.116  0.2189 -0.0154  0.4143
 2607SOL    HW119283   1.309   4.478   6.210 -1.9538  2.1652 -0.1344
 2607SOL    HW219284   1.263   4.527   6.071  1.2373  1.9242  1.4265
 2608SOL     OW19285   0.455   4.341  14.072 -0.5521 -0.0931  0.6081
 2608SOL    HW119286   0.463   4.436  14.086 -1.0629  0.2662 -1.4373
 2608SOL    HW219287   0.410   4.350  13.987  0.8640  1.9542  0.0611
 2609SOL     OW19288   3.505   2.351   0.774 -0.2552  0.3948  0.2595
 2609SOL    HW119289   3.446   2.370   0.848 -0.9811  0.1931 -0.2681
 2609SOL    HW219290   3.535   2.266   0.805 -1.3128  0.0844  0.4414
 2610SOL     OW19291   2.804   0.723   4.955 -0.2993  0.1362 -0.4312
 2610SOL    HW119292   2.771   0.690   5.039 -0.3564  1.1831 -0.0343
 2610SOL    HW219293   2.888   0.764   4.972  0.0126 -0.5682 -0.2787
 2611SOL     OW19294   1.416   4.685   7.675  0.3782  0.4325  0.1901
 2611SOL    HW119295   1.415   0.052   7.704  0.8048  1.1659 -2.0677
 2611SOL    HW219296   1.510   4.691   7.660  0.9384  1.8518  4.5010
 2612SOL     OW19297   2.266   2.682   1.341 -0.5034 -0.2658  0.3510
 2612SOL    HW119298   2.237   2.768   1.309 -2.4423 -1.1328 -0.2176
 2612SOL    HW219299   2.331   2.704   1.407  0.5103 -0.8555 -0.4640
 2613SOL     OW19300   4.310   1.442  11.695 -0.3417  0.2868  0.3423
 2613SOL    HW119301   4.336   1.382  11.765 -0.9042 -1.1139 -0.6487
 2613SOL    HW219302   4.386   1.491  11.665  1.1614 -1.3536  1.5279
 2614SOL     OW19303   1.429   3.442   5.980 -0.4602 -0.3398 -0.7284
 2614SOL    HW119304   1.386   3.373   6.031  0.0775 -0.7517 -0.8324
 2614SOL    HW219305   1.402   3.416   5.891 -0.9894  0.7231 -0.8771
 2615SOL     OW19306   2.474   1.190   8.048 -0.1237  0.1385  0.0987
 2615SOL    HW119307   2.488   1.281   8.074  0.4884 -0.4937  1.9336
 2615SOL    HW219308   2.563   1.154   8.050 -0.3384 -0.5006 -1.2181
 2616SOL     OW19309   3.382   4.411  12.843 -0.5907 -0.2097 -0.1393
 2616SOL    HW119310   3.353   4.438  12.756 -1.0903 -0.9550 -0.1982
 2616SOL    HW219311   3.439   4.481  12.876  0.4767 -1.1678  0.0212
 2617SOL     OW19312   0.320   1.165   6.243  0.1846 -0.0072  0.0988
 2617SOL    HW119313   0.350   1.136   6.329 -0.7806  2.1846  1.1631
 2617SOL    HW219314   0.226   1.147   6.246  0.4891 -1.8323 -1.2757
 2618SOL     OW19315   1.210   1.386   1.484  0.2132 -0.3009 -0.1901
 2618SOL    HW119316   1.161   1.330   1.425 -2.3658  2.4147 -0.6557
 2618SOL    HW219317   1.295   1.384   1.441  0.3706 -1.4829  0.1781
 2619SOL     OW19318   0.046   4.055   2.958  0.2529  0.0890  0.2955
 2619SOL    HW119319   4.704   3.989   2.938  0.1902  0.5074 -0.9012
 2619SOL    HW219320   4.711   4.112   3.006  0.0064  2.5386 -2.9150
 2620SOL     OW19321   0.696   2.746  13.246 -0.1137 -0.6030 -0.4247
 2620SOL    HW119322   0.615   2.714  13.207 -0.6209 -1.2254  1.1625
 2620SOL    HW219323   0.672   2.729  13.337 -0.6888  0.5544 -0.3613
 2621SOL     OW19324   3.511   0.512  16.096  0.3649 -0.0590  0.4670
 2621SOL    HW119325   3.518   0.542  16.187  0.9124  0.3172  0.3029
 2621SOL    HW219326   3.602   0.481  16.091  0.5986  0.3561  2.0029
 2622SOL     OW19327   0.353   2.393  16.910  0.6182 -0.3772  0.6777
 2622SOL    HW119328   0.383   2.303  16.915 -0.5371 -0.7637  0.7446
 2622SOL    HW219329   0.287   2.386  16.979  0.4708 -1.2905  0.4441
 2623SOL     OW19330   3.763   4.108   0.703  0.4602  0.6119  0.0888
 2623SOL    HW119331   3.741   4.194   0.739  0.5725  0.2020  1.1321
 2623SOL    HW219332   3.846   4.120   0.657 -1.5035  1.3036 -3.3023
 2624SOL     OW19333   3.242   2.972  12.578  0.4113 -0.1940 -0.0666
 2624SOL    HW119334   3.204   3.052  12.543 -2.9084 -1.1836  1.3098
 2624SOL    HW219335   3.172   2.934  12.631 -1.6493  0.6750 -2.1252
 2625SOL     OW19336   3.621   1.493   7.187  0.0546 -0.1953 -0.2237
 2625SOL    HW119337   3.647   1.562   7.126 -0.3192 -0.1935 -0.3795
 2625SOL    HW219338   3.672   1.415   7.167 -0.4326  0.0256 -2.3397
 2626SOL     OW19339   3.913   1.005   0.794 -0.3855  0.1385  0.2604
 2626SOL    HW119340   3.914   0.977   0.703 -0.3881 -0.5417  0.4709
 2626SOL    HW219341   3.936   1.097   0.803  1.1785 -0.2437  0.2220
 2627SOL     OW19342   3.219   1.813   5.226  0.2333  0.5903 -0.0616
 2627SOL    HW119343   3.172   1.737   5.193 -0.2209  0.1650  1.5768
 2627SOL    HW219344   3.311   1.791   5.239  1.2040  2.9754 -2.8968
 2628SOL     OW19345   2.621   3.694   8.789  0.4325 -0.3973 -0.0188
 2628SOL    HW119346   2.542   3.653   8.756 -0.6092  1.3737  0.2638
 2628SOL    HW219347   2.579   3.741   8.861  0.2682 -0.7657  0.1197
 2629SOL     OW19348   0.293   1.590  15.291  0.5465  0.0545 -0.1115
 2629SOL    HW119349   0.261   1.622  15.376 -0.2436 -1.1487  0.0436
 2629SOL    HW219350   0.381   1.627  15.298 -1.0520  4.0453 -1.0906
 2630SOL     OW19351   2.900   0.097   6.036  0.2311 -0.5125  0.3467
 2630SOL    HW119352   2.988   0.112   6.071  1.4540 -0.8418 -2.5778
 2630SOL    HW219353   2.909   0.122   5.944 -1.2058 -2.7691 -0.4173
 2631SOL     OW19354   3.129   0.805   3.200  0.7152 -0.5523 -0.2267
 2631SOL    HW119355   3.145   0.836   3.289 -0.7447  1.6150 -0.7371
 2631SOL    HW219356   3.155   0.713   3.207  1.0365 -0.2559  2.3439
 2632SOL     OW19357   0.678   3.772   2.401 -0.2465 -0.4778  0.4389
 2632SOL    HW119358   0.755   3.734   2.359 -0.4336 -0.8000  0.3883
 2632SOL    HW219359   0.621   3.698   2.379  1.8595 -1.5959 -1.2504
 2633SOL     OW19360   2.929   3.561   3.411 -0.4481  0.0955  0.0666
 2633SOL    HW119361   2.928   3.582   3.504  0.9286 -0.7753  0.2867
 2633SOL    HW219362   2.845   3.516   3.397 -0.0304 -1.0346  1.1843
 2634SOL     OW19363   2.348   0.377   7.121  0.1412 -0.0086 -0.0233
 2634SOL    HW119364   2.332   0.373   7.215  1.3758  0.7852  0.2368
 2634SOL    HW219365   2.370   0.286   7.104  1.1602  0.3325 -0.5527
 2635SOL     OW19366   1.422   1.139   2.420 -0.2309  0.2758 -0.0009
 2635SOL    HW119367   1.331   1.127   2.444  0.1034  0.3385  1.2944
 2635SOL    HW219368   1.448   1.194   2.493 -1.2418  0.4960  0.1889
 2636SOL     OW19369   1.893   3.486   6.157 -0.0651  0.0659 -0.1042
 2636SOL    HW119370   1.798   3.490   6.160 -0.2536 -1.5016 -4.0089
 2636SOL    HW219371   1.905   3.562   6.100 -2.4789  0.8198  0.3884
 2637SOL     OW19372   2.932   4.206   3.293 -0.6561 -0.2390  0.6007
 2637SOL    HW119373   2.899   4.124   3.256 -0.1962 -0.6648  1.1391
 2637SOL    HW219374   3.002   4.225   3.230  0.5542  3.9624  3.2258
 2638SOL     OW19375   4.542   0.011   6.768 -0.7876  0.5367  0.0923
 2638SOL    HW119376   4.497   4.695   6.842 -0.1408 -1.1398 -0.4091
 2638SOL    HW219377   4.478   0.002   6.697  2.0388  1.6192 -2.6031
 2639SOL     OW19378   0.219   4.703   7.792 -0.3443  0.1101  0.0644
 2639SOL    HW119379   0.159   4.714   7.718 -0.9777 -0.8089  0.4486
 2639SOL    HW219380   0.278   0.053   7.776  2.3165 -1.7399  1.4045
 2640SOL     OW19381   2.851   3.542   5.683 -0.0782  0.5716 -0.1554
 2640SOL    HW119382   2.860   3.516   5.775 -0.5111 -0.9863 -0.5589
 2640SOL    HW219383   2.901   3.623   5.689 -2.0717  1.6498  2.0528
 2641SOL     OW19384   3.313   1.495   6.037  0.1996  0.1523  0.3624
 2641SOL    HW119385   3.336   1.488   6.129 -0.0594  0.1183  0.4247
 2641SOL    HW219386   3.233   1.548   6.039  2.1915  3.2028 -0.0843
 2642SOL     OW19387   3.206   0.428  14.891 -0.1048 -0.1662 -0.1964
 2642SOL    HW119388   3.200   0.351  14.835  1.6858  0.8043 -1.7068
 2642SOL    HW219389   3.112   0.438  14.907  0.1042  1.7274 -0.1245
 2643SOL     OW19390   1.178   3.501   1.823  0.0187 -0.4348 -0.0223
 2643SOL    HW119391   1.084   3.519   1.817 -0.1554 -0.8497  1.4864
 2643SOL    HW219392   1.204   3.510   1.731  0.6082  1.1120  0.2988
 2644SOL     OW19393   0.302   4.507   5.109 -0.0190 -0.2754 -0.5622
 2644SOL    HW119394   0.261   4.535   5.190 -1.2497 -0.4302 -1.1197
 2644SOL    HW219395   0.387   4.489   5.147 -0.9090  1.1434  2.0962
 2645SOL     OW19396   1.335   2.481   3.769 -0.4863 -0.3856  0.5023
 2645SOL    HW119397   1.403   2.413   3.775 -0.4758 -0.4137  0.0097
 2645SOL    HW219398   1.258   2.429   3.791 -0.9922 -0.4972 -1.5425
 2646SOL     OW19399   0.254   0.147  10.227  0.8056  0.0982 -0.4943
 2646SOL    HW119400   0.291   0.145  10.139 -0.3261 -0.4766 -0.9664
 2646SOL    HW219401   0.185   0.083  10.211 -0.0087  0.6445  0.8563
 2647SOL     OW19402   0.216   0.636   4.549 -0.2111 -0.5550 -0.3546
 2647SOL    HW119403   0.232   0.542   4.540 -2.1105 -0.7890 -1.0645
 2647SOL    HW219404   0.124   0.645   4.574 -0.8944 -4.8003 -1.3429
 2648SOL     OW19405   0.554   0.246   2.608 -0.3498 -0.5338 -0.8831
 2648SOL    HW119406   0.588   0.160   2.630 -0.9293 -0.5606 -0.0810
 2648SOL    HW219407   0.488   0.274   2.672  1.2388  0.5824  0.2637
 2649SOL     OW19408   3.349   1.565   0.709  0.1809  0.2400 -0.0999
 2649SOL    HW119409   3.263   1.573   0.666  1.2183 -0.5837 -2.3508
 2649SOL    HW219410   3.397   1.498   0.661 -0.5076 -0.7434  0.5800
 2650SOL     OW19411   0.372   4.438   6.284  0.2429 -0.0168 -0.1651
 2650SOL    HW119412   0.426   4.493   6.227  2.2057 -1.3325  0.4379
 2650SOL    HW219413   0.300   4.415   6.226  0.8968 -0.2287 -0.8922
 2651SOL     OW19414   0.728   1.961   1.769  0.3249  0.2529 -0.3570
 2651SOL    HW119415   0.713   2.051   1.799  0.1440  0.7300 -1.8884
 2651SOL    HW219416   0.718   1.908   1.848 -1.1920 -0.2027 -0.8598
 2652SOL     OW19417   1.106   0.976   9.215  0.8319 -0.8521 -0.2266
 2652SOL    HW119418   1.068   0.951   9.300  0.8212 -1.2396 -0.3457
 2652SOL    HW219419   1.099   1.071   9.214 -0.8865 -0.9603  1.5645
 2653SOL     OW19420   4.213   0.343   7.867  0.6215  0.5997  0.2921
 2653SOL    HW119421   4.270   0.401   7.817 -1.5235  1.2818 -1.3822
 2653SOL    HW219422   4.279   0.303   7.923  1.8593  0.0449 -1.5794
 2654SOL     OW19423   0.732   2.362   9.234  0.1785  0.2452  0.1619
 2654SOL    HW119424   0.688   2.288   9.277  0.0278 -0.6128 -1.4487
 2654SOL    HW219425   0.668   2.432   9.242  1.1486  0.9774  1.3991
 2655SOL     OW19426   4.087   3.244  12.992  0.1547 -0.1905  0.3021
 2655SOL    HW119427   4.170   3.276  13.026 -0.6699  2.3202 -0.0557
 2655SOL    HW219428   4.105   3.228  12.899 -0.2158  0.0004  0.1982
 2656SOL     OW19429   3.378   2.721   0.736 -0.3931 -0.3155  0.0958
 2656SOL    HW119430   3.318   2.768   0.678  1.5226  1.6030 -0.3319
 2656SOL    HW219431   3.322   2.728   0.814 -2.2065  1.7412 -1.3948
 2657SOL     OW19432   3.814   1.388   6.680 -0.2975 -0.3396  0.7398
 2657SOL    HW119433   3.727   1.409   6.713 -0.0303  0.2364  1.0903
 2657SOL    HW219434   3.871   1.390   6.757  0.4450  1.5071  0.1556
 2658SOL     OW19435   2.108   0.269  15.098 -0.4564 -0.2352  0.0468
 2658SOL    HW119436   2.121   0.287  15.005 -0.2747  2.8140  0.6530
 2658SOL    HW219437   2.200   0.249  15.115 -0.1219  0.7984 -0.5702
 2659SOL     OW19438   0.909   1.712   7.284 -0.2750  0.3817  0.2984
 2659SOL    HW119439   0.879   1.651   7.217 -0.3441  0.1043  0.5874
 2659SOL    HW219440   0.834   1.762   7.315  0.2399  1.6827 -0.5283
 2660SOL     OW19441   1.102   2.788   6.714  0.5374  0.0446 -0.2765
 2660SOL    HW119442   1.159   2.853   6.674 -0.3093  1.1490  0.3117
 2660SOL    HW219443   1.084   2.742   6.632  1.4041  1.3387 -1.1845
 2661SOL     OW19444   3.938   2.402   0.942  0.1554  0.2693  0.3782
 2661SOL    HW119445   4.021   2.414   0.895  0.2518  1.3566  0.8465
 2661SOL    HW219446   3.902   2.489   0.926  2.0214  1.1438  0.9526
 2662SOL     OW19447   2.599   4.389  13.354  0.1669  0.6876  0.2243
 2662SOL    HW119448   2.547   4.369  13.276 -1.2445  3.0238  0.5590
 2662SOL    HW219449   2.618   4.305  13.395 -1.1821  1.1124  1.7015
 2663SOL     OW19450   0.801   1.644  12.070  0.2739  0.4078  0.3362
 2663SOL    HW119451   0.750   1.725  12.078  0.8231  0.6962  0.9578
 2663SOL    HW219452   0.816   1.609  12.158 -2.6802 -1.7554 -0.0422
 2664SOL     OW19453   1.073   4.063   5.582 -0.4205  0.1016  0.0150
 2664SOL    HW119454   0.984   4.058   5.615 -0.4393 -0.0138 -0.0570
 2664SOL    HW219455   1.121   4.082   5.663 -1.4528 -0.3864  0.7344
 2665SOL     OW19456   4.685   2.419   8.337 -0.1927 -0.4972 -1.0171
 2665SOL    HW119457   4.606   2.471   8.321 -0.5992 -1.2776 -1.5485
 2665SOL    HW219458   0.007   2.443   8.257  1.3630 -1.1373 -0.2922
 2666SOL     OW19459   2.325   3.572   4.096 -0.1953  0.8331 -0.4081
 2666SOL    HW119460   2.386   3.643   4.077  1.0291  0.1699  1.0386
 2666SOL    HW219461   2.337   3.509   4.025 -1.1140  1.0729 -0.7694
 2667SOL     OW19462   1.596   0.478   6.931  0.0498 -0.2591 -0.3614
 2667SOL    HW119463   1.610   0.570   6.908 -2.3211  0.5607  1.5151
 2667SOL    HW219464   1.587   0.483   7.026  2.8595 -0.9916 -0.0527
 2668SOL     OW19465   4.147   0.387  16.514 -0.2622  0.0625  0.5229
 2668SOL    HW119466   4.141   0.294  16.533  0.9302  0.0426  0.8138
 2668SOL    HW219467   4.127   0.378  16.421 -0.9985 -2.7448  0.9551
 2669SOL     OW19468   0.442   1.314  15.372 -0.0752 -0.1977 -0.4772
 2669SOL    HW119469   0.388   1.301  15.449  0.1251 -1.0404 -0.4818
 2669SOL    HW219470   0.373   1.364  15.328 -0.6161 -0.4814  0.0449
 2670SOL     OW19471   0.356   4.339   0.799 -0.0271 -0.0211  0.1622
 2670SOL    HW119472   0.374   4.297   0.882 -0.7398  0.3434  0.5072
 2670SOL    HW219473   0.291   4.407   0.818  0.9794  1.4642 -1.7454
 2671SOL     OW19474   1.075   0.005   1.137 -0.7741  0.3021 -0.7281
 2671SOL    HW119475   1.030   0.014   1.053  1.1707 -1.5176 -1.9551
 2671SOL    HW219476   1.160   0.040   1.111 -1.3045  0.8087 -1.8202
 2672SOL     OW19477   2.473   1.991   6.798  0.6959 -0.2950  0.0394
 2672SOL    HW119478   2.440   2.029   6.879 -0.2339 -1.9976  0.4625
 2672SOL    HW219479   2.531   2.064   6.775 -0.3172  0.0177 -1.5659
 2673SOL     OW19480   2.880   2.632   7.017  0.3327  0.8052  0.8776
 2673SOL    HW119481   2.950   2.672   6.966 -0.1532  0.6866  0.1122
 2673SOL    HW219482   2.874   2.697   7.087  2.5219 -0.6392  2.3946
 2674SOL     OW19483   0.663   0.445   1.189 -0.2528 -0.2555  0.0817
 2674SOL    HW119484   0.677   0.539   1.180 -1.8699  0.0853  1.1185
 2674SOL    HW219485   0.753   0.420   1.211 -0.8026 -2.3879 -0.0477
 2675SOL     OW19486   4.622   0.289  15.869 -0.4054  0.6866 -0.1488
 2675SOL    HW119487   4.651   0.217  15.925 -1.6493  1.9435  2.1218
 2675SOL    HW219488   4.627   0.364  15.930 -0.5916  2.8157 -2.7597
 2676SOL     OW19489   1.576   3.189   9.196 -0.5673 -0.0407  0.4583
 2676SOL    HW119490   1.635   3.150   9.260 -2.5151 -2.9130  0.5189
 2676SOL    HW219491   1.623   3.268   9.172 -1.2326  0.7098  1.6019
 2677SOL     OW19492   3.356   1.486   3.705  0.0410 -0.0345  0.3743
 2677SOL    HW119493   3.301   1.490   3.626 -2.1754  1.0922  1.9827
 2677SOL    HW219494   3.361   1.391   3.711 -0.0589  0.0579  1.8876
 2678SOL     OW19495   1.396   3.350   1.626 -0.3460 -0.2660 -0.2713
 2678SOL    HW119496   1.378   3.375   1.535  2.9108  0.9456 -0.6089
 2678SOL    HW219497   1.378   3.256   1.628  0.1880 -0.3288  1.8216
 2679SOL     OW19498   2.089   3.168  11.892  0.0898  0.1178  0.1961
 2679SOL    HW119499   2.110   3.260  11.908 -1.4342  0.6136 -0.6469
 2679SOL    HW219500   2.014   3.155  11.950 -0.9830 -2.6074 -1.8188
 2680SOL     OW19501   0.994   4.688   8.621  0.2721 -0.3003  0.1028
 2680SOL    HW119502   0.971   4.651   8.536  0.8984 -0.3430 -0.0428
 2680SOL    HW219503   1.017   4.609   8.669  2.0962  0.7065  0.8707
 2681SOL     OW19504   3.391   1.558  11.538  0.4335  0.5330  0.2178
 2681SOL    HW119505   3.378   1.484  11.597 -0.3089  0.6139  0.1538
 2681SOL    HW219506   3.485   1.542  11.539  0.3653 -0.0294 -1.9069
 2682SOL     OW19507   4.404   1.658  10.944 -0.0224 -0.6963  0.3232
 2682SOL    HW119508   4.357   1.741  10.955  1.7846  0.4099 -0.2899
 2682SOL    HW219509   4.340   1.604  10.899  2.1332 -2.4966 -0.5929
 2683SOL     OW19510   4.401   2.368   2.024  0.0949 -0.8921  0.1317
 2683SOL    HW119511   4.380   2.369   2.118  0.4061  1.5942  0.1741
 2683SOL    HW219512   4.495   2.377   2.041  0.2827 -2.8271  0.0708
 2684SOL     OW19513   0.274   2.015   7.051  0.2276  0.5089  0.1055
 2684SOL    HW119514   0.346   2.009   7.113 -0.6047 -0.5395  0.9642
 2684SOL    HW219515   0.214   1.960   7.101  0.9717  2.2237  2.9038
 2685SOL     OW19516   3.625   4.198   5.943 -0.3844 -0.2338  0.2708
 2685SOL    HW119517   3.657   4.287   5.961  2.4644 -0.8412 -1.7975
 2685SOL    HW219518   3.670   4.143   6.007 -0.0274 -3.0913 -2.4335
 2686SOL     OW19519   0.431   2.725   8.520  0.0066  0.1528 -0.1625
 2686SOL    HW119520   0.422   2.802   8.464 -0.9948  0.7391  0.7994
 2686SOL    HW219521   0.507   2.742   8.577  1.0406 -1.4893 -1.0523
 2687SOL     OW19522   4.159   1.759   7.994  0.1458  0.7273  0.0140
 2687SOL    HW119523   4.246   1.720   7.982 -0.6546 -0.7353 -0.9608
 2687SOL    HW219524   4.111   1.714   8.063 -1.9322  2.6241 -0.1894
 2688SOL     OW19525   3.065   3.898   2.610 -0.0625 -0.0502  0.3819
 2688SOL    HW119526   3.139   3.847   2.575 -1.1361 -2.7661  2.0359
 2688SOL    HW219527   3.027   3.939   2.532 -1.3588  0.2734  1.1956
 2689SOL     OW19528   4.442   3.921  13.881  0.0309  0.1498  0.5389
 2689SOL    HW119529   4.427   3.843  13.827  1.9950  0.4358 -0.4015
 2689SOL    HW219530   4.390   3.905  13.960 -0.3215  0.1309  0.2985
 2690SOL     OW19531   0.792   4.344  15.275  0.5573  0.5061 -0.0390
 2690SOL    HW119532   0.709   4.313  15.312  1.2531  0.4834  1.5119
 2690SOL    HW219533   0.784   4.439  15.274  1.3749  0.5911  2.1588
 2691SOL     OW19534   3.776   2.380   4.488 -0.0427 -0.1854  0.3065
 2691SOL    HW119535   3.739   2.379   4.399 -1.4964  0.7704  0.8850
 2691SOL    HW219536   3.755   2.294   4.524 -0.7700  0.2986  1.0621
 2692SOL     OW19537   1.469   3.161  17.017 -0.1113  0.0805  0.2068
 2692SOL    HW119538   1.553   3.145  17.060 -0.8918  0.0139  1.6950
 2692SOL    HW219539   1.492   3.216  16.942  2.4208 -0.9172  0.2723
 2693SOL     OW19540   3.049   2.057   1.526 -0.2549  0.3842  0.4339
 2693SOL    HW119541   3.016   2.142   1.557  0.3083  0.2553  1.3913
 2693SOL    HW219542   2.974   2.009   1.490 -1.6218  2.5609  0.3779
 2694SOL     OW19543   3.225   1.880   0.500 -0.0964  0.2760 -0.0958
 2694SOL    HW119544   3.215   1.965   0.543 -0.2592 -0.0509  0.5129
 2694SOL    HW219545   3.319   1.866   0.500  0.2396  2.6290 -0.6305
 2695SOL     OW19546   2.016   4.526   7.466 -0.3871 -0.4404 -0.3267
 2695SOL    HW119547   2.090   4.465   7.472 -0.0320  0.0216 -0.0193
 2695SOL    HW219548   2.064   4.602   7.435 -1.2424  0.3719  0.3554
 2696SOL     OW19549   3.930   2.912  10.257 -0.3166  0.0101  0.1826
 2696SOL    HW119550   3.842   2.892  10.228  0.3420  1.8995 -3.0763
 2696SOL    HW219551   3.932   3.002  10.224  0.0519  0.5939  1.8104
 2697SOL     OW19552   2.813   1.721   3.511 -0.4778 -0.1182 -0.1412
 2697SOL    HW119553   2.740   1.747   3.568 -0.1702  0.7386 -0.1430
 2697SOL    HW219554   2.762   1.683   3.440 -0.5234 -0.5044  0.0972
 2698SOL     OW19555   1.183   2.943   9.867  0.1262 -0.3405  0.1654
 2698SOL    HW119556   1.138   2.942   9.783 -3.0425  0.8346  1.8393
 2698SOL    HW219557   1.265   2.971   9.827  0.9879 -2.4666  0.4570
 2699SOL     OW19558   1.496   2.265   3.807 -0.0192 -0.4222  0.0461
 2699SOL    HW119559   1.425   2.202   3.795 -2.2412  1.9601  0.5545
 2699SOL    HW219560   1.536   2.231   3.887 -0.4104 -3.2886 -0.9873
 2700SOL     OW19561   2.479   3.905   7.299 -0.2513  0.4970 -0.2465
 2700SOL    HW119562   2.423   3.827   7.295  0.9749 -0.3912 -0.0714
 2700SOL    HW219563   2.554   3.876   7.351  1.2618  2.0526 -1.5872
 2701SOL     OW19564   1.369   3.655   5.268  0.0955 -0.1827  0.0161
 2701SOL    HW119565   1.299   3.603   5.229 -0.2334  0.9148 -0.8625
 2701SOL    HW219566   1.326   3.703   5.340  0.7235  1.7726 -0.9271
 2702SOL     OW19567   3.547   2.747   8.664  0.2198 -0.2666 -0.3143
 2702SOL    HW119568   3.493   2.820   8.694  0.1988 -0.5577  0.3471
 2702SOL    HW219569   3.552   2.693   8.742  0.4080 -2.2286 -1.6812
 2703SOL     OW19570   4.535   3.525   9.187 -0.3763 -0.0872 -0.7223
 2703SOL    HW119571   4.602   3.461   9.167 -1.1567 -0.8205 -0.9860
 2703SOL    HW219572   4.507   3.537   9.096  1.1447  0.9373 -1.0570
 2704SOL     OW19573   1.071   2.243   3.089 -0.3007  0.3172  0.0578
 2704SOL    HW119574   1.131   2.240   3.015 -0.9557 -5.0858 -0.2995
 2704SOL    HW219575   1.133   2.212   3.155  0.6276  0.0145 -0.9636
 2705SOL     OW19576   0.381   1.984   2.544  0.2435  0.2181  0.2578
 2705SOL    HW119577   0.447   2.048   2.520  0.6679 -0.6491 -0.8833
 2705SOL    HW219578   0.421   1.904   2.578 -1.6394 -0.9034 -0.2004
 2706SOL     OW19579   1.382   1.669   4.704  0.0220  0.1780  0.3011
 2706SOL    HW119580   1.367   1.655   4.610 -1.6753  1.6586  0.3550
 2706SOL    HW219581   1.303   1.623   4.733 -1.2733  1.8134 -0.5657
 2707SOL     OW19582   1.102   1.809   7.090 -0.4004  0.3199 -0.1660
 2707SOL    HW119583   1.037   1.765   7.144 -1.7654 -0.2317 -2.2447
 2707SOL    HW219584   1.050   1.845   7.018 -0.8781  1.9816  1.0013
 2708SOL     OW19585   1.649   4.245   5.539 -0.0298  0.3790 -0.4763
 2708SOL    HW119586   1.682   4.287   5.460 -0.9095  0.8040 -0.6207
 2708SOL    HW219587   1.619   4.323   5.586 -1.4349  0.8426 -2.1302
 2709SOL     OW19588   1.751   2.956  10.038 -0.6469  0.0898 -0.3713
 2709SOL    HW119589   1.758   3.005   9.956 -0.4925  0.9621  0.1667
 2709SOL    HW219590   1.838   2.916  10.048 -0.8558  0.2080  1.8512
 2710SOL     OW19591   1.052   2.967   2.673  0.7448  0.0704 -0.2706
 2710SOL    HW119592   1.035   3.061   2.669 -0.6485 -0.1004  1.5451
 2710SOL    HW219593   0.991   2.947   2.744  0.9410 -0.5835 -0.2861
 2711SOL     OW19594   0.852   0.450  14.608  0.1501  0.0128  0.6682
 2711SOL    HW119595   0.779   0.499  14.571  0.6179  0.6901  0.6429
 2711SOL    HW219596   0.922   0.479  14.549 -2.7969  0.1498 -2.8108
 2712SOL     OW19597   2.181   1.987   5.666  0.2966  0.1171  0.2959
 2712SOL    HW119598   2.261   1.941   5.694 -0.2265 -0.1607  1.3269
 2712SOL    HW219599   2.166   1.953   5.577 -1.6337 -1.7099  1.3326
 2713SOL     OW19600   1.641   2.443   5.746 -0.6078 -0.1013  0.1741
 2713SOL    HW119601   1.691   2.497   5.686 -0.5233 -0.3754 -0.0038
 2713SOL    HW219602   1.557   2.489   5.741  1.3934  3.5116  0.0116
 2714SOL     OW19603   4.321   1.825   1.455 -0.5194 -0.1922  0.0152
 2714SOL    HW119604   4.264   1.902   1.460  2.1426  1.6816  1.7037
 2714SOL    HW219605   4.265   1.756   1.492  1.5705 -0.4110  2.7289
 2715SOL     OW19606   2.966   4.482   8.837  0.1578 -0.3050 -0.3477
 2715SOL    HW119607   2.945   4.425   8.763 -0.8710  2.1998 -1.9750
 2715SOL    HW219608   3.045   4.443   8.875 -0.5836 -1.7777 -0.3126
 2716SOL     OW19609   3.489   1.465   2.457 -0.7767  0.1394 -0.3256
 2716SOL    HW119610   3.496   1.396   2.391 -2.0826  0.6672 -1.0082
 2716SOL    HW219611   3.546   1.529   2.415  0.3971 -0.9124 -0.3260
 2717SOL     OW19612   3.887   0.010  11.467  0.1774  0.2034  0.4063
 2717SOL    HW119613   3.867   0.077  11.532  0.4486 -1.6378  2.3719
 2717SOL    HW219614   3.959   0.050  11.417 -0.5953  0.6423 -0.3491
 2718SOL     OW19615   1.463   2.458   7.973 -0.1120  0.2814  0.0248
 2718SOL    HW119616   1.540   2.492   8.019  0.3366 -0.5566 -0.0924
 2718SOL    HW219617   1.438   2.523   7.907  0.7040  0.6925  0.1256
 2719SOL     OW19618   3.987   3.619   9.673  0.0416  0.5296  0.1968
 2719SOL    HW119619   4.015   3.665   9.752 -3.5973  2.0307  0.5846
 2719SOL    HW219620   3.913   3.671   9.642  0.0283 -0.0504 -0.7477
 2720SOL     OW19621   0.639   3.322   8.554 -0.4800 -0.0369  0.3173
 2720SOL    HW119622   0.705   3.285   8.613 -1.4318  0.6911  1.8221
 2720SOL    HW219623   0.655   3.416   8.561  2.0233 -0.4848  0.4883
 2721SOL     OW19624   1.877   2.401   6.584 -0.2145 -0.2973 -0.0045
 2721SOL    HW119625   1.914   2.489   6.571 -2.9146  0.7215 -0.7685
 2721SOL    HW219626   1.946   2.364   6.639  2.3303  1.8434 -1.7710
 2722SOL     OW19627   4.450   4.334   3.848 -0.0467  0.1522  0.2523
 2722SOL    HW119628   4.441   4.277   3.772 -1.1095  0.2269  0.3218
 2722SOL    HW219629   4.416   4.282   3.921  1.1184  0.6493  1.1576
 2723SOL     OW19630   4.097   1.989   6.934  0.6168  0.0477  0.0798
 2723SOL    HW119631   4.019   1.998   6.988  0.8709 -0.2459  0.4958
 2723SOL    HW219632   4.103   2.076   6.894  0.8379  1.1397  2.4877
 2724SOL     OW19633   3.457   4.703   4.365  0.4537 -0.5165  0.4529
 2724SOL    HW119634   3.506   0.054   4.333 -0.1300 -0.4036 -0.1644
 2724SOL    HW219635   3.486   4.714   4.456  1.6019 -3.8694  0.4582
 2725SOL     OW19636   4.464   0.546  10.032  0.1920  0.1384  0.6194
 2725SOL    HW119637   4.445   0.563   9.940  0.7006  0.9055  0.6591
 2725SOL    HW219638   4.428   0.457  10.033  0.0740  0.1924  1.1958
 2726SOL     OW19639   3.375   3.093   2.226 -0.4760 -0.4132 -0.4727
 2726SOL    HW119640   3.438   3.164   2.213  0.9681 -1.8399 -1.2946
 2726SOL    HW219641   3.397   3.063   2.314  0.9018 -0.7209 -0.9178
 2727SOL     OW19642   0.474   0.739  11.443 -0.0444 -0.0951 -0.2438
 2727SOL    HW119643   0.560   0.780  11.453  0.7118 -1.5842 -0.6252
 2727SOL    HW219644   0.461   0.674  11.512  1.9080  1.9978  2.0700
 2728SOL     OW19645   3.794   2.143   5.483  0.0869 -0.3710  0.2802
 2728SOL    HW119646   3.711   2.124   5.438 -0.5935  0.5268  1.1610
 2728SOL    HW219647   3.821   2.055   5.511  0.6187 -0.0368  0.7891
 2729SOL     OW19648   2.798   1.985   6.033 -0.0704 -0.7926 -0.0245
 2729SOL    HW119649   2.728   2.044   6.060 -0.1444 -1.4969  1.3189
 2729SOL    HW219650   2.786   1.998   5.939 -2.3471 -1.0795  0.2374
 2730SOL     OW19651   1.772   2.842   4.171  0.5933 -0.0097 -0.3391
 2730SOL    HW119652   1.727   2.889   4.241  0.6821 -1.8149  0.9429
 2730SOL    HW219653   1.842   2.796   4.218  0.5697 -1.0550 -1.3021
 2731SOL     OW19654   3.757   0.346   8.107  0.8978  0.4934 -0.5384
 2731SOL    HW119655   3.687   0.392   8.153  0.6384 -1.2687  0.8187
 2731SOL    HW219656   3.782   0.405   8.035  1.9256  0.4151 -0.2490
 2732SOL     OW19657   0.103   1.477   7.500  0.1250 -0.5748  0.0354
 2732SOL    HW119658   0.171   1.499   7.564  0.2371 -0.9694  0.0560
 2732SOL    HW219659   0.161   1.461   7.426 -1.5013  2.5803 -1.9025
 2733SOL     OW19660   1.046   3.010   8.106  0.1111 -1.0172  0.1486
 2733SOL    HW119661   1.099   2.985   8.030 -1.6161 -0.0839 -1.3600
 2733SOL    HW219662   0.966   3.043   8.065 -0.6570 -0.8900  1.7494
 2734SOL     OW19663   4.486   2.619  10.880 -0.0395 -0.1597 -0.4613
 2734SOL    HW119664   4.564   2.675  10.875  0.3137 -0.5371  0.7816
 2734SOL    HW219665   4.491   2.596  10.973 -2.5937 -0.0307 -0.2921
 2735SOL     OW19666   1.588   0.358   0.517  0.4051 -0.2706  0.3381
 2735SOL    HW119667   1.564   0.450   0.525 -0.6300 -0.4664 -0.4300
 2735SOL    HW219668   1.582   0.332   0.609 -0.5581 -1.1054  0.0430
 2736SOL     OW19669   2.759   1.683   6.467 -0.3066  0.4067 -0.1858
 2736SOL    HW119670   2.802   1.634   6.537  0.0931  0.4103 -0.4287
 2736SOL    HW219671   2.808   1.673   6.386  0.1465  1.1877 -0.0045
 2737SOL     OW19672   1.233   3.783   3.023  0.1589  0.1955  0.0827
 2737SOL    HW119673   1.226   3.791   2.928  3.1199 -0.8058 -0.2211
 2737SOL    HW219674   1.326   3.760   3.024  0.8363  2.9711  0.4637
 2738SOL     OW19675   0.505   1.678   4.253  0.6864  0.0506 -0.0168
 2738SOL    HW119676   0.520   1.641   4.166 -0.2762  1.9186 -0.9884
 2738SOL    HW219677   0.549   1.764   4.251 -0.9715  0.8887 -0.1319
 2739SOL     OW19678   0.559   1.823   5.620  0.3289  0.7306 -0.3355
 2739SOL    HW119679   0.551   1.736   5.580 -0.6497  0.8836 -0.4677
 2739SOL    HW219680   0.578   1.798   5.711 -0.0918  0.3263 -0.3647
 2740SOL     OW19681   0.390   3.939  16.669  0.0257  0.2407 -0.2723
 2740SOL    HW119682   0.376   3.955  16.576  1.2619  0.2677 -0.4460
 2740SOL    HW219683   0.348   3.854  16.685  2.5007 -1.0078 -0.4184
 2741SOL     OW19684   1.541   1.712  11.142 -0.0361  0.1444  0.2689
 2741SOL    HW119685   1.535   1.732  11.049 -0.2931 -0.6496  0.1203
 2741SOL    HW219686   1.604   1.640  11.145  0.5917  0.6372 -1.1833
 2742SOL     OW19687   0.703   2.143  14.340  0.2488 -0.6972  0.1120
 2742SOL    HW119688   0.616   2.131  14.377 -0.3289  0.3999 -0.9191
 2742SOL    HW219689   0.693   2.238  14.338 -1.3971 -0.8751 -0.3896
 2743SOL     OW19690   2.624   3.694  16.313 -0.0664  0.1227  0.2875
 2743SOL    HW119691   2.595   3.664  16.399  0.3092  0.6728  0.6097
 2743SOL    HW219692   2.611   3.612  16.266 -1.1294  1.0372 -1.0259
 2744SOL     OW19693   3.722   1.508   1.179  0.8338 -0.3020 -0.0874
 2744SOL    HW119694   3.641   1.540   1.219 -0.4025 -3.3936 -0.1068
 2744SOL    HW219695   3.738   1.426   1.226 -0.7904 -0.3691  0.3191
 2745SOL     OW19696   3.148   3.882   7.561  0.7081 -0.8274 -0.5429
 2745SOL    HW119697   3.129   3.831   7.640 -2.0092  1.6381  0.3492
 2745SOL    HW219698   3.068   3.852   7.517 -0.6896 -0.3149  1.6673
 2746SOL     OW19699   4.519   1.681   7.266 -0.0687 -0.2667 -0.3505
 2746SOL    HW119700   4.523   1.754   7.204 -0.1292  0.1125  0.0941
 2746SOL    HW219701   4.536   1.601   7.215 -0.7831  0.0642 -1.1114
 2747SOL     OW19702   2.645   0.695  11.535  0.2782 -0.2332 -0.4174
 2747SOL    HW119703   2.555   0.662  11.528  0.7032 -2.0457  2.7773
 2747SOL    HW219704   2.687   0.661  11.456  3.2321  4.1679 -0.7241
 2748SOL     OW19705   0.558   1.456   8.115 -0.2558  0.1805  0.2680
 2748SOL    HW119706   0.511   1.378   8.143 -2.0992  2.2909  3.0545
 2748SOL    HW219707   0.648   1.421   8.114 -0.0068  0.8546 -0.8070
 2749SOL     OW19708   1.810   4.268   1.363 -0.2103  0.2509  0.1575
 2749SOL    HW119709   1.730   4.216   1.378  0.5118 -1.3650 -1.6047
 2749SOL    HW219710   1.881   4.212   1.394 -0.2854  0.4292  0.6482
 2750SOL     OW19711   4.202   3.920   3.141  0.0917 -0.6213  0.4963
 2750SOL    HW119712   4.123   3.969   3.162  0.3058  0.2530 -0.7794
 2750SOL    HW219713   4.174   3.828   3.145 -1.4964 -0.1842 -0.8631
 2751SOL     OW19714   3.529   3.631   6.512 -0.0022 -0.8884 -0.6893
 2751SOL    HW119715   3.483   3.570   6.454 -0.7876 -2.1979  1.3304
 2751SOL    HW219716   3.471   3.705   6.496  0.2458 -1.0783 -2.5096
 2752SOL     OW19717   3.127   2.865   0.534 -0.2224  0.2561 -0.2170
 2752SOL    HW119718   3.054   2.925   0.548 -0.9623 -0.6059 -0.4698
 2752SOL    HW219719   3.175   2.921   0.472  0.1210  0.6789  0.4267
 2753SOL     OW19720   0.316   0.185   3.207 -0.2841 -0.1277  0.2170
 2753SOL    HW119721   0.261   0.222   3.138 -0.4376  1.3569  1.1429
 2753SOL    HW219722   0.290   0.093   3.204 -0.3485 -0.0725 -0.6777
 2754SOL     OW19723   3.769   2.209   1.287 -0.2884 -0.1107  0.6587
 2754SOL    HW119724   3.772   2.304   1.280 -0.4927 -0.1312  0.3247
 2754SOL    HW219725   3.697   2.195   1.349  0.6264 -1.1255  1.5145
 2755SOL     OW19726   3.197   0.031   4.321 -0.1798 -0.2917  0.1912
 2755SOL    HW119727   3.287   4.723   4.324  0.6862  2.0320 -0.7572
 2755SOL    HW219728   3.208   0.087   4.244 -0.7941 -1.6362 -0.8729
 2756SOL     OW19729   1.356   3.732  13.582  0.6944 -0.0215  0.2677
 2756SOL    HW119730   1.287   3.686  13.629  0.0225  1.2962  0.5584
 2756SOL    HW219731   1.304   3.807  13.552 -3.2563 -2.8560  0.0609
 2757SOL     OW19732   1.977   1.012   5.621  0.0123  0.0203 -0.2192
 2757SOL    HW119733   1.981   1.101   5.585  2.8199  0.0110  0.1127
 2757SOL    HW219734   1.934   0.962   5.551  0.6176 -0.2715 -0.3832
 2758SOL     OW19735   0.343   3.197   9.332 -0.0873 -0.0129  0.1251
 2758SOL    HW119736   0.260   3.151   9.348  0.7653 -1.9156 -0.8310
 2758SOL    HW219737   0.346   3.247   9.413  1.7181  0.4219 -0.2252
 2759SOL     OW19738   4.164   0.355   3.721  0.0799  0.0590  0.1596
 2759SOL    HW119739   4.240   0.298   3.709  0.5977  0.8703 -0.4591
 2759SOL    HW219740   4.211   0.438   3.737  0.0523  0.2788 -0.8668
 2760SOL     OW19741   0.852   3.679   3.254 -0.0038 -0.4056  0.1734
 2760SOL    HW119742   0.787   3.681   3.184  0.5602 -0.2440 -0.3558
 2760SOL    HW219743   0.900   3.599   3.231 -0.4842 -0.2623 -1.2892
 2761SOL     OW19744   3.384   3.193   4.234  0.4243 -0.1758  1.0712
 2761SOL    HW119745   3.479   3.205   4.237  0.0787  2.2631  2.8302
 2761SOL    HW219746   3.357   3.284   4.243 -0.8449 -0.4702  0.2854
 2762SOL     OW19747   3.599   1.609   1.678  0.5429 -0.1738 -0.0504
 2762SOL    HW119748   3.517   1.649   1.649  0.0173  1.0519  3.1115
 2762SOL    HW219749   3.663   1.641   1.614 -0.8253  0.3372 -1.1771
 2763SOL     OW19750   4.394   4.685   4.938 -0.6274  0.8114 -0.6097
 2763SOL    HW119751   4.471   0.011   4.912 -0.0208  0.2420  0.1153
 2763SOL    HW219752   4.398   4.706   5.031 -0.1161 -1.1620 -0.1886
 2764SOL     OW19753   3.832   0.275  14.702 -0.0187 -0.0447 -0.3728
 2764SOL    HW119754   3.883   0.268  14.783 -0.8347 -2.2271 -0.0765
 2764SOL    HW219755   3.811   0.369  14.706  1.7140  0.2055  2.6635
 2765SOL     OW19756   4.622   3.257   5.299  0.2955 -0.4763  0.0717
 2765SOL    HW119757   4.609   3.201   5.223  3.1971 -3.0191  1.4587
 2765SOL    HW219758   4.712   3.236   5.322 -0.4937 -3.9530 -0.0895
 2766SOL     OW19759   0.972   4.453   7.783  0.2909  0.0528  0.3479
 2766SOL    HW119760   0.945   4.536   7.744  1.6100  0.2181 -0.1919
 2766SOL    HW219761   1.057   4.480   7.818  0.1396  0.5668  0.3261
 2767SOL     OW19762   0.727   1.402   3.272 -0.3523 -0.3019  0.2635
 2767SOL    HW119763   0.816   1.428   3.296 -0.3642 -0.9841  1.0240
 2767SOL    HW219764   0.709   1.480   3.220  1.2136  0.3676  0.7203
 2768SOL     OW19765   3.808   2.936   6.440  0.6238 -0.1609 -0.2995
 2768SOL    HW119766   3.830   2.906   6.528 -1.8268  1.2547  0.8101
 2768SOL    HW219767   3.755   2.865   6.402 -0.4178  0.3218  0.2393
 2769SOL     OW19768   1.722   0.819   4.604 -0.3327 -0.5136 -0.6792
 2769SOL    HW119769   1.764   0.821   4.690  0.0647 -3.3666 -0.8144
 2769SOL    HW219770   1.671   0.900   4.602 -1.0057 -0.8996  0.5252
 2770SOL     OW19771   2.396   1.062   6.322 -0.8771 -0.4083 -0.0681
 2770SOL    HW119772   2.360   1.137   6.370  0.0330  0.4661 -0.7423
 2770SOL    HW219773   2.393   1.091   6.230  0.6304  1.1810  0.3853
 2771SOL     OW19774   0.394   3.106  14.867 -0.0334 -0.2735 -0.0620
 2771SOL    HW119775   0.382   3.168  14.795  1.4621 -0.7063 -0.6861
 2771SOL    HW219776   0.440   3.046  14.809 -0.7388  1.4255 -2.3629
 2772SOL     OW19777   3.098   0.977   4.637 -0.5794  0.4450 -0.2046
 2772SOL    HW119778   3.108   0.919   4.561 -1.2986 -0.7213  0.5813
 2772SOL    HW219779   3.006   1.002   4.625 -0.4499  0.6358 -0.7640
 2773SOL     OW19780   3.497   4.172   3.061  0.1747  0.0981  0.3043
 2773SOL    HW119781   3.537   4.259   3.066  1.3845 -0.4762  0.4094
 2773SOL    HW219782   3.494   4.147   2.969  0.9119  0.1981  0.2584
 2774SOL     OW19783   1.081   1.513   7.422  0.2213  0.3800 -0.1766
 2774SOL    HW119784   1.024   1.571   7.372 -1.3140 -0.3312  0.7700
 2774SOL    HW219785   1.070   1.426   7.385 -0.0006  0.8447 -1.2135
 2775SOL     OW19786   3.835   3.675   7.470  0.0059 -0.3501 -0.2395
 2775SOL    HW119787   3.800   3.598   7.517  0.2873 -0.6635 -0.5446
 2775SOL    HW219788   3.759   3.704   7.419 -1.6202  0.3786  2.5522
 2776SOL     OW19789   1.842   3.979  16.803  0.1999  0.4688 -0.0685
 2776SOL    HW119790   1.818   4.018  16.887 -2.4123  0.3599 -0.7749
 2776SOL    HW219791   1.765   4.010  16.755  1.1287  1.7723 -0.7409
 2777SOL     OW19792   0.999   4.430  16.667  0.3438 -0.0259 -0.2944
 2777SOL    HW119793   0.985   4.361  16.731  0.2044 -1.3332 -1.7125
 2777SOL    HW219794   0.977   4.381  16.587 -0.3650 -1.2999  0.6821
 2778SOL     OW19795   3.919   1.500   8.987  0.4850  0.2664 -0.2074
 2778SOL    HW119796   3.946   1.460   8.904  0.2954  0.8527 -0.5502
 2778SOL    HW219797   4.000   1.500   9.038  0.8332  0.0072 -0.7615
 2779SOL     OW19798   3.550   1.588   6.463  0.3790 -0.2566  0.1555
 2779SOL    HW119799   3.489   1.655   6.495  2.4323  1.0616  1.3114
 2779SOL    HW219800   3.494   1.548   6.397  2.3858 -0.4871 -1.4139
 2780SOL     OW19801   3.909   3.427   6.336 -0.3029 -0.6470  0.1684
 2780SOL    HW119802   3.921   3.333   6.323  0.7315 -0.4400 -0.4080
 2780SOL    HW219803   3.943   3.424   6.426  1.4554  2.1128 -0.4048
 2781SOL     OW19804   3.437   2.288   0.526  0.3928 -0.3175  0.1684
 2781SOL    HW119805   3.450   2.310   0.619  0.8355 -0.7417  0.2005
 2781SOL    HW219806   3.521   2.245   0.514  1.0603 -0.6279  5.6005
 2782SOL     OW19807   2.302   0.019   8.791  0.0845 -0.0674  0.5249
 2782SOL    HW119808   2.265   0.000   8.877  1.0722 -1.9722  0.5466
 2782SOL    HW219809   2.383   0.065   8.814  0.7988  0.2905 -2.6497
 2783SOL     OW19810   0.179   2.357  11.285 -0.8500  0.2345  0.6499
 2783SOL    HW119811   0.108   2.341  11.224 -0.3502  1.9449 -0.3648
 2783SOL    HW219812   0.252   2.366  11.224  0.3177  1.0366  2.1593
 2784SOL     OW19813   4.485   0.534  15.286 -0.4551  0.2131  0.5290
 2784SOL    HW119814   4.545   0.464  15.313  0.1411  0.8648  0.9066
 2784SOL    HW219815   4.487   0.534  15.191 -0.6391 -1.0016  0.5221
 2785SOL     OW19816   0.096   1.108   5.935 -0.2665 -0.4235  0.3395
 2785SOL    HW119817   0.080   1.153   5.852  4.4440 -0.6153 -0.6364
 2785SOL    HW219818   0.121   1.024   5.899  1.1622 -0.0743  0.5115
 2786SOL     OW19819   2.668   2.959  14.744  0.0710 -0.0326  0.3727
 2786SOL    HW119820   2.732   3.023  14.773  0.1953  0.3947 -0.8488
 2786SOL    HW219821   2.693   2.949  14.652 -2.7422  0.2594 -0.4244
 2787SOL     OW19822   3.658   0.357  13.836  0.2594  0.1971  0.0312
 2787SOL    HW119823   3.628   0.371  13.925 -0.3099  0.1626 -0.1594
 2787SOL    HW219824   3.577   0.334  13.792  0.5897 -0.5572 -0.1754
 2788SOL     OW19825   3.437   0.358   5.137  0.0072 -0.1538  0.4850
 2788SOL    HW119826   3.525   0.324   5.119 -0.4657 -0.8315 -0.5537
 2788SOL    HW219827   3.374   0.304   5.090  1.1627 -0.3017 -0.9110
 2789SOL     OW19828   1.049   4.522   6.542 -0.0298  0.3510  0.0558
 2789SOL    HW119829   1.122   4.474   6.582  0.2291  0.6219 -0.0933
 2789SOL    HW219830   0.978   4.461   6.521  1.6192 -2.5351  2.7998
 2790SOL     OW19831   3.691   4.261   2.671 -0.3618 -0.6607 -0.6784
 2790SOL    HW119832   3.768   4.219   2.631 -0.2640  0.1428 -1.3477
 2790SOL    HW219833   3.655   4.294   2.589 -0.7652  2.2764  0.6659
 2791SOL     OW19834   0.411   4.026  14.557  0.0493 -0.2213  0.5160
 2791SOL    HW119835   0.332   4.064  14.519  0.2127  1.8178  2.2024
 2791SOL    HW219836   0.481   4.032  14.492  0.0758  1.4665  0.7056
 2792SOL     OW19837   4.008   3.833   1.979 -0.0855  0.4014  0.2912
 2792SOL    HW119838   3.952   3.901   1.942  1.1747  0.7128 -1.0498
 2792SOL    HW219839   3.999   3.850   2.073 -2.1912 -2.0753  0.5340
 2793SOL     OW19840   0.387   1.891  14.615  0.2023  0.5056 -0.4990
 2793SOL    HW119841   0.443   1.815  14.599 -0.5531  0.0084 -0.7923
 2793SOL    HW219842   0.300   1.853  14.600 -0.4039  2.0528 -0.8853
 2794SOL     OW19843   4.673   2.325   7.604 -0.3641 -0.2231  0.1759
 2794SOL    HW119844   4.623   2.305   7.683  1.0193 -0.0039  1.1143
 2794SOL    HW219845   4.617   2.281   7.539  0.1953  0.0275 -0.4855
 2795SOL     OW19846   4.347   3.956   7.682 -0.2425  0.0611 -0.2864
 2795SOL    HW119847   4.276   3.907   7.723 -1.1600  1.7072  0.1227
 2795SOL    HW219848   4.409   3.891   7.651  0.6500 -0.3130  2.3374
 2796SOL     OW19849   0.165   2.061   4.358  0.5481  0.3604  0.0380
 2796SOL    HW119850   0.193   2.064   4.266 -2.3476  1.9376 -0.8103
 2796SOL    HW219851   0.174   2.150   4.392  3.8182  0.1327 -0.2099
 2797SOL     OW19852   0.427   0.367   3.367  0.5082 -0.0094 -0.8550
 2797SOL    HW119853   0.403   0.283   3.326 -0.9914 -0.5205  1.1008
 2797SOL    HW219854   0.341   0.398   3.392 -0.0238 -1.7247 -0.5208
 2798SOL     OW19855   1.244   0.445   6.839  0.3142 -0.2899  1.0038
 2798SOL    HW119856   1.160   0.407   6.813  0.9440 -2.2958  1.9152
 2798SOL    HW219857   1.286   0.369   6.879  0.0951  0.7220  3.1283
 2799SOL     OW19858   1.128   3.945   5.021  0.4934 -0.3324 -0.9932
 2799SOL    HW119859   1.079   3.984   4.949 -1.1576  0.6457  0.6584
 2799SOL    HW219860   1.076   3.975   5.096  2.3083 -0.3704  0.2644
 2800SOL     OW19861   2.273   4.624   4.994  0.3572 -0.4600  0.2371
 2800SOL    HW119862   2.240   4.535   4.980 -1.4911  0.0747  1.2762
 2800SOL    HW219863   2.353   4.629   4.940  0.4953 -0.8881  0.4014
 2801SOL     OW19864   2.600   0.201  16.380  0.1447 -0.6608  0.5085
 2801SOL    HW119865   2.633   0.166  16.463  0.4316  1.8225  1.4364
 2801SOL    HW219866   2.579   0.293  16.395  3.6868  0.4653 -1.3841
 2802SOL     OW19867   3.612   2.863   3.352  0.4318 -0.3094 -0.1470
 2802SOL    HW119868   3.615   2.953   3.320  1.2192 -1.4229 -3.2474
 2802SOL    HW219869   3.613   2.816   3.268  0.4831  1.6800 -1.2463
 2803SOL     OW19870   2.570   4.671   4.626  0.1933  0.4805 -0.2594
 2803SOL    HW119871   2.521   4.592   4.604 -0.4847  0.6887  0.5105
 2803SOL    HW219872   2.580   4.663   4.721 -3.1365 -0.2455  0.0338
 2804SOL     OW19873   4.541   4.601   8.134 -0.0722  0.1120 -0.1705
 2804SOL    HW119874   4.603   4.577   8.203  0.8700  0.6360 -0.8418
 2804SOL    HW219875   4.503   4.675   8.182 -3.0223 -1.1405 -0.6104
 2805SOL     OW19876   0.473   1.078   7.934 -0.6454  0.1666  0.6085
 2805SOL    HW119877   0.442   1.000   7.979 -1.2133 -0.5275 -1.0118
 2805SOL    HW219878   0.541   1.043   7.877 -0.0040 -0.0988  1.5290
 2806SOL     OW19879   2.058   0.681   5.425  0.3086 -0.2955  0.2659
 2806SOL    HW119880   1.988   0.623   5.394  1.3582 -1.6686  0.4707
 2806SOL    HW219881   2.064   0.669   5.520 -1.1881 -1.5526  0.2090
 2807SOL     OW19882   3.069   3.703   9.229  0.2799 -0.0001 -0.3578
 2807SOL    HW119883   3.046   3.771   9.166 -0.0770 -1.8173 -2.1798
 2807SOL    HW219884   2.985   3.660   9.242  0.1432  0.3665 -0.0016
 2808SOL     OW19885   1.312   2.666   4.940 -0.0862 -0.0356  0.1947
 2808SOL    HW119886   1.335   2.573   4.936  1.1514  0.2469  1.0795
 2808SOL    HW219887   1.220   2.656   4.964 -0.9699 -0.7934 -3.4925
 2809SOL     OW19888   4.001   2.123   7.609  0.8352  0.1725  0.1951
 2809SOL    HW119889   4.021   2.035   7.642 -1.0438 -0.0464  0.7294
 2809SOL    HW219890   4.068   2.129   7.541  2.0829  0.0426  1.3926
 2810SOL     OW19891   0.921   1.914   6.913  0.0103 -0.0020 -0.1007
 2810SOL    HW119892   0.967   1.969   6.849  2.6108  0.3226  2.0309
 2810SOL    HW219893   0.867   1.980   6.955  0.3787  0.9912 -1.1687
 2811SOL     OW19894   3.996   4.653   8.848 -0.2205 -0.6462  0.4015
 2811SOL    HW119895   4.079   4.652   8.800 -0.8892  1.0014 -0.7801
 2811SOL    HW219896   4.020   4.642   8.940  2.6491 -3.3306 -0.6462
 2812SOL     OW19897   4.164   2.634  14.609  0.0553 -0.2753  0.2664
 2812SOL    HW119898   4.251   2.640  14.571  0.1287  1.7027  0.7349
 2812SOL    HW219899   4.170   2.689  14.687  0.8950  1.3984 -0.9757
 2813SOL     OW19900   2.199   2.443  15.045  0.2693  0.6125 -0.2958
 2813SOL    HW119901   2.171   2.509  15.109 -0.6128  0.3428 -0.4099
 2813SOL    HW219902   2.289   2.471  15.030 -0.3417  2.2043 -0.9717
 2814SOL     OW19903   1.383   4.698   9.652 -0.3482  0.2409  0.2085
 2814SOL    HW119904   1.372   0.015   9.567 -0.7214 -1.5012 -0.6025
 2814SOL    HW219905   1.413   0.042   9.712  0.1548  0.8778 -0.7794
 2815SOL     OW19906   2.182   1.212   8.379  0.5478 -0.0401 -0.0743
 2815SOL    HW119907   2.180   1.273   8.305 -0.5678 -0.3548 -0.3077
 2815SOL    HW219908   2.129   1.146   8.334 -0.0175  0.7993 -0.6575
 2816SOL     OW19909   3.806   4.014   7.167 -0.2491  0.4818  0.0834
 2816SOL    HW119910   3.808   3.924   7.197 -2.5440  0.6475  0.7367
 2816SOL    HW219911   3.843   4.054   7.245  0.5949  0.8655 -0.5093
 2817SOL     OW19912   3.085   2.053   3.743 -0.2212  0.5745 -0.7601
 2817SOL    HW119913   3.117   2.137   3.711  0.0888  0.8705  0.3353
 2817SOL    HW219914   2.992   2.053   3.721 -0.1065  0.5286 -1.2622
 2818SOL     OW19915   2.159   1.274   9.000  0.0841  0.6453 -0.5762
 2818SOL    HW119916   2.228   1.312   9.055 -0.6699 -1.0368  1.5311
 2818SOL    HW219917   2.082   1.291   9.053 -0.8590 -2.0053 -1.0835
 2819SOL     OW19918   3.664   3.264   6.971 -0.1964 -0.2386  0.3794
 2819SOL    HW119919   3.620   3.324   6.912  1.0086  0.2712  0.0060
 2819SOL    HW219920   3.626   3.188   6.927 -0.0885 -0.2493  0.3070
 2820SOL     OW19921   0.952   3.897   8.722  0.1369 -0.0709 -0.0910
 2820SOL    HW119922   0.916   3.951   8.651  0.9808 -1.6422 -1.7071
 2820SOL    HW219923   0.968   3.815   8.675 -0.7554  1.5193 -3.1566
 2821SOL     OW19924   2.290   0.863   3.515 -0.1917 -0.2900 -0.0035
 2821SOL    HW119925   2.194   0.867   3.511 -0.0741  1.1450 -1.7969
 2821SOL    HW219926   2.298   0.800   3.444 -2.8630  0.4488 -0.9583
 2822SOL     OW19927   0.252   0.768   8.742  0.1681  0.3805 -0.5115
 2822SOL    HW119928   0.258   0.757   8.648 -1.2108 -1.3547 -0.3880
 2822SOL    HW219929   0.171   0.726   8.770  1.0250  0.2508  1.8222
 2823SOL     OW19930   3.519   2.613   1.131  0.2506  0.2342  0.3722
 2823SOL    HW119931   3.475   2.544   1.082 -0.2688 -0.2856  1.5556
 2823SOL    HW219932   3.549   2.673   1.063  1.8724  0.9999  1.7675
 2824SOL     OW19933   1.364   1.046   0.046  0.3036 -0.5933  0.9579
 2824SOL    HW119934   1.338   1.085   0.130  1.3841  1.5602  0.2754
 2824SOL    HW219935   1.428   1.100   0.001 -2.2391 -0.1411 -2.1353
 2825SOL     OW19936   0.864   2.478  15.534  0.2526  0.2329  0.1772
 2825SOL    HW119937   0.941   2.498  15.588  0.8913 -2.3828  0.2493
 2825SOL    HW219938   0.871   2.557  15.480 -0.5164  0.8472  0.9605
 2826SOL     OW19939   2.696   1.835   5.058 -0.1025 -0.4408  0.2919
 2826SOL    HW119940   2.726   1.762   5.003 -0.3534 -0.6033  0.3721
 2826SOL    HW219941   2.723   1.803   5.144  0.4641  0.8509  0.6059
 2827SOL     OW19942   2.726   2.757   7.443  0.6774  0.7305  0.3309
 2827SOL    HW119943   2.671   2.718   7.511 -2.6701  3.0670 -0.9785
 2827SOL    HW219944   2.716   2.851   7.458  3.8905  1.3718 -1.5063
 2828SOL     OW19945   0.229   3.031  12.356 -0.5338  0.1587  0.0698
 2828SOL    HW119946   0.198   2.953  12.310  0.7888 -1.4919  1.9835
 2828SOL    HW219947   0.292   2.983  12.409 -1.5375  1.3971  2.3701
 2829SOL     OW19948   1.482   1.421   1.454 -0.2395 -0.8814 -0.0049
 2829SOL    HW119949   1.510   1.346   1.401  2.4542 -0.1294  0.3677
 2829SOL    HW219950   1.517   1.399   1.540  0.6888  2.1474  0.3892
 2830SOL     OW19951   0.373   3.472   4.609 -0.4866  0.0470 -0.1185
 2830SOL    HW119952   0.312   3.421   4.555 -0.3560  0.3013 -0.5033
 2830SOL    HW219953   0.339   3.562   4.611 -0.7783 -0.0342 -1.3718
 2831SOL     OW19954   0.342   0.524   6.602  0.6178  0.4091  0.4070
 2831SOL    HW119955   0.393   0.596   6.639 -1.2037  2.4032 -0.9848
 2831SOL    HW219956   0.330   0.478   6.686  2.1127  2.6048  1.8168
 2832SOL     OW19957   2.066   1.774   8.979 -0.2618 -0.1400 -0.1230
 2832SOL    HW119958   2.010   1.781   9.056 -0.6535 -1.0847 -0.3227
 2832SOL    HW219959   2.132   1.710   9.005 -1.6237 -1.1524  0.8321
 2833SOL     OW19960   0.489   3.925   3.112 -0.8566  0.2229 -0.2384
 2833SOL    HW119961   0.465   4.017   3.105  0.9354  0.7601  0.8163
 2833SOL    HW219962   0.551   3.914   3.040 -2.5535  0.0284 -1.6989
 2834SOL     OW19963   3.034   2.824   9.154 -0.4826  0.1803 -1.0710
 2834SOL    HW119964   3.073   2.846   9.069  2.2427  0.4520  0.2584
 2834SOL    HW219965   2.948   2.794   9.122 -0.2294 -1.9886  0.3032
 2835SOL     OW19966   4.323   1.771   6.183 -0.2262  0.1885 -0.0336
 2835SOL    HW119967   4.342   1.863   6.203  0.7682 -0.1930  0.7538
 2835SOL    HW219968   4.243   1.749   6.231  1.6408  0.3535  3.1604
 2836SOL     OW19969   3.283   4.454   4.931 -0.0251 -0.0102  0.4989
 2836SOL    HW119970   3.315   4.435   4.843  0.1288  1.2868  0.2772
 2836SOL    HW219971   3.368   4.466   4.974  0.8234 -3.2729 -0.2494
 2837SOL     OW19972   1.315   2.795  13.293  0.6745 -0.1412 -0.6704
 2837SOL    HW119973   1.308   2.799  13.198 -0.7063 -2.1837 -0.6640
 2837SOL    HW219974   1.410   2.801  13.304  0.6056  0.4991 -0.4185
 2838SOL     OW19975   4.374   0.802   9.666 -0.1002  0.0538 -0.7470
 2838SOL    HW119976   4.411   0.833   9.748  0.8836  0.0315 -1.1804
 2838SOL    HW219977   4.366   0.714   9.702 -0.7014 -0.4243 -2.0390
 2839SOL     OW19978   2.038   2.252   9.608  0.5191  0.7446  0.4993
 2839SOL    HW119979   2.117   2.243   9.555  0.4256  0.4719  0.4065
 2839SOL    HW219980   2.045   2.345   9.632  1.4464  1.3698 -2.2430
 2840SOL     OW19981   2.425   1.413   2.447  0.6227 -0.4943 -0.4376
 2840SOL    HW119982   2.352   1.414   2.510  2.1870 -0.4527  1.3865
 2840SOL    HW219983   2.445   1.506   2.459 -0.2513 -0.1013 -2.0432
 2841SOL     OW19984   3.315   2.673   5.711 -0.4641 -0.0436  0.3793
 2841SOL    HW119985   3.400   2.631   5.726  0.3760  1.4718 -0.2028
 2841SOL    HW219986   3.320   2.710   5.623 -0.9186 -0.3510  0.2243
 2842SOL     OW19987   2.336   1.004   4.498  0.6039  0.8311 -0.1838
 2842SOL    HW119988   2.346   0.989   4.404  1.1395 -0.8006  0.1324
 2842SOL    HW219989   2.244   0.984   4.516  0.9935 -2.7026 -2.2500
 2843SOL     OW19990   1.792   1.028   1.742 -0.2743  0.1357 -0.6380
 2843SOL    HW119991   1.765   0.993   1.656  0.0736 -0.1970 -0.6124
 2843SOL    HW219992   1.887   1.022   1.735 -0.2035  0.7769 -0.1741
 2844SOL     OW19993   4.408   0.568  12.998  0.1509 -0.0558  0.3905
 2844SOL    HW119994   4.484   0.522  12.963 -0.9950 -0.8095 -1.0866
 2844SOL    HW219995   4.406   0.655  12.960 -2.6649  0.3868  1.5001
 2845SOL     OW19996   0.520   1.189   4.092  0.8022 -0.3202  0.2679
 2845SOL    HW119997   0.480   1.105   4.111 -1.9962  0.8282 -0.5755
 2845SOL    HW219998   0.552   1.156   4.008  0.9491  3.1082 -1.0263
 2846SOL     OW19999   3.503   0.349   2.621 -0.3103 -0.0176 -0.3488
 2846SOL    HW120000   3.466   0.375   2.706 -0.8902 -0.4369 -0.4722
 2846SOL    HW220001   3.453   0.408   2.565  0.5314 -0.1378 -1.2158
 2847SOL     OW20002   4.231   2.976   7.801  0.1530 -0.4457 -0.1486
 2847SOL    HW120003   4.260   2.885   7.804  1.0284 -0.1550  0.1027
 2847SOL    HW220004   4.315   3.020   7.813 -0.2859 -0.3216  2.4325
 2848SOL     OW20005   3.031   4.162   8.374 -0.8692 -0.2559 -0.2243
 2848SOL    HW120006   3.032   4.083   8.320  1.3499 -0.5566  0.2619
 2848SOL    HW220007   2.938   4.185   8.374 -0.5531  1.0084  2.5428
 2849SOL     OW20008   4.100   0.743   6.707  0.2773 -0.2764  0.2475
 2849SOL    HW120009   4.047   0.666   6.729  2.1422 -1.0735  1.8576
 2849SOL    HW220010   4.028   0.804   6.726  0.3592 -0.0874 -0.0361
 2850SOL     OW20011   3.678   3.192   2.800  0.0259  0.2099  0.1556
 2850SOL    HW120012   3.665   3.273   2.850  2.4192  0.7676 -0.1272
 2850SOL    HW220013   3.601   3.140   2.823  0.9283 -1.0414  0.3148
 2851SOL     OW20014   0.596   2.453   7.863  0.1004 -0.3316  0.4724
 2851SOL    HW120015   0.636   2.474   7.778 -0.7889 -0.7498 -0.0542
 2851SOL    HW220016   0.544   2.532   7.876  0.7565  0.0130  0.9690
 2852SOL     OW20017   2.691   2.563   4.362 -0.0259  0.3608 -0.4015
 2852SOL    HW120018   2.681   2.572   4.267  0.1906  0.1927 -0.4404
 2852SOL    HW220019   2.715   2.470   4.367 -1.9033 -0.1481 -0.7505
 2853SOL     OW20020   1.343   2.266   4.222 -0.4254 -0.0093 -0.1243
 2853SOL    HW120021   1.403   2.263   4.296 -1.7072 -2.0331  0.8258
 2853SOL    HW220022   1.356   2.354   4.187  0.0771  0.0986  0.3492
 2854SOL     OW20023   3.686   1.314   7.568  0.3462 -0.0175 -0.2834
 2854SOL    HW120024   3.609   1.307   7.624 -0.6473 -1.1833 -1.7904
 2854SOL    HW220025   3.709   1.407   7.571 -1.2668  0.3733 -0.1536
 2855SOL     OW20026   4.283   3.056   6.306  0.3965 -0.1436  0.2267
 2855SOL    HW120027   4.280   2.960   6.301  0.1420 -0.1746  1.0043
 2855SOL    HW220028   4.334   3.078   6.228 -1.2360  1.3448 -0.4077
 2856SOL     OW20029   3.263   2.534   5.378 -0.1001 -0.1996 -0.4126
 2856SOL    HW120030   3.303   2.543   5.291  0.8039 -2.4243 -0.2244
 2856SOL    HW220031   3.301   2.610   5.421  3.6631 -1.9667 -0.6776
 2857SOL     OW20032   3.409   3.285   9.119  0.2484  0.2306  0.7018
 2857SOL    HW120033   3.336   3.347   9.113  0.1916  0.2134  1.1988
 2857SOL    HW220034   3.377   3.222   9.183  0.3778  0.0207  0.5611
 2858SOL     OW20035   3.012   4.113   0.334  0.0886  0.1688 -0.6573
 2858SOL    HW120036   3.023   4.206   0.352  0.2191 -0.0333  0.2808
 2858SOL    HW220037   3.079   4.070   0.386 -0.9343  1.3670  1.6483
 2859SOL     OW20038   1.077   3.726   4.721 -0.5364  0.2666 -0.6556
 2859SOL    HW120039   0.993   3.721   4.766 -0.1249 -4.5460 -0.3796
 2859SOL    HW220040   1.135   3.674   4.778 -0.8777  0.2186 -0.3517
 2860SOL     OW20041   2.048   0.298  15.911  0.6409  0.2105  0.4304
 2860SOL    HW120042   2.109   0.230  15.880  1.7384  2.0909 -1.5759
 2860SOL    HW220043   1.973   0.259  15.955  2.2642 -0.2547  2.7636
 2861SOL     OW20044   4.038   1.939  14.784 -0.0824  0.3480  1.2017
 2861SOL    HW120045   3.982   1.878  14.833  0.7546  0.1135  1.8570
 2861SOL    HW220046   4.036   2.005  14.854 -1.0432  2.1957 -0.5726
 2862SOL     OW20047   1.793   1.918   6.020  0.0001  0.5173 -0.5881
 2862SOL    HW120048   1.849   1.889   6.092  0.7208  2.3196 -0.4350
 2862SOL    HW220049   1.845   1.894   5.943  0.9324  0.1953  0.1466
 2863SOL     OW20050   3.087   4.118   5.711 -0.3193 -0.1430  0.1626
 2863SOL    HW120051   3.001   4.157   5.698  0.9475  2.6172 -0.0176
 2863SOL    HW220052   3.141   4.190   5.744 -1.5577  0.6770  0.3945
 2864SOL     OW20053   2.156   3.938   3.831  0.0382  0.1511  0.3255
 2864SOL    HW120054   2.068   3.970   3.850 -0.2121 -0.8782  0.9034
 2864SOL    HW220055   2.198   3.962   3.913 -0.2401 -0.4119  0.6311
 2865SOL     OW20056   4.163   2.530   5.293 -0.1915 -0.1200 -0.6610
 2865SOL    HW120057   4.240   2.508   5.345  0.6064  1.6768 -1.1097
 2865SOL    HW220058   4.107   2.565   5.362  2.8532 -1.0525  2.2679
 2866SOL     OW20059   3.470   4.213   5.250 -0.2167 -0.0118  0.1500
 2866SOL    HW120060   3.383   4.179   5.230 -0.7175  1.6332 -0.4872
 2866SOL    HW220061   3.472   4.200   5.345 -2.7660 -0.1036  0.1940
 2867SOL     OW20062   3.477   4.248   7.018 -0.5921 -0.0400 -0.1793
 2867SOL    HW120063   3.496   4.298   6.938 -0.8648 -1.5529 -1.1878
 2867SOL    HW220064   3.382   4.241   7.023 -0.5620 -0.6527 -0.5473
 2868SOL     OW20065   1.981   3.648  12.637  0.5960  0.4907  0.0618
 2868SOL    HW120066   2.052   3.711  12.642  1.0989  0.0318 -1.3086
 2868SOL    HW220067   1.939   3.671  12.554 -0.3320  2.7643  1.1414
 2869SOL     OW20068   0.666   0.199   2.337  0.1113  0.0157 -0.4178
 2869SOL    HW120069   0.673   0.204   2.432 -1.8493  2.9779 -0.4491
 2869SOL    HW220070   0.595   0.261   2.327 -0.5940 -0.6233  0.6313
 2870SOL     OW20071   0.472   3.582  10.212 -0.6554  0.0829 -0.8557
 2870SOL    HW120072   0.422   3.520  10.265  2.4670 -1.6798  0.0711
 2870SOL    HW220073   0.563   3.565  10.238 -1.4270 -1.7326  0.6922
 2871SOL     OW20074   1.193   0.492   8.985 -0.1994 -0.2828  0.4488
 2871SOL    HW120075   1.148   0.422   8.937  1.9857 -3.7436  3.4658
 2871SOL    HW220076   1.271   0.518   8.936 -1.9292  0.7864 -1.7373
 2872SOL     OW20077   1.999   2.991   7.491 -0.0885  0.1545 -0.7550
 2872SOL    HW120078   1.941   2.924   7.524 -0.5337  1.2689  0.7274
 2872SOL    HW220079   1.947   3.036   7.425  2.2032  1.0464 -1.9836
 2873SOL     OW20080   2.637   2.002   3.445  0.1935  0.2612  0.1993
 2873SOL    HW120081   2.626   2.079   3.389 -1.9305  0.2957  0.6341
 2873SOL    HW220082   2.626   1.937   3.375  0.2145 -0.1417  0.5706
 2874SOL     OW20083   2.348   3.678   4.813 -0.1456 -0.4231 -0.3987
 2874SOL    HW120084   2.337   3.583   4.809 -1.4263 -0.3541  1.4895
 2874SOL    HW220085   2.318   3.697   4.902  0.1594 -1.7611 -0.0156
 2875SOL     OW20086   3.671   4.507   4.378  0.3894  0.3159  0.0674
 2875SOL    HW120087   3.583   4.535   4.354 -0.6490 -2.3020  0.7938
 2875SOL    HW220088   3.729   4.573   4.340 -0.7234  0.2648 -1.6912
 2876SOL     OW20089   3.748   0.325   4.532 -0.0211  0.1121  0.1923
 2876SOL    HW120090   3.695   0.306   4.454  1.3764  1.5197 -1.1141
 2876SOL    HW220091   3.690   0.382   4.581 -2.2062 -0.6319 -1.5227
 2877SOL     OW20092   3.893   2.744   7.916  0.3409 -0.1961  0.2643
 2877SOL    HW120093   3.953   2.781   7.981  1.0123 -0.9311  0.0664
 2877SOL    HW220094   3.961   2.700   7.865  1.6288 -0.6733  2.3866
 2878SOL     OW20095   0.039   3.271   9.139 -0.8965 -0.0827 -0.6416
 2878SOL    HW120096   0.021   3.192   9.088  1.2696 -0.7950 -0.2868
 2878SOL    HW220097   0.126   3.297   9.111 -1.2879  1.9630  0.0113
 2879SOL     OW20098   2.135   1.329  13.314 -0.0462  0.0059 -0.0202
 2879SOL    HW120099   2.218   1.363  13.347 -1.3144  3.5037 -0.4710
 2879SOL    HW220100   2.170   1.245  13.284 -0.4120 -0.4093  0.7029
 2880SOL     OW20101   4.594   4.423   9.466 -0.4003  0.1303 -0.2992
 2880SOL    HW120102   4.573   4.330   9.460  0.0031  0.1804 -2.6510
 2880SOL    HW220103   4.583   4.436   9.560 -0.4429  1.6773 -0.5162
 2881SOL     OW20104   4.239   0.540  12.770  0.0170 -0.0900 -0.0161
 2881SOL    HW120105   4.293   0.547  12.849  0.2434  1.1509 -0.2735
 2881SOL    HW220106   4.246   0.450  12.740  1.0828  0.1160 -0.3853
 2882SOL     OW20107   2.322   3.707   3.461  0.6227  0.1690  0.2800
 2882SOL    HW120108   2.382   3.650   3.509  1.0716  1.3168  1.0837
 2882SOL    HW220109   2.253   3.716   3.527  0.1801  1.5165 -0.3611
 2883SOL     OW20110   1.353   1.374   3.725 -0.6253  0.3020 -0.2030
 2883SOL    HW120111   1.382   1.283   3.721 -1.4524 -0.0882  2.7185
 2883SOL    HW220112   1.378   1.396   3.635 -2.3817  0.7339 -0.5917
 2884SOL     OW20113   0.281   4.326   7.122  0.2853 -0.0117  0.2831
 2884SOL    HW120114   0.376   4.312   7.122  0.4087  0.8875 -0.3219
 2884SOL    HW220115   0.276   4.345   7.029 -1.7889  0.3141  0.4517
 2885SOL     OW20116   2.648   3.652   3.201 -0.1097  0.1455 -0.2319
 2885SOL    HW120117   2.674   3.725   3.256 -0.1510 -0.9363  1.2188
 2885SOL    HW220118   2.663   3.577   3.259 -2.4195  0.5090  0.8452
 2886SOL     OW20119   0.363   2.544   2.229  0.5474  0.7159 -0.0212
 2886SOL    HW120120   0.391   2.556   2.138 -0.0980 -1.7797 -0.5438
 2886SOL    HW220121   0.442   2.549   2.283 -0.2356 -2.1888  1.3957
 2887SOL     OW20122   0.103   0.488  15.557 -0.1571  0.2425 -0.5549
 2887SOL    HW120123   0.037   0.552  15.584  1.0938 -0.1642  3.3949
 2887SOL    HW220124   0.042   0.427  15.515 -0.1330  1.0172 -1.7133
 2888SOL     OW20125   1.690   2.056   1.420 -0.0718 -0.4960 -0.4904
 2888SOL    HW120126   1.748   2.118   1.376 -2.6683 -1.0616 -4.7075
 2888SOL    HW220127   1.751   1.990   1.453  1.1687  1.4397  1.0060
 2889SOL     OW20128   4.022   4.060   8.219 -0.2064  0.5349  0.2327
 2889SOL    HW120129   4.035   4.068   8.314  1.9679 -1.9108  0.1411
 2889SOL    HW220130   4.059   4.137   8.176  1.4412  0.9821  2.4222
 2890SOL     OW20131   4.212   0.940   5.276 -0.2203 -0.2451  0.2013
 2890SOL    HW120132   4.290   0.888   5.260 -0.7685 -1.3319  1.0764
 2890SOL    HW220133   4.184   0.895   5.355  3.2352 -0.7826  1.0893
 2891SOL     OW20134   4.654   1.937  15.218  0.1974 -0.1609  0.6580
 2891SOL    HW120135   0.019   1.905  15.205  0.9371  1.2924  2.0847
 2891SOL    HW220136   4.668   2.025  15.255 -1.3918 -0.1319  1.1686
 2892SOL     OW20137   2.998   1.605   7.061  0.3058  0.1418 -0.2862
 2892SOL    HW120138   2.951   1.549   6.998 -2.6910  1.2602  0.9540
 2892SOL    HW220139   2.930   1.672   7.071  0.9278  0.5598  1.0048
 2893SOL     OW20140   0.345   3.688  12.374 -0.1120 -0.6130  0.6241
 2893SOL    HW120141   0.270   3.691  12.313 -1.4671 -1.2233  2.2590
 2893SOL    HW220142   0.299   3.740  12.440 -3.0415 -0.5340 -1.4668
 2894SOL     OW20143   1.103   2.217   8.327 -0.3216  0.6729 -0.4885
 2894SOL    HW120144   1.085   2.283   8.394  1.6698 -0.9892  1.6766
 2894SOL    HW220145   1.099   2.140   8.383 -0.0711  1.3707  0.4855
 2895SOL     OW20146   3.461   3.595   7.325  0.1154 -0.3762  0.1817
 2895SOL    HW120147   3.443   3.610   7.418  1.8500 -0.5404  0.5545
 2895SOL    HW220148   3.415   3.512   7.311 -1.9689  1.1530 -1.9992
 2896SOL     OW20149   4.352   4.111   4.845  0.1195  0.2086 -0.9510
 2896SOL    HW120150   4.405   4.092   4.922 -0.2791  1.0562 -0.4638
 2896SOL    HW220151   4.274   4.057   4.862  0.0955  0.7762  0.7441
 2897SOL     OW20152   3.665   2.754   5.425  0.1339  0.9507  0.6025
 2897SOL    HW120153   3.718   2.833   5.418 -0.0536  1.0125 -0.0282
 2897SOL    HW220154   3.692   2.709   5.345  2.7187  3.7286 -0.0881
 2898SOL     OW20155   2.429   2.843   9.174  0.2273  0.3462 -0.2512
 2898SOL    HW120156   2.461   2.903   9.107 -0.6660  1.9839  0.7931
 2898SOL    HW220157   2.509   2.818   9.219  0.4496  2.1445  0.3420
 2899SOL     OW20158   0.872   3.794  15.122 -0.1608 -0.4968  0.4886
 2899SOL    HW120159   0.914   3.780  15.207  0.9610  1.2938  0.2328
 2899SOL    HW220160   0.795   3.739  15.110 -0.8748  0.5531  0.2334
 2900SOL     OW20161   4.149   4.234   7.631 -0.0159 -0.0149  0.0304
 2900SOL    HW120162   4.205   4.274   7.564  0.4014  0.4518  0.6643
 2900SOL    HW220163   4.192   4.149   7.634  0.3630  0.1611 -0.3064
 2901SOL     OW20164   2.995   4.473   8.111  0.0931 -0.1852 -0.1006
 2901SOL    HW120165   3.054   4.548   8.100 -0.8591  0.2830 -2.0389
 2901SOL    HW220166   2.912   4.520   8.113 -1.3181 -2.7204  0.6168
 2902SOL     OW20167   3.372   4.424  11.544  0.0292 -0.7919 -0.1243
 2902SOL    HW120168   3.296   4.368  11.534  1.1635 -2.0809 -1.5539
 2902SOL    HW220169   3.381   4.449  11.451  1.5062  1.8642  0.7222
 2903SOL     OW20170   0.651   0.258   3.659 -0.6645 -0.3679 -0.4745
 2903SOL    HW120171   0.589   0.290   3.725  0.7013  0.1880  0.5468
 2903SOL    HW220172   0.582   0.223   3.602 -2.8884  1.5376  1.0191
 2904SOL     OW20173   3.055   3.609  15.450 -0.5870  0.4316 -0.3194
 2904SOL    HW120174   3.036   3.515  15.450 -0.7076  0.4491 -1.9380
 2904SOL    HW220175   3.046   3.645  15.361 -1.2346 -0.1400 -0.4854
 2905SOL     OW20176   4.524   1.385  11.432  0.0606  0.1031  0.1219
 2905SOL    HW120177   4.598   1.363  11.488  0.0595  2.0179  0.9038
 2905SOL    HW220178   4.568   1.409  11.351  1.9337 -2.0596  0.5098
 2906SOL     OW20179   1.379   2.191   2.360 -0.3577 -0.4882  0.5838
 2906SOL    HW120180   1.463   2.218   2.324  0.7412 -3.6132  0.7931
 2906SOL    HW220181   1.366   2.112   2.307 -0.1268  0.4477 -0.8540
 2907SOL     OW20182   2.362   2.542   9.382  0.2098 -0.3357 -0.1525
 2907SOL    HW120183   2.316   2.545   9.465 -0.8651  0.0002 -0.7539
 2907SOL    HW220184   2.430   2.478   9.401  0.3943 -0.3488 -0.8498
 2908SOL     OW20185   2.786   3.011   0.850  0.1068  0.4342  0.5194
 2908SOL    HW120186   2.854   3.029   0.916  0.7705  0.8174 -0.2720
 2908SOL    HW220187   2.746   3.097   0.844 -0.0318  0.4545  1.7842
 2909SOL     OW20188   0.772   0.145   6.932 -0.3918  0.7755 -0.2068
 2909SOL    HW120189   0.680   0.124   6.950 -0.7262  0.6316 -2.1110
 2909SOL    HW220190   0.766   0.161   6.838  1.1091  0.6492 -0.3153
 2910SOL     OW20191   3.942   2.361   3.045  0.0163 -0.0579 -0.2516
 2910SOL    HW120192   3.978   2.291   3.098  1.8279  1.9312  1.1420
 2910SOL    HW220193   4.022   2.405   3.014 -0.7394  1.3308 -0.2485
 2911SOL     OW20194   1.689   4.253   9.345  0.4468 -0.7075 -0.5619
 2911SOL    HW120195   1.730   4.191   9.407  1.8270  1.6503  0.8860
 2911SOL    HW220196   1.637   4.299   9.410  1.2224  2.3450 -2.1265
 2912SOL     OW20197   1.477   4.001   5.904  0.1866  0.0396 -0.0018
 2912SOL    HW120198   1.439   3.946   5.972 -0.7318  0.4098 -0.2086
 2912SOL    HW220199   1.561   4.011   5.949  0.1055 -3.9212  1.0206
 2913SOL     OW20200   1.005   3.121   6.732  0.3097 -0.3334 -0.4839
 2913SOL    HW120201   1.042   3.196   6.779  0.5638  0.1259 -1.4135
 2913SOL    HW220202   1.075   3.111   6.668  0.8059 -1.4880  0.2353
 2914SOL     OW20203   3.633   0.674   8.314 -0.4539  0.5655  0.4150
 2914SOL    HW120204   3.577   0.686   8.237  0.5632  1.1340 -0.2236
 2914SOL    HW220205   3.716   0.707   8.280 -0.6357  0.5012 -0.0880
 2915SOL     OW20206   2.044   1.242   4.503 -0.0831 -0.6911 -0.2528
 2915SOL    HW120207   2.119   1.300   4.490 -0.4715  0.0501  0.8239
 2915SOL    HW220208   1.973   1.296   4.537  1.4262  1.3142 -0.2283
 2916SOL     OW20209   2.525   1.141   8.753  0.1722 -0.5701 -0.2638
 2916SOL    HW120210   2.431   1.123   8.753 -0.1652  1.1660 -0.9223
 2916SOL    HW220211   2.532   1.191   8.671 -1.0499  1.0176  0.6037
 2917SOL     OW20212   3.199   3.723   6.438  0.9104  0.1124  0.3582
 2917SOL    HW120213   3.140   3.781   6.390  1.3469  1.3931  1.3902
 2917SOL    HW220214   3.257   3.780   6.488  2.2795 -2.2026  1.4059
 2918SOL     OW20215   2.586   1.027   4.043  0.1873 -0.6855  0.1757
 2918SOL    HW120216   2.659   1.009   4.103  1.6098 -1.3487 -1.7453
 2918SOL    HW220217   2.611   0.975   3.967  1.2792  0.2552 -0.0970
 2919SOL     OW20218   1.827   0.189   3.325  0.2522  0.3054  0.0194
 2919SOL    HW120219   1.883   0.113   3.342  0.8310  0.5803 -0.6471
 2919SOL    HW220220   1.748   0.148   3.291 -0.5729  0.0419  2.3048
 2920SOL     OW20221   2.763   2.871   1.797  0.3905 -0.1186  0.4439
 2920SOL    HW120222   2.824   2.835   1.861  0.0600  1.5563  1.7057
 2920SOL    HW220223   2.681   2.887   1.845 -0.7896 -1.2191 -1.2014
 2921SOL     OW20224   4.078   2.954  14.016 -0.3829  0.1168 -0.2867
 2921SOL    HW120225   4.015   2.884  14.003  0.1354 -0.0737 -1.8419
 2921SOL    HW220226   4.151   2.910  14.060 -2.3516 -0.9449  1.8805
 2922SOL     OW20227   0.584   4.623   3.401  0.4501 -0.1424  0.5588
 2922SOL    HW120228   0.630   4.564   3.461 -0.9091 -0.1403  1.6058
 2922SOL    HW220229   0.513   4.564   3.374  2.0928 -0.7700 -2.4012
 2923SOL     OW20230   2.214   3.350   8.923 -0.3091 -0.1427  0.1626
 2923SOL    HW120231   2.239   3.316   9.009  1.1910 -2.9337 -1.3842
 2923SOL    HW220232   2.299   3.376   8.889  0.7392 -1.0720  2.0565
 2924SOL     OW20233   2.302   2.677   6.561  0.1050 -0.3973  0.0228
 2924SOL    HW120234   2.325   2.723   6.480 -4.4798  1.2732 -0.2769
 2924SOL    HW220235   2.216   2.644   6.535  0.8064  0.3191 -3.2499
 2925SOL     OW20236   1.147   4.256   5.975  0.4738 -0.3799  0.0020
 2925SOL    HW120237   1.223   4.277   6.029 -0.4134  1.1469  0.6509
 2925SOL    HW220238   1.171   4.167   5.949  3.3330  0.0531  1.1027
 2926SOL     OW20239   0.508   2.705   5.144  0.1685  0.0850  0.0069
 2926SOL    HW120240   0.575   2.746   5.198 -1.7012  0.9165  1.6995
 2926SOL    HW220241   0.427   2.738   5.183 -0.5078 -1.8174  0.2223
 2927SOL     OW20242   2.597   1.574   4.609  0.0135 -0.0473 -0.1310
 2927SOL    HW120243   2.504   1.568   4.630 -0.4286 -0.8451 -2.3384
 2927SOL    HW220244   2.595   1.528   4.525 -0.7846  2.3591 -1.3988
 2928SOL     OW20245   2.234   1.447   1.858  0.8191  0.5472 -0.6024
 2928SOL    HW120246   2.158   1.419   1.806  1.4171 -0.9292 -0.6773
 2928SOL    HW220247   2.219   1.430   1.951  1.2811  0.2413 -0.5891
 2929SOL     OW20248   0.766   2.374   8.104  0.4476 -0.2215  0.0006
 2929SOL    HW120249   0.738   2.413   8.021 -1.5990 -0.1482  0.7095
 2929SOL    HW220250   0.730   2.286   8.092  0.0915  0.0456 -0.8900
 2930SOL     OW20251   0.615   1.813   6.270  0.5834  0.4010  0.1674
 2930SOL    HW120252   0.551   1.848   6.208 -0.3947  0.6061  1.2860
 2930SOL    HW220253   0.576   1.736   6.312  0.9542 -0.9344 -1.9441
 2931SOL     OW20254   1.085   0.028   3.936 -0.3092 -0.5103 -0.0512
 2931SOL    HW120255   1.180   0.016   3.943 -0.0769  0.5260 -1.4375
 2931SOL    HW220256   1.076   0.027   3.841 -0.9815  1.2957 -0.0098
 2932SOL     OW20257   2.623   4.399   6.360  0.2915 -0.3908  0.0322
 2932SOL    HW120258   2.695   4.413   6.298 -1.6165  0.1592 -2.0419
 2932SOL    HW220259   2.669   4.359   6.434 -0.7060 -0.5547  0.5548
 2933SOL     OW20260   3.908   0.256  12.097 -0.2682 -0.0623  0.2636
 2933SOL    HW120261   3.935   0.248  12.006  0.0232  0.3232  0.3142
 2933SOL    HW220262   3.931   0.171  12.134 -0.2738  0.1407  0.7324
 2934SOL     OW20263   3.712   3.171   4.535 -0.0068 -0.5687 -0.1456
 2934SOL    HW120264   3.790   3.179   4.480  0.3691  0.6548  0.5579
 2934SOL    HW220265   3.698   3.077   4.527 -1.2346 -0.6137  2.5471
 2935SOL     OW20266   0.911   0.990  11.832 -0.0794 -0.0636 -0.5905
 2935SOL    HW120267   0.913   0.997  11.928 -0.1706 -1.8537 -0.4518
 2935SOL    HW220268   0.828   0.946  11.816  0.9936 -2.4486  0.4029
 2936SOL     OW20269   0.838   2.505   8.841 -0.2721  0.5936 -0.2249
 2936SOL    HW120270   0.779   2.567   8.883  0.1663 -0.8131  2.4469
 2936SOL    HW220271   0.836   2.530   8.748 -2.6092  0.6069 -0.1682
 2937SOL     OW20272   4.306   0.511   7.659 -0.0091  0.0174 -0.3106
 2937SOL    HW120273   4.315   0.606   7.651 -1.2790 -0.0276 -2.1631
 2937SOL    HW220274   4.324   0.495   7.566  0.7277  0.9908 -0.3333
 2938SOL     OW20275   0.243   1.099  10.066  0.5160 -0.1555  0.6965
 2938SOL    HW120276   0.220   1.192  10.066 -1.1929 -0.5752  2.0147
 2938SOL    HW220277   0.268   1.090   9.974 -0.6716 -0.6211  0.4207
 2939SOL     OW20278   0.081   1.384   1.966  0.2495 -0.0062  0.3651
 2939SOL    HW120279   0.115   1.305   1.924  1.1556 -0.2603  1.5819
 2939SOL    HW220280   4.711   1.366   1.967  0.1336  0.4469 -1.9226
 2940SOL     OW20281   0.366   1.661  11.997  0.0642 -0.0293 -0.3510
 2940SOL    HW120282   0.276   1.684  11.973  0.3851  1.0774 -0.5134
 2940SOL    HW220283   0.350   1.618  12.081 -1.2370  1.4794  0.1723
 2941SOL     OW20284   1.797   0.021   4.043 -0.1392  0.0626 -0.8548
 2941SOL    HW120285   1.845   4.706   3.970 -0.1509 -2.4206  0.4566
 2941SOL    HW220286   1.708   4.718   4.019 -0.5004  0.2615  0.2861
 2942SOL     OW20287   1.259   4.690   6.407 -0.4340 -0.2743 -0.3219
 2942SOL    HW120288   1.319   4.621   6.376 -1.0755 -1.1463  0.3892
 2942SOL    HW220289   1.198   4.628   6.447 -3.7211  2.6937 -0.7983
 2943SOL     OW20290   1.404   3.534   7.471  0.7156  0.2516  0.2275
 2943SOL    HW120291   1.395   3.624   7.504 -1.3614  0.0003  0.3266
 2943SOL    HW220292   1.407   3.486   7.554 -0.9235 -0.4804 -0.1489
 2944SOL     OW20293   1.014   0.542   7.406 -0.3179 -0.5570  0.0442
 2944SOL    HW120294   1.090   0.493   7.378 -0.4914  0.1763 -1.6941
 2944SOL    HW220295   1.003   0.598   7.329 -0.3834  0.4771  0.8119
 2945SOL     OW20296   1.913   3.264   6.714  0.1267  0.6381 -0.3225
 2945SOL    HW120297   1.968   3.259   6.635  2.6990 -1.7846  1.6079
 2945SOL    HW220298   1.864   3.345   6.698  0.8451  1.3652  1.2039
 2946SOL     OW20299   3.377   2.384   3.898  0.4528  0.1510 -0.2560
 2946SOL    HW120300   3.406   2.300   3.935  0.8506  0.7048  0.6948
 2946SOL    HW220301   3.457   2.420   3.860  0.2174  1.5677  0.6093
 2947SOL     OW20302   3.056   4.339   2.723  0.6268 -0.2238 -0.1235
 2947SOL    HW120303   3.080   4.347   2.630 -2.7714 -0.7913 -1.0229
 2947SOL    HW220304   3.094   4.251   2.736  3.2936  0.8745 -0.3718
 2948SOL     OW20305   0.279   1.479   1.101 -0.4343  0.5518 -0.2372
 2948SOL    HW120306   0.305   1.462   1.011 -2.9037  1.1202 -1.0658
 2948SOL    HW220307   0.194   1.514   1.073 -0.3964  1.5101  0.8535
 2949SOL     OW20308   0.755   4.711   3.884 -0.5359 -0.3378  0.2962
 2949SOL    HW120309   0.788   0.076   3.869  0.0484 -0.6380 -0.2232
 2949SOL    HW220310   0.739   4.710   3.978  0.9644 -1.0291  0.5481
 2950SOL     OW20311   2.703   1.716  13.287 -0.2927 -0.1282 -0.0479
 2950SOL    HW120312   2.744   1.760  13.213  0.9279  0.0746  0.7569
 2950SOL    HW220313   2.731   1.625  13.283  0.8919  0.2330 -0.1177
 2951SOL     OW20314   4.290   2.298  15.832  0.4757 -0.3576 -0.0101
 2951SOL    HW120315   4.290   2.386  15.870  2.1208 -0.1030 -0.5962
 2951SOL    HW220316   4.384   2.279  15.827  0.3657 -1.0628  0.5611
 2952SOL     OW20317   1.056   2.293   5.016 -0.2307  0.1134  0.0555
 2952SOL    HW120318   1.071   2.324   5.105 -1.9124 -1.2530  0.8308
 2952SOL    HW220319   0.977   2.334   4.981  0.6011 -0.5383 -2.6148
 2953SOL     OW20320   0.861   1.780  11.081 -0.4876 -0.2729 -0.5427
 2953SOL    HW120321   0.785   1.723  11.066 -0.4793  0.3658 -2.9005
 2953SOL    HW220322   0.820   1.833  11.149 -1.0420 -0.8838 -0.3963
 2954SOL     OW20323   1.969   1.399   3.405  0.3084  0.7087 -0.0133
 2954SOL    HW120324   1.919   1.464   3.455  0.6188  0.8773  0.0843
 2954SOL    HW220325   1.942   1.315   3.442  1.0758  0.2709 -0.4506
 2955SOL     OW20326   1.503   0.937  10.815  0.4345  0.4071 -0.1752
 2955SOL    HW120327   1.575   0.993  10.844 -1.0851  1.6691  1.1178
 2955SOL    HW220328   1.421   0.982  10.832  0.6008  1.0431 -1.0195
 2956SOL     OW20329   3.190   3.079   2.583 -0.3546 -0.1701  0.1135
 2956SOL    HW120330   3.133   3.107   2.512 -1.1237  0.8858  1.1414
 2956SOL    HW220331   3.274   3.100   2.543 -1.2336  1.1778 -1.0263
 2957SOL     OW20332   4.116   1.720   4.074 -0.2213  0.4741 -0.3095
 2957SOL    HW120333   4.073   1.656   4.018 -2.3671  2.1308 -0.5236
 2957SOL    HW220334   4.185   1.661   4.103 -2.7203 -2.2993 -0.0624
 2958SOL     OW20335   1.265   2.203  12.375 -0.0120 -0.3508 -0.2332
 2958SOL    HW120336   1.176   2.220  12.345  0.2752  1.1918 -0.2601
 2958SOL    HW220337   1.250   2.153  12.455 -0.4209  0.5285  0.2503
 2959SOL     OW20338   1.377   1.942  15.952 -0.0099 -0.3061  0.3888
 2959SOL    HW120339   1.396   2.032  15.980 -0.0644  0.4138 -1.9093
 2959SOL    HW220340   1.288   1.934  15.987  0.3927 -0.9612  1.2556
 2960SOL     OW20341   2.305   0.142  11.546  0.7273 -0.4092 -0.2454
 2960SOL    HW120342   2.292   0.204  11.474 -1.1210 -0.2842  0.1872
 2960SOL    HW220343   2.401   0.143  11.546  0.7263 -0.1687 -2.3294
 2961SOL     OW20344   2.121   3.055  17.662 -0.3386 -0.3004  0.8483
 2961SOL    HW120345   2.073   3.084   0.041 -0.8110  0.2188  0.3576
 2961SOL    HW220346   2.201   3.102  17.683 -0.3385  1.8706 -4.1091
 2962SOL     OW20347   4.480   0.818  15.263  0.3113 -0.4188 -0.7330
 2962SOL    HW120348   4.476   0.729  15.297  0.3328 -0.1018  0.1051
 2962SOL    HW220349   4.426   0.860  15.330  0.1571  1.1781 -1.8740
 2963SOL     OW20350   1.663   4.634   1.975 -0.0957 -0.0412 -0.0864
 2963SOL    HW120351   1.612   4.715   1.970 -0.2628 -0.2523 -1.7733
 2963SOL    HW220352   1.724   4.650   1.903  0.8453  1.4512  1.0498
 2964SOL     OW20353   4.623   2.569  12.724 -0.8318  0.0144 -0.3149
 2964SOL    HW120354   4.643   2.476  12.713  0.8191 -0.0678  3.2375
 2964SOL    HW220355   4.550   2.557  12.785 -1.7506 -1.6013 -1.7612
 2965SOL     OW20356   3.545   3.662   2.913 -0.2821  0.4376  0.0806
 2965SOL    HW120357   3.583   3.707   2.837  0.5209 -2.7733 -1.4055
 2965SOL    HW220358   3.457   3.700   2.911 -0.3055  0.3923  0.2758
 2966SOL     OW20359   2.937   1.414  14.483 -0.0484 -0.0783 -0.4357
 2966SOL    HW120360   2.916   1.345  14.545 -1.0376 -0.8527 -1.6330
 2966SOL    HW220361   2.910   1.485  14.541 -0.4510 -0.1819 -0.4961
 2967SOL     OW20362   1.245   1.641   3.724  0.4494 -0.5177 -0.3831
 2967SOL    HW120363   1.261   1.547   3.710 -3.3517 -0.8586 -2.4669
 2967SOL    HW220364   1.258   1.632   3.819  0.1208 -0.0669 -0.2966
 2968SOL     OW20365   4.568   0.824   6.175 -0.6511 -0.5597 -0.0610
 2968SOL    HW120366   4.640   0.762   6.167 -1.0629 -1.3142  2.0014
 2968SOL    HW220367   4.492   0.779   6.138 -0.6564 -1.3960  0.9823
 2969SOL     OW20368   2.577   3.611   3.597  0.2333  0.0644  0.4128
 2969SOL    HW120369   2.625   3.685   3.635  1.0679 -0.5757  0.6033
 2969SOL    HW220370   2.607   3.540   3.653 -0.7032 -1.0425 -0.4904
 2970SOL     OW20371   2.846   2.977   3.875 -0.5853 -0.3304 -0.6488
 2970SOL    HW120372   2.764   3.025   3.865  0.0350  0.1072 -3.6115
 2970SOL    HW220373   2.847   2.914   3.803 -0.8820 -0.0566 -0.8874
 2971SOL     OW20374   3.141   1.925   6.614  0.0825  0.0974 -0.4844
 2971SOL    HW120375   3.082   1.965   6.550 -1.6822  0.6564  1.4781
 2971SOL    HW220376   3.078   1.893   6.679  0.6924 -1.2907 -0.5792
 2972SOL     OW20377   0.547   0.830   4.695  0.1917  0.5414  0.4487
 2972SOL    HW120378   0.485   0.859   4.763 -0.3401  2.0566 -0.7008
 2972SOL    HW220379   0.486   0.811   4.624 -1.2848 -0.4872  1.9982
 2973SOL     OW20380   0.519   1.341   7.514 -0.5961 -0.3926 -0.3466
 2973SOL    HW120381   0.555   1.429   7.517  1.0679 -1.0172 -1.7458
 2973SOL    HW220382   0.496   1.324   7.605 -2.9333 -1.8787 -1.2003
 2974SOL     OW20383   2.495   3.769   9.288  0.2712 -0.0332 -0.2036
 2974SOL    HW120384   2.451   3.829   9.349 -0.5845  1.2477 -2.0690
 2974SOL    HW220385   2.523   3.704   9.352 -0.6528  0.3470  0.5871
 2975SOL     OW20386   2.721   1.139   8.971 -0.2870  0.0004 -0.4093
 2975SOL    HW120387   2.775   1.122   8.894 -0.6219  0.9209 -0.8496
 2975SOL    HW220388   2.645   1.088   8.943 -0.3338 -1.1982  1.9307
 2976SOL     OW20389   3.174   0.850   0.222 -0.1144  0.1762 -0.0479
 2976SOL    HW120390   3.265   0.866   0.246 -0.5241  2.3880  0.0588
 2976SOL    HW220391   3.152   0.929   0.172 -1.2024  0.4745  0.8853
 2977SOL     OW20392   4.113   1.560  10.204  0.0709 -0.2722  0.8588
 2977SOL    HW120393   4.048   1.618  10.163 -0.2436 -0.4372  1.1187
 2977SOL    HW220394   4.131   1.509  10.125  1.1548  1.5145 -0.0669
 2978SOL     OW20395   3.983   3.082   7.871 -0.2303 -0.2314 -0.2874
 2978SOL    HW120396   4.061   3.066   7.818  0.2440 -0.0530  0.3559
 2978SOL    HW220397   3.984   3.004   7.927 -3.2235  1.6475  2.4457
 2979SOL     OW20398   3.960   4.538   5.571 -0.2553  0.5313  0.6743
 2979SOL    HW120399   3.993   4.616   5.614  2.5270 -0.0547 -0.4260
 2979SOL    HW220400   3.868   4.557   5.554  0.0188  0.4158 -0.9542
 2980SOL     OW20401   3.018   0.335  11.473  0.1377  0.5390 -0.7093
 2980SOL    HW120402   3.044   0.412  11.524  0.6414 -0.1551  0.0907
 2980SOL    HW220403   2.928   0.333  11.508 -0.2330 -0.3470 -1.7161
 2981SOL     OW20404   3.003   3.005   1.096 -1.0335 -0.6266 -0.1945
 2981SOL    HW120405   3.089   3.012   1.054 -0.7124 -0.9439  0.4185
 2981SOL    HW220406   2.987   2.911   1.088 -1.5940 -0.5988  0.6631
 2982SOL     OW20407   3.776   0.196   9.580 -0.3162  0.0752 -0.3339
 2982SOL    HW120408   3.796   0.260   9.512  2.0947 -0.5954 -0.2341
 2982SOL    HW220409   3.680   0.188   9.588 -0.3694 -0.5557 -1.7614
 2983SOL     OW20410   2.302   4.318   3.090  0.3035 -0.0913 -0.1754
 2983SOL    HW120411   2.374   4.256   3.094 -0.0802 -0.6368 -1.5599
 2983SOL    HW220412   2.335   4.406   3.073  0.2417 -0.2785 -1.2644
 2984SOL     OW20413   0.024   1.466   7.122 -0.4656 -0.7491 -0.3116
 2984SOL    HW120414   0.068   1.536   7.170 -1.1464 -0.3723 -0.2311
 2984SOL    HW220415   0.050   1.496   7.035 -0.7783  0.6003  0.0612
 2985SOL     OW20416   3.603   1.271   3.370  0.2117 -0.3135  0.0680
 2985SOL    HW120417   3.586   1.358   3.333 -1.0576 -0.5196  0.1554
 2985SOL    HW220418   3.691   1.287   3.404  0.9265 -0.3296 -1.7475
 2986SOL     OW20419   4.332   2.260   2.932  0.3974  0.4736  0.2172
 2986SOL    HW120420   4.382   2.178   2.935 -0.1526  0.1561  0.7306
 2986SOL    HW220421   4.264   2.232   2.994 -0.6898  0.9019 -0.7781
 2987SOL     OW20422   1.380   3.541  16.104  0.0884 -0.2621 -0.0741
 2987SOL    HW120423   1.335   3.501  16.179  1.5202 -0.5028  0.6621
 2987SOL    HW220424   1.461   3.490  16.106  0.1371 -0.2479 -1.3925
 2988SOL     OW20425   1.920   1.368  16.043  0.1800  0.1902 -1.1021
 2988SOL    HW120426   1.865   1.386  16.119 -0.3289  0.3744 -1.5144
 2988SOL    HW220427   1.894   1.279  16.018 -1.7405  0.3264  0.4007
 2989SOL     OW20428   1.896   0.293   1.483  0.1860  0.4320 -0.0916
 2989SOL    HW120429   1.988   0.293   1.510  0.3062 -1.6480 -0.5041
 2989SOL    HW220430   1.866   0.383   1.498  0.8312  0.8045 -1.0258
 2990SOL     OW20431   3.077   2.795   0.019  0.3293  0.0800 -0.0864
 2990SOL    HW120432   3.156   2.841  17.690  1.0787  0.1153  2.1321
 2990SOL    HW220433   3.018   2.840  17.657 -1.4029 -1.0784  0.7439
 2991SOL     OW20434   0.912   1.959   8.405 -0.3519  0.3248 -1.3684
 2991SOL    HW120435   0.897   1.894   8.474  0.1162  1.1312 -0.4979
 2991SOL    HW220436   0.832   1.944   8.353  0.0740 -1.8554 -1.4121
 2992SOL     OW20437   0.933   1.930   3.449  0.1629  0.6626 -0.0329
 2992SOL    HW120438   0.972   2.011   3.483 -0.2436  0.2540  1.4256
 2992SOL    HW220439   0.946   1.872   3.524 -1.0142  0.7679  0.2573
 2993SOL     OW20440   1.346   0.708  10.665  0.4182 -0.0889 -0.5522
 2993SOL    HW120441   1.331   0.624  10.623 -0.9594 -0.5249  0.7657
 2993SOL    HW220442   1.440   0.714  10.650  0.3578  0.8870 -0.5651
 2994SOL     OW20443   0.317   3.131   5.926  0.0201  0.1850 -0.0547
 2994SOL    HW120444   0.244   3.192   5.929  1.7276  2.0849  3.2063
 2994SOL    HW220445   0.317   3.119   5.831  1.0991 -1.8185  0.1992
 2995SOL     OW20446   0.817   1.381  17.268 -0.6652  0.0148 -0.2422
 2995SOL    HW120447   0.871   1.422  17.200  3.4833 -2.3121  1.6515
 2995SOL    HW220448   0.773   1.309  17.223 -1.0901 -0.0581  0.2978
 2996SOL     OW20449   2.455   1.102   5.144  0.0473 -0.1459  0.1469
 2996SOL    HW120450   2.422   1.092   5.055  0.6295 -0.5770 -0.0259
 2996SOL    HW220451   2.410   1.183   5.167 -1.5149 -0.6537 -1.1063
 2997SOL     OW20452   1.236   2.378  14.632  0.0211 -0.1878  0.3890
 2997SOL    HW120453   1.145   2.402  14.645  0.3202  0.6221  0.9778
 2997SOL    HW220454   1.269   2.433  14.702  3.2320  0.9968 -2.0481
 2998SOL     OW20455   4.076   1.173   3.589 -0.6853 -0.0494  0.2132
 2998SOL    HW120456   4.119   1.186   3.674 -3.3264 -3.8778  2.1692
 2998SOL    HW220457   3.984   1.190   3.611 -0.6501  0.0908  0.2508
 2999SOL     OW20458   3.678   4.151  13.740 -0.0676  0.0239 -0.4143
 2999SOL    HW120459   3.606   4.163  13.801  0.8346 -0.9876  0.8736
 2999SOL    HW220460   3.695   4.240  13.709  2.1092 -0.3799 -0.4348
 3000SOL     OW20461   2.051   2.471   4.149  0.4399 -0.2270 -0.9326
 3000SOL    HW120462   2.061   2.431   4.062  0.2338  1.4016 -1.7032
 3000SOL    HW220463   2.041   2.397   4.208 -0.4581 -0.6342 -1.5923
 3001SOL     OW20464   2.712   2.352   0.138 -0.1757  0.4667 -0.1070
 3001SOL    HW120465   2.701   2.436   0.181 -0.0812  0.2739  0.2982
 3001SOL    HW220466   2.775   2.328   0.206  0.1574 -1.0456 -0.9411
 3002SOL     OW20467   4.694   0.053   6.019  0.4432  0.1809 -0.0168
 3002SOL    HW120468   4.599   0.066   6.025  0.3798 -0.4265  0.2627
 3002SOL    HW220469   4.716   0.145   6.004 -0.8193  0.8399  2.2631
 3003SOL     OW20470   0.760   2.523  12.338 -0.3038  0.2786  0.2975
 3003SOL    HW120471   0.780   2.554  12.250  0.0066 -1.6722 -0.3123
 3003SOL    HW220472   0.707   2.595  12.371 -1.5995 -0.7745  0.5266
 3004SOL     OW20473   3.094   2.803  15.884  0.4368  0.1423 -0.8177
 3004SOL    HW120474   3.175   2.766  15.849  0.4997 -0.4147 -0.0781
 3004SOL    HW220475   3.039   2.727  15.868  0.8162  0.2381 -2.5595
 3005SOL     OW20476   4.324   2.782   5.222  0.0789  0.3307 -0.0384
 3005SOL    HW120477   4.350   2.690   5.211  1.0952  0.4551  1.3883
 3005SOL    HW220478   4.272   2.774   5.302 -0.1272 -0.8860 -0.2877
 3006SOL     OW20479   3.203   4.418   3.235  0.3309  0.0933 -0.1561
 3006SOL    HW120480   3.230   4.499   3.190 -2.1730  0.3565 -1.1865
 3006SOL    HW220481   3.120   4.408   3.188 -0.8000  0.3942  1.7698
 3007SOL     OW20482   1.943   0.736  13.061  0.1085 -0.1978 -0.3519
 3007SOL    HW120483   1.942   0.810  13.000 -2.1236  3.3619  4.0317
 3007SOL    HW220484   2.015   0.757  13.120 -0.3463  3.6224 -1.1327
 3008SOL     OW20485   3.005   0.017  14.789 -0.0613  0.2851 -0.7891
 3008SOL    HW120486   3.000   0.030  14.694  0.1574  1.1601 -0.6826
 3008SOL    HW220487   3.078   4.681  14.796  0.9064  1.2376 -2.6327
 3009SOL     OW20488   1.203   3.902  17.334  0.0068  0.0958 -0.2159
 3009SOL    HW120489   1.182   3.814  17.364 -0.3501 -0.4191 -2.0007
 3009SOL    HW220490   1.124   3.950  17.360 -0.3516  1.3951 -3.6796
 3010SOL     OW20491   1.363   1.086  16.225 -0.4789 -0.0576 -0.0680
 3010SOL    HW120492   1.327   0.998  16.216  1.8511 -0.9549 -0.6004
 3010SOL    HW220493   1.426   1.069  16.295 -0.2820 -0.3374 -0.3166
 3011SOL     OW20494   4.204   3.457   0.670 -0.3596 -0.6285 -0.3628
 3011SOL    HW120495   4.261   3.531   0.646 -1.0628  0.1585  0.3939
 3011SOL    HW220496   4.199   3.469   0.765  1.3488  0.6296 -0.4235
 3012SOL     OW20497   0.501   4.233   9.166 -0.1032  0.0444  0.3653
 3012SOL    HW120498   0.487   4.244   9.072  2.0548 -5.5071 -0.6518
 3012SOL    HW220499   0.436   4.299   9.188  0.7318  1.3677 -1.2170
 3013SOL     OW20500   0.153   3.308  12.342  0.2992 -0.2469  0.0962
 3013SOL    HW120501   0.242   3.297  12.376  0.4132 -0.4258 -0.2632
 3013SOL    HW220502   0.135   3.216  12.322  0.6954 -0.5741  1.2213
 3014SOL     OW20503   0.715   3.570   6.720 -0.1609  0.1381 -0.2061
 3014SOL    HW120504   0.752   3.511   6.654  1.3568  0.2577  0.5282
 3014SOL    HW220505   0.743   3.511   6.791  0.8072  0.5138 -0.2684
 3015SOL     OW20506   2.810   1.392   0.533  0.3671  0.5411  0.0687
 3015SOL    HW120507   2.715   1.394   0.548  0.3075 -1.1938 -0.0649
 3015SOL    HW220508   2.845   1.402   0.621 -0.5134 -1.3248  0.6320
 3016SOL     OW20509   2.585   2.219   1.238  0.0785  0.2581  0.5732
 3016SOL    HW120510   2.622   2.285   1.179  0.0865  0.6775  1.0502
 3016SOL    HW220511   2.542   2.283   1.295 -0.3483  0.0717  0.4628
 3017SOL     OW20512   3.916   2.536   8.325  0.3328  0.5502 -0.0366
 3017SOL    HW120513   4.008   2.558   8.312  0.4400 -0.2268 -0.5972
 3017SOL    HW220514   3.884   2.529   8.235  1.7352 -1.7023 -0.3563
 3018SOL     OW20515   3.096   1.310   1.750 -0.0610  0.3269  0.3483
 3018SOL    HW120516   3.155   1.236   1.767 -0.0784 -0.0905 -1.4386
 3018SOL    HW220517   3.080   1.346   1.837 -0.0261 -2.1468  1.3743
 3019SOL     OW20518   4.663   2.457   4.052 -0.6516  0.8471 -0.7582
 3019SOL    HW120519   4.584   2.506   4.029 -1.1573  1.3173  1.8900
 3019SOL    HW220520   4.646   2.382   3.995  0.0425 -0.4798  0.7791
 3020SOL     OW20521   3.967   2.454  14.782  0.0125  0.0209 -0.1749
 3020SOL    HW120522   3.905   2.401  14.831  1.0308 -0.8758  0.1406
 3020SOL    HW220523   4.032   2.481  14.847  1.2131 -2.4393 -0.3518
 3021SOL     OW20524   0.612   2.686   2.188  0.4989 -0.1427  0.4987
 3021SOL    HW120525   0.608   2.646   2.101 -0.2441  0.3650  0.3027
 3021SOL    HW220526   0.707   2.697   2.199  1.1034 -2.3038 -2.5177
 3022SOL     OW20527   3.449   1.721   5.015  0.4377  0.3187  0.4363
 3022SOL    HW120528   3.399   1.771   4.950 -0.8527 -1.1229  0.3124
 3022SOL    HW220529   3.384   1.668   5.060  0.8315 -1.4317 -1.0657
 3023SOL     OW20530   3.337   2.002  10.852 -0.1753  0.0334  0.1774
 3023SOL    HW120531   3.380   2.063  10.793 -0.2507 -0.7373 -0.6729
 3023SOL    HW220532   3.323   1.925  10.797  0.7429 -0.2698  0.3705
 3024SOL     OW20533   4.006   1.422   7.702  0.1382  0.6219  0.2579
 3024SOL    HW120534   3.973   1.435   7.791  0.1666  1.6695  0.1185
 3024SOL    HW220535   4.097   1.446   7.719  0.0494 -1.3410  3.3971
 3025SOL     OW20536   3.468   2.126   7.850  0.4039  0.0697 -0.2038
 3025SOL    HW120537   3.515   2.130   7.767  2.2023  0.1221  0.8270
 3025SOL    HW220538   3.530   2.073   7.901 -1.3772 -1.6583  0.1846
 3026SOL     OW20539   0.729   0.334   4.359 -0.4930  0.5737  0.5157
 3026SOL    HW120540   0.756   0.425   4.368  0.1557  0.2868  1.3745
 3026SOL    HW220541   0.750   0.321   4.266  1.7957 -4.6452  1.7546
 3027SOL     OW20542   1.139   2.037   6.665  0.0414  0.1335 -0.2531
 3027SOL    HW120543   1.060   2.086   6.641  1.2666  1.7666 -0.8659
 3027SOL    HW220544   1.159   2.048   6.758 -1.5517 -1.3851  0.2819
 3028SOL     OW20545   3.514   4.666  14.582  0.3200 -0.3498  0.1301
 3028SOL    HW120546   3.571   0.002  14.535 -0.8516  1.1592  0.6505
 3028SOL    HW220547   3.435   4.717  14.599 -0.6792 -1.6874 -0.5260
 3029SOL     OW20548   1.407   4.367  14.244  0.4171 -0.1428  0.1074
 3029SOL    HW120549   1.349   4.432  14.282 -0.2304  0.0547 -1.2093
 3029SOL    HW220550   1.498   4.396  14.248 -1.1153  4.3197  1.4910
 3030SOL     OW20551   4.371   1.911   0.550  0.6033 -0.2612 -0.0368
 3030SOL    HW120552   4.359   1.816   0.555  1.8837 -0.3359  1.6887
 3030SOL    HW220553   4.343   1.915   0.459 -1.5412 -0.5179  0.6164
 3031SOL     OW20554   2.128   3.931  14.602  0.9399 -0.1794  0.1736
 3031SOL    HW120555   2.051   3.964  14.556 -0.6633 -2.4689  1.2200
 3031SOL    HW220556   2.189   3.942  14.529 -0.6264 -1.3336 -1.2951
 3032SOL     OW20557   1.294   3.980   7.058  0.2591  0.0105 -0.4427
 3032SOL    HW120558   1.214   3.988   7.006  0.1899 -2.8376 -0.7742
 3032SOL    HW220559   1.363   3.962   6.994  0.8534 -1.2110  0.5469
 3033SOL     OW20560   3.653   3.160   4.229 -0.2504  0.3786  0.3025
 3033SOL    HW120561   3.734   3.211   4.229  2.0978 -3.2658 -1.0300
 3033SOL    HW220562   3.676   3.068   4.244 -0.7554  0.5602  2.1943
 3034SOL     OW20563   0.341   2.128   9.834 -0.5898  0.1758 -0.5382
 3034SOL    HW120564   0.411   2.088   9.886 -0.7929  2.1935  1.2957
 3034SOL    HW220565   0.295   2.181   9.899  1.4195  1.3900 -0.1124
 3035SOL     OW20566   2.685   2.403  14.128 -0.0447  0.4571 -0.0044
 3035SOL    HW120567   2.778   2.422  14.145 -0.2598 -0.3799  2.0949
 3035SOL    HW220568   2.676   2.331  14.191 -1.1370  0.5697 -0.0439
 3036SOL     OW20569   1.857   4.571   7.035  0.3518 -0.5583 -0.9222
 3036SOL    HW120570   1.913   4.646   7.013 -0.9243  1.0654  1.2923
 3036SOL    HW220571   1.775   4.589   6.989  0.0674  1.2203  0.2460
 3037SOL     OW20572   1.959   0.096   4.984  0.6962  0.3773 -0.3328
 3037SOL    HW120573   1.959   0.149   5.064 -0.7768  2.0825 -1.4772
 3037SOL    HW220574   1.989   0.012   5.018 -0.9694 -0.9238 -2.0795
 3038SOL     OW20575   3.286   2.882   7.103 -0.1165  0.5144  1.1513
 3038SOL    HW120576   3.347   2.815   7.136 -0.1023  0.5246  1.1455
 3038SOL    HW220577   3.231   2.880   7.181 -1.2194 -1.0653  0.3477
 3039SOL     OW20578   1.827   3.235   2.884  0.0877 -0.9433  0.0613
 3039SOL    HW120579   1.861   3.184   2.811  1.9725 -2.0415  1.7095
 3039SOL    HW220580   1.817   3.167   2.951  2.2914  0.0193  1.3708
 3040SOL     OW20581   2.760   4.343   7.343 -0.0549  0.5357  0.0084
 3040SOL    HW120582   2.666   4.338   7.360 -0.3044  1.3040 -1.1775
 3040SOL    HW220583   2.749   4.412   7.278 -0.5053  0.8908  0.4627
 3041SOL     OW20584   0.962   1.047   5.531 -0.6435 -0.4085  0.2037
 3041SOL    HW120585   1.022   0.974   5.517  1.3639  1.0527  1.1779
 3041SOL    HW220586   1.024   1.108   5.571 -0.0482 -0.2959 -0.8804
 3042SOL     OW20587   2.226   2.784   5.583  0.3891  0.3953 -0.2043
 3042SOL    HW120588   2.244   2.812   5.673 -0.3311 -0.5160  0.2136
 3042SOL    HW220589   2.172   2.709   5.604 -0.1546  0.5750 -0.9931
 3043SOL     OW20590   3.800   3.118   9.894  0.1955 -0.3734 -0.5793
 3043SOL    HW120591   3.887   3.098   9.929 -0.7534 -3.0196  0.2707
 3043SOL    HW220592   3.755   3.036   9.875 -0.7414 -0.0182  0.0712
 3044SOL     OW20593   1.776   3.960  11.278 -0.2381  0.4626  0.0728
 3044SOL    HW120594   1.857   3.993  11.240  1.0548  0.2823  2.6938
 3044SOL    HW220595   1.725   4.041  11.281  0.6487  1.0768 -1.1622
 3045SOL     OW20596   1.888   3.034  10.895 -0.3589 -0.0315  0.0023
 3045SOL    HW120597   1.893   2.955  10.840 -0.7184 -1.2351  1.6913
 3045SOL    HW220598   1.981   3.038  10.918 -0.3658 -1.6500  0.3495
 3046SOL     OW20599   3.835   1.170   1.720  0.2322  0.2683 -0.0070
 3046SOL    HW120600   3.900   1.144   1.654  1.7140  1.8350  0.8476
 3046SOL    HW220601   3.802   1.082   1.742  0.7484  0.4078  1.3504
 3047SOL     OW20602   0.408   3.083  13.390  0.4086 -0.0751 -0.8484
 3047SOL    HW120603   0.344   3.153  13.377 -0.5083 -0.7822 -0.1753
 3047SOL    HW220604   0.495   3.122  13.381  0.4251 -0.3883 -2.0250
 3048SOL     OW20605   0.015   2.866   6.909  0.0891  0.4977  0.1777
 3048SOL    HW120606   0.035   2.889   6.999  0.6271 -1.0020  0.4297
 3048SOL    HW220607   4.645   2.853   6.914 -0.0483  0.9687 -1.1791
 3049SOL     OW20608   1.021   1.482   4.629  0.4523  0.4720  0.6062
 3049SOL    HW120609   0.943   1.512   4.676 -0.5536  1.4021 -1.6898
 3049SOL    HW220610   1.004   1.388   4.625  1.0119  0.3438  1.1630
 3050SOL     OW20611   4.415   3.309   5.439  0.4423 -0.2293 -0.4146
 3050SOL    HW120612   4.392   3.368   5.367  0.3023  0.6645  0.3701
 3050SOL    HW220613   4.483   3.270   5.385 -0.1511 -1.4502 -0.2833
 3051SOL     OW20614   1.135   1.212   1.864 -0.2006  0.1501  0.0650
 3051SOL    HW120615   1.139   1.302   1.832 -2.1251 -0.6912 -2.5808
 3051SOL    HW220616   1.141   1.171   1.777 -1.8729 -1.1006  0.5393
 3052SOL     OW20617   3.673   3.444  14.657 -0.1655  0.5856 -0.0429
 3052SOL    HW120618   3.704   3.359  14.688 -0.9673  1.0969  2.1863
 3052SOL    HW220619   3.749   3.502  14.662  1.9020 -2.0835 -0.6570
 3053SOL     OW20620   0.809   0.822   2.165 -0.3724  0.2715  0.0699
 3053SOL    HW120621   0.850   0.744   2.200 -2.0351 -1.5029 -1.9142
 3053SOL    HW220622   0.869   0.848   2.095 -0.7582  1.0171  0.0188
 3054SOL     OW20623   0.420   0.813  10.492  0.0450  0.2204  0.7153
 3054SOL    HW120624   0.331   0.816  10.458 -0.0161  0.7342  0.9095
 3054SOL    HW220625   0.422   0.719  10.508  2.6408  0.1464  0.1306
 3055SOL     OW20626   0.725   3.590   0.202 -0.1693  0.5971  0.3634
 3055SOL    HW120627   0.711   3.605   0.295 -0.1383 -0.9055  0.6089
 3055SOL    HW220628   0.631   3.591   0.184  0.6256  1.2392 -3.8605
 3056SOL     OW20629   3.116   1.232   0.652  0.2584  0.2074 -0.3364
 3056SOL    HW120630   3.181   1.194   0.711 -1.8084 -1.1063  1.1125
 3056SOL    HW220631   3.092   1.151   0.606 -2.8211  0.2147  1.2205
 3057SOL     OW20632   4.709   3.102  14.106  0.3576 -0.3262  0.0610
 3057SOL    HW120633   0.076   3.105  14.079  0.5846 -0.6954  0.7718
 3057SOL    HW220634   4.660   3.059  14.036 -1.9669 -0.1730  1.6054
 3058SOL     OW20635   4.456   1.594   2.562  0.2205  0.1975  0.5642
 3058SOL    HW120636   4.436   1.687   2.574 -1.5431  0.0935 -1.6272
 3058SOL    HW220637   4.418   1.572   2.477  0.0912  0.3190  0.5887
 3059SOL     OW20638   1.554   2.128  11.136  0.0528  0.3882  0.4196
 3059SOL    HW120639   1.497   2.086  11.072  2.4109 -0.7610 -0.8986
 3059SOL    HW220640   1.628   2.069  11.125 -0.4317 -0.5901  2.4013
 3060SOL     OW20641   0.108   1.880  15.719 -0.2391  0.2899  0.1717
 3060SOL    HW120642   0.119   1.919  15.806  0.3024 -0.0496  0.2537
 3060SOL    HW220643   0.047   1.813  15.748  3.2415 -1.5812  3.1279
 3061SOL     OW20644   0.173   0.938   9.067  0.3687 -0.4376 -0.3170
 3061SOL    HW120645   0.146   0.911   9.155 -1.8997 -0.9730 -1.1726
 3061SOL    HW220646   0.107   0.892   9.015 -1.2649  2.5388 -0.9063
 3062SOL     OW20647   0.091   0.552   6.920 -0.1037 -0.3431  0.4399
 3062SOL    HW120648   0.164   0.510   6.874  2.6091  1.2625  3.2569
 3062SOL    HW220649   0.132   0.631   6.956  0.0066  0.0788 -0.6017
 3063SOL     OW20650   0.476   2.887  17.422  0.8038  0.0113  1.0088
 3063SOL    HW120651   0.483   2.833  17.343 -1.0807 -1.2181  1.6767
 3063SOL    HW220652   0.456   2.813  17.479 -1.1040  0.2634  0.6813
 3064SOL     OW20653   1.192   3.216   4.583 -0.3370 -0.1597  0.4789
 3064SOL    HW120654   1.098   3.219   4.564 -0.4005 -0.7058  0.6991
 3064SOL    HW220655   1.238   3.241   4.503  0.5091 -0.7018  0.7903
 3065SOL     OW20656   3.051   1.030   8.543 -0.1215  0.1513 -0.7393
 3065SOL    HW120657   3.079   1.121   8.536 -3.1179  1.0382 -1.1431
 3065SOL    HW220658   2.958   1.044   8.559  0.3282  2.1649  0.0158
 3066SOL     OW20659   2.620   0.831   2.707 -0.0773  0.2990  0.0458
 3066SOL    HW120660   2.528   0.859   2.706  0.1716  1.0534 -0.9083
 3066SOL    HW220661   2.652   0.907   2.659  1.5071 -1.1417 -1.1152
 3067SOL     OW20662   1.975   0.094  15.264 -0.2158 -0.1459 -0.3315
 3067SOL    HW120663   1.903   0.155  15.281  1.0847  1.5060 -0.7420
 3067SOL    HW220664   2.003   0.126  15.178 -1.6875 -0.8206 -1.0585
 3068SOL     OW20665   1.639   4.147  13.277 -0.8273  0.3295 -0.7001
 3068SOL    HW120666   1.667   4.140  13.369 -0.4011  2.7199 -0.6261
 3068SOL    HW220667   1.720   4.154  13.227 -1.2879  0.1486 -1.4716
 3069SOL     OW20668   2.538   1.487   2.738 -0.9457 -0.2087  0.5219
 3069SOL    HW120669   2.464   1.494   2.797  0.8303 -2.7656  3.0536
 3069SOL    HW220670   2.562   1.580   2.738  1.1455 -0.7561 -2.6286
 3070SOL     OW20671   4.060   1.650   8.231 -0.3705 -0.1665 -0.2601
 3070SOL    HW120672   4.127   1.584   8.215  0.2292  0.1607  0.8869
 3070SOL    HW220673   4.106   1.725   8.267 -1.9160 -0.3092  2.0572
 3071SOL     OW20674   3.146   0.759   9.388 -0.6693 -0.0390  0.7317
 3071SOL    HW120675   3.095   0.721   9.460 -0.1197  0.0238  1.1617
 3071SOL    HW220676   3.164   0.842   9.432  1.4175  0.3693 -0.9255
 3072SOL     OW20677   2.894   4.397   1.735 -0.2763 -0.0861  0.2249
 3072SOL    HW120678   2.944   4.423   1.812 -1.2574  2.2195  0.0791
 3072SOL    HW220679   2.877   4.481   1.692  0.3930 -1.4694 -2.7791
 3073SOL     OW20680   2.069   4.138   5.713  0.1481  0.1475 -0.2345
 3073SOL    HW120681   2.052   4.045   5.726 -0.8682  0.4163  0.2604
 3073SOL    HW220682   2.018   4.180   5.782 -0.3754 -1.8868  0.6070
 3074SOL     OW20683   0.091   0.774   3.436  0.5580 -0.5069 -0.0717
 3074SOL    HW120684   0.065   0.849   3.383  0.4405  0.3797  1.2195
 3074SOL    HW220685   0.005   0.748   3.468  1.2083  0.8459  2.8348
 3075SOL     OW20686   1.366   0.780   3.036  0.1669  0.5497  0.3265
 3075SOL    HW120687   1.392   0.872   3.041  1.6124  0.1472  0.1851
 3075SOL    HW220688   1.320   0.776   2.952  1.7260  2.2215 -0.6203
 3076SOL     OW20689   1.770   0.741   8.380  0.8034 -0.0210 -0.2108
 3076SOL    HW120690   1.778   0.697   8.296  0.7170 -0.0488 -0.2044
 3076SOL    HW220691   1.831   0.691   8.434 -1.3672 -3.1520 -0.6655
 3077SOL     OW20692   1.488   1.963  12.785  0.3323  0.0052  0.7441
 3077SOL    HW120693   1.464   1.872  12.774  0.9540 -0.1358  0.5494
 3077SOL    HW220694   1.578   1.937  12.806  0.6372  0.0449 -0.5367
 3078SOL     OW20695   2.875   4.703   3.618  0.2054 -0.3845  0.0552
 3078SOL    HW120696   2.932   4.627   3.608  1.5654  0.6413  0.0436
 3078SOL    HW220697   2.936   0.051   3.636  1.1856 -0.7200 -1.8845
 3079SOL     OW20698   1.426   3.647   3.947 -0.2929  0.0601 -0.0993
 3079SOL    HW120699   1.508   3.667   3.902  1.3956  2.3274  3.9389
 3079SOL    HW220700   1.460   3.668   4.034 -1.2056 -1.6311  0.6636
 3080SOL     OW20701   0.795   2.153  12.190  0.1745 -0.1692  0.2025
 3080SOL    HW120702   0.766   2.076  12.240 -1.3393 -0.1575 -0.6628
 3080SOL    HW220703   0.738   2.221  12.226 -1.1490 -1.1166 -0.0985
 3081SOL     OW20704   3.362   1.555   5.202  0.7303 -0.2647 -0.0357
 3081SOL    HW120705   3.374   1.479   5.145 -2.6095 -0.1351 -0.8620
 3081SOL    HW220706   3.325   1.511   5.278  0.3054  1.6128  0.8280
 3082SOL     OW20707   4.522   4.188  11.347  0.1500 -0.2213  0.2077
 3082SOL    HW120708   4.530   4.255  11.279  3.4024  0.7581  1.5350
 3082SOL    HW220709   4.538   4.247  11.421  1.2334 -1.1646  0.7300
 3083SOL     OW20710   0.870   3.394   6.560  0.3771 -0.1442  0.5459
 3083SOL    HW120711   0.915   3.360   6.638  0.0225 -2.1478 -0.1217
 3083SOL    HW220712   0.871   3.320   6.499 -0.1038 -0.3372  0.7767
 3084SOL     OW20713   3.412   4.511   6.485 -0.0007  0.5692  0.5274
 3084SOL    HW120714   3.328   4.468   6.502  1.1995 -1.7568  0.6613
 3084SOL    HW220715   3.468   4.436   6.464  0.4384  0.5214  1.8792
 3085SOL     OW20716   0.661   3.953   6.785 -0.7671 -0.2553  0.0838
 3085SOL    HW120717   0.625   4.038   6.762  0.0051  0.0863  0.1161
 3085SOL    HW220718   0.589   3.906   6.826 -0.4937 -1.2646 -0.5764
 3086SOL     OW20719   1.424   2.172   6.833 -0.7031 -0.2251 -0.3765
 3086SOL    HW120720   1.462   2.217   6.909 -0.5970  0.3914 -0.7884
 3086SOL    HW220721   1.387   2.094   6.874 -0.2618 -0.8673 -1.2076
 3087SOL     OW20722   1.412   0.187   6.315 -0.1114  0.0944 -0.2982
 3087SOL    HW120723   1.346   0.139   6.365  0.9523  0.1591  1.1762
 3087SOL    HW220724   1.399   0.268   6.364  2.1090  1.6853 -2.3342
 3088SOL     OW20725   3.935   2.747  16.382  0.4300 -0.4052  0.0413
 3088SOL    HW120726   3.899   2.767  16.468 -0.4140 -0.0923 -0.3822
 3088SOL    HW220727   4.026   2.727  16.405  0.4679 -1.4936 -1.0243
 3089SOL     OW20728   0.261   3.986   8.160 -0.0027  0.0419 -1.1398
 3089SOL    HW120729   0.222   4.021   8.241  0.0203 -1.3721 -0.5222
 3089SOL    HW220730   0.280   4.073   8.125  1.5587 -0.1783 -0.8515
 3090SOL     OW20731   3.035   3.700   4.359  0.3172  0.1202  0.0055
 3090SOL    HW120732   3.027   3.610   4.328  1.4167  0.2048 -0.5167
 3090SOL    HW220733   3.110   3.737   4.312  0.8169 -1.2664 -0.2869
 3091SOL     OW20734   2.050   1.855   6.289 -0.4401 -0.4541  0.2076
 3091SOL    HW120735   2.048   1.949   6.307 -3.2532 -0.5480  0.4087
 3091SOL    HW220736   2.129   1.853   6.236 -0.1291  0.4763  0.6364
 3092SOL     OW20737   0.711   0.890  11.512 -0.5753 -0.2998  0.5140
 3092SOL    HW120738   0.805   0.904  11.507 -0.9853  2.2860 -0.2815
 3092SOL    HW220739   0.712   0.862  11.604  1.6600 -0.0588  0.5641
 3093SOL     OW20740   4.090   4.131   8.471  0.2413 -0.4395  0.1196
 3093SOL    HW120741   4.089   4.226   8.483 -0.5948 -0.7452  2.6170
 3093SOL    HW220742   4.083   4.097   8.561 -1.0053  0.9879  0.5657
 3094SOL     OW20743   1.095   0.589   8.346 -0.2920 -0.1796  0.6001
 3094SOL    HW120744   1.042   0.595   8.426 -2.5452  1.2065 -1.0031
 3094SOL    HW220745   1.064   0.673   8.312  2.7615 -0.2746 -2.3066
 3095SOL     OW20746   0.302   4.643   9.588 -0.6014  0.1716 -0.1917
 3095SOL    HW120747   0.348   4.609   9.664 -1.4135 -2.1132 -0.7115
 3095SOL    HW220748   0.282   4.569   9.530 -1.6182 -0.7409  1.2907
 3096SOL     OW20749   1.979   3.363   8.390  0.1323 -0.2305 -0.4669
 3096SOL    HW120750   1.991   3.452   8.422 -1.7912 -1.2197  2.9904
 3096SOL    HW220751   1.917   3.330   8.456  0.5571  2.4282  1.2584
 3097SOL     OW20752   1.399   3.462  12.790 -0.2918  0.2309  0.3397
 3097SOL    HW120753   1.431   3.549  12.817 -2.0344  2.6888 -5.4732
 3097SOL    HW220754   1.463   3.439  12.723  0.4609 -2.3288  1.9264
 3098SOL     OW20755   3.363   0.469  16.564 -0.4597 -0.4961 -0.3136
 3098SOL    HW120756   3.432   0.484  16.500 -0.9249  0.5090 -0.5704
 3098SOL    HW220757   3.292   0.447  16.504 -1.5024  0.7854  0.4592
 3099SOL     OW20758   0.704   3.017  13.096  0.1201 -0.2698  0.1510
 3099SOL    HW120759   0.667   2.939  13.055 -0.6812 -0.7548  1.8275
 3099SOL    HW220760   0.692   2.995  13.188 -1.4045  0.2016  0.0603
 3100SOL     OW20761   0.684   2.715   9.254  0.7212 -0.9255 -0.4581
 3100SOL    HW120762   0.637   2.798   9.251  2.6944  0.1911 -0.0335
 3100SOL    HW220763   0.607   2.659   9.268  0.2539 -0.4941 -1.2553
 3101SOL     OW20764   1.951   4.678   8.776 -0.0825  0.0611 -0.1911
 3101SOL    HW120765   2.015   0.023   8.764  1.9280 -2.4496 -4.4178
 3101SOL    HW220766   1.877   4.711   8.826 -0.4809 -0.8625 -0.1643
 3102SOL     OW20767   3.145   0.448   1.636  0.3718  0.1914  0.3776
 3102SOL    HW120768   3.143   0.357   1.605 -0.5921  0.9777 -1.8830
 3102SOL    HW220769   3.190   0.432   1.719  2.2876  0.2229 -0.6381
 3103SOL     OW20770   3.609   3.546   7.864 -0.7502  0.2921 -0.5910
 3103SOL    HW120771   3.523   3.504   7.871 -0.4649 -0.4703 -1.5153
 3103SOL    HW220772   3.581   3.632   7.834  2.0876  1.8848  1.3494
 3104SOL     OW20773   2.578   4.515   9.017 -0.4576 -0.3260 -0.2543
 3104SOL    HW120774   2.642   4.567   9.066 -0.7313 -0.1366 -0.1006
 3104SOL    HW220775   2.500   4.540   9.066  2.0973  1.6774  2.7807
 3105SOL     OW20776   3.404   3.437   2.117 -0.0243  0.0481 -0.5974
 3105SOL    HW120777   3.327   3.408   2.068 -0.7451 -1.7584  1.6223
 3105SOL    HW220778   3.465   3.369   2.089  0.2262 -0.3115  0.8106
 3106SOL     OW20779   1.512   3.387   3.832 -0.0084  0.4071 -0.2889
 3106SOL    HW120780   1.524   3.306   3.880 -2.6236  1.1104  1.5627
 3106SOL    HW220781   1.417   3.379   3.816 -0.0974  1.4897 -0.3513
 3107SOL     OW20782   1.663   0.592   7.900  0.0972 -0.2658 -0.6009
 3107SOL    HW120783   1.670   0.513   7.847 -1.9572  0.1326 -1.4811
 3107SOL    HW220784   1.570   0.609   7.915 -0.1974  0.0452 -2.7049
 3108SOL     OW20785   1.896   2.701   7.528 -0.4142  0.2171  0.2812
 3108SOL    HW120786   1.813   2.683   7.571 -1.6631  1.9836 -1.4320
 3108SOL    HW220787   1.948   2.717   7.607 -0.5838 -2.8752  1.0107
 3109SOL     OW20788   0.703   1.523   8.889 -0.0202 -0.1410  0.6795
 3109SOL    HW120789   0.762   1.558   8.822  0.4636 -2.4383 -0.1022
 3109SOL    HW220790   0.708   1.587   8.960  1.0965 -1.9362  2.2107
 3110SOL     OW20791   3.268   3.848   8.488 -0.2345 -0.9338  0.4500
 3110SOL    HW120792   3.179   3.814   8.502  0.0349 -1.5113  0.7663
 3110SOL    HW220793   3.266   3.855   8.393 -3.1137  3.8762  0.8580
 3111SOL     OW20794   3.717   4.489   6.677  0.8034  0.0308  0.0155
 3111SOL    HW120795   3.677   4.573   6.655 -0.3506 -1.5315 -3.7546
 3111SOL    HW220796   3.808   4.510   6.655  0.6489 -0.3935 -1.0079
 3112SOL     OW20797   1.036   2.804  16.544 -0.3072  0.0287  0.0386
 3112SOL    HW120798   1.018   2.747  16.469 -1.2573  0.6260 -0.1888
 3112SOL    HW220799   1.104   2.864  16.513 -0.2064  0.6217  1.4314
 3113SOL     OW20800   0.370   2.397   7.113 -1.0398  0.4247 -0.1449
 3113SOL    HW120801   0.396   2.471   7.169  1.2599 -1.5761  1.4164
 3113SOL    HW220802   0.277   2.387   7.135 -0.4311 -0.5153  2.0418
 3114SOL     OW20803   1.571   0.997   7.382 -0.9039 -0.6565  0.2233
 3114SOL    HW120804   1.573   1.038   7.296 -3.4255  2.6205  1.7045
 3114SOL    HW220805   1.592   1.071   7.439  1.9380 -0.5340 -0.9972
 3115SOL     OW20806   4.681   3.827   5.947 -0.2539  0.5028  0.6977
 3115SOL    HW120807   0.000   3.893   5.895  0.0615  0.4982  0.9567
 3115SOL    HW220808   0.004   3.839   6.030  0.0712  2.0345  0.2739
 3116SOL     OW20809   2.138   0.225   8.528  0.0146 -0.1171 -0.6442
 3116SOL    HW120810   2.117   0.215   8.621  0.6663  1.9177 -0.2686
 3116SOL    HW220811   2.207   0.292   8.523 -1.2172  1.3059  1.3982
 3117SOL     OW20812   3.325   2.206   1.967 -0.2617  0.2087  0.0305
 3117SOL    HW120813   3.289   2.124   1.931 -1.6722  0.7218  0.2724
 3117SOL    HW220814   3.245   2.251   1.995  0.2906  0.5843  1.0044
 3118SOL     OW20815   0.844   2.921  13.763  0.6063  0.3210  0.6981
 3118SOL    HW120816   0.822   2.835  13.797  0.0520  0.2150  0.0697
 3118SOL    HW220817   0.854   2.897  13.671  1.1320 -1.8080  1.3129
 3119SOL     OW20818   0.022   4.581   8.321  0.1548  0.2285 -0.7810
 3119SOL    HW120819   0.061   4.508   8.273  0.6370 -0.4532  0.6585
 3119SOL    HW220820   0.091   4.647   8.318  1.3676 -0.9998  0.1130
 3120SOL     OW20821   0.462   0.136   4.046  0.0078  1.0288  0.1594
 3120SOL    HW120822   0.417   0.211   4.084  0.1021  1.0212  0.2864
 3120SOL    HW220823   0.476   0.164   3.955 -1.2036  4.4352  1.0303
 3121SOL     OW20824   1.862   2.561   4.877  0.0642  0.1275  0.1599
 3121SOL    HW120825   1.942   2.571   4.824 -0.9133  0.2329 -1.3082
 3121SOL    HW220826   1.854   2.650   4.910 -1.1407 -0.1451  0.6018
 3122SOL     OW20827   0.963   0.612   2.237  0.0550 -0.2542 -0.1117
 3122SOL    HW120828   1.002   0.545   2.180 -1.3232 -1.2689  0.1177
 3122SOL    HW220829   1.026   0.628   2.307 -0.1349 -2.6884  0.6136
 3123SOL     OW20830   1.977   2.261   4.331 -0.4119 -0.3592 -0.1649
 3123SOL    HW120831   1.961   2.325   4.401 -0.2038 -0.1235 -0.3331
 3123SOL    HW220832   1.885   2.259   4.303 -0.5659  0.0134  0.3178
 3124SOL     OW20833   0.336   0.291   2.767  0.1219 -0.2570  0.3325
 3124SOL    HW120834   0.389   0.282   2.846 -1.1511 -0.3519  1.1827
 3124SOL    HW220835   0.250   0.257   2.792  0.7959 -0.4577  2.3575
 3125SOL     OW20836   3.539   3.322   8.877 -0.2414  0.0773  0.2012
 3125SOL    HW120837   3.483   3.295   8.950 -0.2171  2.7537  1.2026
 3125SOL    HW220838   3.582   3.398   8.916  0.2675  0.2582 -0.7170
 3126SOL     OW20839   4.180   2.660   3.855 -0.0373 -0.2052 -0.1061
 3126SOL    HW120840   4.098   2.611   3.857 -0.5493  0.7177  1.1316
 3126SOL    HW220841   4.169   2.705   3.772 -1.4169 -3.3444 -1.6333
 3127SOL     OW20842   0.794   0.801   3.062 -1.1049 -0.1513 -0.7175
 3127SOL    HW120843   0.847   0.737   3.015  3.5005  1.5630  2.1245
 3127SOL    HW220844   0.712   0.752   3.072 -1.8565  0.9645 -1.3859
 3128SOL     OW20845   0.045   0.250   7.558  0.0704  0.4201  0.2570
 3128SOL    HW120846   4.696   0.290   7.512 -1.7358 -0.7842  2.0477
 3128SOL    HW220847   4.724   0.210   7.632  2.2417  2.1378  2.5155
 3129SOL     OW20848   3.702   2.741  15.212  0.8268  0.1267 -0.7499
 3129SOL    HW120849   3.713   2.737  15.117  1.5164 -0.9676 -0.6196
 3129SOL    HW220850   3.721   2.831  15.237 -1.1854  0.3865 -0.1879
 3130SOL     OW20851   2.762   3.300   8.183  0.1066  0.1982  0.3184
 3130SOL    HW120852   2.772   3.297   8.279  2.3413 -1.1233  0.0516
 3130SOL    HW220853   2.805   3.217   8.164  4.1866  1.7866  2.6254
 3131SOL     OW20854   1.667   1.718  14.496 -0.5871  0.6457  0.3209
 3131SOL    HW120855   1.741   1.715  14.436 -0.5774  3.2176  0.1833
 3131SOL    HW220856   1.670   1.811  14.518 -0.2663  0.8065 -0.4029
 3132SOL     OW20857   3.241   4.252   5.974  0.3842  0.1513  0.2256
 3132SOL    HW120858   3.279   4.340   5.974  1.9985 -0.5445 -0.2257
 3132SOL    HW220859   3.297   4.205   5.912  0.8531 -0.6311  1.2268
 3133SOL     OW20860   4.118   0.001   3.007 -0.1770  0.0800 -0.2549
 3133SOL    HW120861   4.069   0.072   2.965  0.2283 -1.8508 -4.0173
 3133SOL    HW220862   4.177   0.057   3.057 -0.9989  1.4730 -0.8449
 3134SOL     OW20863   3.448   1.599   8.339  0.6195  0.0615  0.3468
 3134SOL    HW120864   3.461   1.616   8.432  0.0905  2.2622  0.0114
 3134SOL    HW220865   3.451   1.688   8.302  2.0501 -0.3154 -0.4475
 3135SOL     OW20866   4.240   0.307   8.655 -0.0467  0.0047 -0.5019
 3135SOL    HW120867   4.145   0.302   8.664  0.0653 -0.9423  0.2042
 3135SOL    HW220868   4.247   0.301   8.560 -3.5205 -1.1397 -0.6577
 3136SOL     OW20869   4.061   4.110   3.766 -0.0627  0.5289  0.5369
 3136SOL    HW120870   4.058   4.098   3.861 -3.2147 -3.8264 -0.1366
 3136SOL    HW220871   4.131   4.047   3.746  0.6557  1.1031  1.2155
 3137SOL     OW20872   3.751   4.557   9.061  0.3847 -0.1379 -0.1433
 3137SOL    HW120873   3.846   4.571   9.053  0.7438 -1.9658  0.8155
 3137SOL    HW220874   3.753   4.469   9.100  1.0765  0.6315  1.5931
 3138SOL     OW20875   1.479   0.348   3.776 -0.0117  0.4687  0.1560
 3138SOL    HW120876   1.404   0.394   3.737  0.6655  1.4931  0.0480
 3138SOL    HW220877   1.491   0.276   3.715  0.5795 -0.6089  1.5359
 3139SOL     OW20878   1.184   2.084   0.255 -0.1796  0.4866  0.1399
 3139SOL    HW120879   1.226   1.997   0.251 -1.1780  0.0925 -1.5094
 3139SOL    HW220880   1.229   2.110   0.336  0.7211  1.6181 -0.7355
 3140SOL     OW20881   4.111   4.188   6.876  0.3369 -0.1952 -0.3118
 3140SOL    HW120882   4.117   4.116   6.939 -3.2689 -0.6619 -0.5402
 3140SOL    HW220883   4.190   4.166   6.827  0.0206 -0.1914 -0.8232
 3141SOL     OW20884   0.196   1.836  10.716 -0.1124  0.3686 -0.2192
 3141SOL    HW120885   0.134   1.907  10.700  0.2244  0.3840 -1.4684
 3141SOL    HW220886   0.265   1.852  10.650  0.8879 -0.3416  0.6616
 3142SOL     OW20887   2.577   2.066  10.641 -0.2755  0.3069 -0.6723
 3142SOL    HW120888   2.655   2.023  10.606 -0.6642 -0.3692 -0.7171
 3142SOL    HW220889   2.556   2.000  10.707 -1.8590  1.8107  0.3257
 3143SOL     OW20890   1.594   4.064   3.334 -0.2520  0.1140  0.3561
 3143SOL    HW120891   1.504   4.096   3.325 -0.9694 -2.1722 -0.5403
 3143SOL    HW220892   1.625   4.077   3.244  0.0769 -0.1126  0.4364
 3144SOL     OW20893   2.059   0.101   4.203 -0.4104  0.0092  0.1168
 3144SOL    HW120894   1.982   0.071   4.154 -0.8818  1.2968  0.0659
 3144SOL    HW220895   2.135   0.069   4.154  0.7324  2.0815  0.5318
 3145SOL     OW20896   2.746   1.460   7.508 -0.1475  0.4982 -0.0626
 3145SOL    HW120897   2.692   1.528   7.549 -1.5835  1.0506 -2.8081
 3145SOL    HW220898   2.810   1.512   7.459  2.1188 -0.7060  1.6505
 3146SOL     OW20899   4.231   4.606   2.728  0.1812 -0.2490 -0.0682
 3146SOL    HW120900   4.271   4.665   2.792 -2.4798  0.4229  0.9680
 3146SOL    HW220901   4.230   4.662   2.650 -2.2368 -0.2484 -0.0134
 3147SOL     OW20902   1.600   1.138  15.159  0.1209  0.7213  0.2619
 3147SOL    HW120903   1.549   1.217  15.141  0.1691  0.2785 -1.8120
 3147SOL    HW220904   1.682   1.158  15.114  1.6900  0.5669  3.0208
 3148SOL     OW20905   4.720   4.587  15.385  0.4370 -0.8348  0.1596
 3148SOL    HW120906   0.022   4.541  15.464 -4.4665  0.0862  2.2870
 3148SOL    HW220907   0.066   4.558  15.326 -0.9655 -0.2176 -1.8047
 3149SOL     OW20908   1.916   3.083   4.221 -0.4472  0.2392 -0.7370
 3149SOL    HW120909   1.955   3.154   4.170  2.1137 -0.2692  0.5043
 3149SOL    HW220910   1.911   3.014   4.155 -0.3805  1.1514 -1.7012
 3150SOL     OW20911   0.104   4.228   4.545 -0.8908 -0.6406  0.5236
 3150SOL    HW120912   0.066   4.312   4.571  0.3122 -0.0448  0.3753
 3150SOL    HW220913   0.049   4.205   4.471 -2.4853  0.2613  1.4420
 3151SOL     OW20914   2.838   0.311   3.438 -0.5655 -0.1557  0.6933
 3151SOL    HW120915   2.924   0.341   3.410 -1.9870  1.8353 -1.5524
 3151SOL    HW220916   2.859   0.223   3.406  2.9927  0.4593  1.3074
 3152SOL     OW20917   2.797   3.690  15.972 -0.3051 -0.2970 -0.3881
 3152SOL    HW120918   2.702   3.684  15.984 -0.4967  1.1023 -1.2446
 3152SOL    HW220919   2.805   3.783  15.955  4.0667 -0.4216  0.9419
 3153SOL     OW20920   1.495   2.574   6.033 -0.3423 -0.1173  0.5910
 3153SOL    HW120921   1.549   2.496   6.041 -1.6557 -0.7807  2.7440
 3153SOL    HW220922   1.561   2.630   6.074 -0.7182  1.8489 -1.4845
 3154SOL     OW20923   1.936   1.162   7.538  0.3604  0.1654  0.0367
 3154SOL    HW120924   2.008   1.168   7.476  0.4864  0.9942  0.2645
 3154SOL    HW220925   1.957   1.076   7.573 -2.2030  0.0423  1.2417
 3155SOL     OW20926   3.421   0.414   9.475  0.3654 -0.5262 -0.0689
 3155SOL    HW120927   3.458   0.455   9.553  0.5054  0.4498 -0.6514
 3155SOL    HW220928   3.424   0.492   9.419  1.0458 -1.2572 -1.0495
 3156SOL     OW20929   0.865   1.327   9.010  0.4359 -0.1660 -0.3536
 3156SOL    HW120930   0.856   1.337   9.104  0.9317 -0.6135 -0.2565
 3156SOL    HW220931   0.805   1.393   8.973  0.2319  0.6776  1.5172
 3157SOL     OW20932   1.826   0.459   4.935 -0.1374 -0.2247  0.1831
 3157SOL    HW120933   1.789   0.372   4.921 -0.4567  0.2167 -1.7270
 3157SOL    HW220934   1.910   0.442   4.893 -0.5671  0.9736 -1.1574
 3158SOL     OW20935   2.395   0.180   1.654  0.2165 -0.7897  0.0451
 3158SOL    HW120936   2.483   0.169   1.617 -0.3729 -0.5669 -1.4315
 3158SOL    HW220937   2.417   0.232   1.731  1.2066  2.0965 -2.1681
 3159SOL     OW20938   4.583   4.479  14.357 -0.1752 -0.0326 -0.0632
 3159SOL    HW120939   4.630   4.427  14.422  0.0090 -2.7329 -2.3706
 3159SOL    HW220940   4.650   4.476  14.289  1.6710  0.1246  1.7180
 3160SOL     OW20941   4.241   0.553  13.221 -0.0212  0.5825  0.5811
 3160SOL    HW120942   4.301   0.540  13.147 -1.9937 -0.8244 -0.7731
 3160SOL    HW220943   4.233   0.647  13.212  2.4021  0.7760  0.5301
 3161SOL     OW20944   0.947   1.343  11.012 -0.1382 -0.1526  0.0881
 3161SOL    HW120945   1.038   1.316  11.022 -1.0823 -3.1347  0.5613
 3161SOL    HW220946   0.918   1.298  11.091  0.0551 -1.8588 -0.8001
 3162SOL     OW20947   2.011   2.029   8.502  0.4530 -0.0358 -0.1267
 3162SOL    HW120948   2.043   2.071   8.581 -1.0902  0.1429  0.3984
 3162SOL    HW220949   1.979   2.102   8.449 -0.7019  1.4241  2.5743
 3163SOL     OW20950   3.419   3.429  10.281  0.0213 -0.2475 -0.4988
 3163SOL    HW120951   3.347   3.374  10.249 -0.7454  1.4349 -1.6586
 3163SOL    HW220952   3.393   3.439  10.372 -0.4166 -1.5646 -0.4759
 3164SOL     OW20953   3.506   2.970   2.805 -0.4689  0.1656  0.6839
 3164SOL    HW120954   3.553   2.915   2.868 -0.6385  0.5966  1.1887
 3164SOL    HW220955   3.530   2.921   2.727  1.2799 -1.1740  2.0639
 3165SOL     OW20956   2.914   2.679  12.351  0.4143  0.5281 -0.0429
 3165SOL    HW120957   3.001   2.643  12.333 -0.1528 -0.5531 -0.5673
 3165SOL    HW220958   2.872   2.671  12.266 -1.0121 -0.8068  0.7993
 3166SOL     OW20959   4.631   1.708   5.970 -0.2900  0.6019  0.3005
 3166SOL    HW120960   4.626   1.680   5.879  0.9965 -0.7421  0.6486
 3166SOL    HW220961   4.712   1.759   5.962  0.2806 -0.3903 -0.3315
 3167SOL     OW20962   4.384   2.653  16.885  0.2095 -0.2061  0.9356
 3167SOL    HW120963   4.405   2.666  16.977  0.6032  4.1409  0.2295
 3167SOL    HW220964   4.326   2.577  16.895  0.3915 -0.8429 -2.5527
 3168SOL     OW20965   2.690   3.215   5.017 -0.0405 -0.0542 -0.1841
 3168SOL    HW120966   2.779   3.208   4.981  0.6996  1.1831  1.4144
 3168SOL    HW220967   2.686   3.300   5.059  0.6618 -0.7656  1.3373
 3169SOL     OW20968   2.196   3.768   2.046 -0.0855  0.3362 -0.2772
 3169SOL    HW120969   2.277   3.806   2.080 -0.8796  1.3568  0.4587
 3169SOL    HW220970   2.220   3.758   1.954 -1.4994 -0.5377 -0.5586
 3170SOL     OW20971   0.937   0.796   6.132 -0.1685  1.1655  0.5361
 3170SOL    HW120972   0.857   0.848   6.124 -1.1642 -0.2292  1.3204
 3170SOL    HW220973   0.906   0.709   6.106 -1.2241  1.6927  0.0376
 3171SOL     OW20974   0.535   3.705   3.299 -0.1542  0.7984  0.4947
 3171SOL    HW120975   0.569   3.749   3.377  3.0439 -1.1613  0.2227
 3171SOL    HW220976   0.477   3.767   3.255  0.3710  2.6557  2.4577
 3172SOL     OW20977   3.742   1.559   5.376  0.5412  0.1483 -0.4144
 3172SOL    HW120978   3.694   1.530   5.454  1.5675 -0.8327 -0.1397
 3172SOL    HW220979   3.822   1.506   5.379  0.2535 -0.1660  1.7525
 3173SOL     OW20980   0.364   0.865   1.574 -0.0938 -0.6268  0.8401
 3173SOL    HW120981   0.269   0.852   1.581 -0.1808 -0.2620  0.2920
 3173SOL    HW220982   0.392   0.860   1.666 -0.1661 -1.0112  0.8443
 3174SOL     OW20983   0.164   3.585   5.809 -0.0619  0.2827  0.5064
 3174SOL    HW120984   0.088   3.641   5.825  0.2446  0.8595 -0.0501
 3174SOL    HW220985   0.198   3.608   5.723 -1.2317 -3.6002 -0.9876
 3175SOL     OW20986   2.677   1.435  13.571 -0.1299 -0.2219 -0.0456
 3175SOL    HW120987   2.741   1.425  13.501 -2.7122 -0.9455 -2.2988
 3175SOL    HW220988   2.594   1.440  13.525 -0.7320  0.7120  1.1547
 3176SOL     OW20989   4.705   2.920   7.180  0.0291 -0.0888  0.2526
 3176SOL    HW120990   4.611   2.929   7.170  0.0298  0.4186  0.7742
 3176SOL    HW220991   4.720   2.981   7.252  0.0360  2.0428 -1.5774
 3177SOL     OW20992   1.216   1.172   0.240 -0.1621  0.0506  0.2053
 3177SOL    HW120993   1.145   1.137   0.295  0.9840  0.4448  1.9586
 3177SOL    HW220994   1.225   1.262   0.270  1.8189 -0.8717  2.3928
 3178SOL     OW20995   2.737   3.379   2.974  0.0633 -0.7957  0.3485
 3178SOL    HW120996   2.685   3.399   2.896 -0.0407 -0.5370  0.4858
 3178SOL    HW220997   2.668   3.340   3.028  0.4661 -0.9757  0.7304
 3179SOL     OW20998   3.402   2.520   5.149 -0.4547 -0.1557  0.6815
 3179SOL    HW120999   3.455   2.600   5.146  1.1253 -1.2825 -1.0644
 3179SOL    HW221000   3.467   2.458   5.117  1.4436  0.7029  2.9629
 3180SOL     OW21001   1.978   1.321   2.741 -1.0019  0.1450  0.2493
 3180SOL    HW121002   1.930   1.272   2.675 -0.7530 -0.0387  0.2051
 3180SOL    HW221003   2.042   1.359   2.681 -0.1966  0.0924  1.0734
 3181SOL     OW21004   1.085   1.822   3.230  0.1145 -0.9654 -0.2907
 3181SOL    HW121005   1.015   1.873   3.273  1.0318 -0.5910  0.7471
 3181SOL    HW221006   1.115   1.778   3.309 -1.8353 -0.7978  0.5445
 3182SOL     OW21007   3.834   2.214  17.473 -0.4940 -0.3745 -0.2083
 3182SOL    HW121008   3.791   2.253  17.397 -0.8782 -0.6905 -0.1459
 3182SOL    HW221009   3.767   2.224  17.541 -0.1269  0.7117 -0.0031
 3183SOL     OW21010   1.550   0.216   0.742 -0.7671  0.2395 -0.0516
 3183SOL    HW121011   1.525   0.144   0.684 -0.3493  0.2862 -0.2950
 3183SOL    HW221012   1.592   0.169   0.814  0.9687  0.7221 -0.7414
 3184SOL     OW21013   4.085   0.514   1.059 -0.0011 -0.0756 -0.3290
 3184SOL    HW121014   4.020   0.567   1.014 -0.3766 -0.6302 -0.4350
 3184SOL    HW221015   4.103   0.451   0.990  3.2537  0.6672 -0.1537
 3185SOL     OW21016   2.939   0.748   5.237  0.0214 -0.3961 -0.4567
 3185SOL    HW121017   2.854   0.733   5.279  0.0713 -2.1566 -0.9709
 3185SOL    HW221018   2.956   0.839   5.260  1.3629 -0.3078 -1.7770
 3186SOL     OW21019   1.241   4.603   1.329 -0.3554  0.1707  0.0112
 3186SOL    HW121020   1.296   4.663   1.277 -1.7062  1.0998 -0.3565
 3186SOL    HW221021   1.160   4.621   1.281 -1.6545 -1.2603  1.7085
 3187SOL     OW21022   0.028   1.050  10.407  0.0551 -0.1037  0.3970
 3187SOL    HW121023   0.099   1.113  10.417  0.4438 -0.7959  2.0080
 3187SOL    HW221024   0.073   0.966  10.415 -1.4029 -0.9553 -0.3069
 3188SOL     OW21025   3.386   2.701   4.912 -0.0080  0.0376 -0.1055
 3188SOL    HW121026   3.304   2.660   4.884 -0.0925  1.8850 -2.5254
 3188SOL    HW221027   3.425   2.743   4.835  1.2430 -0.9240  0.0080
 3189SOL     OW21028   0.646   3.467   6.033  0.5294  0.5634 -0.1951
 3189SOL    HW121029   0.566   3.492   5.986  0.9431 -2.8202 -2.7049
 3189SOL    HW221030   0.676   3.391   5.983 -0.1273  0.0537  0.1940
 3190SOL     OW21031   1.833   0.262   3.779 -0.2926 -0.2424  0.2300
 3190SOL    HW121032   1.774   0.188   3.762 -1.5280  0.3448  2.0262
 3190SOL    HW221033   1.807   0.310   3.701 -1.6365  0.0372  0.8447
 3191SOL     OW21034   0.657   4.091  16.644  0.0527  0.2370 -0.3994
 3191SOL    HW121035   0.566   4.085  16.671 -0.1456  1.3599 -0.8303
 3191SOL    HW221036   0.659   4.153  16.572 -1.0983 -0.1144 -0.7249
 3192SOL     OW21037   2.615   0.136   1.084  0.0814 -0.4762  0.3636
 3192SOL    HW121038   2.651   0.223   1.066 -0.7570 -0.2743 -0.3316
 3192SOL    HW221039   2.670   0.108   1.157 -1.2822 -0.0018  1.5683
 3193SOL     OW21040   3.602   0.806   8.729 -0.4726 -0.2713  0.0820
 3193SOL    HW121041   3.527   0.747   8.718  0.3781 -1.2826 -0.3189
 3193SOL    HW221042   3.572   0.872   8.792 -0.6862 -2.4547  2.2550
 3194SOL     OW21043   2.929   2.069   6.412  0.2261  0.2912 -0.0779
 3194SOL    HW121044   2.903   2.147   6.364  0.8340  0.8061  0.4322
 3194SOL    HW221045   2.866   2.067   6.484  1.8863 -0.1412  1.3550
 3195SOL     OW21046   4.018   0.562   6.013  0.2483  0.4144  0.6357
 3195SOL    HW121047   3.938   0.511   6.027  0.1186 -0.1083 -1.8943
 3195SOL    HW221048   4.037   0.577   6.105 -1.7300  4.0509  0.4720
 3196SOL     OW21049   1.216   0.843   8.415  0.0873  0.0388 -0.1433
 3196SOL    HW121050   1.277   0.892   8.359 -0.9750  2.4642  0.8178
 3196SOL    HW221051   1.180   0.924   8.451  1.6357  0.0588  1.3683
 3197SOL     OW21052   3.255   1.649   2.716 -0.2194  0.3964 -0.1343
 3197SOL    HW121053   3.295   1.611   2.794 -1.1339 -0.2776  0.0022
 3197SOL    HW221054   3.243   1.570   2.663  0.2531 -0.3726  0.9070
 3198SOL     OW21055   2.573   3.234   4.758  0.2075  0.6160  0.0025
 3198SOL    HW121056   2.521   3.156   4.736 -0.2595  0.5962  1.1602
 3198SOL    HW221057   2.606   3.212   4.846  0.5666  0.9475 -0.0504
 3199SOL     OW21058   3.648   2.021   8.464 -0.2084 -0.2590 -0.5909
 3199SOL    HW121059   3.663   2.078   8.540  0.8378 -0.1042 -0.9166
 3199SOL    HW221060   3.670   2.084   8.395  0.9191  1.2924  1.1482
 3200SOL     OW21061   1.323   1.615   4.443 -0.5179 -0.1772  0.1358
 3200SOL    HW121062   1.382   1.679   4.404 -1.2482  1.5510  1.8599
 3200SOL    HW221063   1.236   1.654   4.446 -0.5588 -0.3825  1.5122
 3201SOL     OW21064   3.446   0.780   3.635 -0.2043  0.1844 -0.3621
 3201SOL    HW121065   3.502   0.771   3.712 -2.3327 -2.6265  0.8654
 3201SOL    HW221066   3.451   0.697   3.588  1.1184 -0.7101  1.3330
 3202SOL     OW21067   3.337   0.207   7.135  0.6144 -0.0221 -0.0713
 3202SOL    HW121068   3.374   0.143   7.076 -0.6993 -0.5326 -0.3371
 3202SOL    HW221069   3.418   0.252   7.159 -0.7771  0.7897  3.2610
 3203SOL     OW21070   2.805   2.019   7.568 -0.2496 -0.6030 -0.5005
 3203SOL    HW121071   2.848   1.997   7.651 -1.1125 -0.8270 -0.1159
 3203SOL    HW221072   2.854   1.964   7.507 -0.4159  1.3265 -2.3583
 3204SOL     OW21073   0.848   1.471   2.854 -0.5405  0.3350 -0.7428
 3204SOL    HW121074   0.831   1.502   2.943 -0.1410  0.5134 -0.7258
 3204SOL    HW221075   0.860   1.378   2.870  3.0060  0.9880  0.3773
 3205SOL     OW21076   4.362   2.849   6.898  0.6033  0.2980  0.4596
 3205SOL    HW121077   4.388   2.761   6.872  2.2583  0.7347  0.6270
 3205SOL    HW221078   4.284   2.816   6.943  0.5672  2.5962  2.1138
 3206SOL     OW21079   2.428   2.368   2.630 -0.3923 -0.3702  0.4444
 3206SOL    HW121080   2.505   2.332   2.673  1.4233  2.0886 -0.7476
 3206SOL    HW221081   2.381   2.422   2.693 -0.9463  0.2916 -0.5182
 3207SOL     OW21082   2.911   4.230   6.484 -0.4799 -0.6840  0.3942
 3207SOL    HW121083   2.969   4.206   6.556  0.4380  0.2613 -0.0347
 3207SOL    HW221084   2.966   4.295   6.441  0.0891 -1.2945  0.1915
 3208SOL     OW21085   3.473   2.761   7.220  0.2267  0.2700  0.2979
 3208SOL    HW121086   3.557   2.808   7.218 -0.0859  0.7802 -1.0217
 3208SOL    HW221087   3.460   2.747   7.314 -0.1706  1.1620  0.3830
 3209SOL     OW21088   3.515   0.578  14.668  0.0704 -0.1526  0.0024
 3209SOL    HW121089   3.467   0.641  14.723  1.6863  0.1678  1.0438
 3209SOL    HW221090   3.556   0.638  14.605 -1.8842  1.6991  0.4711
 3210SOL     OW21091   4.644   1.270   7.236  0.5404  0.3614  0.1788
 3210SOL    HW121092   4.722   1.248   7.287  0.1725  0.2045  0.6762
 3210SOL    HW221093   4.694   1.326   7.177  2.0768 -0.9785  0.2238
 3211SOL     OW21094   0.226   2.712   0.978 -0.5236  0.7223 -0.2558
 3211SOL    HW121095   0.143   2.721   1.025 -0.3310  2.2173 -0.2126
 3211SOL    HW221096   0.265   2.657   1.046  0.0534  0.1546 -1.0460
 3212SOL     OW21097   3.370   1.627   2.028 -0.0804  0.1706  0.1334
 3212SOL    HW121098   3.313   1.619   1.951 -0.6574 -0.2803  0.6057
 3212SOL    HW221099   3.305   1.581   2.081 -0.5376  0.6956  0.0313
 3213SOL     OW21100   3.422   0.533   1.435  0.2742 -0.1508 -0.1746
 3213SOL    HW121101   3.517   0.540   1.440  0.2060 -1.2276  2.8021
 3213SOL    HW221102   3.400   0.442   1.458  2.3272 -0.1740  1.7488
 3214SOL     OW21103   0.378   2.421   5.123  0.1050 -0.6578  0.7601
 3214SOL    HW121104   0.438   2.471   5.179  0.7507  1.7220 -2.0834
 3214SOL    HW221105   0.429   2.392   5.048  1.4706 -0.8962  1.7753
 3215SOL     OW21106   2.266   3.832   1.792 -0.0880 -0.1224  0.5750
 3215SOL    HW121107   2.203   3.765   1.768 -0.1456 -0.0357  0.4843
 3215SOL    HW221108   2.350   3.795   1.764 -0.2014 -0.7353  1.0483
 3216SOL     OW21109   3.460   3.310   7.228 -0.3081  0.0489  0.6198
 3216SOL    HW121110   3.456   3.367   7.152 -2.1382 -0.1581  0.5554
 3216SOL    HW221111   3.553   3.289   7.231  0.2380  2.5986  1.0623
 3217SOL     OW21112   1.388   1.868  16.393  0.6957 -0.2837  0.3916
 3217SOL    HW121113   1.310   1.912  16.425  0.2705 -0.9350  0.2418
 3217SOL    HW221114   1.368   1.791  16.340  0.4356  0.1128 -0.0766
 3218SOL     OW21115   3.208   1.953   1.109  0.6854 -0.2652  0.0439
 3218SOL    HW121116   3.240   1.930   1.196 -0.8158  1.2379  0.9857
 3218SOL    HW221117   3.251   2.038   1.093 -1.2621  0.7767  0.2927
 3219SOL     OW21118   2.284   0.616   9.164 -0.3564  0.1533 -0.9841
 3219SOL    HW121119   2.210   0.645   9.110 -0.4641  0.0976 -0.8671
 3219SOL    HW221120   2.306   0.687   9.224  3.2666 -0.0911 -2.0058
 3220SOL     OW21121   1.392   2.694   1.705  0.1927  0.4003  0.3400
 3220SOL    HW121122   1.303   2.659   1.713  0.2631  0.1185 -0.0687
 3220SOL    HW221123   1.443   2.615   1.683  0.4746  0.6299  0.1726
 3221SOL     OW21124   0.166   3.014  10.109  0.2109 -0.2464 -0.0850
 3221SOL    HW121125   0.202   2.948  10.168 -1.9235 -3.8357 -2.7559
 3221SOL    HW221126   0.104   2.957  10.063 -0.6131 -1.3827  2.4869
 3222SOL     OW21127   1.566   0.405  10.665 -0.4054  0.4973  0.1091
 3222SOL    HW121128   1.530   0.358  10.740  0.1541 -0.7901 -0.4149
 3222SOL    HW221129   1.529   0.346  10.599  2.3817 -0.9885 -0.1748
 3223SOL     OW21130   2.001   3.387   3.657 -0.0639  0.1475  0.1274
 3223SOL    HW121131   2.012   3.443   3.734  0.4237 -0.1236  0.2620
 3223SOL    HW221132   2.061   3.413   3.587  0.4868 -1.2664  0.0642
 3224SOL     OW21133   3.295   3.204   8.676 -0.2025  0.3218  0.0533
 3224SOL    HW121134   3.267   3.296   8.683 -0.9229  0.1837 -0.9073
 3224SOL    HW221135   3.340   3.224   8.594 -0.0567  2.7772  0.7174
 3225SOL     OW21136   1.768   4.492  13.900  0.0555 -0.1817  0.6535
 3225SOL    HW121137   1.679   4.519  13.924 -1.0227 -1.7880 -1.5377
 3225SOL    HW221138   1.794   4.435  13.973 -1.6669 -2.8459 -0.7755
 3226SOL     OW21139   4.546   1.489   4.248  0.1328  0.3878  0.2387
 3226SOL    HW121140   4.560   1.550   4.320 -0.8571  1.2047 -0.2617
 3226SOL    HW221141   4.569   1.401   4.276  1.1489  0.4152 -0.5122
 3227SOL     OW21142   2.374   0.474   4.685  0.5017  0.0618  0.3336
 3227SOL    HW121143   2.408   0.562   4.671 -0.2378  0.4008  0.6498
 3227SOL    HW221144   2.280   0.488   4.698  0.1158 -0.9082 -1.4791
 3228SOL     OW21145   3.192   3.246   3.810 -0.1074  0.0704  0.5545
 3228SOL    HW121146   3.130   3.186   3.852 -2.7552  1.6802 -1.0492
 3228SOL    HW221147   3.181   3.321   3.869 -0.7350  1.4147 -1.2691
 3229SOL     OW21148   4.500   2.225   2.245 -0.0209 -0.0770  0.1509
 3229SOL    HW121149   4.539   2.307   2.276 -0.7389  0.6749 -0.9493
 3229SOL    HW221150   4.564   2.201   2.179 -1.6532  1.6984 -2.1003
 3230SOL     OW21151   0.489   3.873  10.300 -0.2867 -0.7039  0.3120
 3230SOL    HW121152   0.584   3.886  10.303 -0.1756 -0.8247 -2.6721
 3230SOL    HW221153   0.486   3.778  10.286  1.9361 -0.8564  0.7869
 3231SOL     OW21154   4.514   1.254   2.250 -0.3411  0.1042  0.4135
 3231SOL    HW121155   4.560   1.282   2.171 -0.3594 -1.5252 -0.1612
 3231SOL    HW221156   4.573   1.187   2.283  0.2453  0.0428 -0.7988
 3232SOL     OW21157   0.170   4.049   2.363 -0.1266 -0.6239  0.4960
 3232SOL    HW121158   0.225   3.978   2.395  0.6327 -0.2955 -0.0826
 3232SOL    HW221159   0.205   4.042   2.274 -3.0774 -1.8736 -0.5755
 3233SOL     OW21160   0.898   1.830   7.690  0.2745 -0.2690  0.0171
 3233SOL    HW121161   0.859   1.745   7.671 -0.6429 -0.1266  1.2246
 3233SOL    HW221162   0.984   1.818   7.649 -0.1519  0.0143 -0.9335
 3234SOL     OW21163   4.088   3.349   9.632 -0.2862  0.2337  0.5990
 3234SOL    HW121164   3.994   3.367   9.626 -0.3209 -0.1741 -0.0349
 3234SOL    HW221165   4.118   3.439   9.648  2.7633 -0.5975 -0.4574
 3235SOL     OW21166   3.134   3.425   1.869  0.0796  0.1841 -0.5121
 3235SOL    HW121167   3.166   3.410   1.780  1.3370  0.1090 -0.0441
 3235SOL    HW221168   3.109   3.335   1.891 -0.4762  1.0912  2.5838
 3236SOL     OW21169   1.757   3.697   7.337 -0.4886  0.5363  0.1213
 3236SOL    HW121170   1.793   3.701   7.249  0.3934 -2.0512  0.3617
 3236SOL    HW221171   1.663   3.691   7.321  0.2686  0.9151 -4.3036
 3237SOL     OW21172   0.188   0.328   3.029 -0.4900  0.2053 -0.2299
 3237SOL    HW121173   0.168   0.419   3.004  4.6405  1.6987  0.9932
 3237SOL    HW221174   0.141   0.293   2.953  0.1083  0.7416 -0.8544
 3238SOL     OW21175   0.233   0.556  12.538 -0.2852 -0.2872  0.1024
 3238SOL    HW121176   0.283   0.617  12.592  1.3118 -1.0715 -0.4765
 3238SOL    HW221177   0.296   0.486  12.523 -1.1364 -0.4208 -2.7847
 3239SOL     OW21178   3.446   1.574  12.438  0.4643  0.2213  0.1367
 3239SOL    HW121179   3.461   1.618  12.355 -1.7067  0.4782 -0.1278
 3239SOL    HW221180   3.409   1.488  12.418 -1.1103  1.0776 -0.6032
 3240SOL     OW21181   3.292   1.798   7.761 -0.4304  0.2265 -0.9731
 3240SOL    HW121182   3.289   1.873   7.700  1.7869 -0.4143 -1.8778
 3240SOL    HW221183   3.336   1.731   7.710 -1.3285  0.5771 -2.2193
 3241SOL     OW21184   0.777   1.885   7.940  0.8653 -0.2171 -0.3719
 3241SOL    HW121185   0.713   1.893   7.869 -0.4211  0.4042  0.8488
 3241SOL    HW221186   0.843   1.841   7.886  0.8180  1.0464 -1.4698
 3242SOL     OW21187   0.724   0.345  12.008  0.4185 -0.4726 -0.3802
 3242SOL    HW121188   0.777   0.276  11.968 -0.7794 -0.8413 -1.3472
 3242SOL    HW221189   0.707   0.309  12.095 -0.5326 -0.5958 -0.6171
 3243SOL     OW21190   1.804   3.695  14.988  0.4181 -0.0395 -0.1957
 3243SOL    HW121191   1.847   3.752  14.925 -3.7009  3.0121 -0.2094
 3243SOL    HW221192   1.782   3.618  14.936  1.5469 -0.8147  0.4598
 3244SOL     OW21193   3.993   0.734  15.845  0.5206  0.1363  0.2351
 3244SOL    HW121194   3.947   0.724  15.761  0.8102  0.0950  0.0827
 3244SOL    HW221195   4.044   0.653  15.849 -1.7061 -1.1438  3.0899
 3245SOL     OW21196   3.704   1.942   0.025  0.1255 -0.1841  0.2682
 3245SOL    HW121197   3.765   1.929  17.652 -0.0677 -1.4780  0.3274
 3245SOL    HW221198   3.766   1.971   0.092  2.0799 -1.0968 -1.1504
 3246SOL     OW21199   3.784   4.171   4.408 -0.1007 -0.1957  0.0453
 3246SOL    HW121200   3.820   4.205   4.327  0.6443 -0.3678  0.2989
 3246SOL    HW221201   3.818   4.239   4.466  2.9280  0.9555 -3.1183
 3247SOL     OW21202   3.961   2.093   6.226  0.0807  0.4813  0.4400
 3247SOL    HW121203   3.941   2.077   6.318 -0.4643  0.7614  0.3687
 3247SOL    HW221204   3.946   2.008   6.185 -0.1113 -0.3401  2.2180
 3248SOL     OW21205   2.938   2.954   7.805 -0.2454 -0.7419 -0.5374
 3248SOL    HW121206   2.982   2.933   7.722  3.6768  3.2694  0.5280
 3248SOL    HW221207   3.013   2.963   7.864 -0.1213  0.4100 -0.8626
 3249SOL     OW21208   3.798   0.528  13.476  0.4252 -0.2872  0.0434
 3249SOL    HW121209   3.763   0.602  13.525 -0.4796 -1.1779  0.7114
 3249SOL    HW221210   3.832   0.575  13.399 -1.2037 -2.0128 -1.7268
 3250SOL     OW21211   0.850   2.261  15.881  0.7484 -0.4495  0.2640
 3250SOL    HW121212   0.770   2.313  15.868  1.3674 -0.1882 -2.4021
 3250SOL    HW221213   0.818   2.196  15.944  0.8073 -0.5261  0.2147
 3251SOL     OW21214   0.317   0.220   7.564 -0.0381  0.4164  0.4350
 3251SOL    HW121215   0.223   0.219   7.544 -0.0216  0.3716  0.3599
 3251SOL    HW221216   0.337   0.173   7.484 -0.7723  2.0307 -0.6991
 3252SOL     OW21217   1.030   2.656   6.513 -0.2898  0.2485  0.2639
 3252SOL    HW121218   1.084   2.657   6.434  0.0838 -1.4176  0.4791
 3252SOL    HW221219   1.008   2.563   6.521 -0.5126  0.3211  0.5045
 3253SOL     OW21220   3.437   1.610   7.608 -0.0076 -0.7286  0.0125
 3253SOL    HW121221   3.528   1.632   7.589 -0.1182  1.1122  1.6482
 3253SOL    HW221222   3.445   1.528   7.657 -1.3011 -1.0148 -0.2531
 3254SOL     OW21223   4.501   3.560   2.613 -0.2529  0.2757 -0.0303
 3254SOL    HW121224   4.410   3.541   2.635  0.1466 -0.6576  0.8301
 3254SOL    HW221225   4.553   3.547   2.693  0.0649 -0.3811 -0.3456
 3255SOL     OW21226   4.139   4.654   4.847 -0.8878 -0.4252  0.2286
 3255SOL    HW121227   4.225   4.643   4.886  0.3000 -1.3244 -2.6509
 3255SOL    HW221228   4.117   4.567   4.812 -0.6363 -0.3882 -0.0205
 3256SOL     OW21229   3.314   2.508   1.897  0.5304 -0.1794  0.3870
 3256SOL    HW121230   3.324   2.566   1.972 -0.8816 -0.4205  0.7617
 3256SOL    HW221231   3.295   2.418   1.926  1.3423  0.0779  1.7077
 3257SOL     OW21232   2.274   2.427   3.312 -0.0684  0.2098 -0.0452
 3257SOL    HW121233   2.263   2.420   3.407 -1.8175 -1.4261 -0.3514
 3257SOL    HW221234   2.369   2.434   3.319  0.1320 -1.1034 -1.5482
 3258SOL     OW21235   1.581   1.334   2.994 -0.0730 -0.0914 -0.2156
 3258SOL    HW121236   1.604   1.404   2.933  1.4666  0.5424  1.1026
 3258SOL    HW221237   1.594   1.261   2.933 -0.3455 -0.7935  0.5675
 3259SOL     OW21238   2.271   3.582   9.406  0.1515 -0.4415  0.7960
 3259SOL    HW121239   2.356   3.621   9.425  0.5355 -0.9728  0.1923
 3259SOL    HW221240   2.290   3.492   9.433 -3.2568 -1.8259 -1.3397
 3260SOL     OW21241   4.385   3.544   8.971  0.4096 -0.1793 -0.1620
 3260SOL    HW121242   4.311   3.604   8.973  0.7712  0.1854  2.1510
 3260SOL    HW221243   4.348   3.457   8.953  1.6951 -1.6266  4.3917
 3261SOL     OW21244   2.546   0.458   8.652  0.1537  0.1028  0.6657
 3261SOL    HW121245   2.515   0.503   8.731 -0.2276  0.0595  0.5442
 3261SOL    HW221246   2.477   0.460   8.585 -0.6942 -1.3109  1.5035
 3262SOL     OW21247   4.628   1.454   6.582  0.4556  0.5312  0.7481
 3262SOL    HW121248   4.646   1.368   6.622 -3.5089 -1.2579 -1.3476
 3262SOL    HW221249   4.538   1.448   6.550  0.8369  0.6015 -0.3329
 3263SOL     OW21250   3.142   0.599   4.742  0.0995  0.0960  0.2065
 3263SOL    HW121251   3.229   0.598   4.703 -1.8903 -0.8476 -4.2868
 3263SOL    HW221252   3.142   0.517   4.791  2.0440 -0.3982 -0.6481
 3264SOL     OW21253   3.099   2.368  13.993  0.1815  0.3909 -0.1540
 3264SOL    HW121254   3.128   2.304  14.058  1.1363  0.2834 -0.6794
 3264SOL    HW221255   3.149   2.345  13.914 -1.7019 -1.5506 -0.7681
 3265SOL     OW21256   1.508   1.599   7.086  0.6542 -0.4468  0.1802
 3265SOL    HW121257   1.438   1.627   7.145  0.3160 -1.9824  0.5040
 3265SOL    HW221258   1.574   1.654   7.128  1.2967 -0.0816 -1.3319
 3266SOL     OW21259   1.816   4.348   7.405 -0.0694  0.1853  0.3820
 3266SOL    HW121260   1.889   4.410   7.410  0.8915 -1.1213  2.6389
 3266SOL    HW221261   1.864   4.266   7.410 -0.1996 -0.1108 -3.4917
 3267SOL     OW21262   4.024   4.267   5.240  0.5088 -1.0438 -0.0508
 3267SOL    HW121263   3.981   4.229   5.317 -0.6774 -1.3654 -0.8645
 3267SOL    HW221264   4.049   4.357   5.263  1.9009 -0.9314 -2.0364
 3268SOL     OW21265   1.619   0.823   5.993  0.0018  0.2559  0.1477
 3268SOL    HW121266   1.624   0.881   6.070  2.0505  1.1699 -0.6732
 3268SOL    HW221267   1.681   0.752   6.012  0.7244  0.9428  0.3684
 3269SOL     OW21268   4.207   3.310  12.142 -0.4295 -0.3809  0.6376
 3269SOL    HW121269   4.194   3.284  12.233 -0.8634  2.5077  1.3895
 3269SOL    HW221270   4.113   3.318  12.123 -0.3430 -1.0084 -0.0626
 3270SOL     OW21271   1.420   3.731   0.603  0.0187 -0.4154 -0.7387
 3270SOL    HW121272   1.483   3.664   0.576  1.7411  0.9585 -0.1009
 3270SOL    HW221273   1.388   3.751   0.514 -0.1922 -1.2053 -0.8415
 3271SOL     OW21274   3.286   2.198   8.061  0.4417  0.4055 -0.2988
 3271SOL    HW121275   3.341   2.208   7.983  1.6266 -0.3517  0.4349
 3271SOL    HW221276   3.280   2.285   8.100 -0.0192 -0.1383  0.8248
 3272SOL     OW21277   4.477   2.818   3.661 -0.5069  0.1872  0.1153
 3272SOL    HW121278   4.434   2.745   3.616 -1.7151  0.3508  0.9981
 3272SOL    HW221279   4.408   2.884   3.651 -1.0730 -0.2523  1.1323
 3273SOL     OW21280   3.585   3.224   6.210  0.4496  0.6817 -0.7049
 3273SOL    HW121281   3.674   3.189   6.219 -0.0840 -0.7452 -0.9213
 3273SOL    HW221282   3.534   3.154   6.250 -0.7027  1.7154 -0.3729
 3274SOL     OW21283   4.075   1.736   7.238 -0.8334 -0.0625  0.3544
 3274SOL    HW121284   4.054   1.775   7.323  3.3854  0.5100  1.1161
 3274SOL    HW221285   4.153   1.783   7.208 -0.1920 -0.7078  1.0295
 3275SOL     OW21286   3.189   0.268   6.412  0.1441 -0.2536 -0.4766
 3275SOL    HW121287   3.106   0.227   6.387  0.2256 -1.1162  0.6814
 3275SOL    HW221288   3.196   0.227   6.498 -1.9641 -0.6123 -0.4637
 3276SOL     OW21289   3.178   0.430  16.381  0.4147  0.0890 -0.7316
 3276SOL    HW121290   3.190   0.432  16.286 -2.9674  2.8615 -1.1288
 3276SOL    HW221291   3.112   0.362  16.380  0.7613 -0.2589  1.5644
 3277SOL     OW21292   1.030   1.467   5.494 -0.0433  0.1160 -0.0017
 3277SOL    HW121293   1.058   1.508   5.576  2.5286 -0.1575 -0.7655
 3277SOL    HW221294   1.052   1.525   5.422  2.5864 -0.3091  0.4799
 3278SOL     OW21295   0.704   1.555  15.302 -0.2854 -0.5886  0.4161
 3278SOL    HW121296   0.676   1.500  15.229 -1.1208  2.4080 -1.5018
 3278SOL    HW221297   0.627   1.610  15.313 -0.9581 -1.7049  1.2575
 3279SOL     OW21298   4.093   3.577   5.669  0.9521  0.3613 -0.0191
 3279SOL    HW121299   4.067   3.530   5.590 -2.1206  0.3206  1.0130
 3279SOL    HW221300   4.150   3.517   5.717 -0.1182  0.3144  1.1923
 3280SOL     OW21301   3.141   0.899   3.468  0.0644 -0.0676  0.7727
 3280SOL    HW121302   3.219   0.932   3.513  0.9419 -0.5299 -0.4129
 3280SOL    HW221303   3.098   0.844   3.534  0.4248 -1.0352  0.1955
 3281SOL     OW21304   3.153   2.679  16.171 -0.3733 -0.6618 -0.2046
 3281SOL    HW121305   3.068   2.640  16.150 -1.3289  1.2580  0.0695
 3281SOL    HW221306   3.122   2.740  16.238  0.8402  0.0885 -0.3197
 3282SOL     OW21307   2.492   0.670   4.168  0.2047 -0.4777  0.2429
 3282SOL    HW121308   2.488   0.762   4.195 -0.2040 -1.0729  2.2013
 3282SOL    HW221309   2.585   0.647   4.165  0.3312  0.0182  0.3690
 3283SOL     OW21310   4.228   0.930  11.551  0.0483 -0.3846  0.1413
 3283SOL    HW121311   4.294   0.994  11.525  0.9272 -0.4608  2.1857
 3283SOL    HW221312   4.256   0.841  11.529  3.2513  0.3560  1.2636
 3284SOL     OW21313   3.513   2.974  12.520  0.1621 -0.7030 -0.5432
 3284SOL    HW121314   3.552   3.052  12.558  1.4880 -1.4946 -0.2746
 3284SOL    HW221315   3.421   2.988  12.540  0.7200 -0.2945  1.7106
 3285SOL     OW21316   0.382   3.362  10.368  0.6772  0.0151  0.4752
 3285SOL    HW121317   0.416   3.355  10.458 -1.4710 -0.5771  1.2353
 3285SOL    HW221318   0.297   3.323  10.387  0.7721 -0.1180  0.6347
 3286SOL     OW21319   1.710   0.551   3.301  0.1246 -0.4247 -0.2046
 3286SOL    HW121320   1.627   0.585   3.268 -0.0118 -0.7191 -0.1545
 3286SOL    HW221321   1.748   0.528   3.216  0.6815 -2.6922  0.6589
 3287SOL     OW21322   0.450   3.085   4.708 -0.4570  0.7157 -0.1818
 3287SOL    HW121323   0.410   3.144   4.645 -0.6749 -1.1173 -1.7638
 3287SOL    HW221324   0.473   3.015   4.646 -0.2901 -0.3352  1.0667
 3288SOL     OW21325   4.112   3.331   4.111  0.9694  0.4830 -0.0419
 3288SOL    HW121326   4.122   3.283   4.194  0.9303 -2.3615 -1.6862
 3288SOL    HW221327   4.157   3.409   4.144  3.7378 -1.3389  0.5064
 3289SOL     OW21328   2.203   0.269  13.410  1.0675  0.0406  0.4762
 3289SOL    HW121329   2.284   0.255  13.459  1.3452  0.6749  0.2043
 3289SOL    HW221330   2.144   0.211  13.457 -1.8320  1.8147 -0.9776
 3290SOL     OW21331   0.653   2.215   5.958  0.2939 -0.6751  0.7910
 3290SOL    HW121332   0.719   2.160   5.915 -0.5351 -1.1187  0.1017
 3290SOL    HW221333   0.621   2.164   6.033  0.1521 -0.5692  0.8007
 3291SOL     OW21334   3.685   4.460  16.311  0.2180  0.5389 -0.3298
 3291SOL    HW121335   3.601   4.505  16.302  0.9568  2.2731  1.5027
 3291SOL    HW221336   3.688   4.417  16.226  2.7640 -1.4488  0.7659
 3292SOL     OW21337   1.809   0.500   2.653  0.9175 -0.2243  0.0327
 3292SOL    HW121338   1.878   0.456   2.604  0.7502  0.3447 -0.7247
 3292SOL    HW221339   1.744   0.434   2.628  1.5702 -0.3750 -1.2816
 3293SOL     OW21340   4.068   1.206  16.101 -0.7359 -0.5790 -0.2388
 3293SOL    HW121341   4.128   1.146  16.145 -0.7291 -0.8599 -0.6358
 3293SOL    HW221342   4.041   1.141  16.035  0.3039  0.0885 -1.3215
 3294SOL     OW21343   0.432   4.128   4.837 -0.5210  0.2113 -0.4345
 3294SOL    HW121344   0.457   4.126   4.744 -0.2843 -3.7607 -0.2879
 3294SOL    HW221345   0.503   4.160   4.892 -0.1126  0.7495 -1.2655
 3295SOL     OW21346   3.658   1.512  14.070  0.1470  0.2172 -0.5408
 3295SOL    HW121347   3.752   1.529  14.072  0.1134  0.2213  0.6370
 3295SOL    HW221348   3.653   1.417  14.069  0.0800  0.2203 -0.5523
 3296SOL     OW21349   0.124   0.927   8.388 -0.2581  0.2685 -0.5878
 3296SOL    HW121350   0.042   0.967   8.359 -0.3403  1.2923  1.0080
 3296SOL    HW221351   0.197   0.960   8.336  0.2321  0.5636  0.2718
 3297SOL     OW21352   4.342   1.506   3.722  0.2057  0.4143 -0.2180
 3297SOL    HW121353   4.427   1.546   3.738 -0.6227  2.6445 -1.3311
 3297SOL    HW221354   4.295   1.586   3.700 -0.5423  0.3259  1.0689
 3298SOL     OW21355   1.066   3.663   7.484  0.2806  0.0993  0.1163
 3298SOL    HW121356   1.126   3.722   7.530 -0.7325  0.1704  1.3383
 3298SOL    HW221357   1.010   3.635   7.556 -0.9837 -0.1631 -0.9847
 3299SOL     OW21358   2.534   3.786   6.785 -0.2731 -0.0558  0.4567
 3299SOL    HW121359   2.549   3.880   6.791  1.6624 -0.4159  1.3849
 3299SOL    HW221360   2.447   3.781   6.747 -0.0788  1.2034 -0.1448
 3300SOL     OW21361   1.709   3.103   6.838 -0.2265 -0.0053 -0.3610
 3300SOL    HW121362   1.699   3.153   6.918 -2.8741  0.3170 -0.9021
 3300SOL    HW221363   1.765   3.161   6.786 -1.6847  0.0914 -1.8253
 3301SOL     OW21364   0.523   1.422  17.211 -0.3045 -0.6181  0.4125
 3301SOL    HW121365   0.510   1.503  17.160  0.5870 -0.5491  0.2989
 3301SOL    HW221366   0.602   1.380  17.178 -1.0257 -1.0718 -0.7620
 3302SOL     OW21367   1.317   1.172  11.406  0.0565 -0.8192 -0.0072
 3302SOL    HW121368   1.230   1.138  11.424 -0.5374  1.6956  1.8436
 3302SOL    HW221369   1.329   1.246  11.466  0.7758 -0.8757 -0.0818
 3303SOL     OW21370   3.114   0.975  14.139 -0.9309  0.6541  0.2434
 3303SOL    HW121371   3.198   0.948  14.104 -2.1237 -1.4610 -0.9873
 3303SOL    HW221372   3.137   1.065  14.163  0.6252  0.2233  0.3110
 3304SOL     OW21373   2.993   3.857   9.020 -0.1778 -0.1813  0.1801
 3304SOL    HW121374   3.058   3.926   9.009 -0.4625  0.0535 -0.0286
 3304SOL    HW221375   2.919   3.888   8.967 -0.4041 -2.0363 -0.5902
 3305SOL     OW21376   1.023   4.064   9.899 -0.4359 -0.3792  0.0361
 3305SOL    HW121377   1.011   4.095   9.810 -0.3830 -0.0351  0.1471
 3305SOL    HW221378   1.112   4.031   9.892 -0.2825 -0.2267  1.2022
 3306SOL     OW21379   3.227   0.335   9.129  0.3473 -0.7424 -0.2659
 3306SOL    HW121380   3.302   0.378   9.088 -1.2720  2.2104 -0.1530
 3306SOL    HW221381   3.240   0.263   9.067  1.8675 -1.8503  1.3364
 3307SOL     OW21382   2.148   0.631   5.679 -0.3480  0.0744 -0.0770
 3307SOL    HW121383   2.145   0.705   5.740 -0.0541  0.1675 -0.1747
 3307SOL    HW221384   2.237   0.598   5.692 -0.8116 -1.2567 -0.3065
 3308SOL     OW21385   2.330   1.162   2.420 -1.0565  0.7352  0.2240
 3308SOL    HW121386   2.374   1.245   2.438 -0.4152  0.7761 -1.5189
 3308SOL    HW221387   2.381   1.130   2.345 -1.9262 -0.3568  0.0892
 3309SOL     OW21388   2.029   0.556  16.039  0.3056  0.1509  0.0405
 3309SOL    HW121389   2.016   0.481  15.982 -0.5627 -1.4291  2.3059
 3309SOL    HW221390   2.067   0.522  16.120  1.0898 -3.3269 -1.7972
 3310SOL     OW21391   0.173   4.515   0.889  0.2579  0.0929  0.6923
 3310SOL    HW121392   0.127   4.598   0.873  0.6191  0.4510  1.5197
 3310SOL    HW221393   0.222   4.529   0.970  1.8068  0.2744 -0.2785
 3311SOL     OW21394   2.662   0.390   6.960  0.8090  0.7112  0.3392
 3311SOL    HW121395   2.642   0.441   7.038 -2.4308 -0.1015  0.0166
 3311SOL    HW221396   2.750   0.358   6.982  1.6032  3.5094  1.2965
 3312SOL     OW21397   2.258   0.867   0.578  0.4065  0.2702  0.1378
 3312SOL    HW121398   2.235   0.797   0.517 -1.3567  1.4628 -0.5875
 3312SOL    HW221399   2.228   0.826   0.660 -0.6584 -0.4234 -0.5990
 3313SOL     OW21400   3.970   1.985   2.680  0.2398 -0.3625  0.4634
 3313SOL    HW121401   3.949   2.021   2.766  2.6629  0.6650  0.6043
 3313SOL    HW221402   4.052   1.944   2.706  1.1003  1.4443  0.5818
 3314SOL     OW21403   1.897   0.154   2.680 -0.2765 -0.3296 -0.2553
 3314SOL    HW121404   1.872   0.101   2.604 -0.1926 -3.0785  1.6275
 3314SOL    HW221405   1.961   0.215   2.644  1.0919 -1.0804  0.9233
 3315SOL     OW21406   0.519   3.222  13.084  0.4969  0.4521 -0.1044
 3315SOL    HW121407   0.560   3.144  13.048  1.3716 -0.3494  2.6406
 3315SOL    HW221408   0.564   3.235  13.167  0.5198  2.0333 -0.3621
 3316SOL     OW21409   3.239   2.717  11.986  0.2416  0.2017  0.7067
 3316SOL    HW121410   3.308   2.745  11.927 -0.3410 -0.4443 -0.2763
 3316SOL    HW221411   3.187   2.796  11.993 -0.7903 -0.4676  0.6430
 3317SOL     OW21412   0.499   3.483   8.089  1.3460 -0.2950 -0.1883
 3317SOL    HW121413   0.569   3.432   8.128  2.3195  1.6978  0.6554
 3317SOL    HW221414   0.543   3.514   8.010 -1.7971  0.3611 -1.6882
 3318SOL     OW21415   0.955   3.457   4.881  0.4461  0.1746  0.1328
 3318SOL    HW121416   0.913   3.523   4.826  1.4476  0.1421 -0.6659
 3318SOL    HW221417   0.899   3.469   4.958  0.7627  1.0692  0.2291
 3319SOL     OW21418   1.962   2.265   4.676 -0.1083 -0.0304  0.0124
 3319SOL    HW121419   1.959   2.340   4.616  3.4951 -0.2382 -0.3912
 3319SOL    HW221420   1.868   2.247   4.683 -0.1794 -0.1925 -1.3234
 3320SOL     OW21421   2.385   3.123  11.562 -0.1099 -0.0041  0.1493
 3320SOL    HW121422   2.299   3.093  11.532  0.4817 -0.7382 -0.7985
 3320SOL    HW221423   2.438   3.044  11.556  0.3756  0.3282  0.0597
 3321SOL     OW21424   3.470   0.881   8.445 -0.2306  0.3338  0.1756
 3321SOL    HW121425   3.422   0.820   8.501  1.3195 -1.2327 -0.1980
 3321SOL    HW221426   3.530   0.823   8.397 -1.8245 -0.1183 -1.2884
 3322SOL     OW21427   3.734   4.690   2.675  0.3821  0.2370 -0.7088
 3322SOL    HW121428   3.766   0.005   2.757 -0.8072 -4.1312  1.8622
 3322SOL    HW221429   3.685   4.613   2.705 -0.5696  2.1491  2.6082
 3323SOL     OW21430   1.057   3.777   8.272 -0.3750 -0.3283 -0.2042
 3323SOL    HW121431   0.989   3.746   8.332  0.5823 -2.3224 -0.1701
 3323SOL    HW221432   1.015   3.859   8.245  1.1662  0.7288  0.6463
 3324SOL     OW21433   0.265   0.729   4.165 -0.4728  0.0201 -0.1663
 3324SOL    HW121434   0.259   0.778   4.083 -1.6089 -2.3275 -1.5018
 3324SOL    HW221435   0.355   0.696   4.168 -1.0995 -1.5348  2.0182
 3325SOL     OW21436   1.424   4.249  13.130 -0.3487  0.7080 -0.3115
 3325SOL    HW121437   1.497   4.199  13.168 -2.8336 -0.4102  2.9855
 3325SOL    HW221438   1.346   4.201  13.156  1.1062 -1.1342  0.6471
 3326SOL     OW21439   3.826   3.562   2.009 -0.2541  0.0089  0.2896
 3326SOL    HW121440   3.776   3.642   1.990 -0.7096 -0.4564 -0.4759
 3326SOL    HW221441   3.906   3.585   1.962  0.7493 -2.6256  0.7063
 3327SOL     OW21442   2.458   1.470   8.064 -0.1167 -0.3136 -0.3456
 3327SOL    HW121443   2.540   1.487   8.018  1.0102 -0.0268  1.7423
 3327SOL    HW221444   2.445   1.552   8.111  1.7551 -0.6146  0.7040
 3328SOL     OW21445   1.521   3.043   7.674 -0.2529  0.2640 -0.0114
 3328SOL    HW121446   1.528   3.099   7.597 -1.7264  2.0415  1.1299
 3328SOL    HW221447   1.467   2.972   7.639  1.5586 -0.6045 -1.0403
 3329SOL     OW21448   4.523   1.149  15.787  0.4819  0.1010  0.0289
 3329SOL    HW121449   4.439   1.112  15.814  0.5844  0.3827  0.7261
 3329SOL    HW221450   4.497   1.228  15.738  0.8934  0.3294  0.1754
 3330SOL     OW21451   2.863   3.811  14.764 -0.6138  0.4910  0.3231
 3330SOL    HW121452   2.784   3.790  14.813 -0.5347  0.2780  0.3578
 3330SOL    HW221453   2.856   3.756  14.687  0.8097  2.0085 -0.8808
 3331SOL     OW21454   2.410   3.525   9.931  0.7206 -0.5316 -0.0667
 3331SOL    HW121455   2.481   3.482   9.978  2.0736 -1.1699 -2.6840
 3331SOL    HW221456   2.465   3.588   9.883  0.3243  2.0323  2.8470
 3332SOL     OW21457   0.774   2.204   7.287  0.6886  0.7703  0.3208
 3332SOL    HW121458   0.848   2.146   7.305  0.2100  0.5011  1.4262
 3332SOL    HW221459   0.727   2.213   7.370 -2.2808  0.4926 -1.3412
 3333SOL     OW21460   4.386   0.745   5.176  0.4614  0.0526  0.2408
 3333SOL    HW121461   4.471   0.789   5.166  0.7215 -0.0475  1.9976
 3333SOL    HW221462   4.377   0.710   5.087  0.5674 -0.6230  0.4998
 3334SOL     OW21463   0.253   2.084   6.401  0.1569  0.3647  0.5173
 3334SOL    HW121464   0.204   2.054   6.477  4.8702 -3.3654  2.0731
 3334SOL    HW221465   0.339   2.097   6.442 -0.7248  0.3378  2.3430
 3335SOL     OW21466   2.216   1.288   5.412 -0.1637  0.2464  0.3192
 3335SOL    HW121467   2.201   1.347   5.339  0.3851 -0.8221 -0.6548
 3335SOL    HW221468   2.145   1.227   5.393 -0.5300  0.2493  1.7143
 3336SOL     OW21469   4.438   0.905   8.552  0.3812 -0.7217  0.2921
 3336SOL    HW121470   4.425   0.862   8.636 -0.2022 -0.2634  0.4384
 3336SOL    HW221471   4.347   0.932   8.541  1.1151  1.5291 -0.3433
 3337SOL     OW21472   2.518   3.505   6.632  0.3507  0.5734  0.5117
 3337SOL    HW121473   2.567   3.425   6.614 -2.4967 -1.0287 -0.1036
 3337SOL    HW221474   2.573   3.538   6.703  1.7582  1.0865 -0.8214
 3338SOL     OW21475   2.101   0.431   7.645 -0.1297  0.1150 -0.0579
 3338SOL    HW121476   2.149   0.350   7.630 -0.8142 -0.0892 -1.1667
 3338SOL    HW221477   2.084   0.424   7.739  2.1092 -1.2627  0.2339
 3339SOL     OW21478   0.333   4.402   2.311  0.6447 -0.2296 -0.1607
 3339SOL    HW121479   0.346   4.340   2.239 -0.6548  0.9153 -1.3798
 3339SOL    HW221480   0.419   4.442   2.315  1.0882 -1.0754 -0.9919
 3340SOL     OW21481   3.953   2.055   9.616  0.2055 -0.1917  0.3131
 3340SOL    HW121482   3.915   2.040   9.530 -0.0846 -0.6554  0.5227
 3340SOL    HW221483   3.974   1.965   9.640  2.1132  0.3479  0.7224
 3341SOL     OW21484   0.677   2.408   6.983 -0.4780 -0.6718 -0.4214
 3341SOL    HW121485   0.597   2.457   6.962  0.2139  0.8672  0.5298
 3341SOL    HW221486   0.731   2.470   7.033 -0.0450  2.3510 -4.6217
 3342SOL     OW21487   4.686   2.982   3.684  0.2037 -0.2791 -0.4210
 3342SOL    HW121488   4.620   2.914   3.679  0.9013 -0.9577 -0.4926
 3342SOL    HW221489   4.709   2.972   3.776  0.7938 -1.2050 -0.6684
 3343SOL     OW21490   2.813   2.392   8.628 -0.0239 -0.6127 -0.0827
 3343SOL    HW121491   2.767   2.446   8.692  1.5935  1.9481 -1.0878
 3343SOL    HW221492   2.891   2.371   8.679  0.5155  0.4502 -0.4737
 3344SOL     OW21493   3.655   3.383   5.119 -0.6562  0.3690 -0.0535
 3344SOL    HW121494   3.650   3.341   5.204 -1.2292 -0.6777 -0.6021
 3344SOL    HW221495   3.733   3.343   5.081  0.8314  0.4477  2.9588
 3345SOL     OW21496   1.449   3.588   1.716 -0.2559 -0.1159 -0.4287
 3345SOL    HW121497   1.422   3.497   1.722  0.9749 -0.4176  0.7120
 3345SOL    HW221498   1.423   3.608   1.626  0.5290  1.7759 -0.2464
 3346SOL     OW21499   3.400   1.328   8.232 -0.0804 -0.7474 -0.3160
 3346SOL    HW121500   3.389   1.405   8.287  1.7935 -2.3178  2.2240
 3346SOL    HW221501   3.390   1.254   8.292 -1.0479 -1.3184 -1.1731
 3347SOL     OW21502   0.320   2.100  14.213  0.1860  0.0929 -0.1511
 3347SOL    HW121503   0.249   2.157  14.185 -0.0509 -0.7600 -1.2846
 3347SOL    HW221504   0.384   2.117  14.144  1.8047 -2.4583  0.7427
 3348SOL     OW21505   3.994   0.174   7.265 -0.4931 -0.1667 -0.3745
 3348SOL    HW121506   3.902   0.198   7.276 -0.9653 -1.6427 -1.1108
 3348SOL    HW221507   4.034   0.210   7.344 -1.0033 -0.0151 -0.1890
 3349SOL     OW21508   2.925   2.054   7.217 -0.1428 -0.5334 -1.2763
 3349SOL    HW121509   2.915   2.122   7.151 -1.1498 -0.1486 -0.7389
 3349SOL    HW221510   2.830   2.048   7.226  0.0088 -0.6637  0.2818
 3350SOL     OW21511   1.992   0.419   6.366 -0.4677 -0.0862  0.1482
 3350SOL    HW121512   2.029   0.411   6.454 -1.8131  1.2133  0.8222
 3350SOL    HW221513   1.914   0.470   6.387 -0.4826 -1.4981  3.5724
 3351SOL     OW21514   3.265   0.624   8.181 -0.5855  0.2419  0.0048
 3351SOL    HW121515   3.238   0.699   8.235 -0.3758 -2.1076  3.3720
 3351SOL    HW221516   3.188   0.568   8.185 -0.5355  0.0044 -2.4996
 3352SOL     OW21517   2.078   2.919   8.258 -0.5124  0.2992  0.6132
 3352SOL    HW121518   2.058   3.003   8.217 -0.3706  0.6891  1.3485
 3352SOL    HW221519   2.050   2.938   8.348  0.5119  0.2348  0.9473
 3353SOL     OW21520   3.726   4.539   6.105 -0.3427  0.3767 -0.4651
 3353SOL    HW121521   3.734   4.513   6.013  1.3467 -0.1604 -0.1652
 3353SOL    HW221522   3.658   4.607   6.106 -1.3429 -0.6317  0.6013
 3354SOL     OW21523   1.267   1.607  11.518  0.1026 -0.2314 -0.1024
 3354SOL    HW121524   1.232   1.694  11.539  2.1318  0.7453 -0.7161
 3354SOL    HW221525   1.188   1.589  11.467 -0.8394  0.0557  1.2396
 3355SOL     OW21526   1.303   4.268  10.193  0.2941 -0.0232 -0.3346
 3355SOL    HW121527   1.213   4.276  10.224  0.9671  0.9983  1.3817
 3355SOL    HW221528   1.319   4.359  10.169 -1.4692  0.3030 -0.2690
 3356SOL     OW21529   4.553   1.510  14.283 -0.1201 -0.1700 -0.5008
 3356SOL    HW121530   4.618   1.484  14.348  1.3156  0.6335 -1.6283
 3356SOL    HW221531   4.476   1.519  14.340  0.6161 -1.7417  0.7364
 3357SOL     OW21532   4.715   0.609   5.244 -0.1169 -0.1389  0.4051
 3357SOL    HW121533   0.027   0.562   5.319  1.9429 -1.7241 -1.5723
 3357SOL    HW221534   4.664   0.537   5.208  0.0888 -0.2646  0.3656
 3358SOL     OW21535   0.782   3.064   2.117 -0.3886 -0.1280 -0.7496
 3358SOL    HW121536   0.859   3.094   2.164 -2.2566  1.0366  1.5742
 3358SOL    HW221537   0.815   3.018   2.040 -0.1872 -1.9203  0.4029
 3359SOL     OW21538   0.655   2.395  16.657 -0.5075  0.2463 -0.2242
 3359SOL    HW121539   0.672   2.367  16.747  1.8694  2.8532  0.1645
 3359SOL    HW221540   0.722   2.464  16.654  0.8081 -0.9621  2.1030
 3360SOL     OW21541   1.691   2.518   9.198 -0.3284 -0.2242  0.2226
 3360SOL    HW121542   1.687   2.520   9.294  0.3415  0.3342  0.2367
 3360SOL    HW221543   1.708   2.610   9.178  3.5412 -0.7720  0.9751
 3361SOL     OW21544   3.146   3.411  13.909 -0.4036 -0.1068 -0.5678
 3361SOL    HW121545   3.075   3.465  13.944 -1.6959 -2.3647  0.3146
 3361SOL    HW221546   3.129   3.420  13.815  0.7586 -0.6347 -0.8254
 3362SOL     OW21547   4.600   0.268   6.619  0.3094  0.0583 -0.3105
 3362SOL    HW121548   4.600   0.179   6.655 -0.6547  1.0678  2.2242
 3362SOL    HW221549   4.604   0.323   6.698  0.2900 -2.4357  1.4508
 3363SOL     OW21550   2.624   3.419   2.294  0.0244 -0.4431  0.6585
 3363SOL    HW121551   2.616   3.376   2.209  1.1118  1.3091 -0.3282
 3363SOL    HW221552   2.540   3.390   2.332 -0.4058  0.6261  0.5232
 3364SOL     OW21553   1.553   1.190   4.169  0.5749 -0.0744 -0.2526
 3364SOL    HW121554   1.620   1.237   4.219  0.1454  0.5105 -0.2311
 3364SOL    HW221555   1.531   1.239   4.090  1.2349  2.0212  0.8521
 3365SOL     OW21556   1.625   0.013   4.540 -0.5466  0.0947  0.5568
 3365SOL    HW121557   1.544   0.019   4.591 -0.0480 -0.1880  1.3918
 3365SOL    HW221558   1.600   0.055   4.458  2.6971 -2.3079 -1.6764
 3366SOL     OW21559   1.911   3.973   5.212  0.4706 -0.7070 -0.2557
 3366SOL    HW121560   1.842   3.958   5.275  1.3725  0.6810  1.0652
 3366SOL    HW221561   1.980   4.008   5.269 -0.0318 -2.6031  1.5106
 3367SOL     OW21562   2.050   2.235   0.004 -0.1038  0.3551  0.4057
 3367SOL    HW121563   2.122   2.217  17.642  0.9195  0.1085  1.7011
 3367SOL    HW221564   2.003   2.152   0.003 -1.8773  1.3604  0.1456
 3368SOL     OW21565   0.391   4.189   3.055  0.6080 -0.1087 -0.3180
 3368SOL    HW121566   0.335   4.222   2.985 -0.6130 -1.5826 -0.0314
 3368SOL    HW221567   0.334   4.195   3.132  2.5656  1.3930  1.0020
 3369SOL     OW21568   3.225   0.325   1.885  0.1086 -0.3556 -0.3544
 3369SOL    HW121569   3.267   0.239   1.878  0.9258 -0.0500  0.7033
 3369SOL    HW221570   3.243   0.335   1.979 -2.4245  0.3412  0.0556
 3370SOL     OW21571   2.448   0.140  17.395 -0.4509 -0.1414 -0.3621
 3370SOL    HW121572   2.435   0.212  17.456  2.9929  0.5052 -0.4063
 3370SOL    HW221573   2.506   0.077  17.437 -0.5114 -0.6174 -0.9848
 3371SOL     OW21574   4.151   0.563  17.500 -0.1102  0.2082 -0.4572
 3371SOL    HW121575   4.225   0.544  17.558 -0.5839  0.1010  0.1089
 3371SOL    HW221576   4.191   0.582  17.416 -0.2423 -1.2653 -0.8498
 3372SOL     OW21577   0.382   4.049   5.276  0.3428  0.1456 -0.2186
 3372SOL    HW121578   0.308   4.101   5.307  0.4596  0.0652  0.2090
 3372SOL    HW221579   0.348   3.960   5.269 -0.3477  0.4378 -0.5248
 3373SOL     OW21580   3.109   1.916   7.041 -0.1233 -0.0299 -0.2020
 3373SOL    HW121581   3.033   1.944   7.092 -1.5263 -0.3635 -2.0867
 3373SOL    HW221582   3.130   1.843   7.100 -0.5875  0.9019  1.0911
 3374SOL     OW21583   3.795   2.748  14.961  0.0185  0.1771 -0.2897
 3374SOL    HW121584   3.889   2.754  14.943 -0.3551  3.6383 -1.0396
 3374SOL    HW221585   3.776   2.796  14.881  1.4290  0.9401 -0.1628
 3375SOL     OW21586   2.052   1.661   7.157  0.2637 -0.1461  0.1488
 3375SOL    HW121587   2.108   1.615   7.220 -0.1215 -2.0322 -0.9006
 3375SOL    HW221588   1.970   1.616   7.172  0.3895 -0.8946 -1.4537
 3376SOL     OW21589   1.061   2.652   3.045 -0.0993  0.1848 -0.2273
 3376SOL    HW121590   1.133   2.634   2.984 -0.3940 -3.3302  0.4597
 3376SOL    HW221591   1.021   2.567   3.066  0.4410  0.0587  0.2913
 3377SOL     OW21592   2.223   1.191  11.047 -0.1002 -0.2037  0.3015
 3377SOL    HW121593   2.127   1.187  11.043 -0.1287  1.4768 -0.7122
 3377SOL    HW221594   2.241   1.234  10.964  1.7200 -0.7521  0.4176
 3378SOL     OW21595   2.660   0.221  15.628  0.1284  0.3357 -0.0704
 3378SOL    HW121596   2.674   0.173  15.547  2.2615  1.3303 -0.2775
 3378SOL    HW221597   2.743   0.209  15.673  0.7210 -0.5823 -1.4187
 3379SOL     OW21598   2.935   3.073   8.100 -0.1209  0.0594  0.2497
 3379SOL    HW121599   3.024   3.047   8.122 -0.9060 -0.3646  2.9058
 3379SOL    HW221600   2.885   3.013   8.155  1.5928 -0.5269  1.1759
 3380SOL     OW21601   3.670   0.171  14.487  0.7732 -0.3424  0.0467
 3380SOL    HW121602   3.708   0.187  14.573 -2.9120 -1.0180  1.7895
 3380SOL    HW221603   3.747   0.122  14.458 -0.7644 -2.4113 -0.5262
 3381SOL     OW21604   4.209   0.830  12.597  0.4114 -0.2105 -0.1292
 3381SOL    HW121605   4.230   0.918  12.567 -0.4038  1.2101  3.4552
 3381SOL    HW221606   4.266   0.784  12.536  2.6276  0.2542  1.6009
 3382SOL     OW21607   4.179   3.043   8.485 -0.2569  0.1655 -0.5341
 3382SOL    HW121608   4.226   2.965   8.457  0.8716  0.1048  1.5185
 3382SOL    HW221609   4.151   3.011   8.571  3.3635  0.3506  0.7046
 3383SOL     OW21610   3.645   0.985  11.340  0.3482  0.9813 -0.6266
 3383SOL    HW121611   3.694   1.056  11.298  1.0987 -0.8283 -2.7991
 3383SOL    HW221612   3.576   0.963  11.278 -1.9905  2.6546  1.3885
 3384SOL     OW21613   1.717   2.862  16.328 -0.0299  0.0417  0.2631
 3384SOL    HW121614   1.732   2.916  16.251  2.3852 -0.5623  0.2919
 3384SOL    HW221615   1.632   2.893  16.359 -0.3845 -0.7557  0.1044
 3385SOL     OW21616   3.436   1.532   0.304  0.0482  0.0680 -0.1186
 3385SOL    HW121617   3.399   1.508   0.219 -0.6329 -0.0131  0.2044
 3385SOL    HW221618   3.361   1.520   0.363 -0.5904 -1.1000 -1.1649
 3386SOL     OW21619   0.500   0.935  11.988  0.0984  0.1820  0.0582
 3386SOL    HW121620   0.439   0.996  12.031  0.1022 -0.4999  1.0148
 3386SOL    HW221621   0.581   0.978  12.013  2.5802 -4.4146 -0.1577
 3387SOL     OW21622   0.488   2.210   6.181  0.3391 -0.1014 -0.1496
 3387SOL    HW121623   0.483   2.215   6.277  0.0987  0.2875 -0.1854
 3387SOL    HW221624   0.538   2.289   6.160  1.5809 -0.4360  1.4976
 3388SOL     OW21625   4.150   1.181  15.380  0.5778  0.0216 -0.0339
 3388SOL    HW121626   4.224   1.167  15.439  0.2398  2.1654  0.9286
 3388SOL    HW221627   4.205   1.175  15.302  0.9681 -1.6914  0.3878
 3389SOL     OW21628   2.912   4.557   5.207  0.2891  0.1194  0.2455
 3389SOL    HW121629   2.876   4.505   5.279  0.0456  1.7039  1.2588
 3389SOL    HW221630   2.970   4.492   5.167  0.7208 -0.2604  1.4780
 3390SOL     OW21631   2.127   4.698   0.501  0.0257  0.2617 -0.1811
 3390SOL    HW121632   2.094   4.712   0.590  0.6463  0.3189  0.0471
 3390SOL    HW221633   2.067   0.034   0.459  0.0552  0.6398  0.3138
 3391SOL     OW21634   2.260   4.416  13.447 -0.1765  0.4146  0.1288
 3391SOL    HW121635   2.355   4.422  13.439 -0.1944 -0.5037 -0.6833
 3391SOL    HW221636   2.232   4.491  13.501 -1.7045 -0.8997  1.1473
 3392SOL     OW21637   2.367   2.939   3.951 -0.0739 -0.2199 -0.0750
 3392SOL    HW121638   2.316   3.007   3.906  0.6056  0.7501  0.6276
 3392SOL    HW221639   2.310   2.908   4.022  0.7677  0.7231  1.0125
 3393SOL     OW21640   0.475   4.257  14.727 -0.2185 -0.0872 -0.2322
 3393SOL    HW121641   0.474   4.234  14.820 -2.2005  1.5894  0.1507
 3393SOL    HW221642   0.462   4.174  14.682 -0.0255 -0.2309 -0.0278
 3394SOL     OW21643   1.692   3.767   1.721 -0.1816 -0.4872  0.2044
 3394SOL    HW121644   1.625   3.700   1.734  0.6112 -0.9298  2.1068
 3394SOL    HW221645   1.728   3.747   1.635  1.5428 -1.6272  1.1811
 3395SOL     OW21646   3.314   2.730  12.802 -0.1656  0.2879  0.3611
 3395SOL    HW121647   3.297   2.636  12.801 -1.1754  0.4637  0.5766
 3395SOL    HW221648   3.224   2.758  12.783 -0.6740  0.6725  3.3305
 3396SOL     OW21649   3.085   0.548   7.566  0.1510 -0.3918 -0.5220
 3396SOL    HW121650   3.020   0.546   7.496  1.7319  0.3706 -1.9828
 3396SOL    HW221651   3.135   0.628   7.552  1.3739 -0.9428  0.6448
 3397SOL     OW21652   0.936   1.784   3.654 -0.2776 -0.5463 -0.1416
 3397SOL    HW121653   0.898   1.851   3.710 -0.5057 -0.7950 -0.0035
 3397SOL    HW221654   0.989   1.743   3.723 -0.6500  0.1859  0.5787
 3398SOL     OW21655   1.591   2.712   8.304  0.3643  0.2420  0.2034
 3398SOL    HW121656   1.616   2.646   8.240 -1.5597 -0.9947  0.7599
 3398SOL    HW221657   1.513   2.749   8.263 -0.4006 -1.2298  0.3722
 3399SOL     OW21658   2.055   1.841  11.873  0.2499 -0.0610 -0.2786
 3399SOL    HW121659   1.965   1.846  11.842  0.0084 -0.4191  0.3745
 3399SOL    HW221660   2.112   1.870  11.802  0.9478 -1.0850 -0.1315
 3400SOL     OW21661   2.888   1.229   4.703  0.5836 -0.4156  0.1858
 3400SOL    HW121662   2.856   1.182   4.626  0.3086  1.0214 -0.5695
 3400SOL    HW221663   2.949   1.291   4.663  0.9543  0.0476  1.4656
 3401SOL     OW21664   2.485   2.806   4.818 -0.0822 -0.0408  0.0079
 3401SOL    HW121665   2.416   2.790   4.883  0.4833  0.3218  0.6945
 3401SOL    HW221666   2.565   2.806   4.870 -0.4871  1.4547  0.6090
 3402SOL     OW21667   1.781   2.353   7.403 -0.1243 -0.1821 -0.0133
 3402SOL    HW121668   1.873   2.356   7.430  0.2223 -0.9266 -1.1335
 3402SOL    HW221669   1.791   2.302   7.323 -2.0034  0.1277 -0.4262
 3403SOL     OW21670   1.287   1.557  12.611  0.3670 -0.0559  0.2820
 3403SOL    HW121671   1.354   1.615  12.647 -0.9042  1.0396  0.8935
 3403SOL    HW221672   1.225   1.560  12.684 -0.5141 -2.5844 -0.3579
 3404SOL     OW21673   2.522   1.981   7.878  0.0365 -0.5440 -0.1475
 3404SOL    HW121674   2.552   1.997   7.967 -0.1826 -1.3813  0.0729
 3404SOL    HW221675   2.440   2.029   7.883  1.1083  1.0226  2.1316
 3405SOL     OW21676   0.755   3.739   2.968 -0.1702 -0.4238 -0.0192
 3405SOL    HW121677   0.848   3.760   2.961 -0.0867 -1.5716 -2.3102
 3405SOL    HW221678   0.720   3.806   2.909 -0.6548 -1.6166 -1.0831
 3406SOL     OW21679   1.771   1.003   5.842  0.6071 -0.0376 -0.1796
 3406SOL    HW121680   1.732   0.923   5.878  0.1068  0.6789  0.8752
 3406SOL    HW221681   1.818   0.965   5.768 -0.2653 -0.3959 -0.5521
 3407SOL     OW21682   3.045   3.273  16.880 -0.5900 -0.2738 -0.1587
 3407SOL    HW121683   2.990   3.343  16.914 -1.0737 -1.4379  1.4304
 3407SOL    HW221684   2.973   3.211  16.877 -1.3756  0.6857 -1.2067
 3408SOL     OW21685   0.452   4.011  16.100 -0.2206 -0.6580 -0.1662
 3408SOL    HW121686   0.360   3.999  16.078 -0.2707 -1.3508  0.4092
 3408SOL    HW221687   0.446   3.982  16.191 -0.3699 -0.2956 -0.0590
 3409SOL     OW21688   3.770   4.687   6.944  0.5785  0.3183 -0.2871
 3409SOL    HW121689   3.849   0.017   6.943  0.3160  0.7244  1.2611
 3409SOL    HW221690   3.774   4.667   6.851 -0.0999 -3.1922  0.4177
 3410SOL     OW21691   4.084   3.096  17.041  0.3358  0.3795 -0.0395
 3410SOL    HW121692   4.058   3.169  17.096 -0.0863  0.8410 -0.8461
 3410SOL    HW221693   4.137   3.046  17.103  1.2831  0.1146 -1.0565
 3411SOL     OW21694   3.600   1.027   3.084  0.4423 -0.0533  0.0965
 3411SOL    HW121695   3.680   1.061   3.044 -0.0994  1.0085 -0.0886
 3411SOL    HW221696   3.634   0.937   3.090  2.5956  0.7934  0.8037
 3412SOL     OW21697   4.160   1.169   0.132  0.5888  0.0255  0.1996
 3412SOL    HW121698   4.227   1.141   0.194  1.7294  0.8380 -0.6635
 3412SOL    HW221699   4.090   1.108   0.156  2.0336 -1.8253 -0.3565
 3413SOL     OW21700   1.292   0.064  16.464 -0.2621 -0.6019  0.6136
 3413SOL    HW121701   1.318   0.148  16.424 -2.0011  0.0887  0.9244
 3413SOL    HW221702   1.253   0.019  16.389 -0.4238  0.4578  0.0483
 3414SOL     OW21703   1.342   4.404   3.144 -0.0718 -0.1371  0.2536
 3414SOL    HW121704   1.420   4.440   3.102  1.1284 -0.5198  2.0857
 3414SOL    HW221705   1.360   4.310   3.153  3.6196  0.5600  0.3712
 3415SOL     OW21706   4.655   4.488  13.276 -0.3874 -0.0972 -0.0196
 3415SOL    HW121707   0.015   4.527  13.252 -0.8408  0.0140 -1.4205
 3415SOL    HW221708   4.654   4.401  13.236 -0.6881  0.5305 -1.3754
 3416SOL     OW21709   1.606   4.102  16.641  0.7687 -0.0288  0.1795
 3416SOL    HW121710   1.592   4.186  16.685  0.7898  0.5038 -0.8462
 3416SOL    HW221711   1.647   4.132  16.560  0.1162  1.1337  0.2790
 3417SOL     OW21712   1.734   2.799   5.898  0.2849 -0.2142 -0.1598
 3417SOL    HW121713   1.789   2.876   5.910 -1.2211  0.5040  2.1889
 3417SOL    HW221714   1.717   2.772   5.989  0.1829 -0.0826 -0.1394
 3418SOL     OW21715   0.275   1.443   6.581 -0.1216 -0.0930 -0.0358
 3418SOL    HW121716   0.356   1.468   6.536  0.0356 -3.5203 -1.6834
 3418SOL    HW221717   0.224   1.432   6.501 -1.2047 -2.5763  0.9695
 3419SOL     OW21718   1.608   2.525   0.707 -0.1879  0.0906  0.3601
 3419SOL    HW121719   1.606   2.533   0.612 -0.5193  0.1485  0.3724
 3419SOL    HW221720   1.652   2.605   0.736 -0.7179  1.3657 -2.3563
 3420SOL     OW21721   4.720   0.001   3.972 -0.2041 -0.2905  0.0537
 3420SOL    HW121722   4.720   4.714   4.068  0.8185  0.4039  0.1406
 3420SOL    HW221723   4.662   4.654   3.948  1.7348 -2.2400  1.1443
 3421SOL     OW21724   1.889   3.970   3.535  0.2432  0.8343  0.1791
 3421SOL    HW121725   1.860   3.933   3.452  1.8320 -0.9815  0.4421
 3421SOL    HW221726   1.873   3.901   3.599  1.0914 -0.4470 -0.9907
 3422SOL     OW21727   2.930   2.028  17.625 -0.2899  0.5544 -0.3567
 3422SOL    HW121728   2.914   2.090  17.553  1.9385  2.5542  0.8453
 3422SOL    HW221729   2.847   2.031  17.672 -0.1649  0.0222 -0.1099
 3423SOL     OW21730   3.461   1.216  14.239 -0.1079  0.4602  0.4625
 3423SOL    HW121731   3.467   1.304  14.278 -1.1688 -0.1085  1.8934
 3423SOL    HW221732   3.526   1.223  14.169 -1.4788  2.4867 -0.6153
 3424SOL     OW21733   0.846   0.486   9.605 -0.0883  0.4479 -0.2070
 3424SOL    HW121734   0.837   0.530   9.689 -0.8728 -1.1354  0.5489
 3424SOL    HW221735   0.763   0.440   9.588  0.7432 -1.3714  0.6656
 3425SOL     OW21736   1.743   4.446   3.235 -0.2782  0.3193  0.1034
 3425SOL    HW121737   1.746   4.401   3.151  0.3772  1.4006 -0.4507
 3425SOL    HW221738   1.836   4.439   3.259  0.0581 -2.2005 -1.9647
 3426SOL     OW21739   1.260   1.593   6.475  0.2181 -0.3016  0.2918
 3426SOL    HW121740   1.284   1.527   6.410 -2.0754 -0.3888 -0.4594
 3426SOL    HW221741   1.296   1.542   6.548  1.5544  0.0909 -0.0980
 3427SOL     OW21742   2.608   1.136   3.724 -0.4175 -0.2071 -0.1742
 3427SOL    HW121743   2.521   1.144   3.683  0.0610 -1.3422 -1.3819
 3427SOL    HW221744   2.628   1.230   3.731 -2.5106  0.1897  0.6903
 3428SOL     OW21745   1.145   0.385  12.796 -0.6330 -0.4475 -0.6342
 3428SOL    HW121746   1.175   0.474  12.813  0.1317 -0.5626 -1.4108
 3428SOL    HW221747   1.212   0.349  12.739  0.1995 -0.1548  0.1597
 3429SOL     OW21748   2.270   3.868  15.002  0.4829  0.0424 -0.2681
 3429SOL    HW121749   2.271   3.818  14.920 -2.1170 -0.6585  0.1277
 3429SOL    HW221750   2.317   3.809  15.061 -2.7501 -0.8557  1.4009
 3430SOL     OW21751   0.638   2.044   4.611  0.0625 -0.1676 -0.1715
 3430SOL    HW121752   0.708   1.981   4.593  1.5581  1.8103 -1.2980
 3430SOL    HW221753   0.561   1.998   4.578  2.1394 -1.1323 -3.7133
 3431SOL     OW21754   0.861   1.008   8.089  0.2499 -0.5417 -0.6174
 3431SOL    HW121755   0.867   1.044   8.000  1.3478 -1.2747 -0.8455
 3431SOL    HW221756   0.920   1.069   8.132 -0.9105  1.2613 -1.5980
 3432SOL     OW21757   4.153   1.526   3.104  0.2700 -0.3084 -0.1183
 3432SOL    HW121758   4.172   1.571   3.187  0.9707  3.3041 -2.2745
 3432SOL    HW221759   4.078   1.472   3.129  0.0411  1.8417  3.9666
 3433SOL     OW21760   2.703   2.916   7.918  0.5319 -0.2104 -0.1766
 3433SOL    HW121761   2.784   2.940   7.873 -0.3456 -0.8692 -2.1056
 3433SOL    HW221762   2.672   3.001   7.949 -3.0851 -2.3508  2.0762
 3434SOL     OW21763   4.430   2.082  14.237 -0.0838  0.2378  0.7077
 3434SOL    HW121764   4.427   2.160  14.291  0.6639 -0.9782  2.4845
 3434SOL    HW221765   4.397   2.009  14.289  1.0548 -0.5592  0.3090
 3435SOL     OW21766   2.983   1.631  13.309 -0.1377  0.3430 -0.0361
 3435SOL    HW121767   3.049   1.610  13.243  2.1530  1.2947  1.9349
 3435SOL    HW221768   2.942   1.547  13.330  2.6527 -1.5692 -2.2876
 3436SOL     OW21769   0.485   0.638   3.329  0.9072  0.1761  0.5794
 3436SOL    HW121770   0.430   0.680   3.394  2.0644  0.3452  1.4518
 3436SOL    HW221771   0.468   0.545   3.345 -2.0049  0.3050 -1.7578
 3437SOL     OW21772   3.628   1.428   0.935 -0.2135  0.3656 -0.1153
 3437SOL    HW121773   3.556   1.487   0.915 -0.2793  0.4717  0.4416
 3437SOL    HW221774   3.653   1.450   1.024 -0.1694 -0.5385  0.0938
 3438SOL     OW21775   2.682   2.472   7.007 -0.4063 -0.2931  0.0681
 3438SOL    HW121776   2.668   2.523   7.087 -1.3896 -0.0056 -0.2885
 3438SOL    HW221777   2.764   2.508   6.974  0.9321 -2.6273  0.7871
 3439SOL     OW21778   0.172   3.633   4.431  0.0497 -0.4662 -1.2322
 3439SOL    HW121779   0.243   3.614   4.369  0.9715  3.6902 -1.4683
 3439SOL    HW221780   0.157   3.725   4.411 -1.6705 -0.0528  2.0047
 3440SOL     OW21781   1.722   3.011   9.381 -0.8726  0.4315 -1.0444
 3440SOL    HW121782   1.782   3.062   9.436 -0.7953 -0.1706 -0.5734
 3440SOL    HW221783   1.776   2.990   9.304 -1.9502  0.4205 -1.7861
 3441SOL     OW21784   1.542   2.741   4.026 -0.1035  0.5195 -0.0915
 3441SOL    HW121785   1.579   2.701   3.947  0.0291  0.6400 -0.0901
 3441SOL    HW221786   1.619   2.755   4.082 -0.8694 -1.1635  1.3861
 3442SOL     OW21787   0.802   4.416   5.345 -0.3162 -0.1819 -1.0326
 3442SOL    HW121788   0.845   4.419   5.431  1.2560 -0.6991 -1.8087
 3442SOL    HW221789   0.848   4.345   5.301  0.1281  0.9254 -2.3404
 3443SOL     OW21790   0.665   3.163   7.268 -0.4856 -0.0595  0.1046
 3443SOL    HW121791   0.755   3.147   7.299 -0.3575  0.9432  0.2567
 3443SOL    HW221792   0.637   3.225   7.335  1.4650  0.1050  0.7747
 3444SOL     OW21793   4.664   1.559   4.665  0.0878  0.0734  0.0972
 3444SOL    HW121794   4.615   1.603   4.596 -1.6485 -3.4277 -0.9149
 3444SOL    HW221795   0.021   1.539   4.618 -0.0256 -0.3990  0.1013
 3445SOL     OW21796   2.875   3.286   7.919 -0.2941  0.1136 -0.3861
 3445SOL    HW121797   2.903   3.215   7.977  1.9042  1.3499  0.0746
 3445SOL    HW221798   2.959   3.318   7.884  0.2798  1.0732  1.8790
 3446SOL     OW21799   3.229   3.047   4.032 -0.3818  0.4979  0.0412
 3446SOL    HW121800   3.289   3.089   4.094 -1.2138  2.5495 -0.5194
 3446SOL    HW221801   3.289   3.021   3.962 -2.3116  0.7111 -1.7061
 3447SOL     OW21802   1.887   1.997   5.408 -0.4418  0.2909  0.3054
 3447SOL    HW121803   1.971   1.952   5.407  0.1753  1.3629  2.8406
 3447SOL    HW221804   1.859   1.973   5.497  0.9251 -0.0875  0.6251
 3448SOL     OW21805   3.408   0.524   3.488 -0.2667  0.3890 -0.0063
 3448SOL    HW121806   3.395   0.473   3.408  0.9820 -1.6425  1.0913
 3448SOL    HW221807   3.482   0.477   3.526  0.2818  0.1344 -1.3725
 3449SOL     OW21808   2.025   1.776   8.380 -0.1959 -0.2010  0.4764
 3449SOL    HW121809   1.933   1.802   8.385  0.4842  2.1608  0.8762
 3449SOL    HW221810   2.066   1.857   8.413  1.5023 -0.9454  0.1817
 3450SOL     OW21811   3.863   4.696   4.714  0.0089 -0.5178  0.1844
 3450SOL    HW121812   3.921   4.637   4.762  1.3313 -1.9423 -3.0956
 3450SOL    HW221813   3.837   0.032   4.783 -0.9000  0.2651 -0.8295
 3451SOL     OW21814   4.505   1.657  17.686 -0.8631  0.6302  0.0708
 3451SOL    HW121815   4.547   1.743  17.687  2.3796 -0.9330 -0.4833
 3451SOL    HW221816   4.565   1.614   0.048  0.4024 -0.2360 -1.7828
 3452SOL     OW21817   0.424   0.950   4.936 -0.2666 -0.4376 -0.1593
 3452SOL    HW121818   0.490   0.971   5.001  0.7454 -3.5868 -0.1808
 3452SOL    HW221819   0.341   0.943   4.983 -0.4335 -0.5043 -0.4628
 3453SOL     OW21820   3.272   3.682   4.201 -0.7676 -0.4407  0.1752
 3453SOL    HW121821   3.251   3.744   4.131  1.9349  0.5535  0.2406
 3453SOL    HW221822   3.337   3.730   4.253  0.8226 -0.5027 -1.7262
 3454SOL     OW21823   2.820   3.019   3.124  0.3992  0.2947  0.1103
 3454SOL    HW121824   2.900   3.048   3.079 -0.8093  0.0877 -2.1470
 3454SOL    HW221825   2.774   2.979   3.051  0.4305 -1.2983  0.9764
 3455SOL     OW21826   0.426   3.725   8.568 -0.1250  0.0558  0.6420
 3455SOL    HW121827   0.419   3.783   8.644  0.0867 -0.5235  1.1056
 3455SOL    HW221828   0.517   3.699   8.584  0.6911  1.1483 -2.1463
 3456SOL     OW21829   4.233   0.871   4.140 -0.0694  0.1700  0.6273
 3456SOL    HW121830   4.170   0.943   4.145 -1.9425 -1.3077 -1.5569
 3456SOL    HW221831   4.238   0.857   4.235  2.0988  0.8923  0.6193
 3457SOL     OW21832   0.796   3.021   7.966  0.0155 -0.1519 -0.0990
 3457SOL    HW121833   0.760   2.938   7.997  2.2609 -0.8831  0.5791
 3457SOL    HW221834   0.716   3.069   7.987  0.1782 -0.8855  2.2127
 3458SOL     OW21835   2.530   0.066   5.297 -0.2056 -0.0727  0.1239
 3458SOL    HW121836   2.475   0.142   5.277 -2.4469 -1.4148  1.1051
 3458SOL    HW221837   2.475   0.017   5.358  2.5602 -2.1831  0.9282
 3459SOL     OW21838   3.359   2.148   7.311 -0.8994 -0.0161 -0.0138
 3459SOL    HW121839   3.358   2.124   7.218  0.7861  1.4709 -0.4080
 3459SOL    HW221840   3.444   2.191   7.322 -1.0951  0.6001 -0.9517
 3460SOL     OW21841   4.210   1.715   4.713 -0.3882 -0.6596  0.3720
 3460SOL    HW121842   4.196   1.636   4.661 -0.1109 -1.6338  1.7672
 3460SOL    HW221843   4.302   1.712   4.739  0.4091 -2.0725 -2.6065
 3461SOL     OW21844   4.101   4.008   5.628  0.7696  0.3340 -0.5291
 3461SOL    HW121845   4.080   4.097   5.600 -0.4424  0.0760 -0.4414
 3461SOL    HW221846   4.095   4.013   5.724 -1.6226 -0.9631 -0.6278
 3462SOL     OW21847   4.234   3.282  12.783  0.3406 -0.1621 -0.0954
 3462SOL    HW121848   4.301   3.291  12.851 -0.0829 -0.7447  0.3941
 3462SOL    HW221849   4.208   3.374  12.771  1.5826  0.3234  0.9306
 3463SOL     OW21850   4.348   2.572   2.818 -0.1002 -0.5748 -0.1027
 3463SOL    HW121851   4.392   2.594   2.900  0.2073 -0.5640 -0.2693
 3463SOL    HW221852   4.420   2.516   2.789  0.8983  2.0309 -2.6602
 3464SOL     OW21853   1.819   4.498  11.843  0.4558 -0.6209 -0.1901
 3464SOL    HW121854   1.835   4.533  11.756 -3.4440 -2.4664 -1.6303
 3464SOL    HW221855   1.857   4.411  11.830 -1.8697 -1.3510 -1.9867
 3465SOL     OW21856   3.657   3.655   6.776  0.2279  0.1729 -0.4654
 3465SOL    HW121857   3.704   3.598   6.716  2.1872 -0.4401  1.6393
 3465SOL    HW221858   3.606   3.715   6.721  0.7686 -0.3802 -1.5599
 3466SOL     OW21859   4.184   0.911   8.541  0.0160  0.1858  0.4102
 3466SOL    HW121860   4.113   0.905   8.605 -0.3062  0.5352  0.0866
 3466SOL    HW221861   4.153   0.974   8.476 -2.4585 -0.8754  0.5685
 3467SOL     OW21862   0.072   1.403   2.390 -0.5771 -0.3331  0.2201
 3467SOL    HW121863   0.043   1.457   2.316  1.0326 -1.5491 -1.2956
 3467SOL    HW221864   0.042   1.319   2.355 -0.5278 -0.5373  0.6783
 3468SOL     OW21865   2.547   4.109  16.701 -0.5999 -0.1063 -0.9083
 3468SOL    HW121866   2.502   4.036  16.660 -1.2660 -0.0666 -0.2548
 3468SOL    HW221867   2.500   4.182  16.662 -3.5556 -0.5048  1.8740
 3469SOL     OW21868   3.273   0.505  10.167  0.2609  0.5632  0.1434
 3469SOL    HW121869   3.343   0.536  10.225  1.3711  0.1961 -1.0134
 3469SOL    HW221870   3.203   0.532  10.227  1.4537 -1.6453  2.5053
 3470SOL     OW21871   4.134   1.519   6.774 -0.1060  0.0687  0.9133
 3470SOL    HW121872   4.113   1.612   6.782  2.2183  0.8106 -1.8073
 3470SOL    HW221873   4.071   1.487   6.839  0.2738  1.6685  2.0467
 3471SOL     OW21874   2.382   4.415   2.310 -1.2297 -0.7978 -0.4508
 3471SOL    HW121875   2.367   4.346   2.245 -2.3602  1.0519 -2.1569
 3471SOL    HW221876   2.295   4.427   2.348 -0.3150  2.9789  0.4107
 3472SOL     OW21877   4.208   3.596   8.687  0.0648 -0.1130  0.0263
 3472SOL    HW121878   4.255   3.514   8.673  2.0217  0.4293  3.2929
 3472SOL    HW221879   4.161   3.587   8.769 -1.2508 -0.5590 -0.7906
 3473SOL     OW21880   0.944   2.382   7.678 -0.2242  0.2067  0.0105
 3473SOL    HW121881   0.885   2.330   7.732  0.6276 -1.3504 -0.5483
 3473SOL    HW221882   1.023   2.375   7.732 -0.3322  1.4163  0.3278
 3474SOL     OW21883   4.280   1.600   9.138 -0.2122 -0.3818 -0.5419
 3474SOL    HW121884   4.231   1.518   9.133  0.8078 -1.1128  1.7113
 3474SOL    HW221885   4.362   1.570   9.097  0.2220  2.1495 -1.5142
 3475SOL     OW21886   2.204   3.282   7.802 -0.2238 -0.4677  0.2260
 3475SOL    HW121887   2.273   3.228   7.762 -0.5342 -0.0465 -0.8711
 3475SOL    HW221888   2.126   3.244   7.763 -0.2839 -1.8331  1.6630
 3476SOL     OW21889   3.416   3.143   3.267  0.3489  0.5181  0.0380
 3476SOL    HW121890   3.427   3.233   3.237 -1.7124  1.2223  1.3865
 3476SOL    HW221891   3.431   3.144   3.362 -0.6391  0.9699  0.1838
 3477SOL     OW21892   1.084   0.913   6.689  0.2133 -0.8071  0.1059
 3477SOL    HW121893   1.042   0.827   6.701 -1.1850  0.0172  1.1733
 3477SOL    HW221894   1.117   0.895   6.601 -1.5349 -0.7943 -0.5478
 3478SOL     OW21895   2.343   4.372  12.121  0.1076 -0.3475 -0.1448
 3478SOL    HW121896   2.298   4.429  12.184  0.6572  0.5340 -0.5492
 3478SOL    HW221897   2.436   4.382  12.141 -0.5934  0.4561  2.8579
 3479SOL     OW21898   2.401   0.538  11.488 -0.6456  0.0742  0.0079
 3479SOL    HW121899   2.384   0.465  11.548 -1.6528  0.3969  0.1107
 3479SOL    HW221900   2.381   0.496  11.405  1.3089  0.6075 -0.7296
 3480SOL     OW21901   3.606   4.478  16.766  0.2298 -0.1877  0.0894
 3480SOL    HW121902   3.681   4.503  16.712  0.2433 -1.3120 -0.4165
 3480SOL    HW221903   3.627   4.502  16.856 -1.3007  1.2523  0.0577
 3481SOL     OW21904   3.515   4.111   8.701 -0.2851  0.4533  0.0117
 3481SOL    HW121905   3.542   4.203   8.704  0.6500  0.2066 -0.9985
 3481SOL    HW221906   3.586   4.068   8.654 -0.2860  0.7447 -0.2587
 3482SOL     OW21907   1.655   2.189   4.003  0.3067 -0.3016  0.0477
 3482SOL    HW121908   1.736   2.139   3.995 -0.6562 -1.6329 -1.3119
 3482SOL    HW221909   1.625   2.150   4.085 -3.2284  0.4231 -0.9028
 3483SOL     OW21910   2.475   1.827   5.997  0.1785  0.0142 -0.0459
 3483SOL    HW121911   2.490   1.911   5.953 -0.6260 -0.1399 -0.6146
 3483SOL    HW221912   2.565   1.810   6.026  0.0400  0.2976  0.5435
 3484SOL     OW21913   2.036   4.052  16.011  0.2532 -0.4316  0.0037
 3484SOL    HW121914   1.948   4.033  16.043  0.8272  0.8052  2.2795
 3484SOL    HW221915   2.080   4.067  16.094 -3.2413  1.6462  1.5160
 3485SOL     OW21916   1.163   4.473   1.582 -0.0317  0.5479  0.1741
 3485SOL    HW121917   1.196   4.534   1.516  0.7964 -0.2869 -0.1705
 3485SOL    HW221918   1.169   4.389   1.537  1.5633  0.2379  0.9633
 3486SOL     OW21919   2.181   3.733   5.348 -0.5886  0.7775 -0.1372
 3486SOL    HW121920   2.093   3.734   5.387 -0.1112  0.5372  0.9476
 3486SOL    HW221921   2.219   3.665   5.404 -3.6376  0.6534  1.7776
 3487SOL     OW21922   0.703   0.691   3.636 -0.7076  0.4092 -0.4508
 3487SOL    HW121923   0.730   0.779   3.611 -2.4056  1.6974  2.3808
 3487SOL    HW221924   0.693   0.646   3.552 -2.1482  2.1061 -1.1768
 3488SOL     OW21925   2.073   3.375   7.348  0.2178  0.2083 -0.2475
 3488SOL    HW121926   2.103   3.285   7.355 -0.4693  0.0283  0.3908
 3488SOL    HW221927   2.092   3.394   7.256 -0.2141  1.1832 -0.1375
 3489SOL     OW21928   0.224   0.056   0.385  0.2851  0.0741 -0.0479
 3489SOL    HW121929   0.259   4.714   0.445  1.1883  3.0207  2.6777
 3489SOL    HW221930   0.138   0.018   0.367  0.1696  0.3853 -0.1399
 3490SOL     OW21931   0.788   1.151   3.340  0.3905  0.0674 -0.5747
 3490SOL    HW121932   0.865   1.148   3.282 -0.5281 -2.0419 -1.6706
 3490SOL    HW221933   0.760   1.241   3.321 -0.1241  0.0844  0.3123
 3491SOL     OW21934   4.535   4.037   5.533 -0.1865 -0.4209 -0.8464
 3491SOL    HW121935   4.462   4.086   5.495 -1.2319 -0.0347  1.6279
 3491SOL    HW221936   4.486   3.967   5.577  0.6854  0.7598  2.0190
 3492SOL     OW21937   1.755   0.249   2.900  0.1939  0.6127 -0.0070
 3492SOL    HW121938   1.808   0.232   2.822  0.6439 -0.7981  0.6147
 3492SOL    HW221939   1.788   0.183   2.961 -1.7146  0.4090  0.8073
 3493SOL     OW21940   2.149   1.720   3.565  0.6889 -0.4693  0.1258
 3493SOL    HW121941   2.141   1.680   3.479  1.2163 -0.2758 -0.0147
 3493SOL    HW221942   2.062   1.761   3.572  0.2758 -1.2359 -0.5310
 3494SOL     OW21943   2.990   1.780   4.378 -0.7037 -0.2806  0.3931
 3494SOL    HW121944   2.965   1.692   4.351  1.7360 -1.2686  1.3180
 3494SOL    HW221945   3.051   1.762   4.449 -0.7490 -1.4228  0.1553
 3495SOL     OW21946   0.611   1.620   3.130 -0.0548 -0.5243 -0.3172
 3495SOL    HW121947   0.566   1.699   3.159 -2.8918 -2.1330 -0.3126
 3495SOL    HW221948   0.689   1.659   3.092 -1.3643  0.8391 -1.5924
 3496SOL     OW21949   2.438   4.175   8.254 -0.2382 -0.2367 -0.4906
 3496SOL    HW121950   2.403   4.144   8.337  3.6384 -0.8116  0.9287
 3496SOL    HW221951   2.484   4.096   8.224  0.4176  0.6454 -1.7960
 3497SOL     OW21952   0.050   2.630   5.336  0.1106  0.3218 -0.3124
 3497SOL    HW121953   0.039   2.558   5.398  0.3099 -0.5548 -1.2922
 3497SOL    HW221954   4.691   2.676   5.347 -0.8592 -1.4123 -0.4259
 3498SOL     OW21955   4.695   1.635  14.864  0.1349  0.2285 -0.2219
 3498SOL    HW121956   0.011   1.622  14.949  1.0765  0.7877 -0.5922
 3498SOL    HW221957   4.620   1.688  14.890  0.0130  0.0489 -0.2028
 3499SOL     OW21958   0.744   4.150  17.315  0.7128 -0.3305 -0.2468
 3499SOL    HW121959   0.710   4.061  17.323  0.0624 -0.2005 -1.6232
 3499SOL    HW221960   0.840   4.142  17.316  0.7833  0.5825  0.5111
 3500SOL     OW21961   3.528   0.584   6.828  0.1464 -0.0530 -0.4106
 3500SOL    HW121962   3.521   0.490   6.842  0.7091  0.1682  1.4321
 3500SOL    HW221963   3.581   0.603   6.750  0.5244  0.1977 -0.0947
 3501SOL     OW21964   0.942   3.561   5.977  0.0791 -0.6619  0.5502
 3501SOL    HW121965   0.904   3.474   5.968  0.9907 -1.1822  1.7183
 3501SOL    HW221966   0.873   3.621   5.948  0.9120  0.1939  0.3321
 3502SOL     OW21967   2.484   1.383   3.429  0.4506 -0.0439  0.1052
 3502SOL    HW121968   2.516   1.359   3.342  1.4275  0.4117  0.3444
 3502SOL    HW221969   2.412   1.321   3.445  0.4765  0.3894  1.9073
 3503SOL     OW21970   4.477   2.390   4.719  0.1311  0.1397  0.1485
 3503SOL    HW121971   4.384   2.413   4.719  0.2359  0.5860  0.6726
 3503SOL    HW221972   4.482   2.353   4.631  4.2982 -0.8133  0.7854
 3504SOL     OW21973   0.260   2.492  14.933  0.5238  0.2728 -0.0296
 3504SOL    HW121974   0.168   2.469  14.916  0.9310 -0.7285 -0.8769
 3504SOL    HW221975   0.260   2.466  15.025  1.8646 -0.8368 -0.3512
 3505SOL     OW21976   0.415   1.694  15.073  0.2966 -0.0485  0.3402
 3505SOL    HW121977   0.376   1.631  15.133 -1.0253  2.0474  1.6723
 3505SOL    HW221978   0.453   1.752  15.139  2.1577 -1.4672  0.5234
 3506SOL     OW21979   3.220   4.598   1.157  0.2505 -0.3784 -0.0375
 3506SOL    HW121980   3.156   4.541   1.113 -1.0301  0.6149  0.5112
 3506SOL    HW221981   3.253   4.531   1.217 -0.1326 -1.6331 -1.2096
 3507SOL     OW21982   1.065   2.418   6.930  0.2741 -0.6350  0.4906
 3507SOL    HW121983   0.990   2.472   6.957  0.6587  0.2380 -0.2185
 3507SOL    HW221984   1.130   2.472   6.975  0.1977  0.1943 -0.4095
 3508SOL     OW21985   0.005   3.812   6.868  0.2580 -0.0989  0.2716
 3508SOL    HW121986   4.657   3.775   6.918 -0.7929  1.6953  0.0645
 3508SOL    HW221987   0.074   3.769   6.918  0.0461 -1.4525 -0.5947
 3509SOL     OW21988   1.359   4.307   3.471  0.3578  0.6117  0.4370
 3509SOL    HW121989   1.310   4.382   3.438  1.0300  0.7814 -0.1615
 3509SOL    HW221990   1.287   4.250   3.500  1.2426 -0.1139  1.2366
 3510SOL     OW21991   0.348   1.767   6.744 -0.3307 -0.3663 -0.0108
 3510SOL    HW121992   0.364   1.858   6.771 -1.3229 -0.2974  0.3453
 3510SOL    HW221993   0.428   1.759   6.692  0.1855  1.2654  0.5236
 3511SOL     OW21994   2.927   0.590   2.281 -0.7295 -0.0331  0.0676
 3511SOL    HW121995   2.959   0.635   2.203 -1.5951  0.1406 -0.1858
 3511SOL    HW221996   2.940   0.656   2.350 -0.7619  1.3307 -1.2372
 3512SOL     OW21997   4.053   3.099   8.243  0.0680  0.0977  0.4846
 3512SOL    HW121998   3.975   3.137   8.282 -0.3372 -0.4947  0.2543
 3512SOL    HW221999   4.096   3.074   8.325 -2.7359  1.9681  2.4779
 3513SOL     OW22000   1.902   4.434   0.645  0.0970 -0.1140  0.1702
 3513SOL    HW122001   1.827   4.491   0.624  0.3945  0.4434  0.6292
 3513SOL    HW222002   1.928   4.473   0.729  1.1562  0.8914 -0.6178
 3514SOL     OW22003   1.264   2.154   5.427 -0.1607  0.0369  0.2090
 3514SOL    HW122004   1.297   2.243   5.435 -0.7873  0.1152  1.8260
 3514SOL    HW222005   1.337   2.092   5.424 -0.1331  0.0965 -0.4633
 3515SOL     OW22006   1.526   2.934  10.825 -0.5969 -0.2416  0.2064
 3515SOL    HW122007   1.572   2.939  10.742  0.0558  0.1309  0.5931
 3515SOL    HW222008   1.489   2.847  10.811  1.0537 -0.8872 -0.1045
 3516SOL     OW22009   2.326   1.496   2.902  0.0610 -0.1386 -0.6818
 3516SOL    HW122010   2.306   1.413   2.945  0.4748 -0.1854 -0.5754
 3516SOL    HW222011   2.378   1.541   2.968 -0.0978  0.6090 -1.0756
 3517SOL     OW22012   4.157   1.700   5.834 -0.2693 -0.3243 -0.7539
 3517SOL    HW122013   4.240   1.725   5.793 -0.8714  1.1958 -1.0495
 3517SOL    HW222014   4.142   1.781   5.883  1.2025 -0.6633  0.2600
 3518SOL     OW22015   3.413   3.737  12.395  0.1061 -0.5829  0.2841
 3518SOL    HW122016   3.395   3.825  12.429 -0.7847 -0.0208 -1.6524
 3518SOL    HW222017   3.328   3.696  12.414  0.9765 -1.9740  1.1676
 3519SOL     OW22018   3.185   2.332   6.138  0.0666 -0.1001  0.4118
 3519SOL    HW122019   3.130   2.273   6.087 -1.2560  1.0556  0.4955
 3519SOL    HW222020   3.171   2.297   6.226 -1.6802  0.9006  0.5366
 3520SOL     OW22021   2.699   1.375   2.936  0.1708  0.1079 -0.5319
 3520SOL    HW122022   2.787   1.412   2.935 -0.2186  1.0353 -0.6483
 3520SOL    HW222023   2.664   1.407   2.853 -1.2726 -2.2012 -0.8069
 3521SOL     OW22024   1.537   0.437   6.653 -0.0487 -0.2202 -0.2885
 3521SOL    HW122025   1.540   0.438   6.748 -0.0563 -0.0497 -0.2904
 3521SOL    HW222026   1.581   0.354   6.634  1.4607  0.7978 -1.2494
 3522SOL     OW22027   1.236   3.587   8.178  0.4084  0.7874 -0.4459
 3522SOL    HW122028   1.157   3.635   8.202  0.2877  1.3718 -2.0282
 3522SOL    HW222029   1.293   3.663   8.172  1.2444  0.2079  0.0878
 3523SOL     OW22030   4.681   1.783   6.800 -0.6005 -0.3566 -0.1183
 3523SOL    HW122031   0.006   1.710   6.837  2.5943 -0.0293 -3.6589
 3523SOL    HW222032   4.696   1.771   6.706  0.8458  1.9666 -0.1759
 3524SOL     OW22033   4.002   4.143   5.884  0.7280  0.0631 -0.1265
 3524SOL    HW122034   4.079   4.195   5.907  0.2384  0.6411  0.2328
 3524SOL    HW222035   4.013   4.067   5.941 -0.6582 -0.8721 -1.1206
 3525SOL     OW22036   3.398   1.877   1.301  0.1812  0.6538 -0.2653
 3525SOL    HW122037   3.442   1.816   1.359  0.5445  3.3230  2.2681
 3525SOL    HW222038   3.465   1.894   1.235 -1.0155 -0.7273 -1.8544
 3526SOL     OW22039   4.145   1.541  17.253 -0.2203 -0.0546 -0.5577
 3526SOL    HW122040   4.213   1.507  17.195 -1.0013  1.1257 -2.1702
 3526SOL    HW222041   4.072   1.481  17.239  0.1692 -1.0134  1.4847
 3527SOL     OW22042   0.124   1.388   3.891 -0.2523  0.0726 -0.5342
 3527SOL    HW122043   0.177   1.433   3.825 -0.1097 -1.3137 -1.3501
 3527SOL    HW222044   0.145   1.441   3.968  0.9944  0.2023 -0.9640
 3528SOL     OW22045   1.020   0.896   4.060 -0.0162 -0.2941 -0.0307
 3528SOL    HW122046   1.100   0.901   4.007  0.9311 -4.1599  1.0038
 3528SOL    HW222047   0.959   0.901   3.987 -2.7209  0.0483  2.2540
 3529SOL     OW22048   2.666   2.657   3.836  0.3231 -0.1315  0.5895
 3529SOL    HW122049   2.708   2.716   3.773 -2.3374  0.5376 -0.5568
 3529SOL    HW222050   2.698   2.570   3.809 -1.2233 -0.1297 -1.2653
 3530SOL     OW22051   4.534   3.653   4.369  0.6007 -0.2044  0.4229
 3530SOL    HW122052   4.578   3.708   4.433 -0.0333  0.5721  0.1913
 3530SOL    HW222053   4.574   3.567   4.384 -0.5015 -0.9605 -0.9081
 3531SOL     OW22054   4.356   0.634   2.135 -0.0856  0.3816 -0.1403
 3531SOL    HW122055   4.262   0.652   2.133 -0.2556 -0.3435  1.6167
 3531SOL    HW222056   4.354   0.546   2.171  0.9231 -0.7589 -2.8364
 3532SOL     OW22057   3.164   2.830   7.339  0.0354 -0.4573 -0.1477
 3532SOL    HW122058   3.122   2.745   7.327 -0.2246  0.5370 -6.0974
 3532SOL    HW222059   3.134   2.855   7.427 -0.7304  2.3279 -1.1941
 3533SOL     OW22060   1.042   1.080   2.474 -0.5383  0.0496 -0.4321
 3533SOL    HW122061   0.981   1.017   2.514 -0.8582  0.1724 -0.7241
 3533SOL    HW222062   1.024   1.100   2.382 -0.7078  0.4794 -0.3030
 3534SOL     OW22063   4.095   3.351   7.200  0.7743  0.2308  0.1341
 3534SOL    HW122064   4.025   3.342   7.263 -0.8277  0.0195 -1.6826
 3534SOL    HW222065   4.038   3.376   7.128 -0.5074 -0.0390  1.0663
 3535SOL     OW22066   0.407   0.914   7.340 -0.0426 -0.3206  0.2222
 3535SOL    HW122067   0.322   0.950   7.315  0.0423 -1.3079 -1.4649
 3535SOL    HW222068   0.380   0.845   7.401  0.7078 -0.8807 -0.0759
 3536SOL     OW22069   3.634   4.438   3.925 -0.3727 -0.5719 -0.6556
 3536SOL    HW122070   3.589   4.517   3.895 -1.1513 -0.6481  0.2850
 3536SOL    HW222071   3.660   4.390   3.847 -0.2739 -1.2374 -0.2101
 3537SOL     OW22072   1.514   0.966   6.272 -0.0530  0.1996  0.2037
 3537SOL    HW122073   1.580   1.022   6.230 -0.2970  0.4276  0.1223
 3537SOL    HW222074   1.520   0.996   6.362 -1.9496 -1.2763  0.8003
 3538SOL     OW22075   0.093   4.088  11.295  0.1511  0.0032 -0.5209
 3538SOL    HW122076   0.044   4.101  11.377 -1.9231 -0.1165 -1.7360
 3538SOL    HW222077   0.178   4.123  11.323  0.3805 -0.9300 -0.0494
 3539SOL     OW22078   1.706   2.746   4.603 -0.0912  0.0167 -0.0153
 3539SOL    HW122079   1.679   2.738   4.695 -0.0484  0.7542  0.0575
 3539SOL    HW222080   1.780   2.806   4.591 -1.4237  1.1668 -2.2513
 3540SOL     OW22081   3.243   0.756   2.314  0.8645 -0.3507 -0.2872
 3540SOL    HW122082   3.281   0.839   2.341 -0.5437  0.8025 -1.8942
 3540SOL    HW222083   3.155   0.770   2.349  0.9582  0.4457 -0.3808
 3541SOL     OW22084   0.154   0.128   5.249 -0.2561  0.9186 -0.0047
 3541SOL    HW122085   0.232   0.179   5.224 -1.7172  1.2030 -4.0594
 3541SOL    HW222086   0.159   0.066   5.176  0.4485 -0.0203  0.8565
 3542SOL     OW22087   3.858   3.252   1.802  0.3847  0.0450  0.1197
 3542SOL    HW122088   3.913   3.321   1.766  0.8478 -0.9352 -1.0643
 3542SOL    HW222089   3.921   3.180   1.805 -0.1589 -0.4040  0.7104
 3543SOL     OW22090   1.531   0.665  15.231 -1.0549  0.1318 -0.0189
 3543SOL    HW122091   1.496   0.578  15.209  1.2877 -0.4726 -1.3103
 3543SOL    HW222092   1.615   0.650  15.188 -0.4399  1.6780  0.6752
 3544SOL     OW22093   0.605   1.765   7.325  0.5350 -0.0345  0.6910
 3544SOL    HW122094   0.586   1.805   7.240 -1.9407  1.6798  2.0451
 3544SOL    HW222095   0.516   1.748   7.355 -0.5052  0.8008 -2.0027
 3545SOL     OW22096   1.133   2.544   4.092 -0.1716  0.0396  0.1587
 3545SOL    HW122097   1.226   2.544   4.118 -0.8246 -1.7115  2.5309
 3545SOL    HW222098   1.089   2.546   4.177  0.7547  0.4056  0.6313
 3546SOL     OW22099   1.461   2.354  12.596 -0.3877 -0.2462 -0.3213
 3546SOL    HW122100   1.422   2.367  12.510  2.1364  2.6555 -0.9918
 3546SOL    HW222101   1.426   2.267  12.617  0.3758 -0.2860  0.8385
 3547SOL     OW22102   2.536   1.388   1.675  0.0217 -0.2600 -0.1484
 3547SOL    HW122103   2.464   1.450   1.688 -0.0091 -0.5511  1.0672
 3547SOL    HW222104   2.615   1.443   1.682  0.6233 -0.9186 -1.7285
 3548SOL     OW22105   2.864   1.679  11.333  0.3237  0.0617 -0.5421
 3548SOL    HW122106   2.924   1.752  11.316 -0.8167  0.7617 -1.5375
 3548SOL    HW222107   2.866   1.659  11.426 -1.4227  0.7311 -0.3717
 3549SOL     OW22108   2.795   3.509   6.800 -0.2417 -0.4210  0.3055
 3549SOL    HW122109   2.826   3.468   6.881  3.5795  1.7230 -0.0843
 3549SOL    HW222110   2.827   3.597   6.818  0.8664 -0.7800  0.0870
 3550SOL     OW22111   1.661   3.882   0.822 -0.3967 -0.1979  0.2398
 3550SOL    HW122112   1.635   3.884   0.730  0.1552  0.7444  0.1066
 3550SOL    HW222113   1.746   3.927   0.821 -0.6848  0.2970 -3.0108
 3551SOL     OW22114   2.939   0.796   1.513 -0.5785  0.5343  0.0774
 3551SOL    HW122115   2.927   0.872   1.456 -3.9301  0.4556  0.6918
 3551SOL    HW222116   3.025   0.764   1.485 -1.3230 -0.6276 -0.8512
 3552SOL     OW22117   0.837   2.809   7.773  0.6758 -0.2955  0.3552
 3552SOL    HW122118   0.835   2.898   7.808  2.6198 -0.1704  0.1511
 3552SOL    HW222119   0.798   2.828   7.687  0.2414  2.0680  1.0996
 3553SOL     OW22120   3.070   4.570   3.436  0.2151 -0.2650 -0.7075
 3553SOL    HW122121   3.133   4.527   3.379 -0.5259 -0.0980 -1.6629
 3553SOL    HW222122   3.105   4.548   3.522 -1.8122 -2.3875 -0.4300
 3554SOL     OW22123   2.064   1.840   1.723  0.0623 -0.3196 -0.2647
 3554SOL    HW122124   2.048   1.858   1.816 -1.8927 -2.1297 -0.2386
 3554SOL    HW222125   2.148   1.796   1.732  0.1344 -0.3128 -0.8980
 3555SOL     OW22126   3.893   1.281   0.797 -0.0681  0.1622  0.9387
 3555SOL    HW122127   3.859   1.365   0.768  1.4038 -0.6732 -3.2060
 3555SOL    HW222128   3.810   1.241   0.823 -1.1798  0.9280 -1.4175
 3556SOL     OW22129   3.097   1.557   0.238 -0.2009  0.2062  0.3349
 3556SOL    HW122130   3.013   1.512   0.249 -1.3675  2.5968  1.0042
 3556SOL    HW222131   3.105   1.570   0.144 -0.8453  2.2549  0.5821
 3557SOL     OW22132   3.665   2.941   5.192 -0.2369  0.6263  0.5443
 3557SOL    HW122133   3.698   2.940   5.102 -1.7396 -1.0996  0.0151
 3557SOL    HW222134   3.578   2.908   5.171  0.3286 -1.4876  1.6131
 3558SOL     OW22135   4.240   0.756   3.254  0.6364  0.1254  0.1781
 3558SOL    HW122136   4.248   0.748   3.349  4.0269  1.6368 -0.0079
 3558SOL    HW222137   4.188   0.836   3.257  1.1670  0.4742 -0.0064
 3559SOL     OW22138   4.582   1.348   0.951  0.0635  0.3049  0.0499
 3559SOL    HW122139   4.550   1.292   1.021 -2.1517  1.5008  0.0239
 3559SOL    HW222140   4.630   1.410   1.006  0.9553  0.9397 -1.4410
 3560SOL     OW22141   1.175   4.611  17.074  1.0970  0.2304 -0.5490
 3560SOL    HW122142   1.243   4.612  17.142  0.2468 -2.2418  0.3444
 3560SOL    HW222143   1.094   4.634  17.119  1.5315 -0.3920  0.5436
 3561SOL     OW22144   0.964   0.347   4.582  0.5601 -0.1637 -0.8804
 3561SOL    HW122145   1.027   0.285   4.544  0.5042 -0.1053 -1.0713
 3561SOL    HW222146   0.937   0.386   4.499 -0.3891  2.5018  0.6987
 3562SOL     OW22147   2.575   0.106   8.154  0.2748  0.3954 -0.0529
 3562SOL    HW122148   2.539   0.100   8.065 -2.3199 -0.0544  1.0121
 3562SOL    HW222149   2.504   0.067   8.204  0.2315  0.8953  0.2763
 3563SOL     OW22150   1.308   4.062   1.315 -0.5885  0.3239 -0.2709
 3563SOL    HW122151   1.280   4.151   1.295 -0.3772  0.9994  2.4974
 3563SOL    HW222152   1.243   4.025   1.254  2.5026 -1.3726 -2.5634
 3564SOL     OW22153   0.553   4.640   7.336  0.4908  0.0622  0.3120
 3564SOL    HW122154   0.491   4.710   7.355 -0.4463 -0.2456 -1.5160
 3564SOL    HW222155   0.519   4.570   7.392 -1.2252 -0.8003 -1.7687
 3565SOL     OW22156   2.546   0.217   2.806  0.4603 -0.1873 -0.1012
 3565SOL    HW122157   2.499   0.294   2.840  0.4337 -0.2539  0.0135
 3565SOL    HW222158   2.602   0.259   2.740  0.5035 -1.1016 -0.6455
 3566SOL     OW22159   1.070   1.138   3.195 -0.1617  0.1578 -0.0657
 3566SOL    HW122160   1.094   1.229   3.177  1.4123 -0.4345 -0.9160
 3566SOL    HW222161   1.110   1.098   3.119 -0.5599 -2.1275  0.9170
 3567SOL     OW22162   3.344   0.447   6.284  0.4710  0.6756  0.5919
 3567SOL    HW122163   3.267   0.399   6.314  1.8208 -3.1168 -2.1868
 3567SOL    HW222164   3.316   0.539   6.292 -2.5291 -0.2584  0.6751
 3568SOL     OW22165   1.270   3.410   4.010 -0.0369  0.4093  0.0638
 3568SOL    HW122166   1.295   3.491   3.965 -1.1004  0.2251 -0.8534
 3568SOL    HW222167   1.318   3.404   4.092 -0.6693 -1.4687  0.3057
 3569SOL     OW22168   0.492   1.855   3.197 -0.1998  0.3004  0.1802
 3569SOL    HW122169   0.503   1.861   3.102 -0.7214 -0.6577  0.0573
 3569SOL    HW222170   0.412   1.906   3.204  0.5668  1.6869 -1.0098
 3570SOL     OW22171   0.570   1.409   6.568  0.1775 -0.1349  0.0540
 3570SOL    HW122172   0.616   1.470   6.511 -0.5324  0.0282 -0.3497
 3570SOL    HW222173   0.607   1.439   6.651 -0.8107 -1.6695  1.0520
 3571SOL     OW22174   2.409   3.855   2.415  0.4349  0.4410  0.5954
 3571SOL    HW122175   2.409   3.889   2.326 -1.6078  1.9377  1.1711
 3571SOL    HW222176   2.372   3.933   2.455 -3.1200 -0.4522 -0.9122
 3572SOL     OW22177   1.579   1.588   0.746 -0.0901  0.4384  0.3636
 3572SOL    HW122178   1.503   1.620   0.698 -0.7250 -1.4788  0.0633
 3572SOL    HW222179   1.564   1.641   0.824 -0.8312  0.2168  0.3678
 3573SOL     OW22180   1.565   3.278   5.101  0.1472  0.0605 -0.2957
 3573SOL    HW122181   1.602   3.205   5.150  1.4736  2.3113  2.0640
 3573SOL    HW222182   1.497   3.233   5.051  0.3690  1.2160 -1.6240
 3574SOL     OW22183   4.457   2.032   4.174  0.3342  0.0727 -0.2662
 3574SOL    HW122184   4.537   2.039   4.122 -0.7683  1.4759 -1.7739
 3574SOL    HW222185   4.416   2.116   4.152  0.1420  0.0146 -0.1303
 3575SOL     OW22186   2.875   3.444   6.466 -0.2548 -0.1663 -0.2630
 3575SOL    HW122187   2.852   3.534   6.489  0.6091 -0.0216  0.0253
 3575SOL    HW222188   2.841   3.397   6.542  0.8407  0.0011  0.3291
 3576SOL     OW22189   2.055   1.069   2.456  0.2906 -0.6515 -0.5396
 3576SOL    HW122190   2.141   1.111   2.447 -2.2218  4.5905  0.1954
 3576SOL    HW222191   2.057   1.016   2.376  0.7102  0.8799 -1.5379
 3577SOL     OW22192   1.153   4.413   0.313 -0.2819  0.2282  0.1661
 3577SOL    HW122193   1.084   4.398   0.248  0.2646 -1.2782 -0.0742
 3577SOL    HW222194   1.129   4.364   0.391  0.3519 -2.3807 -1.2554
 3578SOL     OW22195   4.033   4.000  16.916 -0.7232  0.1171 -0.2952
 3578SOL    HW122196   4.019   3.938  16.987  1.8540 -1.6375 -1.3411
 3578SOL    HW222197   3.993   3.954  16.841  0.8283  2.4987 -2.5990
 3579SOL     OW22198   1.877   0.624   3.508 -0.4431 -0.0498  0.0004
 3579SOL    HW122199   1.809   0.630   3.440 -1.3469  1.8522  1.0975
 3579SOL    HW222200   1.831   0.601   3.588 -1.0844 -0.0554 -0.3683
 3580SOL     OW22201   1.151   0.847   7.740 -0.0515  0.1071  0.7848
 3580SOL    HW122202   1.241   0.818   7.725  0.2264  0.8987  0.9531
 3580SOL    HW222203   1.094   0.778   7.707 -1.2894  0.0868  2.9961
 3581SOL     OW22204   0.746   2.639  17.352 -0.3545  0.0342 -0.4793
 3581SOL    HW122205   0.703   2.684  17.425  2.3296  1.1694  0.3955
 3581SOL    HW222206   0.697   2.673  17.277  1.1589  1.4755 -0.7934
 3582SOL     OW22207   3.241   0.887   8.721  0.3198  0.8901 -0.0726
 3582SOL    HW122208   3.185   0.836   8.779  0.8053 -0.3199 -0.6454
 3582SOL    HW222209   3.175   0.928   8.665 -0.4761  1.4683  1.3036
 3583SOL     OW22210   2.145   2.763  11.395  0.2544  0.2750 -0.3450
 3583SOL    HW122211   2.134   2.847  11.350 -0.2695 -0.3318 -1.3510
 3583SOL    HW222212   2.105   2.700  11.336 -1.1966  0.7421  0.1278
 3584SOL     OW22213   0.266   3.577   1.170 -0.4582  0.2757  0.4558
 3584SOL    HW122214   0.197   3.643   1.164  0.9650  1.8534  1.3398
 3584SOL    HW222215   0.265   3.561   1.264  1.7250 -0.1302  0.4314
 3585SOL     OW22216   0.679   3.298   9.148 -0.1908  0.4143 -0.0469
 3585SOL    HW122217   0.724   3.279   9.066  1.7426 -0.2473  1.1752
 3585SOL    HW222218   0.716   3.233   9.207 -0.4326  0.5838  0.2895
 3586SOL     OW22219   1.251   1.016   0.991 -0.3976  0.1994  0.2726
 3586SOL    HW122220   1.261   0.941   1.049  0.2631 -0.2318 -0.3978
 3586SOL    HW222221   1.299   0.987   0.913  3.0696 -2.2350  3.3206
 3587SOL     OW22222   3.632   4.591  11.456 -0.1083 -0.3522  0.6212
 3587SOL    HW122223   3.714   4.640  11.451 -0.3125 -0.0265  0.4936
 3587SOL    HW222224   3.638   4.550  11.542 -0.2701 -0.7227  0.4556
 3588SOL     OW22225   2.894   3.116  14.797 -0.0274 -0.3925 -0.2443
 3588SOL    HW122226   2.901   3.168  14.877 -2.1912  0.0866 -0.3890
 3588SOL    HW222227   2.983   3.081  14.786  1.1082  2.6163 -0.6418
 3589SOL     OW22228   0.839   0.160   3.033  0.2561 -0.3184 -0.0239
 3589SOL    HW122229   0.770   0.104   3.069 -0.2726 -0.8085 -1.7775
 3589SOL    HW222230   0.804   0.191   2.949 -0.4752 -1.0539  0.0091
 3590SOL     OW22231   2.052   0.497  15.260  0.4043  1.1005 -1.0103
 3590SOL    HW122232   2.041   0.560  15.189  0.0835  0.9800 -1.0648
 3590SOL    HW222233   2.079   0.418  15.213  1.0884  0.3133  0.7039
 3591SOL     OW22234   3.103   0.638   0.358 -0.0463  0.5608  0.1421
 3591SOL    HW122235   3.187   0.649   0.402  0.6205  2.0179 -1.4707
 3591SOL    HW222236   3.110   0.706   0.290 -2.4501 -1.6103 -2.2590
 3592SOL     OW22237   3.350   3.996   8.887  0.1378 -0.0560  0.2089
 3592SOL    HW122238   3.273   4.037   8.846 -1.1321 -3.7291 -1.0247
 3592SOL    HW222239   3.418   4.047   8.842 -0.2014 -1.1515 -1.5527
 3593SOL     OW22240   2.315   0.806  15.658 -0.2197 -0.1002 -0.2332
 3593SOL    HW122241   2.241   0.854  15.696 -0.9548 -0.5674 -1.0916
 3593SOL    HW222242   2.375   0.878  15.639 -0.7610 -0.1051 -1.8803
 3594SOL     OW22243   3.062   3.718  12.157  0.1611  0.1069  0.6318
 3594SOL    HW122244   3.072   3.627  12.131  2.5794  0.8051 -0.8456
 3594SOL    HW222245   3.097   3.707  12.245  0.4644 -2.5439  0.1831
 3595SOL     OW22246   4.033   1.092   7.269 -0.0390 -0.1648 -0.2012
 3595SOL    HW122247   3.977   1.170   7.267  3.3081  2.3312  2.2292
 3595SOL    HW222248   4.088   1.101   7.191  0.1910  1.4652  0.1457
 3596SOL     OW22249   3.914   3.544   2.304  0.3595 -0.2645 -0.0166
 3596SOL    HW122250   3.879   3.540   2.215 -0.4897 -0.2867  0.3121
 3596SOL    HW222251   4.007   3.531   2.286  0.5675 -0.4109  1.1447
 3597SOL     OW22252   4.264   4.589  12.900 -0.1984  0.8092  0.1698
 3597SOL    HW122253   4.325   4.545  12.840 -3.2664 -2.3148 -0.6001
 3597SOL    HW222254   4.308   4.574  12.984  0.7140  2.0849 -0.0827
 3598SOL     OW22255   2.700   2.271   2.619  0.4400  0.0260  0.1536
 3598SOL    HW122256   2.636   2.223   2.566  0.1254  0.5793  0.0348
 3598SOL    HW222257   2.782   2.246   2.577 -0.0370 -0.4384 -0.5019
 3599SOL     OW22258   3.667   3.243   8.324 -0.3936  0.2753 -0.1260
 3599SOL    HW122259   3.742   3.204   8.367  0.3888  1.5021 -0.3663
 3599SOL    HW222260   3.675   3.338   8.338  3.0194 -0.1666  0.8379
 3600SOL     OW22261   4.000   1.020   1.147 -0.3712  0.0520 -0.1071
 3600SOL    HW122262   3.994   1.060   1.234 -0.2001 -1.3843  0.5498
 3600SOL    HW222263   4.043   0.936   1.159 -0.1200  0.2194  0.1811
 3601SOL     OW22264   0.831   1.643   3.949 -0.2573  0.2123  0.1956
 3601SOL    HW122265   0.772   1.571   3.926  2.1955 -1.0907 -2.0858
 3601SOL    HW222266   0.776   1.721   3.937  1.2231  1.2436  0.0979
 3602SOL     OW22267   1.529   3.847  12.228 -0.5894  0.3694 -0.3295
 3602SOL    HW122268   1.524   3.798  12.310  1.5964 -0.1518 -0.4965
 3602SOL    HW222269   1.480   3.802  12.159 -1.1265 -0.8129  0.8359
 3603SOL     OW22270   0.481   0.100   6.909  0.1011 -0.0978 -0.2830
 3603SOL    HW122271   0.534   0.043   6.854  0.8319 -0.5603  0.8849
 3603SOL    HW222272   0.411   0.039   6.933  0.4505 -0.1020  0.7342
 3604SOL     OW22273   1.435   1.186  16.686  0.3029 -0.1617  0.2131
 3604SOL    HW122274   1.381   1.245  16.739 -0.2157  0.7174 -1.3110
 3604SOL    HW222275   1.382   1.106  16.682  0.8391 -0.4299 -1.6782
 3605SOL     OW22276   3.661   2.438   1.753  0.1779 -0.1299 -0.3659
 3605SOL    HW122277   3.639   2.433   1.846  1.5304  2.3869  0.0958
 3605SOL    HW222278   3.602   2.370   1.720  0.9660  0.2780 -2.6131
 3606SOL     OW22279   1.821   2.854  11.112 -0.5205 -0.1817  0.6635
 3606SOL    HW122280   1.857   2.904  11.039  1.0845 -0.7479  1.0623
 3606SOL    HW222281   1.903   2.823  11.149 -0.4467  0.5914  1.1423
 3607SOL     OW22282   3.885   1.263   6.457  0.2691 -0.1145  0.2922
 3607SOL    HW122283   3.883   1.348   6.414 -1.9995 -1.5516 -2.4726
 3607SOL    HW222284   3.862   1.295   6.545 -0.3799  4.1244 -1.4254
 3608SOL     OW22285   3.473   4.296   2.200 -0.0693  0.6439 -0.1124
 3608SOL    HW122286   3.435   4.221   2.247 -0.0773  1.0152  0.4782
 3608SOL    HW222287   3.408   4.336   2.143 -0.7033  1.3890  1.1345
 3609SOL     OW22288   3.258   2.058  15.454  0.3451  0.0548  0.0484
 3609SOL    HW122289   3.173   2.065  15.411  0.0854  0.3069  0.6000
 3609SOL    HW222290   3.304   2.125  15.403  1.8189 -0.2503  0.9623
 3610SOL     OW22291   1.549   0.725   1.143 -0.1006 -0.1762 -0.0049
 3610SOL    HW122292   1.578   0.726   1.052  0.2473 -3.1606  0.0779
 3610SOL    HW222293   1.618   0.671   1.180 -0.7056 -1.2717 -0.4672
 3611SOL     OW22294   3.541   4.407   2.493 -0.7286  0.3662  0.0769
 3611SOL    HW122295   3.512   4.381   2.406 -0.4561  0.9026 -0.1672
 3611SOL    HW222296   3.505   4.495   2.504 -1.9576 -0.2283  0.7783
 3612SOL     OW22297   4.411   3.964  15.053  0.4429 -0.3691 -0.1526
 3612SOL    HW122298   4.438   4.044  15.007  0.8528  1.6578  3.5474
 3612SOL    HW222299   4.447   3.985  15.140 -0.2513 -0.7595  0.2260
 3613SOL     OW22300   3.265   0.627   4.366  0.0666  0.1438  0.2405
 3613SOL    HW122301   3.244   0.678   4.287  0.1080  0.0732  0.1839
 3613SOL    HW222302   3.338   0.676   4.405  0.8185 -0.3392 -0.5597
 3614SOL     OW22303   3.651   2.605  14.537  0.0895 -0.0222 -0.3180
 3614SOL    HW122304   3.663   2.691  14.576 -1.4389  0.6781 -1.3814
 3614SOL    HW222305   3.740   2.574  14.522 -0.5802 -0.5471 -3.3659
 3615SOL     OW22306   3.857   1.482   9.814 -0.1541  1.2555 -0.0072
 3615SOL    HW122307   3.874   1.440   9.898  1.4099  1.4407 -0.2153
 3615SOL    HW222308   3.765   1.503   9.826 -0.8773 -1.8124 -0.1057
 3616SOL     OW22309   3.217   4.565  14.800 -0.0781  0.2177 -0.3396
 3616SOL    HW122310   3.293   4.525  14.758 -0.8833 -1.6515  0.0012
 3616SOL    HW222311   3.184   4.481  14.832  0.0191  0.3401  0.0880
 3617SOL     OW22312   2.574   3.691   9.805 -0.0864  0.2635 -0.0067
 3617SOL    HW122313   2.548   3.770   9.759 -1.1600 -1.8038 -2.9440
 3617SOL    HW222314   2.668   3.708   9.815  0.2042  0.2624 -2.9724
 3618SOL     OW22315   3.139   4.020   4.305  0.1517  0.2489 -0.4586
 3618SOL    HW122316   3.143   4.011   4.400 -0.3962 -2.7269 -0.7122
 3618SOL    HW222317   3.163   4.113   4.295 -0.9504  0.8019  2.0658
 3619SOL     OW22318   4.280   2.040   7.560 -0.2647  0.2386 -0.3982
 3619SOL    HW122319   4.296   2.032   7.654 -1.1400 -1.7502 -0.4182
 3619SOL    HW222320   4.318   1.958   7.530  0.6926  0.3581  0.4691
 3620SOL     OW22321   4.333   4.481  14.187 -0.5550 -0.6531 -0.5217
 3620SOL    HW122322   4.397   4.517  14.248 -1.7318 -1.5106  1.2095
 3620SOL    HW222323   4.278   4.445  14.256 -0.5039  1.7224  0.7760
 3621SOL     OW22324   3.161   4.577   9.935  0.6713  0.1063 -0.1693
 3621SOL    HW122325   3.205   4.550  10.016  1.1188 -2.7134 -1.3506
 3621SOL    HW222326   3.239   4.582   9.880 -0.7109  0.3329 -2.1044
 3622SOL     OW22327   0.899   4.547   8.410 -0.0102 -0.8440  0.9109
 3622SOL    HW122328   0.806   4.565   8.419 -0.6157 -2.4046 -2.1633
 3622SOL    HW222329   0.895   4.481   8.341 -0.9492  0.3639 -0.1969
 3623SOL     OW22330   3.511   4.096   4.393 -0.0924 -0.5782  0.5870
 3623SOL    HW122331   3.605   4.114   4.393 -0.5686  1.9462 -2.0311
 3623SOL    HW222332   3.494   4.137   4.308  0.7523 -0.6336  0.3899
 3624SOL     OW22333   2.818   3.049  11.101 -0.0839 -0.2577  0.2929
 3624SOL    HW122334   2.727   3.076  11.092  0.0186 -0.2170 -0.5867
 3624SOL    HW222335   2.821   2.998  11.182  0.4714 -1.2154 -0.3352
 3625SOL     OW22336   3.342   0.124   1.178  0.2865  0.2978  1.1035
 3625SOL    HW122337   3.314   0.034   1.158 -3.2261  1.6760 -0.1937
 3625SOL    HW222338   3.275   0.170   1.127  0.0270  0.6494  1.7752
 3626SOL     OW22339   0.142   1.370   2.657 -0.7687  0.5369  0.0241
 3626SOL    HW122340   0.203   1.301   2.630 -1.0918  0.3877 -0.3159
 3626SOL    HW222341   0.108   1.390   2.570 -1.7211 -0.2061  0.2358
 3627SOL     OW22342   0.103   3.866  10.858  0.3904 -0.1105 -0.0065
 3627SOL    HW122343   0.079   3.949  10.816  0.4020  0.9042  1.9369
 3627SOL    HW222344   0.093   3.808  10.783 -0.7878  0.7046 -0.4818
 3628SOL     OW22345   2.644   0.229   1.518  0.2113  0.4403 -0.0416
 3628SOL    HW122346   2.666   0.312   1.560  1.5423  0.7830 -1.4512
 3628SOL    HW222347   2.712   0.226   1.451  0.3491 -0.0753  0.1226
 3629SOL     OW22348   3.151   2.611  12.219 -0.4359 -0.2345  0.1004
 3629SOL    HW122349   3.181   2.653  12.138  1.8751  0.1586  1.1680
 3629SOL    HW222350   3.181   2.521  12.211 -1.8455 -0.6862 -0.1567
 3630SOL     OW22351   3.262   2.811   1.818  0.2520 -0.0946 -0.1663
 3630SOL    HW122352   3.291   2.723   1.798  0.1425 -0.2859  0.5169
 3630SOL    HW222353   3.335   2.856   1.861 -0.0132 -0.8749  1.1101
 3631SOL     OW22354   4.460   3.437  12.192  0.8157  0.1216  0.6153
 3631SOL    HW122355   4.394   3.393  12.139  0.3092  0.1961  1.1813
 3631SOL    HW222356   4.444   3.393  12.276 -0.7460 -2.7937 -1.2190
 3632SOL     OW22357   3.556   0.979   6.470 -0.5315 -0.0436 -0.6734
 3632SOL    HW122358   3.573   1.070   6.447  1.1123 -0.3666 -0.7729
 3632SOL    HW222359   3.641   0.936   6.480 -0.1522  0.7062 -0.6740
 3633SOL     OW22360   3.481   0.130   8.208 -0.0767  0.6904  0.1884
 3633SOL    HW122361   3.391   0.099   8.209  0.3159 -0.3769  2.2443
 3633SOL    HW222362   3.518   0.085   8.132  0.9161  0.6912  0.6723
 3634SOL     OW22363   1.674   2.118   4.675  0.1467  0.3352  0.0468
 3634SOL    HW122364   1.629   2.037   4.652  0.5140 -0.2145  1.2701
 3634SOL    HW222365   1.710   2.082   4.756 -0.2442  1.2338  0.6182
 3635SOL     OW22366   0.994   2.053   7.393  0.3687 -0.4223  0.1420
 3635SOL    HW122367   0.989   1.969   7.439 -2.3836 -0.2059  0.1986
 3635SOL    HW222368   1.068   2.050   7.332  0.5695 -1.8491  0.4607
 3636SOL     OW22369   1.434   0.759   4.207 -0.4143 -0.2528 -0.1598
 3636SOL    HW122370   1.378   0.681   4.208 -0.8207  0.0519  0.6172
 3636SOL    HW222371   1.522   0.722   4.207  0.8884  2.8724  1.6589
 3637SOL     OW22372   1.847   3.784   9.399  0.2038  0.5874 -0.2820
 3637SOL    HW122373   1.835   3.711   9.338 -3.0163  0.2022  0.8157
 3637SOL    HW222374   1.854   3.855   9.336 -0.8034  1.8473  1.0361
 3638SOL     OW22375   0.340   4.390   6.845 -0.4735  0.5117 -0.0569
 3638SOL    HW122376   0.337   4.409   6.751 -1.1359 -0.9651 -0.3354
 3638SOL    HW222377   0.333   4.479   6.880 -2.3573  0.1456  0.4999
 3639SOL     OW22378   3.146   2.758   3.860 -0.3422 -0.9998 -0.2280
 3639SOL    HW122379   3.110   2.816   3.793 -0.4304 -0.3074  0.4295
 3639SOL    HW222380   3.072   2.743   3.918  0.5979  0.5463  1.3661
 3640SOL     OW22381   2.363   3.063   3.159  0.4010  0.4207  0.4374
 3640SOL    HW122382   2.364   3.036   3.067 -0.1417  0.8160  0.3144
 3640SOL    HW222383   2.278   3.106   3.169  1.4559  2.4357  0.7035
 3641SOL     OW22384   0.495   2.879  14.738  0.2136 -0.3775 -0.0348
 3641SOL    HW122385   0.469   2.787  14.747  0.6821 -0.3479  1.6090
 3641SOL    HW222386   0.542   2.867  14.656  1.4270  0.5366  0.5391
 3642SOL     OW22387   3.952   2.228   8.093 -0.7969 -0.5840 -0.0326
 3642SOL    HW122388   3.909   2.143   8.085  2.5340 -2.4044  1.7177
 3642SOL    HW222389   4.013   2.214   8.165 -2.2140 -1.0558  1.0564
 3643SOL     OW22390   3.132   0.744  10.520  0.1007  0.9128 -0.2557
 3643SOL    HW122391   3.123   0.669  10.461  0.3331 -0.4621  1.4977
 3643SOL    HW222392   3.163   0.816  10.464 -0.2881  1.5171  0.3066
 3644SOL     OW22393   1.685   4.622   2.951  0.4850  0.1835 -0.2488
 3644SOL    HW122394   1.684   4.530   2.977  1.3485 -0.0834 -1.1821
 3644SOL    HW222395   1.769   4.642   2.993 -0.2437 -0.1745  1.3485
 3645SOL     OW22396   1.071   0.771  10.669  0.4425  0.1498 -0.0032
 3645SOL    HW122397   1.165   0.783  10.683  0.8863 -0.7453 -2.2447
 3645SOL    HW222398   1.037   0.852  10.707 -1.1119 -0.1169 -0.8408
 3646SOL     OW22399   4.063   3.411   6.573 -0.4606 -0.2500  0.0783
 3646SOL    HW122400   4.123   3.364   6.515 -0.5425  0.1764 -0.3539
 3646SOL    HW222401   4.091   3.368   6.653 -0.9117  0.9611  0.8848
 3647SOL     OW22402   3.147   2.794   4.528 -0.3023 -0.1859  0.3866
 3647SOL    HW122403   3.186   2.811   4.442 -1.8470  0.5835 -0.1609
 3647SOL    HW222404   3.223   2.826   4.577 -1.7615  0.9644  1.8862
 3648SOL     OW22405   2.212   3.443   2.073 -0.3097 -0.2142 -0.7856
 3648SOL    HW122406   2.270   3.502   2.024 -1.0599  0.3623 -0.9758
 3648SOL    HW222407   2.250   3.355   2.067  1.1719  0.2934  1.2386
 3649SOL     OW22408   0.466   4.333   8.897  0.1578 -0.0938  0.0686
 3649SOL    HW122409   0.554   4.297   8.891 -0.3834 -1.4330  0.1209
 3649SOL    HW222410   0.461   4.384   8.816  1.9213  1.8864  1.2205
 3650SOL     OW22411   0.044   0.416   4.950  0.0827  0.2575  0.1519
 3650SOL    HW122412   0.034   0.500   4.906 -0.8241 -0.0897 -0.3223
 3650SOL    HW222413   0.113   0.372   4.900 -0.3628 -0.1450 -0.1100
 3651SOL     OW22414   4.714   4.676   7.615 -0.1862  0.2755 -0.5339
 3651SOL    HW122415   4.625   4.676   7.651 -0.7547 -0.3440 -1.9672
 3651SOL    HW222416   4.700   4.629   7.533 -1.4626  0.3615 -0.3670
 3652SOL     OW22417   4.253   2.512  17.215 -0.2950  0.1060 -0.1910
 3652SOL    HW122418   4.194   2.565  17.161 -0.7023 -0.6825 -0.5260
 3652SOL    HW222419   4.338   2.527  17.175 -0.9525  2.2022 -0.8024
 3653SOL     OW22420   3.138   0.235   1.014  0.1652 -0.5005  0.3119
 3653SOL    HW122421   3.059   0.253   0.963  0.3525 -0.2767  0.1049
 3653SOL    HW222422   3.205   0.282   0.964 -1.7156  1.1831 -0.5898
 3654SOL     OW22423   3.703   1.237  11.059  0.0365 -0.1359 -0.3555
 3654SOL    HW122424   3.739   1.261  11.144  0.6470 -1.4949 -0.2372
 3654SOL    HW222425   3.755   1.160  11.036  2.5240  1.3794  0.1965
 3655SOL     OW22426   2.933   3.934   5.410  0.0950 -0.3805 -0.0580
 3655SOL    HW122427   2.872   3.866   5.381 -0.1457 -0.6976  1.1724
 3655SOL    HW222428   2.924   3.995   5.337 -1.8434  1.4240  1.6935
 3656SOL     OW22429   4.407   3.640  17.632 -0.0455 -0.4365 -0.1640
 3656SOL    HW122430   4.433   3.551  17.653 -0.3154 -0.5188 -0.1788
 3656SOL    HW222431   4.469   3.658  17.561 -0.6782 -1.5132 -0.9915
 3657SOL     OW22432   3.594   2.590  15.875 -0.2042 -0.1919 -0.1322
 3657SOL    HW122433   3.605   2.496  15.891  1.9268 -0.0011 -0.5163
 3657SOL    HW222434   3.683   2.606  15.843 -0.6199  1.9067 -0.2166
 3658SOL     OW22435   4.269   3.381   4.905  0.3473 -0.2256  0.0120
 3658SOL    HW122436   4.265   3.289   4.879  0.3719 -0.3192  0.3334
 3658SOL    HW222437   4.226   3.429   4.834 -0.9984 -2.4600 -0.7014
 3659SOL     OW22438   4.457   3.916   7.085 -0.1709 -0.1756 -0.7511
 3659SOL    HW122439   4.369   3.936   7.115 -0.4691 -2.1006 -0.3254
 3659SOL    HW222440   4.473   3.992   7.029 -1.0474  0.6372  0.0970
 3660SOL     OW22441   2.470   1.429  16.615  0.1769  0.1019 -0.0505
 3660SOL    HW122442   2.403   1.379  16.568 -1.7763  3.0543 -0.3788
 3660SOL    HW222443   2.446   1.517  16.588 -0.9821 -0.2179 -0.0592
 3661SOL     OW22444   1.415   3.225   6.712 -0.0229  0.5315 -0.1309
 3661SOL    HW122445   1.332   3.244   6.669 -0.4774  0.8041  0.8768
 3661SOL    HW222446   1.483   3.263   6.655 -1.0243  0.9200 -1.0708
 3662SOL     OW22447   2.986   2.518   8.031  0.3037 -0.4285  0.1152
 3662SOL    HW122448   2.911   2.461   8.016 -1.2267  1.6434 -0.0598
 3662SOL    HW222449   2.933   2.596   8.017 -0.4174 -0.7640  0.9653
 3663SOL     OW22450   2.635   3.720   7.015 -0.4346 -0.2769 -0.1384
 3663SOL    HW122451   2.560   3.672   7.049 -1.6561  1.3735 -0.5629
 3663SOL    HW222452   2.611   3.718   6.923 -0.9853  0.7739 -0.0173
 3664SOL     OW22453   2.974   0.747   8.549  0.1946 -0.3105  0.4399
 3664SOL    HW122454   3.008   0.837   8.547 -0.3199 -0.0907  1.7463
 3664SOL    HW222455   3.032   0.724   8.621  0.4823 -0.3314  0.2013
 3665SOL     OW22456   2.675   3.360  17.300 -0.0049  0.1422  0.3018
 3665SOL    HW122457   2.688   3.449  17.265  0.4096 -0.1019 -0.1676
 3665SOL    HW222458   2.724   3.362  17.382 -1.4887  0.5606  1.1814
 3666SOL     OW22459   1.169   2.931   1.165 -0.5400  0.8078 -0.1787
 3666SOL    HW122460   1.117   2.880   1.226 -1.1451  1.7483  0.0884
 3666SOL    HW222461   1.161   3.019   1.201 -3.0456 -0.0309  1.2932
 3667SOL     OW22462   2.860   3.382   7.016  0.6189  0.1253  0.2061
 3667SOL    HW122463   2.909   3.300   7.024  0.8605  0.3479  1.0145
 3667SOL    HW222464   2.781   3.369   7.069 -1.2795  0.7415 -2.4918
 3668SOL     OW22465   4.117   0.230   4.223 -0.0732 -0.1331 -0.2425
 3668SOL    HW122466   4.085   0.291   4.290 -0.5861 -2.2286  1.4187
 3668SOL    HW222467   4.042   0.172   4.214  0.2563 -0.3529 -1.6202
 3669SOL     OW22468   4.625   2.239   3.879 -0.1773 -0.2225  0.2935
 3669SOL    HW122469   4.541   2.206   3.845 -0.4812  0.7965  0.0656
 3669SOL    HW222470   4.667   2.264   3.796 -1.2062  1.2066  0.2028
 3670SOL     OW22471   0.644   1.030   8.234  0.5390  0.3355 -0.3514
 3670SOL    HW122472   0.704   1.047   8.161  0.7092 -0.6525 -0.4416
 3670SOL    HW222473   0.683   1.063   8.315  0.3544 -0.8703  0.2307
 3671SOL     OW22474   0.152   3.351  11.654 -0.1125 -0.3742  0.4074
 3671SOL    HW122475   0.108   3.349  11.569 -0.6949 -1.7771  0.7382
 3671SOL    HW222476   0.214   3.423  11.648 -1.8294  1.1481  1.1046
 3672SOL     OW22477   2.985   1.146  11.359  0.0141  0.3147  0.4826
 3672SOL    HW122478   3.033   1.202  11.298  0.1833  1.9812  2.1399
 3672SOL    HW222479   3.030   1.063  11.340 -2.3247 -0.7472 -0.3447
 3673SOL     OW22480   1.694   1.127   7.802  0.7657  0.3980 -0.3318
 3673SOL    HW122481   1.612   1.105   7.847 -0.0761  0.8257 -1.6598
 3673SOL    HW222482   1.706   1.210   7.847 -1.3162  0.0540  0.8928
 3674SOL     OW22483   3.690   2.586  16.194 -0.6137 -0.4872  0.0571
 3674SOL    HW122484   3.605   2.616  16.161 -0.5767  2.5310  2.6978
 3674SOL    HW222485   3.666   2.507  16.241  0.1378 -0.2321  0.8645
 3675SOL     OW22486   0.293   1.912   9.259  0.2444 -0.1199  0.3256
 3675SOL    HW122487   0.334   1.850   9.199  1.6793  2.0856 -0.9403
 3675SOL    HW222488   0.219   1.861   9.294 -1.3477  1.0717 -1.3191
 3676SOL     OW22489   1.735   3.439   7.062 -0.1414 -0.0120  0.1814
 3676SOL    HW122490   1.725   3.347   7.084  1.3107 -0.8154 -2.4392
 3676SOL    HW222491   1.669   3.482   7.117  0.0166  0.8295 -0.2783
 3677SOL     OW22492   4.450   4.671   5.435  0.6192  0.1620  0.0063
 3677SOL    HW122493   4.484   0.035   5.446 -1.2359  0.9079 -0.2638
 3677SOL    HW222494   4.513   4.635   5.372  0.5746 -0.8887  0.5620
 3678SOL     OW22495   4.159   0.265  15.533 -0.0742 -0.9596 -0.1188
 3678SOL    HW122496   4.233   0.264  15.594 -1.5463 -0.6545  1.6424
 3678SOL    HW222497   4.175   0.336  15.471  0.0483  0.5007  1.5763
 3679SOL     OW22498   3.138   1.645  15.391 -0.3008  0.1295  0.2852
 3679SOL    HW122499   3.181   1.642  15.476 -0.8582 -1.0302  0.5382
 3679SOL    HW222500   3.049   1.616  15.413 -0.0988 -1.1434 -0.5144
 3680SOL     OW22501   3.367   1.458   4.596  0.0885 -0.2663  0.6420
 3680SOL    HW122502   3.313   1.397   4.646  0.8578 -0.1078  1.6811
 3680SOL    HW222503   3.443   1.481   4.651  0.1999  1.4796 -0.2571
 3681SOL     OW22504   4.493   2.915   4.855  0.1366  0.4519 -0.8765
 3681SOL    HW122505   4.399   2.912   4.874  0.3477 -1.9210 -0.2620
 3681SOL    HW222506   4.493   2.898   4.761 -1.0872 -0.2770 -0.7443
 3682SOL     OW22507   0.803   0.083   2.713 -0.0861  0.2084  0.2535
 3682SOL    HW122508   0.798   4.715   2.738 -0.9040  0.2393  0.2253
 3682SOL    HW222509   0.884   0.090   2.662 -0.9077 -0.1844 -1.1195
 3683SOL     OW22510   1.348   1.175  11.970 -1.1410 -0.0101 -0.9285
 3683SOL    HW122511   1.298   1.165  12.051  2.3771  0.6637  1.3061
 3683SOL    HW222512   1.427   1.221  11.998 -0.4903 -0.2081 -2.4121
 3684SOL     OW22513   3.350   0.400   0.909 -0.0552  0.0033 -0.6498
 3684SOL    HW122514   3.325   0.475   0.964  2.0586  1.5653 -1.8033
 3684SOL    HW222515   3.395   0.455   0.844  2.6218 -0.4828  0.7805
 3685SOL     OW22516   3.208   4.306   7.090 -0.1741 -0.1465 -0.1224
 3685SOL    HW122517   3.190   4.269   7.176 -2.5093  1.1542 -0.0590
 3685SOL    HW222518   3.233   4.396   7.114 -1.2531  0.5341 -1.5713
 3686SOL     OW22519   1.276   3.661  14.444  0.0900 -0.5178 -0.0395
 3686SOL    HW122520   1.249   3.716  14.370  1.3208  1.8146  1.2240
 3686SOL    HW222521   1.371   3.671  14.439 -0.0937  0.7298 -1.0935
 3687SOL     OW22522   2.771   1.880   8.887  0.2058 -0.0495 -0.2381
 3687SOL    HW122523   2.812   1.813   8.942  0.9252  1.6795  1.3182
 3687SOL    HW222524   2.834   1.952   8.888  0.7572 -0.5298  0.0210
 3688SOL     OW22525   1.318   4.573  10.067  0.5469 -0.5040  0.0642
 3688SOL    HW122526   1.271   4.631  10.127 -1.2339 -0.3985 -1.4185
 3688SOL    HW222527   1.406   4.610  10.069  0.0227  0.6963  1.2424
 3689SOL     OW22528   2.395   2.401  11.341 -0.0118  0.2545 -0.4795
 3689SOL    HW122529   2.356   2.317  11.316  0.4567  0.0271 -0.4469
 3689SOL    HW222530   2.469   2.375  11.396  0.0446  0.9582 -0.2185
 3690SOL     OW22531   3.386   3.862   6.585 -0.0620 -0.8119 -0.3735
 3690SOL    HW122532   3.389   3.935   6.523 -0.6245  0.5371  1.1699
 3690SOL    HW222533   3.421   3.896   6.668 -0.3931 -1.0819 -0.1211
 3691SOL     OW22534   3.677   4.693   3.797  0.5234 -0.7039  0.0160
 3691SOL    HW122535   3.609   4.692   3.730  0.1986 -1.1161  0.3536
 3691SOL    HW222536   3.749   4.659   3.742  2.4247  2.5392  0.4979
 3692SOL     OW22537   1.644   2.296   9.478  0.0390 -0.1018 -0.2610
 3692SOL    HW122538   1.555   2.303   9.444  0.3610 -3.5036 -1.8844
 3692SOL    HW222539   1.665   2.389   9.478 -1.1645  0.1702  0.7119
 3693SOL     OW22540   2.965   0.406   1.944 -0.1580 -0.1461  0.5167
 3693SOL    HW122541   2.953   0.501   1.940 -0.6273 -0.2220  0.2047
 3693SOL    HW222542   3.059   0.400   1.926 -0.4083  1.0486 -1.1693
 3694SOL     OW22543   2.450   1.310  13.195  0.3448  0.3199  0.2975
 3694SOL    HW122544   2.430   1.403  13.189 -0.6606  0.2083  1.7867
 3694SOL    HW222545   2.538   1.318  13.230  0.6406 -1.5739  0.0114
 3695SOL     OW22546   3.421   2.035   5.077  0.3846  0.2418 -0.1733
 3695SOL    HW122547   3.354   2.033   5.145 -0.1375 -0.5775 -0.7137
 3695SOL    HW222548   3.374   2.069   5.001  1.1582  1.5201 -0.0897
 3696SOL     OW22549   0.431   1.638  10.387  0.3774  0.7089 -0.5733
 3696SOL    HW122550   0.472   1.673  10.466  1.9703 -0.6928 -0.7684
 3696SOL    HW222551   0.383   1.562  10.421  2.0433  0.1743  0.5582
 3697SOL     OW22552   4.444   1.473  15.938 -0.1708 -0.3614  0.2637
 3697SOL    HW122553   4.397   1.548  15.974  0.4646  0.2490 -0.1821
 3697SOL    HW222554   4.527   1.477  15.985 -0.9059  1.3408  1.4368
 3698SOL     OW22555   1.890   0.176   5.327 -0.2286  0.0131  0.0226
 3698SOL    HW122556   1.940   0.257   5.343 -1.9573  1.4220 -1.5876
 3698SOL    HW222557   1.933   0.125   5.395 -1.6462 -1.0097  0.1440
 3699SOL     OW22558   2.515   1.168  16.427  0.2682  0.2077 -0.0809
 3699SOL    HW122559   2.581   1.189  16.361  1.6044  0.8672  1.4679
 3699SOL    HW222560   2.479   1.255  16.440  0.1317  0.2703 -0.8765
 3700SOL     OW22561   2.676   3.036   2.587  0.3818 -0.1281 -0.1012
 3700SOL    HW122562   2.698   3.063   2.498  0.7265 -2.7319 -0.8058
 3700SOL    HW222563   2.703   3.120   2.625  1.9187  0.2633 -2.0919
 3701SOL     OW22564   2.240   2.717  17.043  0.0130 -0.1623 -0.5639
 3701SOL    HW122565   2.307   2.658  17.010  2.1829  0.6707  2.3411
 3701SOL    HW222566   2.271   2.803  17.017 -0.4036 -0.8927 -3.4091
 3702SOL     OW22567   1.567   0.638   5.249  0.0690 -0.6159  0.2436
 3702SOL    HW122568   1.515   0.564   5.282  0.4130 -0.7554  0.4641
 3702SOL    HW222569   1.510   0.661   5.175  2.2092  1.5849 -0.6812
 3703SOL     OW22570   0.536   0.366   6.938 -0.0700 -0.0373  1.0696
 3703SOL    HW122571   0.535   0.373   7.033 -0.1753 -0.5556  1.1061
 3703SOL    HW222572   0.519   0.273   6.925  0.4492  0.0451 -0.2002
 3704SOL     OW22573   2.568   1.213  12.335 -0.2869  0.3608 -0.3293
 3704SOL    HW122574   2.605   1.162  12.408 -1.0080 -0.0619 -0.2552
 3704SOL    HW222575   2.492   1.247  12.381 -0.1596 -0.5733  0.5888
 3705SOL     OW22576   2.683   3.425   4.611  0.2596  0.0992 -0.1507
 3705SOL    HW122577   2.647   3.502   4.657  2.5304  0.7874  0.5001
 3705SOL    HW222578   2.638   3.359   4.663  1.3107  1.2467  2.2294
 3706SOL     OW22579   2.919   3.933  12.082  0.4815 -0.3473  0.1691
 3706SOL    HW122580   2.960   3.869  12.139  0.4049  0.8944  1.6071
 3706SOL    HW222581   2.999   3.960  12.036 -0.4771  1.6055 -0.3491
 3707SOL     OW22582   1.571   1.365  10.492 -0.3538 -0.0135  0.4851
 3707SOL    HW122583   1.518   1.334  10.565  1.1554 -0.2820  1.4601
 3707SOL    HW222584   1.642   1.410  10.536 -0.4870 -0.4375  1.1258
 3708SOL     OW22585   3.576   2.541   8.454 -0.0658  0.2495  0.7473
 3708SOL    HW122586   3.667   2.514   8.467  0.5736  1.1895 -1.6400
 3708SOL    HW222587   3.557   2.594   8.531 -1.7085 -2.6912  2.3890
 3709SOL     OW22588   3.468   0.447  12.826  0.2041 -0.6128 -0.1231
 3709SOL    HW122589   3.515   0.531  12.822  0.4250 -0.6861  0.8220
 3709SOL    HW222590   3.424   0.449  12.741 -1.6890 -0.2637  0.8647
 3710SOL     OW22591   3.858   3.498  10.264  0.4883 -0.0800 -0.3365
 3710SOL    HW122592   3.777   3.519  10.310  0.1660 -0.0714 -0.9161
 3710SOL    HW222593   3.867   3.565  10.197 -1.1028  0.8071  0.3490
 3711SOL     OW22594   1.319   4.123   7.653 -0.1013 -0.0708 -0.5077
 3711SOL    HW122595   1.277   4.093   7.572 -0.5008  1.7125 -0.9505
 3711SOL    HW222596   1.392   4.178   7.625 -0.6405  1.3597  0.8886
 3712SOL     OW22597   2.953   4.579   5.607 -0.7626 -0.1556  0.2188
 3712SOL    HW122598   2.923   4.659   5.565 -1.7803 -1.7914 -2.2204
 3712SOL    HW222599   2.956   4.608   5.698  0.8080 -0.4727  0.2609
 3713SOL     OW22600   3.780   4.177   2.395  0.0685  0.0343  0.4002
 3713SOL    HW122601   3.847   4.142   2.455 -0.6572 -0.9378  0.6424
 3713SOL    HW222602   3.801   4.268   2.374 -1.3552 -0.3442 -2.6057
 3714SOL     OW22603   4.096   3.420   6.126 -0.0743  0.5195 -0.1270
 3714SOL    HW122604   4.055   3.376   6.052  0.0153  2.0543 -1.0919
 3714SOL    HW222605   4.025   3.474   6.159  1.8446  1.3829  2.5347
 3715SOL     OW22606   3.324   2.752  12.426  0.1423 -0.7841  0.6422
 3715SOL    HW122607   3.249   2.693  12.436 -0.5246 -0.2178 -0.8791
 3715SOL    HW222608   3.300   2.829  12.478 -1.3377 -1.7642  1.3805
 3716SOL     OW22609   2.340   4.068   7.485  0.0817 -0.3291  0.1044
 3716SOL    HW122610   2.322   3.994   7.544  5.4472 -1.3776  0.3891
 3716SOL    HW222611   2.397   4.035   7.415  0.0753  0.7323 -0.4015
 3717SOL     OW22612   3.450   2.990   6.279 -0.2765 -0.1968  0.8861
 3717SOL    HW122613   3.405   2.907   6.290 -0.9740 -0.0471 -0.7134
 3717SOL    HW222614   3.458   3.023   6.368 -2.5376 -1.0685  1.4096
 3718SOL     OW22615   4.661   1.809   5.436 -0.1574  0.5448  0.4898
 3718SOL    HW122616   4.696   1.869   5.371  0.4482  0.5587  0.8278
 3718SOL    HW222617   4.624   1.871   5.500 -0.6190 -0.0046  0.7597
 3719SOL     OW22618   2.721   2.786   4.945 -0.0053  0.1110 -0.1678
 3719SOL    HW122619   2.793   2.808   5.004 -1.1186  2.0761  0.4419
 3719SOL    HW222620   2.766   2.775   4.861  0.5205  3.2488 -0.3177
 3720SOL     OW22621   1.457   2.496   8.617  0.5416 -0.0873  0.0567
 3720SOL    HW122622   1.538   2.478   8.665  2.3446 -0.4158 -3.1633
 3720SOL    HW222623   1.423   2.410   8.594 -1.1364  0.3152  0.9420
 3721SOL     OW22624   2.951   3.435   4.536  0.9519 -0.0107  0.5962
 3721SOL    HW122625   2.964   3.342   4.553  2.1398 -0.0288 -0.4214
 3721SOL    HW222626   2.857   3.429   4.550  0.9334 -2.6484 -0.7804
 3722SOL     OW22627   3.018   1.130  12.427  0.1135  0.4021  0.2752
 3722SOL    HW122628   3.107   1.133  12.463  0.0185  0.1711  0.5355
 3722SOL    HW222629   3.010   1.215  12.384 -2.8434  1.0256  2.1002
 3723SOL     OW22630   2.361   1.635   1.718 -0.1732  0.0394  0.1031
 3723SOL    HW122631   2.313   1.585   1.784  1.9415 -0.8654  0.9607
 3723SOL    HW222632   2.414   1.681   1.783 -1.4913 -0.2535  1.3924
 3724SOL     OW22633   2.470   4.388   1.122  0.1081 -0.2927 -0.1726
 3724SOL    HW122634   2.445   4.478   1.100  0.6032 -0.3078 -0.7933
 3724SOL    HW222635   2.381   4.355   1.109  0.3217 -1.0109  0.2218
 3725SOL     OW22636   2.238   1.247   7.091 -0.8223  0.1527 -0.1301
 3725SOL    HW122637   2.313   1.224   7.147 -0.4415  0.6295 -0.4417
 3725SOL    HW222638   2.254   1.338   7.068  2.1882 -0.2308  0.3653
 3726SOL     OW22639   3.278   1.306   2.014  0.2142  0.7170  0.0935
 3726SOL    HW122640   3.281   1.243   1.943  2.7144 -1.6233  2.2913
 3726SOL    HW222641   3.370   1.307   2.041 -0.1437  0.5927  1.3208
 3727SOL     OW22642   2.345   4.355   4.238 -0.5544  0.5604 -0.1663
 3727SOL    HW122643   2.350   4.421   4.170  1.7192  0.6647  0.0863
 3727SOL    HW222644   2.272   4.401   4.279 -0.8071 -1.4723  1.7011
 3728SOL     OW22645   0.733   2.642   2.966 -0.5478  0.0750  0.7003
 3728SOL    HW122646   0.769   2.633   2.878  0.1766 -2.7294  1.2897
 3728SOL    HW222647   0.777   2.569   3.009  1.8768  1.0082 -0.2255
 3729SOL     OW22648   3.046   2.174   5.474  0.1751  0.0346  0.4177
 3729SOL    HW122649   3.034   2.210   5.562 -0.1597 -0.2855  0.4996
 3729SOL    HW222650   2.974   2.212   5.424  0.4273  1.1286  0.8737
 3730SOL     OW22651   3.074   3.676   5.380 -0.4029 -0.1655 -0.0225
 3730SOL    HW122652   3.116   3.693   5.464  0.7148 -1.7419 -0.2609
 3730SOL    HW222653   3.090   3.754   5.327 -1.8857  0.6602  0.7392
 3731SOL     OW22654   4.240   3.693  14.050 -0.4853 -0.3418 -0.4344
 3731SOL    HW122655   4.177   3.757  14.018  0.1081  1.4312  1.9443
 3731SOL    HW222656   4.218   3.618  13.994  1.4228 -2.3944  1.5149
 3732SOL     OW22657   0.654   3.510   5.317  0.3141  0.0079  0.7039
 3732SOL    HW122658   0.574   3.457   5.324 -0.4215  0.8710 -1.2332
 3732SOL    HW222659   0.620   3.594   5.348 -0.5549  0.3747 -1.2023
 3733SOL     OW22660   2.058   2.760   4.607  0.4136 -0.8513  0.0758
 3733SOL    HW122661   2.062   2.848   4.571  2.2800 -0.2056  1.8464
 3733SOL    HW222662   2.077   2.781   4.699  1.1730  1.4713 -0.6255
 3734SOL     OW22663   0.607   1.574   5.528  0.7957  0.1478 -0.0110
 3734SOL    HW122664   0.667   1.537   5.463 -1.0075  1.8912 -2.7114
 3734SOL    HW222665   0.563   1.500   5.569 -0.9282  1.4020  0.4140
 3735SOL     OW22666   2.798   3.511   6.171  0.6808 -0.4477  0.1169
 3735SOL    HW122667   2.710   3.512   6.209  0.9487  0.1601  0.7314
 3735SOL    HW222668   2.823   3.603   6.169  0.7105 -0.4492  0.3368
 3736SOL     OW22669   0.559   3.969  10.554  0.0555  0.3279  0.8218
 3736SOL    HW122670   0.579   3.885  10.597 -1.3449  0.1405  1.1207
 3736SOL    HW222671   0.512   3.944  10.475 -1.1541  1.0482  1.3225
 3737SOL     OW22672   3.387   0.699   5.775  0.1316 -0.2951  0.6806
 3737SOL    HW122673   3.426   0.786   5.785  0.8041 -0.3303 -1.6651
 3737SOL    HW222674   3.342   0.694   5.859 -2.7821 -0.4155 -0.9027
 3738SOL     OW22675   0.887   4.350   1.755  0.2204 -0.6101 -0.0674
 3738SOL    HW122676   0.838   4.376   1.833  0.9151  1.7369 -0.3929
 3738SOL    HW222677   0.814   4.364   1.695  1.3471  1.5069 -0.9744
 3739SOL     OW22678   2.456   1.823   4.442  0.8214 -0.0345  0.2238
 3739SOL    HW122679   2.527   1.874   4.404  0.1506  0.0203 -0.9404
 3739SOL    HW222680   2.500   1.752   4.490  1.7324  1.5290  1.6857
 3740SOL     OW22681   2.730   0.613   4.701  0.3250  0.1501 -0.0533
 3740SOL    HW122682   2.741   0.634   4.793  1.3615  0.1308 -0.1733
 3740SOL    HW222683   2.702   0.521   4.701  1.2560 -0.1233  2.8933
 3741SOL     OW22684   1.604   0.666   9.369  0.0919 -0.3513 -0.1377
 3741SOL    HW122685   1.627   0.589   9.420  0.7828 -1.4408 -2.1122
 3741SOL    HW222686   1.510   0.678   9.380  0.3649  0.6810  1.0724
 3742SOL     OW22687   4.087   1.196   7.588 -0.1075  0.2906 -0.0983
 3742SOL    HW122688   4.026   1.265   7.615 -1.1230 -0.5182 -0.3598
 3742SOL    HW222689   4.116   1.229   7.503 -1.0926 -0.3052 -0.6595
 3743SOL     OW22690   4.174   2.640  15.801  0.2039  0.3346 -0.6114
 3743SOL    HW122691   4.224   2.573  15.755 -0.5824 -1.2142  0.7991
 3743SOL    HW222692   4.198   2.717  15.749 -0.8507  0.4480 -0.9164
 3744SOL     OW22693   2.680   2.786   6.492 -0.5336  0.3527  0.4328
 3744SOL    HW122694   2.722   2.867   6.462  0.2230 -0.4587 -0.7050
 3744SOL    HW222695   2.641   2.818   6.573  0.7270  2.3878  0.2492
 3745SOL     OW22696   1.924   1.051   8.438  0.2780  0.6226 -0.4152
 3745SOL    HW122697   1.933   1.037   8.344 -0.8296 -1.7430 -0.1899
 3745SOL    HW222698   1.930   0.958   8.461  2.2215  0.7901 -0.2793
 3746SOL     OW22699   3.433   1.311  17.347 -0.2898  0.8550  0.0418
 3746SOL    HW122700   3.388   1.270  17.421 -0.9526 -0.0395 -0.8371
 3746SOL    HW222701   3.361   1.321  17.285 -0.1501 -0.6902 -0.3702
 3747SOL     OW22702   0.592   4.293  13.675  0.1959 -0.3335 -0.5597
 3747SOL    HW122703   0.542   4.338  13.743  0.6637  0.8216 -0.9628
 3747SOL    HW222704   0.520   4.258  13.623 -1.5551 -1.0243  2.3704
 3748SOL     OW22705   3.706   2.784  11.981  0.1900  0.4019  0.0968
 3748SOL    HW122706   3.749   2.869  11.986 -0.6253  0.7519  1.1227
 3748SOL    HW222707   3.666   2.776  12.067 -0.2735 -2.2662 -0.3775
 3749SOL     OW22708   2.441   3.941  16.990  0.1451 -0.4019 -0.4034
 3749SOL    HW122709   2.471   4.002  16.923  0.6625 -1.3508 -1.0371
 3749SOL    HW222710   2.346   3.950  16.995  0.2642  1.3460 -1.2324
 3750SOL     OW22711   4.687   1.229  14.894 -0.5076 -0.0818 -0.3039
 3750SOL    HW122712   0.033   1.262  14.839 -0.5821  0.1984 -0.2312
 3750SOL    HW222713   4.666   1.151  14.843  1.6932 -0.1227 -1.1435
 3751SOL     OW22714   2.274   1.986  16.566  0.5729  0.0256 -0.2008
 3751SOL    HW122715   2.277   2.012  16.474 -2.4677  0.7561 -0.0964
 3751SOL    HW222716   2.198   2.040  16.589 -1.0410 -1.9332 -0.9580
 3752SOL     OW22717   0.340   0.246   0.227 -0.0699 -0.2908  0.2804
 3752SOL    HW122718   0.284   0.184   0.275 -1.3018  1.1756  0.7545
 3752SOL    HW222719   0.397   0.280   0.296 -0.6327  0.4235  0.3892
 3753SOL     OW22720   1.062   3.306   2.670 -0.1739  0.3509  0.0972
 3753SOL    HW122721   1.114   3.266   2.740 -0.5893 -2.0354 -0.9385
 3753SOL    HW222722   1.016   3.369   2.725  2.2011  2.5394 -0.4391
 3754SOL     OW22723   1.443   1.962   8.131  0.4674  0.2996 -0.2737
 3754SOL    HW122724   1.503   1.889   8.141 -0.5169 -0.7738 -2.1389
 3754SOL    HW222725   1.364   1.908   8.128  0.6827 -0.0555  0.6067
 3755SOL     OW22726   4.498   3.374   8.138 -0.4364 -0.3696  0.4020
 3755SOL    HW122727   4.413   3.330   8.129 -0.7141 -0.1181  1.7395
 3755SOL    HW222728   4.505   3.378   8.234 -2.3122  0.3725  0.5121
 3756SOL     OW22729   0.699   2.509  14.676 -0.4050 -0.1978  0.4914
 3756SOL    HW122730   0.619   2.526  14.625  0.3598 -1.8437 -1.2666
 3756SOL    HW222731   0.772   2.550  14.630  0.4255  0.9212  2.8381
 3757SOL     OW22732   3.431   3.815   4.374 -0.0998  0.1533 -0.1778
 3757SOL    HW122733   3.435   3.911   4.369 -2.8507  0.1741 -1.6672
 3757SOL    HW222734   3.523   3.796   4.391 -0.2320 -0.7431 -0.4821
 3758SOL     OW22735   1.468   4.666  12.682 -0.2706 -0.1057  0.4111
 3758SOL    HW122736   1.559   4.691  12.697 -0.3226 -0.1307  0.7592
 3758SOL    HW222737   1.477   4.571  12.679 -1.3060 -0.2059  0.3024
 3759SOL     OW22738   4.724   2.287   3.588  0.0008 -0.7164  0.1754
 3759SOL    HW122739   4.646   2.252   3.545 -0.0408 -0.7662  0.2909
 3759SOL    HW222740   4.697   2.377   3.603 -1.0274 -1.5188  3.1982
 3760SOL     OW22741   1.950   0.109   8.287  0.4073  0.5299 -0.5092
 3760SOL    HW122742   1.863   0.108   8.327  1.4742 -2.4438  1.7608
 3760SOL    HW222743   1.995   0.088   8.369  1.3977  1.1692 -0.8947
 3761SOL     OW22744   1.382   3.310   6.965 -0.3816  0.1870 -0.4652
 3761SOL    HW122745   1.369   3.256   6.887  0.4651  2.9628 -2.5470
 3761SOL    HW222746   1.397   3.239   7.027 -1.4629  2.0127  1.8575
 3762SOL     OW22747   4.487   3.275   6.588  0.1417  0.3092  0.2428
 3762SOL    HW122748   4.429   3.350   6.602  0.0290  0.2805 -0.0561
 3762SOL    HW222749   4.468   3.215   6.660 -2.0916 -1.9650 -2.1888
 3763SOL     OW22750   0.814   3.134   9.343 -0.0032 -0.0808  0.3813
 3763SOL    HW122751   0.871   3.075   9.295  1.4288  0.4862  1.3926
 3763SOL    HW222752   0.880   3.176   9.398 -0.1510 -0.8067  1.1069
 3764SOL     OW22753   2.773   2.991   8.524 -0.6360 -0.1057  0.1261
 3764SOL    HW122754   2.804   2.951   8.443 -1.5174 -2.0290  0.7387
 3764SOL    HW222755   2.820   2.942   8.592 -0.9499  1.7709  1.7059
 3765SOL     OW22756   1.054   4.625   5.368  0.1943 -0.0731  0.3596
 3765SOL    HW122757   1.070   4.708   5.413  0.4225  0.1319 -0.0978
 3765SOL    HW222758   1.031   4.572   5.444  1.9128  0.7265  1.4440
 3766SOL     OW22759   0.596   4.202   5.973  0.0281 -0.5219 -0.1726
 3766SOL    HW122760   0.606   4.271   5.908 -0.5451 -0.1442  0.1375
 3766SOL    HW222761   0.616   4.246   6.055  1.3388 -0.1745 -0.6841
 3767SOL     OW22762   0.665   3.953   4.424  0.2917 -0.1054 -0.6354
 3767SOL    HW122763   0.739   4.007   4.450  0.0094 -1.0891  2.2032
 3767SOL    HW222764   0.710   3.868   4.423  0.2212 -0.1465  1.0489
 3768SOL     OW22765   0.566   0.531   7.421 -0.2860  0.5400  0.3726
 3768SOL    HW122766   0.643   0.476   7.433  1.5866  3.2483  0.7527
 3768SOL    HW222767   0.608   0.609   7.384 -1.8660  1.7157  1.0624
 3769SOL     OW22768   2.032   3.014   1.249 -0.5672 -0.3376  0.4789
 3769SOL    HW122769   2.060   3.079   1.184  0.2579  1.5370  2.7251
 3769SOL    HW222770   2.119   2.977   1.265  0.0134  0.5731 -0.5242
 3770SOL     OW22771   2.635   3.297  15.532 -0.3498  0.5521 -0.3242
 3770SOL    HW122772   2.540   3.293  15.536 -0.3088 -0.4499 -0.3546
 3770SOL    HW222773   2.654   3.300  15.625 -0.1930 -3.1992 -0.2644
 3771SOL     OW22774   0.461   3.509   7.659  0.0458 -0.1467  0.2962
 3771SOL    HW122775   0.392   3.547   7.714  0.8329  0.3005  0.9558
 3771SOL    HW222776   0.504   3.586   7.620  0.0590  0.4571  1.4944
 3772SOL     OW22777   4.466   0.005   7.666 -0.2827  0.0266  0.6775
 3772SOL    HW122778   4.477   0.098   7.684  0.5529  0.0362  0.1084
 3772SOL    HW222779   4.420   4.720   7.583  0.3163 -1.7257  0.5334
 3773SOL     OW22780   4.253   4.122   8.817  0.6553  0.1412  0.2270
 3773SOL    HW122781   4.281   4.168   8.896  0.6511  1.2089 -0.3925
 3773SOL    HW222782   4.176   4.078   8.852  0.7710  0.0840  0.4085
 3774SOL     OW22783   3.198   2.918  11.629 -0.3939  0.2276  0.1734
 3774SOL    HW122784   3.144   2.924  11.550  1.2296 -2.2248 -1.1415
 3774SOL    HW222785   3.284   2.925  11.587  0.6035  1.8455  2.5077
 3775SOL     OW22786   2.661   2.320   3.607 -0.0245 -0.0648  0.0568
 3775SOL    HW122787   2.715   2.242   3.599  1.1780  0.7055  0.6950
 3775SOL    HW222788   2.701   2.362   3.683  1.3366 -1.4064  0.0620
 3776SOL     OW22789   2.357   3.374   5.701  0.6785 -0.5592  0.1888
 3776SOL    HW122790   2.412   3.303   5.669  0.9957 -0.2913  0.1486
 3776SOL    HW222791   2.409   3.397   5.778  1.2990 -0.0867 -0.3765
 3777SOL     OW22792   2.504   0.811   6.076  0.0275 -0.2014 -0.1819
 3777SOL    HW122793   2.560   0.759   6.133 -0.1287 -2.0231 -1.6946
 3777SOL    HW222794   2.417   0.772   6.088  0.9612 -1.8041  1.2596
 3778SOL     OW22795   2.490   0.141   2.157 -0.5395 -0.2406  0.0210
 3778SOL    HW122796   2.561   0.202   2.179 -2.6160  1.3153  2.5032
 3778SOL    HW222797   2.499   0.074   2.225 -2.4984 -0.4573  0.0618
 3779SOL     OW22798   4.416   4.564  14.557  0.1728 -0.3244  0.0150
 3779SOL    HW122799   4.478   4.637  14.558 -0.0967 -0.0687 -1.6360
 3779SOL    HW222800   4.451   4.524  14.477 -0.4074 -0.4319 -0.1815
 3780SOL     OW22801   3.038   3.299  12.976  0.5031 -0.1054 -0.8044
 3780SOL    HW122802   3.086   3.303  12.893 -0.2216 -1.5040 -1.2783
 3780SOL    HW222803   3.038   3.395  12.986  1.2091 -0.0991 -0.8247
 3781SOL     OW22804   0.985   1.200   4.619  0.0653 -0.2081  0.0737
 3781SOL    HW122805   0.940   1.143   4.682  1.2243 -1.5477 -0.3223
 3781SOL    HW222806   1.052   1.148   4.576 -0.0210  0.4386 -0.8456
 3782SOL     OW22807   4.158   0.474  11.322 -0.5617  0.1099  0.0972
 3782SOL    HW122808   4.102   0.490  11.398 -1.1561 -0.1083 -0.2971
 3782SOL    HW222809   4.231   0.537  11.328 -0.6485  0.4541 -2.4250
 3783SOL     OW22810   0.007   4.225  15.568 -0.3376  0.0658 -0.1460
 3783SOL    HW122811   0.053   4.186  15.643  0.8760 -0.3534 -1.0983
 3783SOL    HW222812   0.042   4.314  15.571  1.7707 -0.7923  1.1019
 3784SOL     OW22813   3.302   2.756   0.185  0.0923 -0.0162  0.2156
 3784SOL    HW122814   3.213   2.720   0.174  0.5220 -0.5470 -1.4880
 3784SOL    HW222815   3.323   2.802   0.104  2.6941 -0.5026  0.6360
 3785SOL     OW22816   1.735   2.470  13.554  0.1414 -0.2610  0.1338
 3785SOL    HW122817   1.765   2.540  13.496  1.2397  0.5556  1.6588
 3785SOL    HW222818   1.673   2.420  13.502  0.3317  1.0703 -1.3819
 3786SOL     OW22819   3.598   2.603   0.663 -0.6919  0.2593 -0.0972
 3786SOL    HW122820   3.530   2.666   0.682 -1.0478  0.3517 -1.6870
 3786SOL    HW222821   3.554   2.528   0.702  1.0125 -0.5661  0.2812
 3787SOL     OW22822   1.291   1.290  16.918 -0.2524 -0.4380  0.1855
 3787SOL    HW122823   1.350   1.221  16.947 -1.2427 -1.1348  0.5846
 3787SOL    HW222824   1.257   1.334  16.996 -0.0248  1.2115 -0.6558
 3788SOL     OW22825   1.291   4.318   9.081 -0.1225  0.6280 -0.2424
 3788SOL    HW122826   1.217   4.379   9.073  1.1020  2.3791  1.9819
 3788SOL    HW222827   1.370   4.371   9.086 -0.1673  0.6608  0.1213
 3789SOL     OW22828   2.272   2.528  11.690 -0.1752 -0.3284 -0.1271
 3789SOL    HW122829   2.206   2.523  11.622 -2.3776  0.4447  1.9650
 3789SOL    HW222830   2.351   2.567  11.652  0.7042 -0.5302  1.4723
 3790SOL     OW22831   2.474   4.401  10.574 -0.0163 -0.5191  0.5494
 3790SOL    HW122832   2.418   4.475  10.594 -0.8767 -1.2425  0.8126
 3790SOL    HW222833   2.436   4.368  10.492  0.3522  0.3696  0.0193
 3791SOL     OW22834   2.090   4.010  16.692  0.0263  0.3423 -0.3126
 3791SOL    HW122835   2.126   4.059  16.766 -0.7320  3.7311 -2.1912
 3791SOL    HW222836   2.005   3.986  16.729 -0.6039 -0.9925 -2.6157
 3792SOL     OW22837   1.495   0.793   5.456  0.9262 -0.2597  0.3007
 3792SOL    HW122838   1.460   0.875   5.420 -0.3611 -0.1078  1.9299
 3792SOL    HW222839   1.507   0.747   5.373  0.0571 -1.2150  0.7145
 3793SOL     OW22840   2.164   0.275   6.197  0.2174 -0.0640  0.3122
 3793SOL    HW122841   2.108   0.346   6.229 -1.6892 -1.1593 -0.5995
 3793SOL    HW222842   2.175   0.301   6.106  0.1038 -1.1493 -0.0134
 3794SOL     OW22843   3.897   2.280  15.898  0.0111 -0.3528 -0.2004
 3794SOL    HW122844   3.847   2.267  15.978  0.6708 -0.5942  0.1729
 3794SOL    HW222845   3.983   2.257  15.933 -0.2494  0.3664  0.9149
 3795SOL     OW22846   3.599   4.538   1.252  0.6345 -0.1968 -0.3514
 3795SOL    HW122847   3.676   4.516   1.303  1.4057 -0.5065 -1.6370
 3795SOL    HW222848   3.563   4.612   1.301  1.6274  0.2557 -0.3101
 3796SOL     OW22849   0.860   1.997   9.981 -0.8029  0.0049 -0.1211
 3796SOL    HW122850   0.837   2.088   9.996  0.1080  0.0357  1.0761
 3796SOL    HW222851   0.905   2.007   9.897  0.1195  0.1504  0.3919
 3797SOL     OW22852   3.039   3.274   9.969 -0.5903  0.0316  0.2020
 3797SOL    HW122853   3.121   3.271   9.919 -0.9247 -0.8605 -0.2849
 3797SOL    HW222854   2.987   3.217   9.913  0.4360 -0.6255 -0.0710
 3798SOL     OW22855   4.302   0.989   4.618 -0.3546  0.2649 -0.3665
 3798SOL    HW122856   4.294   0.904   4.574  2.4233  0.1868 -0.6924
 3798SOL    HW222857   4.282   1.037   4.537 -2.2833  1.0948  0.6034
 3799SOL     OW22858   1.072   2.498   8.982 -0.0081  0.3645 -0.0524
 3799SOL    HW122859   0.994   2.504   8.927 -2.1594 -0.6432  2.8503
 3799SOL    HW222860   1.015   2.507   9.058 -0.3559 -0.7228 -0.1810
 3800SOL     OW22861   1.675   1.689   5.337 -0.4019 -0.0121  0.0819
 3800SOL    HW122862   1.660   1.720   5.426 -0.5149  1.3464 -0.4040
 3800SOL    HW222863   1.585   1.686   5.304 -0.3525 -1.9334  0.0977
 3801SOL     OW22864   0.797   0.599   9.843 -0.3835  0.1718  0.0936
 3801SOL    HW122865   0.743   0.548   9.904 -0.4768 -0.8302 -0.8195
 3801SOL    HW222866   0.770   0.690   9.853 -1.9955 -0.2021 -0.8417
 3802SOL     OW22867   1.303   1.716  16.146  0.7696  0.7746 -0.1710
 3802SOL    HW122868   1.235   1.778  16.119  0.4908  0.0210 -1.1868
 3802SOL    HW222869   1.266   1.632  16.119 -0.3357  1.1407  0.1804
 3803SOL     OW22870   2.079   3.249   2.231 -0.2648  0.2166  0.7675
 3803SOL    HW122871   2.095   3.340   2.205 -4.8668  1.6874  3.0314
 3803SOL    HW222872   2.010   3.255   2.296 -1.6815 -1.8988 -0.5326
 3804SOL     OW22873   1.206   4.385   9.601 -0.3694  0.1053 -0.3620
 3804SOL    HW122874   1.176   4.470   9.635  2.0615  1.4353 -1.5029
 3804SOL    HW222875   1.227   4.345   9.685 -1.1587  1.2357  0.3860
 3805SOL     OW22876   4.513   3.499   7.898  0.1870 -0.0480 -0.3559
 3805SOL    HW122877   4.520   3.444   7.976 -0.0285  0.6912  0.1954
 3805SOL    HW222878   4.433   3.543   7.926  0.1752 -1.8425  2.4633
 3806SOL     OW22879   0.687   3.608   7.908 -0.8071 -0.5100 -0.2144
 3806SOL    HW122880   0.765   3.578   7.955  0.0928  0.7302 -0.9155
 3806SOL    HW222881   0.679   3.702   7.923  1.1967 -0.3561 -0.1091
 3807SOL     OW22882   2.532   1.896   8.413 -0.0973  0.2740  0.5268
 3807SOL    HW122883   2.469   1.900   8.485  1.6940 -0.8757  2.1489
 3807SOL    HW222884   2.615   1.901   8.460  0.3330 -0.4698 -0.1708
 3808SOL     OW22885   3.094   4.364   3.970  0.2551 -0.1831  0.0373
 3808SOL    HW122886   3.026   4.374   3.904 -0.9566  1.7505  1.5580
 3808SOL    HW222887   3.072   4.438   4.027 -1.4991 -1.0057  0.4325
 3809SOL     OW22888   2.065   0.967   1.672  0.1572  0.1575 -0.4784
 3809SOL    HW122889   2.124   0.944   1.600 -0.0608  0.7510 -0.8455
 3809SOL    HW222890   2.119   0.967   1.750 -0.6785 -3.4296  0.1214
 3810SOL     OW22891   1.213   3.345  10.058 -0.6067 -0.2817 -0.4293
 3810SOL    HW122892   1.176   3.336   9.971 -1.4535  0.1719 -0.1137
 3810SOL    HW222893   1.183   3.266  10.104  2.5642 -0.2194  1.8213
 3811SOL     OW22894   2.366   3.981   5.028 -0.7342 -0.5932  0.8214
 3811SOL    HW122895   2.362   4.050   5.094 -1.5028  0.7079 -0.5910
 3811SOL    HW222896   2.321   4.024   4.955 -0.1349  0.0780  0.8509
 3812SOL     OW22897   2.905   4.024   2.204  0.4094 -0.6188 -0.0447
 3812SOL    HW122898   2.973   3.989   2.145  0.8639 -0.7516  0.5596
 3812SOL    HW222899   2.908   3.946   2.260  1.8640 -1.2177 -0.9274
 3813SOL     OW22900   4.328   1.713   1.856  0.0288  0.0857  0.0082
 3813SOL    HW122901   4.402   1.728   1.915 -1.4802  0.3747  1.8166
 3813SOL    HW222902   4.320   1.803   1.824  2.2897  0.3045  0.0524
 3814SOL     OW22903   3.575   1.657  17.456 -0.6812 -0.1107 -0.2028
 3814SOL    HW122904   3.599   1.743  17.490  1.4248 -0.1140 -1.6654
 3814SOL    HW222905   3.500   1.641  17.514  1.2963 -1.5431  1.9418
 3815SOL     OW22906   4.631   4.542   5.258  0.4888 -0.2482 -0.2955
 3815SOL    HW122907   4.581   4.463   5.239 -2.1665  1.5089 -0.6472
 3815SOL    HW222908   4.649   4.584   5.174  2.5648  2.4611  1.4989
 3816SOL     OW22909   2.906   3.236  15.044  0.0559 -0.4317 -0.0785
 3816SOL    HW122910   2.850   3.264  15.117 -0.4973 -1.6176 -0.0522
 3816SOL    HW222911   2.989   3.212  15.085 -1.4085 -0.3128  2.9829
 3817SOL     OW22912   3.105   0.095   7.157 -0.1106 -0.9797 -0.0017
 3817SOL    HW122913   3.069   0.171   7.203  0.8520 -0.7918  0.4335
 3817SOL    HW222914   3.188   0.140   7.147  0.0719 -0.8386  2.1373
 3818SOL     OW22915   2.483   0.027   7.897 -0.3098  0.0979 -0.0768
 3818SOL    HW122916   2.506   0.077   7.819  3.4872  0.1431  1.1008
 3818SOL    HW222917   2.462   4.662   7.871 -1.1328  0.7142 -1.5850
 3819SOL     OW22918   0.822   2.798   5.531 -0.0006 -0.7135  0.6192
 3819SOL    HW122919   0.786   2.711   5.549  1.0161 -1.0418  1.0768
 3819SOL    HW222920   0.915   2.793   5.508 -0.0843 -1.5352  0.4433
 3820SOL     OW22921   2.464   4.256   5.094 -0.4020 -0.1421  0.3079
 3820SOL    HW122922   2.532   4.241   5.029 -1.5787 -2.2138 -0.4487
 3820SOL    HW222923   2.499   4.222   5.176 -0.7362 -1.4142 -0.0829
 3821SOL     OW22924   2.953   4.027   8.111 -0.5921 -0.2231  0.2951
 3821SOL    HW122925   2.971   4.111   8.067 -2.6132  1.5386  2.8430
 3821SOL    HW222926   3.041   4.000   8.139 -0.2844 -0.1227 -0.5699
 3822SOL     OW22927   4.427   3.684   8.448 -0.0432  0.6944  0.6692
 3822SOL    HW122928   4.511   3.683   8.495  1.1656  0.7113 -1.4943
 3822SOL    HW222929   4.401   3.776   8.455 -0.7577  0.7039 -1.9343
 3823SOL     OW22930   0.606   2.840   8.712 -0.0070 -0.3896  0.3134
 3823SOL    HW122931   0.552   2.919   8.724  1.5399  0.8455 -0.7643
 3823SOL    HW222932   0.554   2.778   8.762 -1.2897  0.8732  0.5523
 3824SOL     OW22933   1.403   0.600   0.774  0.5715  0.8577  0.0848
 3824SOL    HW122934   1.483   0.639   0.741  1.7964 -0.8901  0.9502
 3824SOL    HW222935   1.348   0.582   0.698  0.7601 -2.1064  0.6306
 3825SOL     OW22936   1.682   0.482   6.209  0.1321  0.7232  0.1790
 3825SOL    HW122937   1.684   0.474   6.304  0.3726  0.1480  0.1307
 3825SOL    HW222938   1.604   0.533   6.190 -0.0460  0.5076  0.3353
 3826SOL     OW22939   0.531   0.304  13.190  0.7292 -0.3467  0.5556
 3826SOL    HW122940   0.452   0.289  13.138  1.9099 -1.1227 -1.0097
 3826SOL    HW222941   0.511   0.371  13.255  1.5376  0.4252  0.0002
 3827SOL     OW22942   0.584   2.972   2.310  0.2326 -0.6070 -0.1422
 3827SOL    HW122943   0.650   2.999   2.246 -0.0483 -0.9026 -0.5553
 3827SOL    HW222944   0.648   2.961   2.381 -0.7927  1.1636  1.0447
 3828SOL     OW22945   2.423   2.705   1.757 -0.2690  0.4459 -0.3060
 3828SOL    HW122946   2.327   2.708   1.762 -0.1967  1.9035  0.1099
 3828SOL    HW222947   2.438   2.642   1.827 -0.4963 -2.0968 -2.5516
 3829SOL     OW22948   0.260   0.542  12.857  0.3383 -0.0970  0.2666
 3829SOL    HW122949   0.242   0.461  12.809  0.8740 -0.1579  0.1678
 3829SOL    HW222950   0.308   0.583  12.785 -0.3099  0.5071  0.1809
 3830SOL     OW22951   4.360   0.467   3.285  0.5430  0.2341  0.5469
 3830SOL    HW122952   4.356   0.421   3.201  1.1269 -2.0857  1.7957
 3830SOL    HW222953   4.332   0.555   3.256 -1.1580 -0.0491  1.2994
 3831SOL     OW22954   4.277   3.252   1.687  0.0271 -0.5823  0.2614
 3831SOL    HW122955   4.344   3.217   1.629  2.3206  3.3607  0.5726
 3831SOL    HW222956   4.212   3.183   1.670 -1.6581  1.4143 -1.5510
 3832SOL     OW22957   2.122   1.750   5.123 -0.6126  0.1742 -0.1294
 3832SOL    HW122958   2.048   1.756   5.183 -0.8149 -1.6379 -0.2020
 3832SOL    HW222959   2.130   1.841   5.096 -1.3434  0.2057 -0.2355
 3833SOL     OW22960   1.972   0.589   2.129  0.1857 -0.5203  0.5391
 3833SOL    HW122961   1.921   0.524   2.178  1.9252 -0.9536  1.7597
 3833SOL    HW222962   1.941   0.569   2.040 -1.1855  2.4350  0.3682
 3834SOL     OW22963   2.239   3.034   0.381 -0.1135  0.2050  0.6765
 3834SOL    HW122964   2.172   3.091   0.344 -0.7510 -1.7810 -1.1952
 3834SOL    HW222965   2.210   2.944   0.367  0.8635 -0.2487  1.6132
 3835SOL     OW22966   0.178   0.162   7.121  0.3779  0.0254 -0.3805
 3835SOL    HW122967   0.197   0.175   7.028 -2.9794  1.1819 -0.9288
 3835SOL    HW222968   0.094   0.209   7.124  0.2883 -0.1697  0.1644
 3836SOL     OW22969   3.816   0.823  11.688  0.4730  0.0451 -0.0202
 3836SOL    HW122970   3.832   0.868  11.771  1.1051  0.3388 -0.3055
 3836SOL    HW222971   3.873   0.865  11.625 -0.4210  1.2196 -0.0382
 3837SOL     OW22972   4.165   1.688  11.113 -0.1190 -0.0496  0.3735
 3837SOL    HW122973   4.210   1.739  11.181 -1.1980  0.3883  0.7778
 3837SOL    HW222974   4.145   1.762  11.055 -0.6042 -0.7931 -0.4019
 3838SOL     OW22975   4.696   4.700  12.225  0.0581  0.6743 -0.2640
 3838SOL    HW122976   4.669   4.693  12.317  2.3623  1.7878  0.5176
 3838SOL    HW222977   4.662   0.063  12.209 -1.1066  0.3030  0.2359
 3839SOL     OW22978   3.514   3.292   5.969 -0.4576  0.2704  0.6309
 3839SOL    HW122979   3.429   3.329   5.989 -0.3085  0.7412  0.4043
 3839SOL    HW222980   3.541   3.265   6.056 -0.4184  1.0825  0.8735
 3840SOL     OW22981   3.127   2.853   4.190 -0.0827 -0.2145 -0.2835
 3840SOL    HW122982   3.037   2.835   4.164 -0.5828  1.6355  0.1290
 3840SOL    HW222983   3.150   2.905   4.113  1.2608 -1.4490 -0.6984
 3841SOL     OW22984   2.032   4.329   2.609  0.0760 -0.3529  0.2440
 3841SOL    HW122985   2.094   4.398   2.634 -0.1822 -0.0581  0.0754
 3841SOL    HW222986   2.015   4.357   2.520 -0.2104 -1.2725  0.0096
 3842SOL     OW22987   3.049   0.454   8.160 -0.1278  0.0503 -0.4840
 3842SOL    HW122988   2.983   0.387   8.177  1.6946 -0.8545  3.0733
 3842SOL    HW222989   3.025   0.519   8.225  3.4836  1.6206 -0.6871
 3843SOL     OW22990   1.027   1.702  10.840  0.3846 -1.1985 -0.5769
 3843SOL    HW122991   1.073   1.629  10.881  1.6230 -0.2460 -0.2708
 3843SOL    HW222992   0.975   1.717  10.919  1.9242  0.4542  0.1373
 3844SOL     OW22993   1.538   2.461   2.886  0.0957  0.2226  0.0424
 3844SOL    HW122994   1.544   2.366   2.875 -2.3714  0.1062 -0.2552
 3844SOL    HW222995   1.616   2.466   2.941 -0.2693  1.1803  0.4854
 3845SOL     OW22996   2.962   4.013   4.683 -0.4463 -0.1895  0.1373
 3845SOL    HW122997   2.957   3.924   4.649  0.9142 -0.4993  0.7349
 3845SOL    HW222998   3.043   4.042   4.641 -1.4284  1.7923 -0.3703
 3846SOL     OW22999   2.730   1.229   2.064  0.8109  0.3256 -0.5496
 3846SOL    HW123000   2.722   1.223   1.969 -0.9957  2.0610 -0.5106
 3846SOL    HW223001   2.654   1.179   2.096  0.8544 -1.2942 -2.9873
 3847SOL     OW23002   3.130   2.582   6.592 -0.1725 -0.1392  0.0520
 3847SOL    HW123003   3.105   2.670   6.621 -1.4200 -0.9223  1.3675
 3847SOL    HW223004   3.184   2.555   6.666  1.2339 -0.1430 -0.9812
 3848SOL     OW23005   3.122   0.373   7.790 -0.0893 -0.0804 -0.1091
 3848SOL    HW123006   3.095   0.439   7.726 -1.6202 -0.5842  0.0164
 3848SOL    HW223007   3.217   0.375   7.779  0.1584  1.6111  2.3964
 3849SOL     OW23008   1.957   3.717   5.491  0.5061  0.1013  0.2451
 3849SOL    HW123009   1.902   3.650   5.531  1.4496  0.1254  1.5929
 3849SOL    HW223010   1.881   3.761   5.452 -2.0624 -1.9208  2.9270
 3850SOL     OW23011   2.455   4.394   4.504 -0.1828 -0.2359  0.0219
 3850SOL    HW123012   2.466   4.321   4.565 -4.3688  0.2411  1.3526
 3850SOL    HW223013   2.426   4.355   4.422  2.8417  1.2386 -1.7472
 3851SOL     OW23014   3.284   3.126   5.819  0.5201 -0.6481  0.0509
 3851SOL    HW123015   3.320   3.198   5.767 -4.0303  1.9324  0.5446
 3851SOL    HW223016   3.359   3.113   5.878  0.2635  0.9092  0.7073
 3852SOL     OW23017   1.970   1.603   4.892 -0.0952  0.2670 -0.7665
 3852SOL    HW123018   1.963   1.690   4.853 -0.2324  0.0973 -1.1108
 3852SOL    HW223019   2.016   1.619   4.975 -0.4076 -4.7466  0.3567
 3853SOL     OW23020   3.405   1.215  14.870 -0.6385  0.1681 -0.0725
 3853SOL    HW123021   3.460   1.171  14.936 -3.0437 -1.1351  1.0787
 3853SOL    HW223022   3.470   1.227  14.802  1.6351 -0.7726  1.9118
 3854SOL     OW23023   1.517   3.695   3.425  0.2318  0.2610  0.2764
 3854SOL    HW123024   1.453   3.744   3.372  0.7795  0.4810 -0.1776
 3854SOL    HW223025   1.541   3.620   3.371 -0.1255  0.0572  0.3981
 3855SOL     OW23026   0.955   0.974   0.148 -0.5821  0.2065 -0.2193
 3855SOL    HW123027   0.985   1.029   0.220 -0.5593  1.9718 -1.5551
 3855SOL    HW223028   0.870   1.012   0.126 -0.7815  0.1820  0.5149
 3856SOL     OW23029   0.352   2.977   2.899 -0.0322  0.6509  0.1938
 3856SOL    HW123030   0.352   2.971   2.804 -2.0987 -0.2779  0.2622
 3856SOL    HW223031   0.411   2.904   2.921 -0.6649  0.3788  0.9934
 3857SOL     OW23032   4.271   3.346   2.329  0.1018 -0.1525  0.1087
 3857SOL    HW123033   4.278   3.363   2.235 -0.6201 -0.3843  0.0107
 3857SOL    HW223034   4.358   3.309   2.347  0.4219  0.2925 -0.5339
 3858SOL     OW23035   4.372   0.362   5.188 -0.5320 -0.1149  0.4278
 3858SOL    HW123036   4.468   0.360   5.194 -0.4812 -0.5999 -0.4738
 3858SOL    HW223037   4.344   0.350   5.278  1.8497  3.1993  1.6025
 3859SOL     OW23038   0.320   0.960  11.416  0.0430 -0.0503  0.3060
 3859SOL    HW123039   0.385   0.891  11.429  0.1429 -0.1726 -0.8907
 3859SOL    HW223040   0.329   1.003  11.501 -2.1833  0.6435  0.2037
 3860SOL     OW23041   3.663   3.751   7.272 -0.3900 -0.0055  0.1102
 3860SOL    HW123042   3.585   3.696   7.278 -0.8413  0.4980 -1.1228
 3860SOL    HW223043   3.670   3.767   7.177 -1.7105  1.9914  0.3440
 3861SOL     OW23044   4.155   4.701   2.460 -0.6743 -0.6671 -0.3871
 3861SOL    HW123045   4.061   4.694   2.473 -0.8655  0.8883 -0.9226
 3861SOL    HW223046   4.183   4.645   2.388  0.4938 -0.1684 -0.3290
 3862SOL     OW23047   0.482   4.620   1.945  0.4929 -0.3913 -0.1694
 3862SOL    HW123048   0.470   4.658   2.033 -1.1054 -2.2376  0.4023
 3862SOL    HW223049   0.437   4.537   1.959  0.4898 -0.5532 -1.1332
 3863SOL     OW23050   1.251   4.348   6.622  0.1433 -0.2187 -0.1891
 3863SOL    HW123051   1.245   4.252   6.631 -2.2593 -0.1060 -0.5641
 3863SOL    HW223052   1.264   4.375   6.713 -1.2815 -0.1600  0.0023
 3864SOL     OW23053   2.802   1.962   0.655 -0.1643 -0.1894 -0.5964
 3864SOL    HW123054   2.723   2.007   0.626 -0.6763 -1.4825 -1.2056
 3864SOL    HW223055   2.872   2.026   0.648 -0.9548  0.6236 -1.0400
 3865SOL     OW23056   1.625   3.957   4.115 -0.3740  0.1543  0.5939
 3865SOL    HW123057   1.600   3.970   4.206  1.4558  1.4024  0.9196
 3865SOL    HW223058   1.551   3.974   4.057 -0.9065  2.3959  1.9626
 3866SOL     OW23059   1.074   4.006   3.756  0.5345 -0.4235  0.0636
 3866SOL    HW123060   1.107   3.945   3.822  1.5932 -0.5422 -0.5893
 3866SOL    HW223061   1.145   4.070   3.757  0.4215 -0.2863 -0.9060
 3867SOL     OW23062   4.319   2.313   8.402  0.0018  0.1048  0.1596
 3867SOL    HW123063   4.335   2.398   8.361 -0.0941  0.4625  0.8653
 3867SOL    HW223064   4.281   2.339   8.486  1.9934 -3.1044  2.0530
 3868SOL     OW23065   4.368   3.821   2.216  0.3791 -0.3580 -0.3973
 3868SOL    HW123066   4.424   3.837   2.291 -2.3211  1.4152  1.2599
 3868SOL    HW223067   4.422   3.759   2.169  0.3821 -0.5295 -0.1670
 3869SOL     OW23068   2.883   2.681   8.573  0.9059  0.1611 -0.3558
 3869SOL    HW123069   2.975   2.662   8.589  0.6490 -0.9726 -0.2470
 3869SOL    HW223070   2.849   2.657   8.659 -0.6476  2.8929 -0.2189
 3870SOL     OW23071   2.597   2.204   1.667 -0.1330 -0.0851  0.0709
 3870SOL    HW123072   2.600   2.229   1.760  2.9882 -0.4193  0.0788
 3870SOL    HW223073   2.527   2.139   1.671  0.0512 -0.2720  0.2436
 3871SOL     OW23074   1.525   1.594  16.190  0.5027 -0.2202 -0.0925
 3871SOL    HW123075   1.450   1.652  16.178 -0.3150 -1.4756 -0.9199
 3871SOL    HW223076   1.489   1.525  16.244 -1.6575  0.9051 -0.0903
 3872SOL     OW23077   3.715   2.441   6.314 -0.1751  0.4761  0.1507
 3872SOL    HW123078   3.661   2.363   6.328 -0.7961  0.7919 -0.4849
 3872SOL    HW223079   3.749   2.433   6.225 -1.9329 -1.7213 -0.3287
 3873SOL     OW23080   1.949   1.753  14.844  0.3136 -0.1597 -0.5356
 3873SOL    HW123081   2.045   1.758  14.839  0.2645  1.6975  0.5979
 3873SOL    HW223082   1.935   1.723  14.934  0.7754  1.8631  0.2109
 3874SOL     OW23083   1.665   1.877  16.408 -0.1208  0.0792 -0.3083
 3874SOL    HW123084   1.571   1.860  16.412 -0.0696  0.0301  0.9434
 3874SOL    HW223085   1.689   1.829  16.329 -0.4915  0.4739 -0.6548
 3875SOL     OW23086   3.988   2.916  14.322  0.4643  0.0737 -0.2816
 3875SOL    HW123087   3.908   2.886  14.280 -0.0717 -1.3591  1.7620
 3875SOL    HW223088   4.053   2.906  14.253  1.7274  0.4734  0.8474
 3876SOL     OW23089   2.536   2.113   7.584  0.1408 -0.3081  0.0818
 3876SOL    HW123090   2.541   2.085   7.675  1.4312  0.2732  0.1906
 3876SOL    HW223091   2.623   2.085   7.556  0.2370  0.3376 -0.2705
 3877SOL     OW23092   0.984   4.679   9.385 -0.1947 -0.7003  0.6689
 3877SOL    HW123093   0.890   4.687   9.400 -0.2461  0.5754 -0.3895
 3877SOL    HW223094   1.016   0.036   9.346 -2.0988 -0.4511 -0.3676
 3878SOL     OW23095   3.638   2.173   2.603 -0.1984  0.2807  0.0425
 3878SOL    HW123096   3.706   2.196   2.540  0.3488  1.1372  0.9431
 3878SOL    HW223097   3.679   2.192   2.688 -0.1635 -2.6442  0.6818
 3879SOL     OW23098   2.447   3.890   9.685  0.6261  0.1341  0.2332
 3879SOL    HW123099   2.367   3.910   9.734  0.4768 -1.3438  0.6001
 3879SOL    HW223100   2.446   3.974   9.640 -0.0806 -0.0784 -0.1488
 3880SOL     OW23101   2.322   2.729   5.349 -0.0031  0.6865 -0.2621
 3880SOL    HW123102   2.285   2.755   5.434  3.7159  1.2583  1.1890
 3880SOL    HW223103   2.405   2.777   5.351  0.2877  0.1730 -0.0629
 3881SOL     OW23104   0.798   2.296   3.727  0.0971  0.1397 -0.3705
 3881SOL    HW123105   0.845   2.356   3.784  0.2647 -0.9802  0.6719
 3881SOL    HW223106   0.752   2.242   3.791  1.1075 -0.7706 -0.4011
 3882SOL     OW23107   1.431   1.668   1.492  0.3249 -0.1275  0.3429
 3882SOL    HW123108   1.421   1.692   1.400  1.1651  0.9069  0.5182
 3882SOL    HW223109   1.449   1.574   1.483  0.6639  0.0202 -0.5849
 3883SOL     OW23110   4.477   4.113   1.847  0.0978 -0.3466 -0.3255
 3883SOL    HW123111   4.526   4.167   1.908  0.4973 -1.4268  0.3075
 3883SOL    HW223112   4.404   4.081   1.901 -0.8564  0.4656 -1.1313
 3884SOL     OW23113   1.287   3.470   5.731 -0.3203  0.0827 -0.1520
 3884SOL    HW123114   1.242   3.496   5.650  0.8914 -0.9015 -1.1549
 3884SOL    HW223115   1.366   3.429   5.696  0.3979  0.2490  1.3114
 3885SOL     OW23116   0.620   0.945   6.392 -0.0396 -0.6897  0.1977
 3885SOL    HW123117   0.535   0.963   6.432 -0.5808  1.7407 -2.0654
 3885SOL    HW223118   0.684   0.970   6.458  0.4718  0.1536 -0.6159
 3886SOL     OW23119   4.650   1.345   2.821  0.2697  0.3115 -0.0072
 3886SOL    HW123120   4.674   1.267   2.870 -0.6114 -0.1904 -0.3837
 3886SOL    HW223121   0.007   1.365   2.775 -1.2016  1.1614 -2.2078
 3887SOL     OW23122   1.719   3.921   0.521 -0.1433  0.3107 -0.4453
 3887SOL    HW123123   1.675   4.004   0.505 -0.1013  0.6081  0.9858
 3887SOL    HW223124   1.667   3.862   0.467  1.4406 -1.5066  0.0273
 3888SOL     OW23125   2.638   2.770   2.714 -0.5710 -0.6025 -0.4355
 3888SOL    HW123126   2.684   2.835   2.661  2.7743 -0.4505  2.6163
 3888SOL    HW223127   2.717   2.731   2.752 -2.1878 -2.0973  1.3773
 3889SOL     OW23128   1.917   2.810   5.460  0.5333 -0.1541 -0.4175
 3889SOL    HW123129   1.989   2.855   5.504  1.2344  0.4891 -2.2629
 3889SOL    HW223130   1.878   2.888   5.421 -0.1462 -1.6291 -2.6575
 3890SOL     OW23131   2.852   4.075   5.193 -0.1127  0.2381  0.1557
 3890SOL    HW123132   2.767   4.039   5.217 -0.3162  1.3482  1.0883
 3890SOL    HW223133   2.830   4.111   5.107  0.1584 -1.4403 -0.6087
 3891SOL     OW23134   3.198   3.934   3.035  0.1169  0.5777 -0.0791
 3891SOL    HW123135   3.231   3.972   3.117  2.8381 -0.4577 -0.6979
 3891SOL    HW223136   3.118   3.901   3.075  0.3117 -0.5268 -0.6222
 3892SOL     OW23137   3.355   4.158   7.735 -0.3175 -0.2098  0.0611
 3892SOL    HW123138   3.308   4.096   7.790 -1.4897  1.0047  0.4343
 3892SOL    HW223139   3.323   4.242   7.767  0.4254  0.4058 -0.8101
 3893SOL     OW23140   0.944   3.260   5.575  0.8133  0.0642 -0.3872
 3893SOL    HW123141   1.006   3.272   5.504  0.7612  0.5070 -0.3607
 3893SOL    HW223142   0.869   3.261   5.516  1.4832 -0.7822 -1.2514
 3894SOL     OW23143   1.967   1.736  15.576  0.2097 -0.1200  0.2389
 3894SOL    HW123144   1.937   1.679  15.647 -1.5630 -0.1779 -0.5682
 3894SOL    HW223145   2.040   1.779  15.621 -0.2591  1.0082 -0.0750
 3895SOL     OW23146   1.128   3.180   3.979 -0.9032 -0.8297 -0.2379
 3895SOL    HW123147   1.177   3.152   3.901  2.8463  1.3583  1.3427
 3895SOL    HW223148   1.161   3.270   3.981  1.9637 -1.8281 -1.8781
 3896SOL     OW23149   3.188   4.640   6.361 -0.4143  0.2590 -0.2647
 3896SOL    HW123150   3.250   4.631   6.434 -0.3806 -0.1265 -0.3425
 3896SOL    HW223151   3.104   4.627   6.406 -1.1192  0.0943 -1.6397
 3897SOL     OW23152   0.122   1.308   7.979  0.0458 -0.2630 -0.2288
 3897SOL    HW123153   0.089   1.221   7.960  0.2505 -0.1878 -0.9216
 3897SOL    HW223154   0.054   1.364   7.941 -0.3017  0.0270  0.8204
 3898SOL     OW23155   0.147   2.884  16.112 -0.6129  0.4162  0.2087
 3898SOL    HW123156   0.115   2.973  16.097 -0.8109  0.4549  0.8365
 3898SOL    HW223157   0.238   2.907  16.130 -0.5567 -0.1229  0.6188
 3899SOL     OW23158   3.036   1.340   3.721 -0.2469 -0.2608  0.0327
 3899SOL    HW123159   2.984   1.270   3.682 -2.6522  1.6976 -0.2419
 3899SOL    HW223160   2.967   1.396   3.755 -0.5122 -0.9525  0.6495
 3900SOL     OW23161   0.066   3.001   4.242 -0.0273 -0.5885  0.4588
 3900SOL    HW123162   0.068   2.911   4.211 -0.9282 -0.3927 -0.1569
 3900SOL    HW223163   0.042   2.995   4.334  2.3677  1.6426  1.2291
 3901SOL     OW23164   4.580   0.460  16.759  0.1325 -0.4316  0.1168
 3901SOL    HW123165   4.580   0.550  16.792  0.9032 -0.9368  1.5217
 3901SOL    HW223166   4.667   0.431  16.787  1.4832  1.3284 -2.2061
 3902SOL     OW23167   0.963   2.998   8.540 -0.0183 -0.1528  0.1125
 3902SOL    HW123168   0.908   2.928   8.505  0.0186  0.8297 -1.8947
 3902SOL    HW223169   1.002   2.948   8.612  0.5031  0.4543  0.2494
 3903SOL     OW23170   1.850   0.173   1.934  0.0747  0.1097 -0.2001
 3903SOL    HW123171   1.945   0.173   1.918  0.0218 -2.1085 -0.4137
 3903SOL    HW223172   1.839   0.217   2.019  1.0500  0.2275 -0.1363
 3904SOL     OW23173   2.621   4.301   3.294 -0.0576  0.4908  0.1271
 3904SOL    HW123174   2.665   4.303   3.208 -0.3422  3.5776  0.0806
 3904SOL    HW223175   2.593   4.209   3.292  1.0886  0.1417 -0.1237
 3905SOL     OW23176   0.830   4.179   2.449  0.1300 -0.3679  0.5251
 3905SOL    HW123177   0.859   4.110   2.389 -0.3981 -0.6742  0.6189
 3905SOL    HW223178   0.769   4.241   2.408 -2.8140 -3.1843  0.6626
 3906SOL     OW23179   1.743   1.337   3.818  0.0344  0.3692 -0.4874
 3906SOL    HW123180   1.808   1.401   3.788  0.4227 -1.3542 -3.2783
 3906SOL    HW223181   1.749   1.260   3.762 -0.2044 -0.3437  0.4567
 3907SOL     OW23182   0.331   3.780   0.449 -0.0954 -0.2142 -0.3943
 3907SOL    HW123183   0.375   3.834   0.514 -1.7621 -0.6274  1.0845
 3907SOL    HW223184   0.298   3.700   0.492 -0.0509  0.4316  0.8430
 3908SOL     OW23185   3.254   1.417   2.580  0.5426  0.4308 -0.5494
 3908SOL    HW123186   3.334   1.423   2.529 -0.0728 -1.6572 -1.7292
 3908SOL    HW223187   3.205   1.337   2.562 -0.0468  0.7597 -0.4092
 3909SOL     OW23188   3.734   1.462   0.608 -0.1925 -0.6080  0.3317
 3909SOL    HW123189   3.725   1.515   0.687 -2.5264 -0.2831 -0.1520
 3909SOL    HW223190   3.743   1.532   0.543 -0.0201 -1.6738 -0.8078
 3910SOL     OW23191   1.444   1.440   3.233  0.0091 -0.1644 -0.3121
 3910SOL    HW123192   1.495   1.520   3.243  0.7808 -0.4048 -2.4801
 3910SOL    HW223193   1.502   1.403   3.166  1.4919 -0.0821  0.9273
 3911SOL     OW23194   4.589   1.712  15.473  0.0425  0.1636  0.2491
 3911SOL    HW123195   4.639   1.636  15.444  0.7986 -0.1854  2.4916
 3911SOL    HW223196   4.595   1.701  15.568 -3.7883 -0.2207  0.4408
 3912SOL     OW23197   1.330   1.789   8.538  0.4084 -0.0293  0.1864
 3912SOL    HW123198   1.340   1.717   8.600  2.7339  1.2902  1.3575
 3912SOL    HW223199   1.266   1.750   8.478 -1.4033  3.3865 -0.1004
 3913SOL     OW23200   2.121   3.012   5.130  0.3731  0.5873 -0.4095
 3913SOL    HW123201   2.136   3.086   5.071  0.6216  1.4492  0.7510
 3913SOL    HW223202   2.041   2.974   5.092  0.2111  0.3394  0.1796
 3914SOL     OW23203   0.820   0.837   9.130  0.0432 -0.3343  0.0003
 3914SOL    HW123204   0.881   0.794   9.070  0.9442  0.8759  0.0684
 3914SOL    HW223205   0.887   0.869   9.189 -1.0235  0.6778  0.6525
 3915SOL     OW23206   2.916   0.516   6.089  0.2946 -0.1962  0.7088
 3915SOL    HW123207   2.995   0.462   6.095 -0.0024 -0.8574 -1.3213
 3915SOL    HW223208   2.876   0.472   6.014  2.2151  1.4144 -1.2442
 3916SOL     OW23209   3.084   1.613   2.074 -0.5584 -0.3918 -0.4069
 3916SOL    HW123210   3.070   1.707   2.067  2.5118  0.2102  1.2311
 3916SOL    HW223211   3.131   1.604   2.157 -0.8920  1.3881 -0.0461
 3917SOL     OW23212   3.143   2.113   4.064  0.0411 -0.0498 -0.2270
 3917SOL    HW123213   3.113   2.163   3.988  0.2475  0.9577  0.3484
 3917SOL    HW223214   3.236   2.125   4.050  0.6251 -2.2314  1.7368
 3918SOL     OW23215   3.432   3.651   5.788  0.0042  0.2857 -0.3125
 3918SOL    HW123216   3.481   3.733   5.795  0.8001 -0.4102  2.1238
 3918SOL    HW223217   3.492   3.604   5.730 -0.2891  0.8541 -1.0802
 3919SOL     OW23218   2.246   3.378   3.491 -0.0932  0.6062 -0.3101
 3919SOL    HW123219   2.310   3.307   3.486 -0.6720 -0.1722  3.5011
 3919SOL    HW223220   2.271   3.434   3.418  2.3334  1.0740  0.8921
 3920SOL     OW23221   3.099   0.044   5.805  0.8002 -0.7176  0.2863
 3920SOL    HW123222   3.036   0.096   5.755  1.1284 -1.2616 -0.6857
 3920SOL    HW223223   3.180   0.093   5.813 -0.6371  1.9522 -1.6362
 3921SOL     OW23224   3.805   2.340   5.177 -0.4730  0.0979  0.3910
 3921SOL    HW123225   3.714   2.345   5.148 -1.3602 -1.5247  2.8953
 3921SOL    HW223226   3.848   2.307   5.098  0.2528  0.9989  0.4036
 3922SOL     OW23227   3.561   2.754  12.670  0.1758 -0.3552  0.6570
 3922SOL    HW123228   3.540   2.815  12.599 -2.2178 -2.4828 -0.4367
 3922SOL    HW223229   3.473   2.748  12.709  0.5116  1.5124  1.7114
 3923SOL     OW23230   2.877   1.506   4.356 -0.0302 -0.3121 -0.2447
 3923SOL    HW123231   2.789   1.469   4.352  1.0810 -3.1965  1.7609
 3923SOL    HW223232   2.901   1.474   4.268  1.8402  1.7021 -0.4551
 3924SOL     OW23233   3.701   0.594   3.283 -0.5947  0.8654  0.5325
 3924SOL    HW123234   3.623   0.628   3.239  1.0017  3.3923 -0.3501
 3924SOL    HW223235   3.676   0.564   3.370  0.6819  0.1043  0.6326
 3925SOL     OW23236   1.926   1.871   3.246  0.2591  0.6246 -1.0512
 3925SOL    HW123237   2.007   1.890   3.294 -0.0536 -0.0442 -0.2472
 3925SOL    HW223238   1.875   1.949   3.269 -0.3765  0.0300 -0.4318
 3926SOL     OW23239   3.854   3.390   0.969 -0.1645  0.3931 -0.5704
 3926SOL    HW123240   3.772   3.417   1.009 -2.2412 -1.2888 -3.7071
 3926SOL    HW223241   3.916   3.457   0.998 -0.7093  1.5055 -1.9472
 3927SOL     OW23242   1.694   1.638  12.013 -0.3512  0.0907  0.1110
 3927SOL    HW123243   1.621   1.699  12.007 -1.0869 -1.0015 -2.1768
 3927SOL    HW223244   1.694   1.608  12.103  0.7815  0.6760  0.3133
 3928SOL     OW23245   2.962   1.452  14.823 -0.3462 -0.4657  0.0630
 3928SOL    HW123246   2.967   1.539  14.784 -1.5003 -0.2741  0.3269
 3928SOL    HW223247   3.054   1.431  14.840  0.1040 -0.5643 -2.5154
 3929SOL     OW23248   4.178   3.132   2.808 -0.0890 -0.3300 -0.2990
 3929SOL    HW123249   4.145   3.124   2.898 -0.4768 -0.8337 -0.4854
 3929SOL    HW223250   4.272   3.113   2.811  0.5242  2.7557  0.1577
 3930SOL     OW23251   1.099   3.534   6.479 -0.1918 -0.1785  0.6773
 3930SOL    HW123252   1.081   3.585   6.400 -0.8140 -0.0596  0.8958
 3930SOL    HW223253   1.016   3.487   6.490 -0.8309  0.7431 -0.2177
 3931SOL     OW23254   2.417   2.527   6.174 -0.3014  0.2884 -0.0491
 3931SOL    HW123255   2.500   2.495   6.138  0.9984  3.3909  0.2191
 3931SOL    HW223256   2.425   2.617   6.143  2.0604  0.5916  1.4181
 3932SOL     OW23257   1.256   1.466  16.064 -0.1096  0.2085 -0.1581
 3932SOL    HW123258   1.217   1.410  16.131 -0.6939  0.9235  0.0950
 3932SOL    HW223259   1.307   1.401  16.015  1.3857 -1.0373  3.0260
 3933SOL     OW23260   2.164   3.844  11.825  0.3760  0.6290 -0.3471
 3933SOL    HW123261   2.202   3.926  11.792 -1.7097  2.1507  1.0159
 3933SOL    HW223262   2.104   3.822  11.755  2.1359  0.3297 -1.7533
 3934SOL     OW23263   1.781   1.651   6.469  0.3384  0.1673  0.3630
 3934SOL    HW123264   1.748   1.615   6.386 -0.1241 -0.6994  0.9280
 3934SOL    HW223265   1.716   1.713   6.502 -0.5445 -0.3641 -0.3807
 3935SOL     OW23266   1.770   3.846   9.807  0.3158 -0.9121  0.2398
 3935SOL    HW123267   1.817   3.899   9.871 -0.1592  1.9785 -1.8303
 3935SOL    HW223268   1.836   3.782   9.779 -1.2665 -2.4034 -0.0659
 3936SOL     OW23269   1.082   2.650   6.218  0.3960 -1.1887 -0.2816
 3936SOL    HW123270   1.152   2.586   6.235  2.4659  1.0905 -0.3092
 3936SOL    HW223271   1.011   2.596   6.183  1.1421 -3.0416  1.0178
 3937SOL     OW23272   4.299   1.560   4.130 -0.2005  0.3859  0.4514
 3937SOL    HW123273   4.283   1.504   4.055 -2.0882  1.8815 -0.2656
 3937SOL    HW223274   4.389   1.536   4.152 -1.1020 -1.4711  2.1082
 3938SOL     OW23275   2.545   3.558   6.286 -0.5851 -0.4887 -0.0979
 3938SOL    HW123276   2.470   3.499   6.296 -0.7638 -0.1484  0.6071
 3938SOL    HW223277   2.527   3.617   6.360  1.0183 -1.6559  1.2170
 3939SOL     OW23278   0.256   1.261  15.113 -0.5188 -0.2985 -0.5841
 3939SOL    HW123279   0.249   1.166  15.103  0.2142 -0.2461 -1.5223
 3939SOL    HW223280   0.303   1.289  15.035 -0.7164  2.3600  0.2280
 3940SOL     OW23281   1.399   0.711   3.598 -0.4890 -0.3980  0.4039
 3940SOL    HW123282   1.460   0.757   3.655  0.5450 -2.3721  0.8968
 3940SOL    HW223283   1.355   0.649   3.657 -0.6286 -0.8657 -0.1903
 3941SOL     OW23284   2.911   1.352   2.240 -0.0862 -0.2083  0.9958
 3941SOL    HW123285   2.851   1.298   2.189  0.8538 -1.5507  1.3023
 3941SOL    HW223286   2.849   1.417   2.273  0.5736  0.9908 -0.1569
 3942SOL     OW23287   0.450   4.599  13.988 -0.2620  0.1648  0.3059
 3942SOL    HW123288   0.378   4.661  13.978 -1.4348 -1.2250  0.0313
 3942SOL    HW223289   0.512   4.630  13.922 -1.9493  0.5322 -1.1029
 3943SOL     OW23290   0.870   0.390   8.540 -0.0904 -0.9231 -0.3237
 3943SOL    HW123291   0.868   0.485   8.529 -3.1604 -1.1505 -1.6292
 3943SOL    HW223292   0.854   0.360   8.451 -0.1054 -1.7042 -0.0639
 3944SOL     OW23293   0.111   4.465   9.366 -0.7228 -0.2145 -0.4551
 3944SOL    HW123294   0.088   4.558   9.361 -0.0260  0.1352  2.6332
 3944SOL    HW223295   0.032   4.433   9.411 -0.1943 -1.7618 -0.6313
 3945SOL     OW23296   1.530   3.731   9.186  0.5967 -0.0112 -0.3411
 3945SOL    HW123297   1.552   3.824   9.190 -0.4624  0.2034  0.4679
 3945SOL    HW223298   1.499   3.731   9.096 -0.6311  2.5193  0.0729
 3946SOL     OW23299   0.245   2.462   6.843  0.8785  0.2763  0.2044
 3946SOL    HW123300   0.260   2.402   6.916  1.3859 -2.3596 -2.0522
 3946SOL    HW223301   0.240   2.404   6.767  0.3055  1.0264 -0.3252
 3947SOL     OW23302   3.785   3.419   8.019 -0.2600 -0.2805  0.0902
 3947SOL    HW123303   3.854   3.462   8.070  0.2908  1.3336 -1.9971
 3947SOL    HW223304   3.746   3.488   7.965  0.9810 -0.2967 -0.8276
 3948SOL     OW23305   2.023   4.131   9.668 -0.4146  1.0892 -0.0831
 3948SOL    HW123306   2.077   4.057   9.696  0.5268  1.5336 -0.7248
 3948SOL    HW223307   2.090   4.179   9.619  1.3302 -0.8184  0.4263
 3949SOL     OW23308   1.442   3.379  16.830  0.2437 -0.1522 -0.0367
 3949SOL    HW123309   1.363   3.378  16.884  0.5607  2.0465  0.4739
 3949SOL    HW223310   1.478   3.463  16.858  1.5427  0.1619 -2.6216
 3950SOL     OW23311   1.355   3.578   6.567 -0.1930 -0.1659 -0.5108
 3950SOL    HW123312   1.412   3.549   6.495 -1.0834 -1.9385 -0.4986
 3950SOL    HW223313   1.267   3.583   6.529  0.1493  0.3663 -1.2498
 3951SOL     OW23314   0.609   2.129   8.175 -0.1638  0.3683  0.1926
 3951SOL    HW123315   0.582   2.141   8.084 -3.0155  0.7553  1.0984
 3951SOL    HW223316   0.533   2.166   8.218 -0.0551  2.0258 -1.0373
 3952SOL     OW23317   1.357   0.598   8.269  0.5092  0.0860 -0.2487
 3952SOL    HW123318   1.408   0.620   8.347  0.1393  0.5188 -0.1344
 3952SOL    HW223319   1.268   0.612   8.300 -0.1003 -1.5677 -1.2322
 3953SOL     OW23320   2.603   4.010  15.616  0.1135 -0.2118  0.1452
 3953SOL    HW123321   2.674   3.952  15.644  0.2666 -0.2572 -0.3303
 3953SOL    HW223322   2.571   4.028  15.704 -1.4432  1.2137 -0.7157
 3954SOL     OW23323   0.843   1.564   1.434  0.2039  0.7346 -0.6615
 3954SOL    HW123324   0.815   1.516   1.512  2.0245  2.5427  1.1075
 3954SOL    HW223325   0.815   1.648   1.471  2.1545  0.5340  1.2710
 3955SOL     OW23326   2.621   4.028   2.795  0.4829  0.2007  0.3416
 3955SOL    HW123327   2.615   3.933   2.783  1.8615  0.2201 -0.4710
 3955SOL    HW223328   2.640   4.050   2.704  0.5491 -0.1239  0.2761
 3956SOL     OW23329   3.945   2.683  13.718  0.0296 -0.1095  0.3260
 3956SOL    HW123330   3.855   2.712  13.735 -0.6053 -1.5706 -0.4956
 3956SOL    HW223331   3.964   2.629  13.795  1.4714 -0.8947 -0.5784
 3957SOL     OW23332   0.765   4.358   7.296  0.1919 -0.3664 -0.4021
 3957SOL    HW123333   0.809   4.305   7.363  0.1190 -1.5239 -1.2826
 3957SOL    HW223334   0.706   4.292   7.260 -1.1417 -0.0185  1.1178
 3958SOL     OW23335   0.949   0.936  17.368 -0.1835 -0.2138  0.3499
 3958SOL    HW123336   0.863   0.970  17.390  0.7753  0.5680  2.9455
 3958SOL    HW223337   0.999   0.972  17.442  0.5505  0.4883 -0.4931
 3959SOL     OW23338   1.693   3.796  13.096 -0.9521 -0.1537  0.4025
 3959SOL    HW123339   1.753   3.787  13.023 -1.2465  1.4028 -0.0232
 3959SOL    HW223340   1.676   3.890  13.094  0.6918  0.1213 -0.4932
 3960SOL     OW23341   1.786   2.272   3.405  0.4159 -0.4115  0.6370
 3960SOL    HW123342   1.855   2.330   3.372 -0.1990 -1.1993 -1.9652
 3960SOL    HW223343   1.846   2.216   3.456  1.8329 -0.1727 -0.7782
 3961SOL     OW23344   4.294   0.245   6.318 -0.2682 -0.1698  0.2709
 3961SOL    HW123345   4.381   0.206   6.329 -0.1081  0.3559  0.8528
 3961SOL    HW223346   4.271   0.257   6.410 -0.9183  2.5190 -0.2424
 3962SOL     OW23347   3.481   3.085   6.870 -0.5804 -0.0365 -0.1466
 3962SOL    HW123348   3.457   2.993   6.887 -1.8683  0.2272 -0.5600
 3962SOL    HW223349   3.406   3.138   6.845 -1.5825  0.3759  3.6282
 3963SOL     OW23350   3.219   3.860   3.997  0.0496  0.2860  0.0491
 3963SOL    HW123351   3.137   3.889   4.038  0.8269 -0.1913  1.9485
 3963SOL    HW223352   3.272   3.939   3.986 -1.3332  1.0935 -0.8906
 3964SOL     OW23353   2.040   1.284   5.838 -0.1899  0.4041 -0.1322
 3964SOL    HW123354   1.947   1.300   5.822 -0.2125 -2.3150 -2.5412
 3964SOL    HW223355   2.037   1.245   5.926 -1.5056  0.8018 -0.0012
 3965SOL     OW23356   0.543   4.091   2.054  0.7860 -0.6910  0.0390
 3965SOL    HW123357   0.575   4.059   2.139 -0.1231  0.7386  0.9183
 3965SOL    HW223358   0.545   4.016   1.995  0.2471 -0.7426  0.0841
 3966SOL     OW23359   3.080   3.371   3.091 -0.5346  0.1624  0.3173
 3966SOL    HW123360   3.000   3.404   3.051 -0.2746  1.8260  1.1493
 3966SOL    HW223361   3.065   3.280   3.067 -1.8415  0.0987  1.3526
 3967SOL     OW23362   2.643   4.463   2.217 -0.0705  0.1884  0.2727
 3967SOL    HW123363   2.553   4.447   2.246  0.3596  2.3172  2.8332
 3967SOL    HW223364   2.653   4.403   2.144 -0.3840  0.5451 -0.0592
 3968SOL     OW23365   3.696   2.238   8.303  0.5278 -0.1046 -0.1862
 3968SOL    HW123366   3.696   2.334   8.302  1.9989 -0.1032 -0.7617
 3968SOL    HW223367   3.694   2.226   8.208 -1.3580  3.8347 -0.6536
 3969SOL     OW23368   4.429   1.007   5.984 -0.4622  0.5825 -0.2661
 3969SOL    HW123369   4.356   0.990   6.043  1.0858 -0.9772  1.2184
 3969SOL    HW223370   4.495   0.946   6.017 -2.6746 -0.8551  1.5243
 3970SOL     OW23371   2.068   3.124   2.711  0.3721 -0.1730 -0.5162
 3970SOL    HW123372   2.125   3.194   2.742 -1.2289  1.1592 -0.5760
 3970SOL    HW223373   2.128   3.088   2.645 -1.1334 -2.6975 -0.5023
 3971SOL     OW23374   2.269   3.246   0.076  0.1173  0.1572 -0.2254
 3971SOL    HW123375   2.275   3.280  17.686  0.4292  0.1893 -0.1907
 3971SOL    HW223376   2.215   3.308   0.126  1.2757 -0.8126  2.2691
 3972SOL     OW23377   4.096   3.460  13.912 -0.1712 -0.0112 -0.0904
 3972SOL    HW123378   4.112   3.366  13.901  0.3462  0.2965 -1.9093
 3972SOL    HW223379   4.059   3.473  14.000  0.8280 -0.8025  0.4455
 3973SOL     OW23380   2.661   3.833   2.513 -0.2702 -0.3809  0.1692
 3973SOL    HW123381   2.710   3.772   2.458 -0.9150 -0.5879 -0.1691
 3973SOL    HW223382   2.573   3.826   2.476  0.0234  3.3988 -1.2094
 3974SOL     OW23383   0.529   3.950   7.490 -0.2970 -0.3361  0.0852
 3974SOL    HW123384   0.473   4.024   7.468  3.0771  1.7934 -1.2806
 3974SOL    HW223385   0.543   3.971   7.582 -0.0944  1.1656 -0.2956
 3975SOL     OW23386   0.370   3.275   8.828  0.4604 -0.0618 -0.2654
 3975SOL    HW123387   0.367   3.310   8.739  0.7882 -0.1391 -0.3049
 3975SOL    HW223388   0.336   3.355   8.869  1.3996  0.3882 -0.3742
 3976SOL     OW23389   2.085   3.455  11.576 -0.1727 -0.0490 -0.1748
 3976SOL    HW123390   2.093   3.362  11.593  1.4001  0.1343  0.0905
 3976SOL    HW223391   2.158   3.468  11.515 -1.7329 -1.1996 -2.2718
 3977SOL     OW23392   0.310   0.679   7.096 -0.1345  0.0891  0.0989
 3977SOL    HW123393   0.295   0.726   7.013 -1.0122  1.0248  0.7903
 3977SOL    HW223394   0.405   0.670   7.097 -0.4443 -3.0721  0.1492
 3978SOL     OW23395   3.275   0.789  10.205  0.0560  0.7755 -0.6299
 3978SOL    HW123396   3.239   0.854  10.265 -0.9349  0.8209 -1.2815
 3978SOL    HW223397   3.190   0.775  10.163  0.8114  2.1183 -2.6097
 3979SOL     OW23398   2.018   0.531  13.403 -0.0944  0.3928  0.5681
 3979SOL    HW123399   2.003   0.608  13.457  0.5417  0.5672  0.4963
 3979SOL    HW223400   1.925   0.508  13.395  0.0780  0.1007 -0.6377
 3980SOL     OW23401   3.604   3.486   2.650  0.0935  0.4882  0.7897
 3980SOL    HW123402   3.627   3.579   2.659  0.0056  0.5457  0.4002
 3980SOL    HW223403   3.511   3.486   2.672  0.4462 -0.5190  2.2850
 3981SOL     OW23404   2.583   4.661  12.557  0.1153  0.4184  0.3860
 3981SOL    HW123405   2.582   4.620  12.643 -0.0606  0.3137  0.3341
 3981SOL    HW223406   2.614   0.024  12.583  0.5965  0.0461  1.0512
 3982SOL     OW23407   4.423   2.509   5.009 -0.7246 -0.2484  0.8090
 3982SOL    HW123408   4.501   2.456   4.992 -0.7967 -0.6965  1.8611
 3982SOL    HW223409   4.347   2.452   5.001  1.1169 -2.6361  0.6130
 3983SOL     OW23410   2.156   4.689   9.277 -1.2743  0.0041 -0.1490
 3983SOL    HW123411   2.150   4.602   9.236 -3.1561  0.1252 -0.1451
 3983SOL    HW223412   2.208   0.008   9.209  0.7751 -0.6093  1.0276
 3984SOL     OW23413   0.080   0.731   7.244 -0.1768  0.1422 -0.1716
 3984SOL    HW123414   0.156   0.698   7.198  0.7712  1.4603  0.4620
 3984SOL    HW223415   0.099   0.822   7.220  0.4136 -0.7015 -2.8537
 3985SOL     OW23416   2.877   2.456   3.123  0.3712 -0.0545  0.0635
 3985SOL    HW123417   2.902   2.388   3.060  0.1595 -0.1174  0.0468
 3985SOL    HW223418   2.946   2.521   3.112  0.0456  0.3291  0.2649
 3986SOL     OW23419   4.464   0.950  11.156 -0.2990 -0.0767 -0.0137
 3986SOL    HW123420   4.508   0.890  11.216 -0.5429 -0.1871  0.0552
 3986SOL    HW223421   4.483   1.027  11.209 -3.5430  0.8426 -0.2015
 3987SOL     OW23422   3.726   0.494   8.490 -0.3400 -0.1621  0.0706
 3987SOL    HW123423   3.693   0.567   8.438  0.3361  0.9417  1.1760
 3987SOL    HW223424   3.674   0.420   8.460  2.4547 -2.0894 -0.0039
 3988SOL     OW23425   0.765   2.807   5.270 -0.4663  0.2792 -0.5677
 3988SOL    HW123426   0.815   2.888   5.256  0.3791 -0.0918  0.2987
 3988SOL    HW223427   0.751   2.814   5.364  1.3223 -1.6624 -0.1602
 3989SOL     OW23428   0.274   3.985   6.586  0.1093  0.5677 -0.1412
 3989SOL    HW123429   0.325   3.985   6.505 -0.2532  0.1071 -0.3650
 3989SOL    HW223430   0.230   3.901   6.596 -0.3023  0.7305 -0.5932
 3990SOL     OW23431   0.872   1.358   8.285 -0.0766  0.2422  0.3568
 3990SOL    HW123432   0.820   1.286   8.321 -0.1251  0.8874  1.5884
 3990SOL    HW223433   0.860   1.349   8.191 -0.9767  3.7943  0.1526
 3991SOL     OW23434   2.826   4.331   0.963 -0.7705 -0.8480  0.2027
 3991SOL    HW123435   2.773   4.408   0.945 -0.1935 -1.0387 -2.3837
 3991SOL    HW223436   2.816   4.324   1.058  0.9758 -0.0657  0.4519
 3992SOL     OW23437   1.824   1.589   1.882 -0.1156  0.1283  0.1499
 3992SOL    HW123438   1.899   1.600   1.824 -0.9369 -2.8165 -1.4488
 3992SOL    HW223439   1.815   1.494   1.882 -1.6094  0.2844 -0.6993
 3993SOL     OW23440   1.126   0.167   2.908 -0.3677  0.9079 -0.1251
 3993SOL    HW123441   1.077   0.127   2.979 -0.7156  0.4217 -0.6337
 3993SOL    HW223442   1.121   0.260   2.928 -0.2147  1.1404 -1.1824
 3994SOL     OW23443   0.903   4.572   7.244 -0.1170  0.0186  0.4487
 3994SOL    HW123444   0.961   4.551   7.317 -1.5274  1.5296  2.0089
 3994SOL    HW223445   0.841   4.499   7.240  0.1474 -0.2423  1.2155
 3995SOL     OW23446   4.347   1.862  17.212 -0.1225  0.1733  0.6387
 3995SOL    HW123447   4.364   1.781  17.164  3.8516  0.2485  1.8871
 3995SOL    HW223448   4.429   1.872  17.261  0.9918  0.2897 -1.2705
 3996SOL     OW23449   1.651   4.600   4.850  0.4927  0.7546 -0.0120
 3996SOL    HW123450   1.608   4.628   4.931  0.2974 -0.4019  0.2858
 3996SOL    HW223451   1.634   4.679   4.799  0.5981  1.8894  1.7053
 3997SOL     OW23452   4.662   2.878   3.181  0.2413 -0.5645 -0.2045
 3997SOL    HW123453   4.640   2.838   3.098  0.2812  0.4711 -0.7226
 3997SOL    HW223454   0.015   2.930   3.157 -2.8805  4.5822  0.7825
 3998SOL     OW23455   0.368   4.688   8.382 -0.2046  0.2373 -0.3767
 3998SOL    HW123456   0.309   0.036   8.363  1.1577  1.0575 -1.4598
 3998SOL    HW223457   0.361   4.627   8.309 -1.0522  0.7479 -0.7268
 3999SOL     OW23458   0.923   1.258  11.310  0.0614  0.2969 -0.7024
 3999SOL    HW123459   0.984   1.205  11.361  0.3732  2.6114  1.3711
 3999SOL    HW223460   0.841   1.221  11.342  0.3438 -0.4974 -0.9060
 4000SOL     OW23461   4.084   2.754   3.630  0.0059 -0.5379  0.1109
 4000SOL    HW123462   4.057   2.769   3.540  4.4823  0.4788 -1.0447
 4000SOL    HW223463   3.995   2.765   3.665  0.2185 -0.0336  0.5042
 4001SOL     OW23464   2.342   2.212   7.934 -0.6581  0.5160 -0.9785
 4001SOL    HW123465   2.398   2.274   7.981 -0.1249  1.0267 -2.2702
 4001SOL    HW223466   2.295   2.168   8.004 -2.0565  0.1092 -2.1610
 4002SOL     OW23467   0.345   0.503   7.569  0.4305 -0.1481 -0.3329
 4002SOL    HW123468   0.342   0.408   7.578  1.2238 -0.2830 -1.4839
 4002SOL    HW223469   0.431   0.515   7.530  1.2911 -2.6146  0.8505
 4003SOL     OW23470   1.528   4.641   6.762  0.0603 -0.3187  0.2308
 4003SOL    HW123471   1.445   4.687   6.747  0.6237  0.9631  1.0614
 4003SOL    HW223472   1.533   4.628   6.856  0.1966  0.4144  0.3303
 4004SOL     OW23473   4.362   0.863  15.018  0.1956 -0.1174 -0.5235
 4004SOL    HW123474   4.390   0.955  15.013  1.9132 -0.5713  0.7892
 4004SOL    HW223475   4.421   0.832  15.087  1.0982  0.0635 -1.2071
 4005SOL     OW23476   1.298   2.187   3.238  0.9855  0.1878 -0.5719
 4005SOL    HW123477   1.278   2.206   3.329  2.9393  1.6279 -0.4403
 4005SOL    HW223478   1.369   2.249   3.224  0.4566  1.3428  1.9734
 4006SOL     OW23479   2.127   4.372   6.461 -0.1358 -0.5933 -0.4330
 4006SOL    HW123480   2.210   4.419   6.452 -0.2879  0.2148  2.2865
 4006SOL    HW223481   2.158   4.283   6.446  2.2126  0.2071 -0.3879
 4007SOL     OW23482   3.022   0.349   2.843  0.1591  0.3875 -0.4088
 4007SOL    HW123483   3.080   0.303   2.904  1.1485  0.8742 -0.9682
 4007SOL    HW223484   2.998   0.419   2.903  0.8253  0.7972 -0.6211
 4008SOL     OW23485   4.199   3.435   3.425 -0.0011  0.0922  0.7338
 4008SOL    HW123486   4.148   3.398   3.353 -0.0761  0.4338  0.6102
 4008SOL    HW223487   4.237   3.353   3.454 -2.3969 -1.2310  0.1757
 4009SOL     OW23488   0.184   1.534   6.296  0.2556 -0.6181  0.1423
 4009SOL    HW123489   0.138   1.466   6.247  0.1501 -0.8526  0.5664
 4009SOL    HW223490   0.147   1.612   6.254 -0.8096 -0.5522  1.2174
 4010SOL     OW23491   3.780   1.955  15.280 -0.0536 -0.0371  0.0785
 4010SOL    HW123492   3.855   1.957  15.339 -0.4590  1.4263  0.5480
 4010SOL    HW223493   3.822   1.932  15.197  0.2369  0.7485  0.0041
 4011SOL     OW23494   3.765   2.150   4.621 -0.1367  0.2778 -0.1080
 4011SOL    HW123495   3.791   2.104   4.542 -0.3784 -0.8804  0.4791
 4011SOL    HW223496   3.839   2.150   4.681 -0.1788  0.9241 -0.0620
 4012SOL     OW23497   0.370   3.780  12.666  0.0838 -0.6133 -0.3896
 4012SOL    HW123498   0.418   3.863  12.672  2.2775 -1.8458 -1.1174
 4012SOL    HW223499   0.413   3.723  12.730 -0.4064 -0.7524 -0.1835
 4013SOL     OW23500   4.509   4.339   8.091 -0.4409  0.3190  0.0279
 4013SOL    HW123501   4.510   4.434   8.078 -0.7308  0.3783  0.4553
 4013SOL    HW223502   4.571   4.308   8.025 -2.5529  1.3961 -2.4685
 4014SOL     OW23503   2.415   0.650   8.283 -0.0867 -0.1172  0.3663
 4014SOL    HW123504   2.348   0.685   8.226  1.0905 -0.6983 -1.3746
 4014SOL    HW223505   2.440   0.734   8.322 -2.8472  0.2948  1.2084
 4015SOL     OW23506   3.968   1.519  16.504  0.0573 -0.0584 -0.1384
 4015SOL    HW123507   3.988   1.428  16.525  4.6897  0.9627  0.0282
 4015SOL    HW223508   3.988   1.547  16.593 -1.3863 -1.9780  0.7794
 4016SOL     OW23509   3.491   0.563   0.740 -0.3382  0.1606  0.1298
 4016SOL    HW123510   3.485   0.658   0.741  0.7418  0.2158  1.5119
 4016SOL    HW223511   3.585   0.555   0.753 -0.6184  1.3318  2.9123
 4017SOL     OW23512   0.825   0.766   8.764  0.1777 -0.7318  0.0616
 4017SOL    HW123513   0.872   0.750   8.846  0.8821  0.4220 -0.1279
 4017SOL    HW223514   0.757   0.832   8.772  0.0653 -0.9400  0.8292
 4018SOL     OW23515   4.071   3.778   6.284  0.0055  0.1949 -0.4356
 4018SOL    HW123516   4.141   3.832   6.319  2.0348 -2.3340 -0.6023
 4018SOL    HW223517   4.075   3.695   6.332 -2.1520 -0.3925 -1.2321
 4019SOL     OW23518   0.414   1.436   3.122 -0.0871  0.3849  0.5898
 4019SOL    HW123519   0.361   1.433   3.043 -0.3953 -1.0281  0.8405
 4019SOL    HW223520   0.483   1.501   3.107  0.2129  0.1540  0.9528
 4020SOL     OW23521   4.633   2.711   6.493 -0.5683  0.0031  0.7376
 4020SOL    HW123522   4.677   2.682   6.573 -1.6694  0.3142  1.4552
 4020SOL    HW223523   4.651   2.805   6.488 -0.0093 -0.1706 -0.5777
 4021SOL     OW23524   3.434   2.981  11.503  0.4040 -0.7396 -1.0848
 4021SOL    HW123525   3.529   2.977  11.510  0.2238 -0.7297  1.2319
 4021SOL    HW223526   3.424   3.039  11.427 -0.1627 -2.3510 -2.2327
 4022SOL     OW23527   3.011   4.412   2.009 -0.2225 -0.0168 -0.0097
 4022SOL    HW123528   2.986   4.368   2.090 -0.8835 -0.1484 -0.2823
 4022SOL    HW223529   3.082   4.354   1.981 -0.1190  0.0704  0.0755
 4023SOL     OW23530   3.317   3.437   4.289 -0.2310  0.2715 -0.3431
 4023SOL    HW123531   3.320   3.528   4.259  0.9615 -0.5604 -2.7482
 4023SOL    HW223532   3.287   3.449   4.379  0.5954  1.4805 -0.2292
 4024SOL     OW23533   4.177   2.056  11.044 -0.0223 -0.1618  0.0160
 4024SOL    HW123534   4.256   2.057  11.098 -1.3647  1.3856  1.9448
 4024SOL    HW223535   4.212   2.018  10.963 -0.3529  2.2657 -1.2879
 4025SOL     OW23536   4.051   1.556   5.234 -0.0049 -0.3572  0.1762
 4025SOL    HW123537   4.030   1.467   5.207  1.8831 -0.7992  0.1478
 4025SOL    HW223538   4.056   1.603   5.151 -2.1395 -1.4116 -0.5382
 4026SOL     OW23539   1.037   1.866   1.018 -0.2659  0.0206  0.1061
 4026SOL    HW123540   1.118   1.902   1.056 -1.2796 -0.4410  2.6984
 4026SOL    HW223541   1.066   1.775   1.027  0.0919  0.2599  1.4519
 4027SOL     OW23542   1.426   4.160   5.699 -0.4256  0.4335  0.6588
 4027SOL    HW123543   1.512   4.137   5.663 -0.2907 -1.3946  2.1304
 4027SOL    HW223544   1.421   4.102   5.775  2.1345  0.1404  0.6079
 4028SOL     OW23545   4.677   1.822   8.279 -0.3290 -0.0190  0.0697
 4028SOL    HW123546   0.017   1.849   8.214 -0.1938  2.0145  1.0359
 4028SOL    HW223547   4.679   1.890   8.346 -0.7317  0.8583 -0.8221
 4029SOL     OW23548   3.287   1.986   2.196  0.4215  0.0461 -0.4929
 4029SOL    HW123549   3.339   1.906   2.205  0.1262 -0.1630 -0.6559
 4029SOL    HW223550   3.357   2.046   2.171  0.6480 -0.7924 -1.8911
 4030SOL     OW23551   3.870   1.520   4.480  0.2590  0.2754 -0.0774
 4030SOL    HW123552   3.812   1.568   4.540 -1.4217 -1.5000 -0.2873
 4030SOL    HW223553   3.831   1.433   4.484  0.1714  0.3702  1.0543
 4031SOL     OW23554   2.530   4.614   4.919  0.0921 -0.2797 -0.7295
 4031SOL    HW123555   2.556   4.522   4.918  2.4305  0.3822  0.2202
 4031SOL    HW223556   2.592   4.645   4.984  0.9246 -3.8230  0.1630
 4032SOL     OW23557   2.325   0.435   8.434  0.0856 -0.5068  0.4574
 4032SOL    HW123558   2.241   0.454   8.394  0.2666  2.1851  1.3790
 4032SOL    HW223559   2.377   0.499   8.385 -2.2605  0.4616 -0.7405
 4033SOL     OW23560   4.620   0.507   6.299 -0.1698  0.2293 -0.5867
 4033SOL    HW123561   4.633   0.514   6.204 -0.0758  0.0930 -0.5839
 4033SOL    HW223562   4.707   0.505   6.339 -1.1614  1.4006  1.6050
 4034SOL     OW23563   3.460   0.577  10.367  0.1326 -0.1977  0.0763
 4034SOL    HW123564   3.485   0.626  10.445  2.0874 -0.9151 -0.0855
 4034SOL    HW223565   3.492   0.644  10.307  0.1042 -0.7786 -0.5983
 4035SOL     OW23566   2.604   4.054   6.813 -0.1244  0.2498 -0.7866
 4035SOL    HW123567   2.542   4.113   6.769  0.8451  1.2867 -0.7757
 4035SOL    HW223568   2.646   4.117   6.872  0.3410 -1.2072  0.4161
 4036SOL     OW23569   1.466   2.118   8.526 -0.0328 -0.0813 -0.1933
 4036SOL    HW123570   1.439   2.160   8.444 -0.0941 -0.8395 -0.5616
 4036SOL    HW223571   1.381   2.114   8.571  0.6345 -1.6767  0.9149
 4037SOL     OW23572   1.577   3.073  12.269  0.3627  0.1838 -0.3003
 4037SOL    HW123573   1.512   3.137  12.241  2.3474  2.5928  0.6182
 4037SOL    HW223574   1.625   3.118  12.339 -1.9307  0.4998  1.0738
 4038SOL     OW23575   1.388   0.994   8.249 -0.6657 -0.0186 -0.2495
 4038SOL    HW123576   1.390   0.928   8.179 -1.9188  0.1648 -0.4602
 4038SOL    HW223577   1.465   0.967   8.300 -0.2974  0.4463 -0.5547
 4039SOL     OW23578   3.419   4.130   4.629  0.0449  0.1866  0.1896
 4039SOL    HW123579   3.461   4.131   4.543  0.6322 -2.1443  0.4443
 4039SOL    HW223580   3.502   4.144   4.676  1.2201 -1.5276 -1.3796
 4040SOL     OW23581   0.619   1.218  14.260 -0.4357  0.1547  0.8982
 4040SOL    HW123582   0.571   1.230  14.342 -0.8229  1.0177  0.5426
 4040SOL    HW223583   0.676   1.295  14.262 -0.0865 -0.0971  0.5571
 4041SOL     OW23584   2.709   1.401   3.601 -0.5108 -0.2273  0.0633
 4041SOL    HW123585   2.763   1.347   3.545 -2.5208 -0.9640 -1.1862
 4041SOL    HW223586   2.668   1.452   3.531  1.3629  0.9066 -0.2112
 4042SOL     OW23587   4.217   2.929  17.204  0.3235  0.2006  0.2506
 4042SOL    HW123588   4.312   2.936  17.211  0.3076  0.5522  0.1389
 4042SOL    HW223589   4.202   2.891  17.290  0.8855 -0.0392  0.2369
 4043SOL     OW23590   1.375   1.636   2.178  0.1348  0.5134  0.2226
 4043SOL    HW123591   1.444   1.696   2.150  1.9208 -1.3816  0.5800
 4043SOL    HW223592   1.363   1.584   2.098 -0.6426  0.3695  0.4364
 4044SOL     OW23593   1.897   4.520   4.813  0.2500 -0.4178  1.1073
 4044SOL    HW123594   1.884   4.541   4.720  0.7052  3.1857  1.8647
 4044SOL    HW223595   1.818   4.566   4.841 -1.4001 -1.4291 -1.8221
 4045SOL     OW23596   0.443   0.603  14.649  0.0070 -0.1669 -0.2030
 4045SOL    HW123597   0.506   0.624  14.579  1.2290 -0.4458  0.8177
 4045SOL    HW223598   0.487   0.635  14.727 -1.7452  0.1088  0.6612
 4046SOL     OW23599   3.049   0.640   6.545  0.0583 -0.0057  0.2191
 4046SOL    HW123600   3.095   0.653   6.628  1.4739  1.8883 -0.8707
 4046SOL    HW223601   3.016   0.551   6.551  0.1305  0.0325  1.1906
 4047SOL     OW23602   1.683   2.038   4.254  0.8676  0.3062  0.0100
 4047SOL    HW123603   1.673   2.122   4.299  2.5066  0.7847 -0.5104
 4047SOL    HW223604   1.738   1.986   4.312 -0.0294 -1.4900 -0.7520
 4048SOL     OW23605   4.045   4.221  13.213 -0.0486 -0.1007  0.5820
 4048SOL    HW123606   4.109   4.151  13.224  0.9517  0.8420  0.7901
 4048SOL    HW223607   4.057   4.243  13.121 -0.8542  1.7384  0.9113
 4049SOL     OW23608   3.244   3.991   7.922  0.0463  0.3470 -0.5328
 4049SOL    HW123609   3.156   3.953   7.916  0.0965  0.4392 -1.7110
 4049SOL    HW223610   3.301   3.937   7.977 -2.6499 -1.0686  0.8791
 4050SOL     OW23611   4.333   0.603  12.257 -0.2956  0.1804  0.0472
 4050SOL    HW123612   4.393   0.648  12.198 -0.6935 -0.2704 -0.7115
 4050SOL    HW223613   4.391   0.583  12.330 -1.7309  0.6414  1.3183
 4051SOL     OW23614   3.766   3.832   8.934  0.4161 -0.4934 -0.4030
 4051SOL    HW123615   3.817   3.911   8.950 -0.5454 -0.4311  2.4136
 4051SOL    HW223616   3.756   3.797   9.023 -0.5272 -0.3084 -0.4407
 4052SOL     OW23617   3.061   2.140  10.777  0.5671  0.2992  0.5052
 4052SOL    HW123618   3.151   2.109  10.782  0.3440 -0.6029 -0.9052
 4052SOL    HW223619   3.028   2.102  10.858  1.2467 -1.6375 -0.1350
 4053SOL     OW23620   3.177   4.631   6.666  0.0069  0.0727 -0.5036
 4053SOL    HW123621   3.111   4.659   6.729 -0.1797  0.2866 -0.7977
 4053SOL    HW223622   3.252   4.626   6.726  1.3822  1.4129 -2.1294
 4054SOL     OW23623   3.883   0.019  13.262 -0.4192 -0.0330  0.1181
 4054SOL    HW123624   3.922   0.004  13.348  1.3209 -0.3385 -0.7187
 4054SOL    HW223625   3.914   0.108  13.245  1.6015 -0.9701 -1.0235
 4055SOL     OW23626   0.206   2.393   7.871 -0.4004  0.1273 -1.1642
 4055SOL    HW123627   0.229   2.486   7.882  0.0465 -0.2249  0.8986
 4055SOL    HW223628   0.211   2.398   7.776  0.4870 -1.0192 -1.1764
 4056SOL     OW23629   3.394   3.215  16.278  0.2084  0.3112  0.5705
 4056SOL    HW123630   3.364   3.284  16.337  1.1168  0.1644  1.2075
 4056SOL    HW223631   3.328   3.211  16.209  1.0908 -0.1199 -0.2554
 4057SOL     OW23632   4.158   1.211  14.888 -0.0774 -0.2058 -0.3787
 4057SOL    HW123633   4.156   1.295  14.842 -1.1474 -0.2730 -0.4477
 4057SOL    HW223634   4.069   1.203  14.923 -1.3997 -1.8625 -4.1759
 4058SOL     OW23635   0.928   3.627  14.097  0.8999 -0.1790  0.3310
 4058SOL    HW123636   0.981   3.550  14.119  2.2225  0.4162 -0.8386
 4058SOL    HW223637   0.990   3.676  14.043  0.8577 -0.2211  0.2445
 4059SOL     OW23638   1.599   0.473   4.171 -0.0039  0.2390  0.2762
 4059SOL    HW123639   1.635   0.506   4.253 -1.3443  1.3880  0.4075
 4059SOL    HW223640   1.664   0.495   4.104 -1.3629  1.1478 -0.7440
 4060SOL     OW23641   4.642   3.819   1.482  0.2843  0.3025  0.3575
 4060SOL    HW123642   4.636   3.903   1.435 -0.4380  0.3522  0.5277
 4060SOL    HW223643   4.584   3.766   1.427  1.7621 -0.8503 -0.0666
 4061SOL     OW23644   1.655   0.286  12.202  0.2978 -0.4299 -0.8391
 4061SOL    HW123645   1.693   0.223  12.140  1.2395 -1.6398  0.9607
 4061SOL    HW223646   1.616   0.351  12.145 -0.2184  1.9387  2.2265
 4062SOL     OW23647   1.958   4.285   3.710  0.4246  0.5419  0.2594
 4062SOL    HW123648   1.933   4.310   3.799  0.3998  0.6237  0.2286
 4062SOL    HW223649   2.049   4.314   3.713  0.1105  1.3734  1.4220
 4063SOL     OW23650   3.494   4.256  13.499 -0.3655 -0.1372 -0.0996
 4063SOL    HW123651   3.518   4.325  13.561 -0.8393 -0.1797  0.1338
 4063SOL    HW223652   3.441   4.304  13.436  2.2577  3.7300  0.6855
 4064SOL     OW23653   1.105   0.185   1.729  0.0724 -0.1904 -0.0975
 4064SOL    HW123654   1.026   0.237   1.716  0.3441 -0.5796 -3.2258
 4064SOL    HW223655   1.124   0.148   1.643  0.3090  2.1192 -1.0333
 4065SOL     OW23656   0.788   0.095   5.729 -0.3572  0.3898 -0.2917
 4065SOL    HW123657   0.727   0.051   5.669 -0.3838 -0.4791  0.3626
 4065SOL    HW223658   0.781   0.057   5.817 -0.4715 -1.3461 -1.0443
 4066SOL     OW23659   0.926   0.442   1.293  0.4086 -0.0499  0.4566
 4066SOL    HW123660   0.938   0.485   1.377 -0.0339 -0.1664  0.5754
 4066SOL    HW223661   0.993   0.373   1.298  1.4340  0.9882  1.0226
 4067SOL     OW23662   3.664   2.299   8.008  0.3017  0.4244 -0.7713
 4067SOL    HW123663   3.741   2.270   7.959 -0.2543  0.4832 -1.6853
 4067SOL    HW223664   3.590   2.267   7.956  0.1296 -0.2828 -0.1003
 4068SOL     OW23665   1.182   0.497   0.931 -0.4502  0.3600  0.1700
 4068SOL    HW123666   1.262   0.449   0.952 -0.1013  0.1588 -1.6845
 4068SOL    HW223667   1.156   0.445   0.855 -1.6490  2.3124 -0.7497
 4069SOL     OW23668   1.831   3.604   5.163  0.4102 -0.3629 -0.2479
 4069SOL    HW123669   1.746   3.648   5.166  0.5394  0.1419 -3.6462
 4069SOL    HW223670   1.854   3.583   5.253  3.2068  1.9943 -0.3907
 4070SOL     OW23671   2.171   2.731   9.289 -0.5362 -0.4043 -0.0407
 4070SOL    HW123672   2.203   2.673   9.358  1.3820 -0.4194 -0.9239
 4070SOL    HW223673   2.251   2.778   9.264 -1.6286  0.5644 -1.7252
 4071SOL     OW23674   0.624   0.449   4.676 -0.7633 -0.1972  0.1963
 4071SOL    HW123675   0.640   0.402   4.594  0.7106  1.8111 -0.6770
 4071SOL    HW223676   0.632   0.541   4.650 -1.8353 -0.4502 -1.0076
 4072SOL     OW23677   1.686   0.210  17.443  0.3117 -0.2107  0.2767
 4072SOL    HW123678   1.744   0.135  17.454 -1.8182 -1.6263  1.8815
 4072SOL    HW223679   1.704   0.268  17.517 -1.1979  2.1612 -1.1878
 4073SOL     OW23680   3.832   2.629   0.832  0.6408  0.4602  0.0113
 4073SOL    HW123681   3.755   2.602   0.783 -0.2330  0.8798  1.1694
 4073SOL    HW223682   3.797   2.708   0.873  2.0612  0.5129  1.1399
 4074SOL     OW23683   0.253   4.368  14.584 -0.3988 -0.0070  0.0702
 4074SOL    HW123684   0.340   4.331  14.601 -0.1812  0.1513 -0.6876
 4074SOL    HW223685   0.279   4.456  14.614 -0.8848  0.3429 -0.5532
 4075SOL     OW23686   3.117   0.700   4.071 -1.0044 -0.4935  0.5662
 4075SOL    HW123687   3.149   0.791   4.071 -0.8476 -0.5269 -1.5820
 4075SOL    HW223688   3.049   0.698   4.004 -2.1316  2.6795  1.6068
 4076SOL     OW23689   2.311   2.859   7.841  0.2622  0.4928 -0.5373
 4076SOL    HW123690   2.239   2.796   7.840  1.1712 -0.5533 -0.5524
 4076SOL    HW223691   2.316   2.871   7.936 -0.3030 -1.4507 -0.2528
 4077SOL     OW23692   0.608   2.170   3.888 -0.1504 -0.1928 -0.9292
 4077SOL    HW123693   0.543   2.204   3.950  0.8967  0.3567 -0.1240
 4077SOL    HW223694   0.550   2.139   3.819  0.6987  0.9453 -2.1613
 4078SOL     OW23695   0.744   3.965  16.176 -0.3091  0.3980 -0.1717
 4078SOL    HW123696   0.831   3.939  16.204 -0.0003  0.1052 -1.4140
 4078SOL    HW223697   0.765   4.022  16.103 -0.9189  2.6297  1.4019
 4079SOL     OW23698   3.153   2.980  16.068 -0.2935 -0.5723 -0.3390
 4079SOL    HW123699   3.129   2.950  16.156 -0.2324 -1.3184 -0.5734
 4079SOL    HW223700   3.126   2.913  16.005 -0.5967  0.3865 -1.2292
 4080SOL     OW23701   0.131   0.796  10.354 -0.3355 -0.2896  0.0656
 4080SOL    HW123702   0.075   0.734  10.306 -1.5388  2.2416 -1.7558
 4080SOL    HW223703   0.208   0.770  10.303 -0.4355 -0.8906  0.2143
 4081SOL     OW23704   3.331   4.567  11.859 -0.2097 -0.1792  0.0687
 4081SOL    HW123705   3.344   4.622  11.782  4.6805 -1.8034 -0.2716
 4081SOL    HW223706   3.424   4.550  11.874 -0.3274  0.0749  1.1214
 4082SOL     OW23707   3.434   0.677   4.972  0.2115  0.2449 -0.2427
 4082SOL    HW123708   3.454   0.762   5.011 -2.6445  0.6511  0.2829
 4082SOL    HW223709   3.363   0.667   5.034  1.0174 -1.0294  0.4794
 4083SOL     OW23710   0.050   0.080   5.669  0.1118  0.0980  0.3378
 4083SOL    HW123711   0.144   0.078   5.647  0.1679 -2.6120  0.8341
 4083SOL    HW223712   0.038   4.711   5.685 -1.3353  0.1698 -0.3786
 4084SOL     OW23713   3.119   4.080   2.791 -0.0786  0.0894  0.5031
 4084SOL    HW123714   3.094   4.006   2.737 -0.0828  0.7610 -0.4308
 4084SOL    HW223715   3.151   4.046   2.874  0.3845 -1.4286 -0.3091
 4085SOL     OW23716   2.258   1.109   3.810  0.4511  0.0141  0.2725
 4085SOL    HW123717   2.188   1.173   3.799  1.8888  1.4000 -0.8558
 4085SOL    HW223718   2.192   1.041   3.827 -1.8788  1.8561 -1.4217
 4086SOL     OW23719   3.606   0.004   6.644 -0.1267 -0.3568 -0.3912
 4086SOL    HW123720   3.532   0.005   6.583 -0.8286  1.3280  0.5048
 4086SOL    HW223721   3.630   0.095   6.629 -3.2148  0.6079  0.5108
 4087SOL     OW23722   2.860   2.136   3.553  0.0581  0.1089  0.8668
 4087SOL    HW123723   2.831   2.077   3.483 -0.3005  1.3217 -0.0026
 4087SOL    HW223724   2.906   2.205   3.506 -2.8319  1.3537 -0.1478
 4088SOL     OW23725   3.741   0.207   7.342  0.7059 -0.0188  0.4192
 4088SOL    HW123726   3.694   0.131   7.376  0.4420  1.3738  3.1807
 4088SOL    HW223727   3.751   0.259   7.422 -1.5409 -2.1033  2.0729
 4089SOL     OW23728   1.941   4.626   0.830 -0.5323 -0.5593 -0.8385
 4089SOL    HW123729   1.867   4.601   0.884  0.5582  0.4443  1.1310
 4089SOL    HW223730   2.009   4.641   0.896 -1.7232  0.8201  0.0550
 4090SOL     OW23731   3.930   1.435  10.394  0.2134 -0.3164  0.0057
 4090SOL    HW123732   3.948   1.466  10.483 -2.2643 -0.1464  0.4581
 4090SOL    HW223733   4.001   1.479  10.348 -1.8189  1.6214 -1.3049
 4091SOL     OW23734   4.643   0.325  15.415 -0.0336 -0.1249  0.2078
 4091SOL    HW123735   4.711   0.311  15.350 -0.2076 -1.3175  0.2908
 4091SOL    HW223736   4.649   0.237  15.451 -0.3832 -0.6002 -0.9126
 4092SOL     OW23737   0.897   4.371  11.233  0.1481  0.3235 -0.2855
 4092SOL    HW123738   0.862   4.369  11.322  0.5218 -1.5075 -0.1760
 4092SOL    HW223739   0.915   4.278  11.218  0.9179  0.8191 -2.5201
 4093SOL     OW23740   3.492   2.150   3.981  0.2171  0.2168 -0.4552
 4093SOL    HW123741   3.511   2.083   3.916  0.2926  0.0902 -0.3029
 4093SOL    HW223742   3.528   2.106   4.058 -1.6585  1.1384  0.9686
 4094SOL     OW23743   0.012   4.655   3.489  0.1193  0.0059 -0.1993
 4094SOL    HW123744   0.037   0.019   3.465  0.0282  0.6062  1.9275
 4094SOL    HW223745   4.691   4.626   3.410  2.6477  0.1355 -1.7225
 4095SOL     OW23746   2.483   0.367   0.766 -0.0503 -0.1252 -0.0174
 4095SOL    HW123747   2.520   0.446   0.725 -1.5222 -0.5240 -2.1121
 4095SOL    HW223748   2.531   0.295   0.725  1.6007  0.4936  0.8087
 4096SOL     OW23749   2.820   1.864  10.324  0.2050 -0.1800  0.4541
 4096SOL    HW123750   2.903   1.822  10.345 -0.7993 -3.5702 -2.4493
 4096SOL    HW223751   2.840   1.872  10.231  2.1728 -2.0568  0.7257
 4097SOL     OW23752   2.670   0.742  13.956 -0.3578 -0.4987  0.1795
 4097SOL    HW123753   2.761   0.754  13.983 -0.9917  2.6946  0.8112
 4097SOL    HW223754   2.672   0.815  13.894 -0.2913 -0.4191  0.2761
 4098SOL     OW23755   4.292   3.801  17.387  0.2729 -0.6643  0.3183
 4098SOL    HW123756   4.290   3.768  17.297 -1.6513  2.5025 -0.7949
 4098SOL    HW223757   4.374   3.850  17.378  1.1155 -1.9177  1.2090
 4099SOL     OW23758   2.293   0.968  12.743  0.2433 -0.1063 -0.1911
 4099SOL    HW123759   2.374   0.971  12.693 -0.2546 -2.2536 -1.0898
 4099SOL    HW223760   2.329   0.991  12.829  0.2612  1.2017 -0.5404
 4100SOL     OW23761   4.444   3.702   3.149  0.0683 -0.1440  0.3105
 4100SOL    HW123762   4.522   3.690   3.202  1.0583 -0.9731 -1.3112
 4100SOL    HW223763   4.384   3.709   3.223 -1.0937 -1.1208 -0.5409
 4101SOL     OW23764   0.160   0.254   3.639  0.3678  0.0033  0.1784
 4101SOL    HW123765   0.179   0.348   3.643  0.5049 -0.0809  1.3970
 4101SOL    HW223766   0.167   0.226   3.548 -2.9531  1.0565 -0.4047
 4102SOL     OW23767   0.689   2.996   6.943  0.0790 -0.3063 -0.0969
 4102SOL    HW123768   0.604   3.039   6.938 -0.6173 -1.5334  1.4073
 4102SOL    HW223769   0.709   2.979   6.851  0.4261  1.3536 -0.3315
 4103SOL     OW23770   0.066   3.341   2.634  0.1707 -0.3167  0.4173
 4103SOL    HW123771   0.139   3.280   2.640  0.4954 -0.0366 -0.8338
 4103SOL    HW223772   0.024   3.297   2.561  1.9836 -0.7076 -0.3815
 4104SOL     OW23773   4.240   3.280   8.107 -0.5791  0.0797 -0.1145
 4104SOL    HW123774   4.183   3.299   8.033  0.4468 -0.3672 -1.0064
 4104SOL    HW223775   4.178   3.235   8.165 -1.0196 -1.6102 -1.9103
 4105SOL     OW23776   1.240   0.492   3.703 -0.3411 -0.6338  0.0086
 4105SOL    HW123777   1.209   0.434   3.772 -0.3022  0.0527  0.5997
 4105SOL    HW223778   1.156   0.522   3.668  0.6888  1.2205 -0.8625
 4106SOL     OW23779   0.963   1.284   1.390  0.2741  0.8070  0.7529
 4106SOL    HW123780   0.877   1.243   1.389  0.3826  0.5574  1.3612
 4106SOL    HW223781   0.938   1.376   1.381 -1.1201  0.1735 -1.6307
 4107SOL     OW23782   1.917   0.486   5.871  0.2227  0.3377 -0.1187
 4107SOL    HW123783   1.824   0.488   5.847 -0.1203 -1.5190  1.0358
 4107SOL    HW223784   1.932   0.559   5.931 -2.4255  1.5175 -0.8626
 4108SOL     OW23785   3.378   2.483   9.919  0.4847  0.7454 -0.0643
 4108SOL    HW123786   3.352   2.391   9.922  0.9826  0.5947 -0.3929
 4108SOL    HW223787   3.452   2.484   9.858 -0.2567  1.0168 -0.9668
 4109SOL     OW23788   1.110   0.667  12.648 -0.1095 -0.2607 -0.0175
 4109SOL    HW123789   1.053   0.714  12.709  0.0367  1.6725 -1.4042
 4109SOL    HW223790   1.195   0.662  12.691 -0.5157  0.2986  0.8580
 4110SOL     OW23791   2.824   2.630   2.149 -0.2457 -0.2406  0.4496
 4110SOL    HW123792   2.827   2.687   2.226  1.3115  0.9581 -0.5105
 4110SOL    HW223793   2.758   2.670   2.092 -1.8510 -1.9540  1.0965
 4111SOL     OW23794   4.264   2.425  16.804 -0.3217 -0.0842 -0.3683
 4111SOL    HW123795   4.342   2.402  16.752 -0.6592 -0.3236 -0.7718
 4111SOL    HW223796   4.194   2.435  16.740 -0.2651  0.9440 -0.2631
 4112SOL     OW23797   1.930   4.395   8.816  0.3121 -0.1781  0.8109
 4112SOL    HW123798   1.846   4.349   8.819 -0.2703  0.9571  1.7137
 4112SOL    HW223799   1.901   4.484   8.796 -1.7165 -0.7218  1.3018
 4113SOL     OW23800   3.752   3.047  14.897  0.3475  0.3076  0.3169
 4113SOL    HW123801   3.728   3.078  14.810 -2.0541  0.6752  1.1251
 4113SOL    HW223802   3.739   3.123  14.953 -1.7280  0.7050 -0.7240
 4114SOL     OW23803   0.678   0.388  14.790  0.2375 -0.4798 -0.0854
 4114SOL    HW123804   0.736   0.398  14.715  0.4277 -0.1022  0.1116
 4114SOL    HW223805   0.626   0.468  14.793 -1.1840 -1.4796  2.1293
 4115SOL     OW23806   2.005   1.972   4.576  0.8489 -0.0988  0.3246
 4115SOL    HW123807   2.021   2.060   4.611  1.8334  0.4982 -1.6137
 4115SOL    HW223808   2.076   1.962   4.513  0.7009  0.3782  0.0776
 4116SOL     OW23809   2.079   0.840   9.671  0.4019  0.1517  0.4897
 4116SOL    HW123810   2.074   0.930   9.640  1.3428  0.4381  1.1684
 4116SOL    HW223811   1.994   0.804   9.644  1.0900 -0.6962 -0.5320
 4117SOL     OW23812   2.382   4.655   1.342  0.3561  0.3468  0.5267
 4117SOL    HW123813   2.454   4.630   1.399  0.4156  0.5223  0.5287
 4117SOL    HW223814   2.312   4.633   1.404 -0.0693  2.1823  0.7090
 4118SOL     OW23815   1.324   3.098  10.980 -0.0059  0.2855 -0.0427
 4118SOL    HW123816   1.235   3.119  10.953  0.0624 -1.6376 -1.7486
 4118SOL    HW223817   1.335   3.007  10.953 -0.1830  0.1662  0.2827
 4119SOL     OW23818   3.264   0.805   2.587  0.0012  0.1207  0.8748
 4119SOL    HW123819   3.169   0.790   2.579  0.0533  0.3187 -0.0940
 4119SOL    HW223820   3.273   0.890   2.544 -1.0104  0.9861  2.3564
 4120SOL     OW23821   4.665   0.136   5.445  0.1578  0.0513  0.2279
 4120SOL    HW123822   4.701   0.105   5.528  0.3721  1.3006  0.6023
 4120SOL    HW223823   0.019   0.131   5.391  0.2103 -1.6203  0.4794
 4121SOL     OW23824   4.686   4.153   2.507  0.0887 -0.2438 -0.1277
 4121SOL    HW123825   4.717   4.100   2.433  0.1215 -0.2592 -0.1030
 4121SOL    HW223826   0.025   4.224   2.500 -0.7285  0.2305 -2.6660
 4122SOL     OW23827   3.192   3.982   6.099 -0.1154  0.0716 -0.2204
 4122SOL    HW123828   3.196   4.071   6.064 -1.4850  0.7389  1.2929
 4122SOL    HW223829   3.232   4.007   6.182  0.8859  0.0931 -0.7158
 4123SOL     OW23830   4.498   0.855   5.447 -0.1485  0.3985  0.0423
 4123SOL    HW123831   4.493   0.830   5.355  1.1462  2.1327 -0.4904
 4123SOL    HW223832   4.449   0.778   5.478  0.9876 -1.2161 -2.1892
 4124SOL     OW23833   3.299   2.380  10.973  0.0652  0.2846 -0.0183
 4124SOL    HW123834   3.367   2.363  10.907 -2.2575 -1.4533 -1.9513
 4124SOL    HW223835   3.352   2.401  11.050  0.6883  4.1490 -1.5339
 4125SOL     OW23836   3.168   1.210  14.272 -0.1411 -0.1217 -0.0930
 4125SOL    HW123837   3.144   1.297  14.239  1.4239 -1.3102 -4.3528
 4125SOL    HW223838   3.261   1.224  14.290 -0.0624  0.3302 -0.8294
 4126SOL     OW23839   0.209   3.444   2.356  0.0662  0.0699  0.4700
 4126SOL    HW123840   0.243   3.385   2.289  1.3261 -2.1783  3.0707
 4126SOL    HW223841   0.116   3.419   2.358  0.4484 -1.3815 -0.2298
 4127SOL     OW23842   3.792   0.957   2.614  0.5792 -0.7013 -0.3816
 4127SOL    HW123843   3.808   0.995   2.701 -0.1356 -1.9700  0.3002
 4127SOL    HW223844   3.705   0.919   2.625  0.4019 -0.1596  0.1086
 4128SOL     OW23845   3.022   2.155   5.965  0.0770  0.2807 -0.2647
 4128SOL    HW123846   2.944   2.100   5.969 -0.3383  0.8398 -0.7742
 4128SOL    HW223847   3.095   2.102   5.997 -0.7984 -0.1247  1.0623
 4129SOL     OW23848   3.927   0.317  11.312 -0.2096  0.0181  0.4033
 4129SOL    HW123849   4.002   0.369  11.342 -0.7164  0.0189  1.6878
 4129SOL    HW223850   3.976   0.247  11.267  3.3744  0.8849  2.9065
 4130SOL     OW23851   2.122   1.866  17.107  0.2227 -0.2315 -0.0051
 4130SOL    HW123852   2.049   1.926  17.122  1.4046  1.5176 -1.1892
 4130SOL    HW223853   2.133   1.886  17.014  0.3452 -2.7446 -0.5264
 4131SOL     OW23854   3.767   3.706   7.017 -0.8384  0.2766  0.5053
 4131SOL    HW123855   3.780   3.794   6.981 -1.2596  0.1507  0.0313
 4131SOL    HW223856   3.702   3.679   6.952 -2.0223 -1.4522  2.4100
 4132SOL     OW23857   4.299   2.393   2.448 -0.5582  0.1646  0.0389
 4132SOL    HW123858   4.275   2.322   2.508 -1.9193  2.6855  2.4549
 4132SOL    HW223859   4.387   2.417   2.477  1.0908 -3.8822 -1.5444
 4133SOL     OW23860   4.082   2.468  16.561  0.2930  0.2796  0.0146
 4133SOL    HW123861   4.131   2.535  16.513 -1.1670  1.1829 -0.2164
 4133SOL    HW223862   4.008   2.452  16.503 -0.3466 -0.9994  1.1636
 4134SOL     OW23863   3.240   3.543   0.247  0.5693  0.1698  0.2669
 4134SOL    HW123864   3.290   3.588   0.315  1.7720  1.7051 -1.6438
 4134SOL    HW223865   3.273   3.453   0.251  0.0786 -0.0127  0.2377
 4135SOL     OW23866   0.305   2.722   5.362 -0.1295  0.0178  0.3260
 4135SOL    HW123867   0.264   2.809   5.364  0.4497  0.2860  0.7223
 4135SOL    HW223868   0.228   2.675   5.331 -0.6503  0.6883  0.5978
 4136SOL     OW23869   4.534   3.105   5.067  0.5306 -0.2837 -0.2175
 4136SOL    HW123870   4.531   3.065   4.980 -1.9281 -1.1032  0.2369
 4136SOL    HW223871   4.444   3.092   5.098  1.7938 -1.3515  2.9988
 4137SOL     OW23872   4.156   2.045   1.414 -0.5031  0.0560  0.3599
 4137SOL    HW123873   4.154   2.118   1.475 -0.7293 -0.1746  0.6280
 4137SOL    HW223874   4.170   2.096   1.334 -2.3253  0.5543  0.3563
 4138SOL     OW23875   2.224   3.054  16.099  0.0395 -0.0954  0.0297
 4138SOL    HW123876   2.133   3.034  16.080  0.0695  0.4232 -0.6671
 4138SOL    HW223877   2.262   3.027  16.015  0.4053 -0.1937  0.2248
 4139SOL     OW23878   3.320   4.052  16.092 -0.6506 -0.5092  0.2295
 4139SOL    HW123879   3.241   4.033  16.144 -0.0079  1.5357  1.9371
 4139SOL    HW223880   3.348   3.963  16.068  1.9401  0.4326 -0.2259
 4140SOL     OW23881   0.590   1.624   1.010 -0.6375 -0.3961 -0.2608
 4140SOL    HW123882   0.650   1.641   1.084  0.6065 -2.8506 -0.6883
 4140SOL    HW223883   0.537   1.549   1.039 -1.5010  0.3574  0.1038
 4141SOL     OW23884   2.624   4.510   0.939 -0.3813  0.3706 -1.0805
 4141SOL    HW123885   2.558   4.516   0.870 -0.2595 -0.7613 -1.2868
 4141SOL    HW223886   2.580   4.449   0.998  0.2991 -0.1538 -1.1222
 4142SOL     OW23887   0.399   0.511   1.491  0.0998 -0.4609 -0.4405
 4142SOL    HW123888   0.327   0.531   1.550  2.2984  1.4376  1.6050
 4142SOL    HW223889   0.349   0.518   1.410  0.5532  0.9517 -0.5891
 4143SOL     OW23890   4.634   3.905   0.668  0.0695 -0.2909 -0.0973
 4143SOL    HW123891   4.666   3.818   0.689 -1.3844 -0.9780 -0.7264
 4143SOL    HW223892   4.634   3.949   0.753 -0.4434 -0.7216  0.1227
 4144SOL     OW23893   0.729   3.418  10.371  0.8995 -0.2129 -0.1727
 4144SOL    HW123894   0.793   3.379  10.311 -0.6277 -0.4878 -1.6136
 4144SOL    HW223895   0.672   3.347  10.398  1.1498 -0.7164 -0.9877
 4145SOL     OW23896   2.255   3.043   3.574 -0.5728  0.7038  0.3618
 4145SOL    HW123897   2.293   2.957   3.555 -0.2898  1.1132 -0.9115
 4145SOL    HW223898   2.331   3.084   3.534 -0.2514 -1.6525 -1.4127
 4146SOL     OW23899   3.750   3.093   3.371  0.7677  0.2024 -0.1324
 4146SOL    HW123900   3.716   3.177   3.403  2.0150  0.6829 -0.0499
 4146SOL    HW223901   3.750   3.103   3.276 -0.4090  1.4789  0.0036
 4147SOL     OW23902   2.923   3.652   3.679 -0.0330 -0.1538 -0.0060
 4147SOL    HW123903   2.845   3.706   3.688  0.2393  0.2285  0.1031
 4147SOL    HW223904   2.972   3.661   3.760  1.3451  0.6948 -0.9298
 4148SOL     OW23905   3.361   4.140   1.787 -0.1537 -0.3123  0.1362
 4148SOL    HW123906   3.384   4.220   1.739 -0.8522 -0.8665 -1.1328
 4148SOL    HW223907   3.300   4.088   1.734  1.8165 -2.9235  0.3987
 4149SOL     OW23908   2.231   4.352   3.370  0.2429  0.1391 -0.1044
 4149SOL    HW123909   2.217   4.447   3.364  1.0225  0.2368 -0.3257
 4149SOL    HW223910   2.254   4.315   3.285  0.4820 -2.5491  1.1312
 4150SOL     OW23911   1.632   3.535  11.836  0.1958  0.2438  0.4742
 4150SOL    HW123912   1.584   3.602  11.886  0.1555  0.4385  0.1799
 4150SOL    HW223913   1.600   3.551  11.747 -0.0813 -3.2139 -0.0448
 4151SOL     OW23914   2.653   0.130   7.317  0.0239  0.3889 -0.0704
 4151SOL    HW123915   2.644   0.224   7.298 -0.4401  0.2489 -0.5455
 4151SOL    HW223916   2.721   0.134   7.384  0.5791 -0.8776 -0.5486
 4152SOL     OW23917   0.290   1.102   8.767 -0.9716 -0.1583 -0.5568
 4152SOL    HW123918   0.214   1.160   8.766 -1.4167 -0.7844 -3.0997
 4152SOL    HW223919   0.248   1.017   8.754 -1.1110  0.0046 -1.1356
 4153SOL     OW23920   2.997   1.341   7.576 -0.4632  0.0311  0.1369
 4153SOL    HW123921   3.053   1.414   7.605 -1.0174 -0.2186  1.8316
 4153SOL    HW223922   2.918   1.391   7.558 -1.6871 -1.5147  1.2470
 4154SOL     OW23923   4.411   1.740   5.712 -0.2237 -0.3139 -0.0664
 4154SOL    HW123924   4.402   1.833   5.694 -3.3647 -0.4730  0.6195
 4154SOL    HW223925   4.497   1.724   5.672 -0.2200 -0.6346  0.0661
 4155SOL     OW23926   4.434   4.393  15.243  0.0200 -0.0115  0.1992
 4155SOL    HW123927   4.499   4.327  15.219 -1.8047 -1.9686  0.6493
 4155SOL    HW223928   4.440   4.394  15.339  1.0884  1.1100  0.1165
 4156SOL     OW23929   4.002   2.721   4.554 -0.3303 -0.2143 -0.3821
 4156SOL    HW123930   4.039   2.637   4.580 -0.7742 -0.2992 -0.0198
 4156SOL    HW223931   3.925   2.728   4.610 -0.1016 -0.8611  0.0136
 4157SOL     OW23932   3.119   2.502   8.577 -0.0995  0.6440 -0.6292
 4157SOL    HW123933   3.088   2.464   8.659  2.8622  1.9396  1.0799
 4157SOL    HW223934   3.084   2.436   8.517 -0.1837  0.8453 -0.8000
 4158SOL     OW23935   3.929   2.223   4.944  0.3300  0.1709  0.0474
 4158SOL    HW123936   4.016   2.250   4.972 -0.2534  1.0982  0.9621
 4158SOL    HW223937   3.951   2.148   4.889  0.1940 -1.8327  2.7536
 4159SOL     OW23938   2.999   0.927   7.215  0.2144 -0.1826 -0.1249
 4159SOL    HW123939   3.052   1.002   7.242  0.5218 -0.0392 -1.1645
 4159SOL    HW223940   2.910   0.947   7.243  0.2158  2.3236 -1.9100
 4160SOL     OW23941   0.692   0.466   3.460 -0.4874  0.5594  0.4568
 4160SOL    HW123942   0.611   0.439   3.417  0.7768 -1.2836 -0.7400
 4160SOL    HW223943   0.698   0.403   3.532  0.6504  0.5658  0.3663
 4161SOL     OW23944   2.994   3.645   0.389 -0.4030  0.0800  0.0016
 4161SOL    HW123945   3.035   3.660   0.304  0.2116 -1.0603  0.0967
 4161SOL    HW223946   2.921   3.706   0.398  0.1982  0.9213 -1.0020
 4162SOL     OW23947   3.613   0.581   4.106  0.1488  0.2040 -0.0978
 4162SOL    HW123948   3.550   0.510   4.092  0.9264 -0.2078 -1.4723
 4162SOL    HW223949   3.690   0.547   4.060  0.0122  0.6607 -0.6628
 4163SOL     OW23950   3.125   2.923  11.362  0.1365 -0.0193  0.3762
 4163SOL    HW123951   3.067   2.981  11.312  1.7279 -0.9280 -2.5335
 4163SOL    HW223952   3.214   2.930  11.330  0.0888  1.3751  0.5439
 4164SOL     OW23953   3.040   1.943  11.561 -0.6352 -0.1007 -0.1726
 4164SOL    HW123954   3.028   1.917  11.652  1.9993  0.4832  0.3359
 4164SOL    HW223955   3.118   1.890  11.540  0.3750  0.6475  1.7292
 4165SOL     OW23956   3.668   0.561   0.429  0.3294  0.0668 -0.2753
 4165SOL    HW123957   3.692   0.475   0.395 -1.0202  0.0458 -1.1800
 4165SOL    HW223958   3.574   0.545   0.432  0.4795 -0.6835  0.3737
 4166SOL     OW23959   4.496   3.427  17.119 -0.1906  0.4300 -0.2546
 4166SOL    HW123960   4.580   3.454  17.156 -1.3994  0.2159  2.6644
 4166SOL    HW223961   4.518   3.360  17.055 -3.1429 -0.8201  0.0511
 4167SOL     OW23962   0.933   2.543   9.197  0.2495  0.5716 -0.2794
 4167SOL    HW123963   0.858   2.484   9.199  0.3831  0.3944 -0.5037
 4167SOL    HW223964   0.897   2.621   9.239  0.4502 -0.3031  1.5219
 4168SOL     OW23965   3.384   2.976   1.996  0.4933  0.3820  0.3913
 4168SOL    HW123966   3.359   3.010   2.082 -1.7105 -0.1246 -0.0609
 4168SOL    HW223967   3.450   3.040   1.970 -0.3089  0.3029 -1.8118
 4169SOL     OW23968   4.490   0.712  13.858 -0.6621 -1.0767 -0.3980
 4169SOL    HW123969   4.528   0.693  13.772 -1.2539  1.3345 -1.2149
 4169SOL    HW223970   4.550   0.780  13.889 -1.7141 -0.9314  1.3507
 4170SOL     OW23971   4.333   4.599  12.448  0.7529  0.0575 -0.5378
 4170SOL    HW123972   4.279   4.525  12.421 -0.5907  0.1648  1.9183
 4170SOL    HW223973   4.304   4.670  12.389 -2.0842 -1.3855 -0.9052
 4171SOL     OW23974   4.547   1.713   2.029  0.3841 -0.0245 -0.7492
 4171SOL    HW123975   4.529   1.700   2.122  2.1580  1.3612 -0.2236
 4171SOL    HW223976   4.641   1.698   2.029  0.1025 -1.8066  0.4384
 4172SOL     OW23977   1.890   1.847   3.599 -0.4554 -0.0992 -0.3111
 4172SOL    HW123978   1.835   1.846   3.678 -0.4369  1.3469 -0.2755
 4172SOL    HW223979   1.836   1.909   3.551  2.1015  2.7413  0.4610
 4173SOL     OW23980   0.002   0.680   7.499 -0.2812 -0.0439  0.3002
 4173SOL    HW123981   0.032   0.687   7.408 -2.6472  0.8079 -0.4087
 4173SOL    HW223982   0.033   0.767   7.525 -1.2228  0.8847 -1.6800
 4174SOL     OW23983   0.054   0.175   8.998 -0.2705 -0.8020  0.5765
 4174SOL    HW123984   4.696   0.145   9.037 -1.0170  1.1671  0.4918
 4174SOL    HW223985   0.100   0.236   9.055 -0.5112 -0.1214  0.0513
 4175SOL     OW23986   4.210   0.007   5.990 -0.0117 -0.6231 -0.0389
 4175SOL    HW123987   4.305   4.721   5.986  0.1721  1.4132 -1.5566
 4175SOL    HW223988   4.201   0.093   6.030 -0.8125 -0.4388 -0.6029
 4176SOL     OW23989   4.572   3.791   1.762 -0.4674 -0.0323 -0.2206
 4176SOL    HW123990   4.565   3.781   1.667 -0.8134  0.7424 -0.2788
 4176SOL    HW223991   4.489   3.837   1.770  0.3312  1.0903  1.6233
 4177SOL     OW23992   0.438   3.362   4.090 -0.0838  0.3351 -0.4019
 4177SOL    HW123993   0.396   3.279   4.070  0.4200  0.0929 -0.4472
 4177SOL    HW223994   0.509   3.379   4.028  0.8525  1.1938  0.9112
 4178SOL     OW23995   2.987   2.371   0.257  0.4582 -0.1938 -0.1405
 4178SOL    HW123996   3.042   2.316   0.201  1.5760 -0.1364  0.8911
 4178SOL    HW223997   2.982   2.447   0.199 -0.4807 -0.5603 -0.5303
 4179SOL     OW23998   0.300   0.218   0.989 -0.3915 -0.4005 -0.0057
 4179SOL    HW123999   0.301   0.298   0.937  1.3083 -0.7368 -0.4847
 4179SOL    HW224000   0.384   0.178   0.967 -0.2268  0.4491 -0.9314
 4180SOL     OW24001   2.125   0.953   7.017 -0.2090  0.0642  0.0817
 4180SOL    HW124002   2.107   0.968   6.925  3.1207  2.3443 -0.1980
 4180SOL    HW224003   2.193   1.019   7.025 -0.9056  0.5461  2.0724
 4181SOL     OW24004   1.822   0.336   7.614 -0.2236  0.2336  0.2913
 4181SOL    HW124005   1.848   0.262   7.558  0.8119  1.5937 -1.0292
 4181SOL    HW224006   1.905   0.383   7.609  0.8167 -1.6611 -0.4000
 4182SOL     OW24007   2.156   3.572   6.886  0.2358  0.7418 -0.6297
 4182SOL    HW124008   2.184   3.520   6.811  0.2983 -1.1031  0.6882
 4182SOL    HW224009   2.085   3.611   6.835 -1.6984 -1.7942  0.1559
 4183SOL     OW24010   3.389   3.192   8.405 -0.0384 -0.4660  0.5737
 4183SOL    HW124011   3.464   3.251   8.417 -0.1311 -0.1772 -0.3091
 4183SOL    HW224012   3.430   3.105   8.401  1.3224  0.1862  0.2323
 4184SOL     OW24013   2.644   3.321   7.181  0.4747 -0.5752  0.5403
 4184SOL    HW124014   2.593   3.240   7.169  1.0025 -0.7856 -0.2442
 4184SOL    HW224015   2.589   3.366   7.245  1.3032  0.1488  0.7278
 4185SOL     OW24016   1.034   0.163  14.532 -0.6051  0.1900  0.4417
 4185SOL    HW124017   0.986   0.108  14.594 -0.4931  1.9503  2.0727
 4185SOL    HW224018   0.974   0.235  14.513 -1.0645  0.1108  1.5833
 4186SOL     OW24019   3.696   4.232   6.460 -0.1318  0.3277  0.4283
 4186SOL    HW124020   3.688   4.151   6.410  0.2498 -0.0297  0.9552
 4186SOL    HW224021   3.761   4.284   6.412 -1.0471  1.7679  0.7344
 4187SOL     OW24022   1.574   0.727   1.579  0.3836 -0.2323 -0.3693
 4187SOL    HW124023   1.624   0.804   1.553 -0.0911  0.6813  1.4668
 4187SOL    HW224024   1.497   0.734   1.521 -1.6608 -2.9053  1.9873
 4188SOL     OW24025   1.185   1.210  11.752 -0.4667  0.3490 -0.1401
 4188SOL    HW124026   1.236   1.193  11.831  0.6905 -0.4660 -1.0645
 4188SOL    HW224027   1.246   1.265  11.703 -0.3176 -0.3993 -0.8120
 4189SOL     OW24028   1.772   2.474   5.300  0.0813 -0.0132  0.0784
 4189SOL    HW124029   1.739   2.460   5.212 -0.3653  0.6586  0.1439
 4189SOL    HW224030   1.760   2.390   5.345 -0.8242 -0.8866 -1.8137
 4190SOL     OW24031   3.621   4.257   8.305  0.6879  0.5017  0.4162
 4190SOL    HW124032   3.716   4.262   8.316  0.8532  0.3256 -0.9565
 4190SOL    HW224033   3.593   4.181   8.356  0.7468  1.5208  1.9680
 4191SOL     OW24034   0.916   3.969   6.279  0.0706 -0.7819 -0.3248
 4191SOL    HW124035   0.964   3.967   6.362 -1.2441  0.9290  0.4964
 4191SOL    HW224036   0.831   3.943   6.314 -0.0065 -1.5159 -1.0724
 4192SOL     OW24037   4.081   1.680   0.376 -0.4545  0.2452 -0.1652
 4192SOL    HW124038   4.039   1.595   0.363  1.2094 -0.5470 -0.2892
 4192SOL    HW224039   4.058   1.712   0.463 -1.1272  1.7569 -0.8935
 4193SOL     OW24040   1.681   3.662   7.873 -0.6773  0.8252 -0.7923
 4193SOL    HW124041   1.588   3.686   7.871 -0.8377  0.2420 -0.0643
 4193SOL    HW224042   1.691   3.709   7.955 -0.3416 -0.9210  0.1593
 4194SOL     OW24043   2.403   3.285  15.965 -0.2086 -0.7027 -0.5072
 4194SOL    HW124044   2.407   3.247  15.877  0.9343 -0.1037 -0.7108
 4194SOL    HW224045   2.485   3.253  16.002  1.2069  1.7264 -1.5662
 4195SOL     OW24046   1.842   1.569  14.643  0.3922  0.0390  0.2039
 4195SOL    HW124047   1.876   1.638  14.700  0.5362 -1.1264  1.5388
 4195SOL    HW224048   1.773   1.620  14.600 -0.9829  0.3483  2.7950
 4196SOL     OW24049   3.470   4.724   3.599  0.1800  0.2260 -0.0490
 4196SOL    HW124050   3.463   4.716   3.504  1.8146 -0.0424 -0.1550
 4196SOL    HW224051   3.404   4.661   3.627  0.1223  0.6491  0.7766
 4197SOL     OW24052   3.921   3.593   9.025  0.4148 -0.2155  0.2047
 4197SOL    HW124053   3.979   3.662   8.992  0.7105 -0.1638  0.8409
 4197SOL    HW224054   3.969   3.516   8.993  0.1400  0.0847 -0.9475
 4198SOL     OW24055   3.252   1.802  11.475 -0.4103  0.2445  0.0017
 4198SOL    HW124056   3.302   1.879  11.502 -1.6835  0.6887  1.0398
 4198SOL    HW224057   3.323   1.740  11.495 -2.1783 -1.4170  1.0354
 4199SOL     OW24058   1.679   3.141   5.666 -0.0599 -0.3076  0.6256
 4199SOL    HW124059   1.628   3.070   5.627 -1.3404  0.0286  1.6693
 4199SOL    HW224060   1.753   3.149   5.607 -0.8270 -1.4628 -0.4892
 4200SOL     OW24061   1.690   0.235   6.572  0.2363  0.1464 -0.2191
 4200SOL    HW124062   1.715   0.158   6.521  2.1619 -0.5125  1.7558
 4200SOL    HW224063   1.773   0.273   6.599  0.1827  0.4815 -0.5122
 4201SOL     OW24064   3.236   0.461   4.041  0.4477 -0.1624  0.6011
 4201SOL    HW124065   3.223   0.553   4.062 -0.2022 -0.4976  1.6698
 4201SOL    HW224066   3.189   0.464   3.957 -0.2478 -2.0430  0.9181
 4202SOL     OW24067   0.842   3.688  12.702 -0.4408  0.0001 -0.0821
 4202SOL    HW124068   0.929   3.723  12.719 -0.9701 -0.2462  3.0550
 4202SOL    HW224069   0.806   3.673  12.789 -0.3608 -1.5982 -0.3330
 4203SOL     OW24070   3.617   2.137   0.873  0.4243 -0.3079  0.3084
 4203SOL    HW124071   3.610   2.044   0.853 -0.7595  0.4172 -2.5966
 4203SOL    HW224072   3.695   2.145   0.927  0.7772 -0.1502 -0.2258
 4204SOL     OW24073   3.771   2.151  12.953 -0.0574 -0.1333  0.1182
 4204SOL    HW124074   3.793   2.115  12.866 -2.2057 -0.1572 -0.3987
 4204SOL    HW224075   3.793   2.243  12.943 -1.0944  0.0211 -0.7283
 4205SOL     OW24076   3.357   1.196  17.015  0.1897 -0.9944  1.2362
 4205SOL    HW124077   3.345   1.178  16.922  0.2972  1.2407  0.8013
 4205SOL    HW224078   3.266   1.186  17.042 -0.3328 -1.6026 -0.7845
 4206SOL     OW24079   2.526   1.187   2.852 -0.5947  0.0011  0.4263
 4206SOL    HW124080   2.438   1.218   2.875 -1.3793 -1.2030 -0.9566
 4206SOL    HW224081   2.582   1.254   2.890 -1.4202  0.6736  0.4729
 4207SOL     OW24082   3.780   4.103   2.969 -0.3148 -0.1972 -0.0393
 4207SOL    HW124083   3.802   4.011   2.979  0.4891  0.0572  0.5894
 4207SOL    HW224084   3.690   4.099   2.937 -0.5020 -1.1435  0.6149
 4208SOL     OW24085   3.459   2.181   9.101  0.3106  0.2706  0.2716
 4208SOL    HW124086   3.495   2.130   9.028 -2.5191 -0.6647 -0.4751
 4208SOL    HW224087   3.524   2.249   9.118 -3.9031  4.0913  1.1950
 4209SOL     OW24088   1.950   0.320   9.375  0.4108  0.2113 -0.0197
 4209SOL    HW124089   1.996   0.399   9.404  0.1244  0.5503 -0.4993
 4209SOL    HW224090   1.993   0.255   9.432  0.9229 -1.8362 -2.7372
 4210SOL     OW24091   1.000   2.851  13.413 -0.4643 -0.0060  0.5136
 4210SOL    HW124092   0.955   2.773  13.448  0.5879 -0.0874  1.6826
 4210SOL    HW224093   0.956   2.919  13.464 -0.5444  0.1054  0.2945
 4211SOL     OW24094   0.126   2.713  12.718  0.4937  0.2703 -0.8382
 4211SOL    HW124095   0.092   2.739  12.803  1.7745 -1.3895  0.1743
 4211SOL    HW224096   0.049   2.677  12.675 -0.0288 -0.6954  0.9475
 4212SOL     OW24097   4.718   3.582   3.986  0.0117 -0.9188  0.6720
 4212SOL    HW124098   4.625   3.589   3.965  0.0735 -0.9005  0.4019
 4212SOL    HW224099   4.722   3.542   4.073  0.1815 -2.3809 -0.0192
 4213SOL     OW24100   0.659   1.268  12.057  0.0519 -0.4459 -0.1134
 4213SOL    HW124101   0.565   1.269  12.078  0.1015  1.6266 -0.0541
 4213SOL    HW224102   0.661   1.268  11.961 -1.4430  0.6567 -0.1377
 4214SOL     OW24103   0.606   0.768   4.080  0.2573 -0.3019 -0.1555
 4214SOL    HW124104   0.676   0.807   4.131 -0.2548  0.9076 -0.3860
 4214SOL    HW224105   0.592   0.847   4.028 -2.3602  0.1328  1.2124
 4215SOL     OW24106   2.434   0.172  17.133 -0.3070 -0.2565 -0.5480
 4215SOL    HW124107   2.438   0.186  17.228  1.3994 -1.0883 -0.4987
 4215SOL    HW224108   2.491   0.097  17.119  0.9014  0.2243  1.5982
 4216SOL     OW24109   1.862   1.921   6.612 -0.7839 -0.1444 -0.8013
 4216SOL    HW124110   1.807   1.844   6.603  1.3108 -1.5353 -1.8664
 4216SOL    HW224111   1.821   1.979   6.547 -0.6433  0.1144 -0.6594
 4217SOL     OW24112   3.028   4.320  12.560 -0.1359 -1.0251  0.1959
 4217SOL    HW124113   2.975   4.388  12.519  0.6262 -1.3492 -1.3188
 4217SOL    HW224114   3.093   4.373  12.606  0.5990 -2.0208  0.2934
 4218SOL     OW24115   0.383   0.541  10.464 -0.3729  0.2657 -0.8008
 4218SOL    HW124116   0.354   0.544  10.373 -2.8251 -0.1363 -0.0129
 4218SOL    HW224117   0.313   0.493  10.508 -0.0484 -1.0506 -1.7330
 4219SOL     OW24118   0.663   2.960  11.851 -0.0742 -0.1577  0.6024
 4219SOL    HW124119   0.687   2.880  11.804 -0.1464 -0.2886  0.7874
 4219SOL    HW224120   0.721   3.029  11.819 -0.1080 -0.7656 -0.8110
 4220SOL     OW24121   4.004   2.864   5.096  0.2896  0.2421  0.1890
 4220SOL    HW124122   4.025   2.772   5.108 -1.9591 -0.3122 -0.2364
 4220SOL    HW224123   3.962   2.875   5.181 -1.3085  0.5643 -0.6521
 4221SOL     OW24124   3.825   0.625  16.045  0.5899 -0.3930  0.1599
 4221SOL    HW124125   3.874   0.646  16.125  0.2830  0.7061  0.0629
 4221SOL    HW224126   3.898   0.649  15.988  2.0593 -2.5388  1.1403
 4222SOL     OW24127   2.542   3.590   9.512  0.4992 -0.0457 -0.4006
 4222SOL    HW124128   2.566   3.595   9.605  2.9952 -0.2972 -1.0201
 4222SOL    HW224129   2.580   3.506   9.484  0.2394 -0.6922  1.1776
 4223SOL     OW24130   3.945   3.675   5.190  0.5727 -0.1774  0.4109
 4223SOL    HW124131   3.965   3.595   5.238 -1.8263 -1.3011 -0.4648
 4223SOL    HW224132   3.938   3.731   5.267 -0.8304  1.6262 -1.0478
 4224SOL     OW24133   1.946   0.964   1.151 -0.2108  0.3029 -0.5292
 4224SOL    HW124134   1.945   1.041   1.095 -1.4841  0.7738  0.1236
 4224SOL    HW224135   2.037   0.941   1.165 -0.1841  0.2177 -0.8377
 4225SOL     OW24136   1.360   1.890   4.169  0.0529  0.2538 -0.6032
 4225SOL    HW124137   1.267   1.896   4.191 -0.2542 -2.0140 -1.3356
 4225SOL    HW224138   1.359   1.938   4.086 -1.0480  2.1516  0.5302
 4226SOL     OW24139   0.813   3.178   8.932  0.2800 -0.7258  0.0066
 4226SOL    HW124140   0.832   3.084   8.929 -1.6134 -1.0969  0.0785
 4226SOL    HW224141   0.842   3.204   8.845 -0.5932  1.5949  0.3999
 4227SOL     OW24142   4.124   0.417  13.422  0.0639 -0.3046  0.2731
 4227SOL    HW124143   4.205   0.396  13.467  0.0133 -1.6288 -0.2476
 4227SOL    HW224144   4.164   0.469  13.353 -0.7420 -1.8713 -1.3972
 4228SOL     OW24145   1.380   3.904  11.072 -0.0354  0.1891  0.5641
 4228SOL    HW124146   1.304   3.948  11.033 -0.4761 -2.3603 -1.4619
 4228SOL    HW224147   1.421   3.862  10.996 -0.4898 -2.1865  1.6336
 4229SOL     OW24148   1.508   0.479   9.705 -0.0111  0.0398 -0.1363
 4229SOL    HW124149   1.590   0.452   9.665  0.1563 -1.7289  1.3966
 4229SOL    HW224150   1.453   0.476   9.627 -0.4526  0.4909  0.1565
 4230SOL     OW24151   3.656   2.458  12.236 -0.0910 -0.1279 -0.8011
 4230SOL    HW124152   3.666   2.370  12.272 -1.7097  0.4377  1.0108
 4230SOL    HW224153   3.563   2.458  12.259  0.3653  2.4874  0.9053
 4231SOL     OW24154   0.074   3.493   3.750  0.0897  0.5009  0.5643
 4231SOL    HW124155   0.018   3.565   3.722  0.8752  0.0983 -2.1334
 4231SOL    HW224156   0.086   3.512   3.843  0.2776  0.5041  0.5412
 4232SOL     OW24157   3.594   3.728  15.027  0.0182 -0.9343  0.3986
 4232SOL    HW124158   3.512   3.751  15.071  0.4834 -0.6294  1.1035
 4232SOL    HW224159   3.666   3.767  15.076 -0.2051 -0.0336  0.0039
 4233SOL     OW24160   0.562   4.491   5.177  0.3146  0.2830 -0.3808
 4233SOL    HW124161   0.598   4.540   5.103 -1.5254  0.0056 -1.4820
 4233SOL    HW224162   0.641   4.465   5.223 -0.7895 -2.4988 -0.0528
 4234SOL     OW24163   1.795   0.325   8.685  0.3789  0.6272  0.3689
 4234SOL    HW124164   1.847   0.385   8.631 -0.8641  0.7897 -0.6298
 4234SOL    HW224165   1.706   0.344   8.656  0.3313  1.1757  0.8565
 4235SOL     OW24166   0.154   1.973   4.846  0.0756 -0.2773  0.6722
 4235SOL    HW124167   0.191   1.890   4.815 -1.1303 -0.8211  0.6829
 4235SOL    HW224168   0.072   1.981   4.797 -1.5474 -0.2208  3.4086
 4236SOL     OW24169   3.460   0.891  17.310  0.0098  0.3024  0.5475
 4236SOL    HW124170   3.509   0.839  17.247 -0.6085 -0.1207  0.4151
 4236SOL    HW224171   3.384   0.915  17.256 -0.1473 -0.8820  0.2545
 4237SOL     OW24172   2.903   3.739  11.608 -0.4821  0.6637  0.1763
 4237SOL    HW124173   2.846   3.666  11.585 -0.0548  1.0515 -2.1533
 4237SOL    HW224174   2.860   3.772  11.687 -2.0965  0.1346 -0.4847
 4238SOL     OW24175   3.226   3.277  10.187  0.2279 -0.6668 -0.1289
 4238SOL    HW124176   3.174   3.229  10.252 -0.6887  1.1264  0.4488
 4238SOL    HW224177   3.165   3.269  10.114 -1.6507  1.9366  1.1458
 4239SOL     OW24178   3.565   1.818   0.705 -0.2783  0.3575 -0.9752
 4239SOL    HW124179   3.563   1.813   0.610  0.8921 -1.7186 -0.8861
 4239SOL    HW224180   3.475   1.843   0.729 -0.0637  0.2185 -0.0181
 4240SOL     OW24181   4.234   3.713   5.185 -0.0577 -0.2820  0.0901
 4240SOL    HW124182   4.261   3.772   5.255 -1.7929  1.8631 -1.0411
 4240SOL    HW224183   4.145   3.745   5.170  0.4833  2.5916  3.0782
 4241SOL     OW24184   2.840   1.239   1.134 -0.0013 -0.1118  0.5040
 4241SOL    HW124185   2.781   1.283   1.194 -0.7705  0.0160 -0.3565
 4241SOL    HW224186   2.902   1.302   1.098  0.7616 -1.3222 -0.3250
 4242SOL     OW24187   3.707   2.258   5.776 -0.1371  0.1460 -0.3148
 4242SOL    HW124188   3.734   2.200   5.705 -3.8370 -0.4469 -1.2627
 4242SOL    HW224189   3.792   2.280   5.815 -0.8746  0.2639  1.2236
 4243SOL     OW24190   0.985   1.972  10.798 -0.5009  0.1153 -0.1683
 4243SOL    HW124191   1.004   1.878  10.796  1.1845  0.4523  0.3897
 4243SOL    HW224192   1.069   2.012  10.775 -0.4661 -0.1351 -0.4806
 4244SOL     OW24193   1.684   0.285   1.203 -0.1371  0.1416 -0.3179
 4244SOL    HW124194   1.701   0.229   1.278  0.1442 -0.8292 -1.0945
 4244SOL    HW224195   1.732   0.361   1.234 -2.8620  1.3928  0.8228
 4245SOL     OW24196   1.726   2.420   6.870  0.0877 -0.0252 -0.0580
 4245SOL    HW124197   1.699   2.512   6.869 -0.7727 -0.2610  1.0227
 4245SOL    HW224198   1.743   2.414   6.776 -0.7373  0.2334 -0.2270
 4246SOL     OW24199   3.840   2.603   2.780 -0.6677  0.3163 -0.2794
 4246SOL    HW124200   3.841   2.697   2.765  2.3625  0.3625  0.2180
 4246SOL    HW224201   3.919   2.570   2.737  0.7754  2.6050  0.5900
 4247SOL     OW24202   0.281   4.182   4.329  0.0113  0.6768  0.1992
 4247SOL    HW124203   0.206   4.235   4.302  0.0472 -0.2794 -1.7540
 4247SOL    HW224204   0.323   4.150   4.249  2.3222 -0.5682  1.9064
 4248SOL     OW24205   0.368   4.132  12.981  0.5269  0.8121  0.1619
 4248SOL    HW124206   0.403   4.078  13.052  0.4611  1.0363  0.3630
 4248SOL    HW224207   0.395   4.082  12.903 -0.0062 -0.4394  0.7824
 4249SOL     OW24208   3.456   1.321   7.704  0.4805  0.2026  0.4745
 4249SOL    HW124209   3.441   1.227   7.709  2.4277 -0.0579  1.1944
 4249SOL    HW224210   3.413   1.344   7.787 -0.6214  0.8779 -0.2684
 4250SOL     OW24211   0.901   1.936   0.154  0.5825 -0.0631  0.3431
 4250SOL    HW124212   0.853   1.895   0.226  1.8579  0.3824  1.4749
 4250SOL    HW224213   0.982   1.885   0.159  1.0580  0.6883  0.3435
 4251SOL     OW24214   2.722   2.299   5.007  0.2765 -0.1091  0.4119
 4251SOL    HW124215   2.637   2.286   4.965  0.0846 -0.2738  0.8566
 4251SOL    HW224216   2.750   2.209   5.019  0.5442 -0.1155 -0.2836
 4252SOL     OW24217   1.948   4.251  11.822 -0.0219  0.4421  0.0416
 4252SOL    HW124218   1.908   4.217  11.901 -1.5766 -1.7575 -1.6825
 4252SOL    HW224219   1.995   4.179  11.779 -0.4225 -0.5731  1.3370
 4253SOL     OW24220   0.787   4.586   7.584 -0.1963  0.0073  0.3234
 4253SOL    HW124221   0.803   4.600   7.491 -0.1762  1.5079  0.5592
 4253SOL    HW224222   0.761   4.494   7.597  0.6361 -0.2004  0.5241
 4254SOL     OW24223   4.389   0.089  15.428  1.0778 -0.0362 -0.1726
 4254SOL    HW124224   4.478   0.068  15.455  0.4829 -1.0051  1.0577
 4254SOL    HW224225   4.388   0.065  15.336  1.1458 -0.4310 -0.0714
 4255SOL     OW24226   1.658   0.192  15.843  0.0130  0.0623 -0.1148
 4255SOL    HW124227   1.694   0.125  15.785 -0.7716  0.0214 -0.5609
 4255SOL    HW224228   1.707   0.185  15.925  0.4138 -0.1127 -0.3705
 4256SOL     OW24229   1.137   0.339   2.312 -0.0552  0.4845 -0.2246
 4256SOL    HW124230   1.142   0.432   2.335 -0.8834  1.3691 -3.6406
 4256SOL    HW224231   1.231   0.318   2.316 -0.0942 -0.2261 -2.8210
 4257SOL     OW24232   2.303   2.337   5.439  0.2105 -0.4995 -0.2798
 4257SOL    HW124233   2.394   2.358   5.419  0.5899 -1.2783  0.6389
 4257SOL    HW224234   2.272   2.278   5.370 -1.9961  0.1611  0.1529
 4258SOL     OW24235   1.959   1.352  14.843 -0.1769  0.2305  0.0320
 4258SOL    HW124236   1.864   1.367  14.850 -0.5668 -2.2810  0.1058
 4258SOL    HW224237   1.971   1.343  14.748  0.0000 -1.1130  0.1908
 4259SOL     OW24238   2.628   2.676   4.103 -0.0465  0.2068 -0.2398
 4259SOL    HW124239   2.645   2.675   4.009  0.4614  0.4369 -0.1518
 4259SOL    HW224240   2.541   2.638   4.111 -0.1749  0.7441  0.9267
 4260SOL     OW24241   4.271   1.235  17.553 -0.1642 -0.2035  0.5570
 4260SOL    HW124242   4.292   1.205  17.641  1.4616 -1.8560 -0.4082
 4260SOL    HW224243   4.288   1.329  17.549  0.3155 -0.2298  2.0400
 4261SOL     OW24244   1.481   1.531   0.346  0.4346  0.3583  0.3002
 4261SOL    HW124245   1.393   1.500   0.324  1.4945 -2.3525 -0.1246
 4261SOL    HW224246   1.473   1.583   0.426  0.4279  1.0369 -0.1403
 4262SOL     OW24247   3.130   3.699  10.188  0.2464  0.0913  0.0868
 4262SOL    HW124248   3.103   3.790  10.204  1.3639  0.6544 -1.1557
 4262SOL    HW224249   3.206   3.723  10.135 -1.1631  0.5031 -1.7533
 4263SOL     OW24250   1.527   4.703   2.767 -0.3869  0.3855 -0.3110
 4263SOL    HW124251   1.597   4.668   2.822 -1.5439 -2.7222 -0.8187
 4263SOL    HW224252   1.497   0.047   2.827  0.0993 -0.2191  0.6211
 4264SOL     OW24253   2.553   2.196   3.222  0.4192  0.3645  0.1451
 4264SOL    HW124254   2.545   2.273   3.279  1.7273  0.5226  0.1052
 4264SOL    HW224255   2.571   2.245   3.142  0.2791  2.8350  1.6374
 4265SOL     OW24256   4.121   2.912   4.389  0.0946 -0.1736  0.3387
 4265SOL    HW124257   4.039   2.862   4.386  1.7321 -2.6500 -3.3770
 4265SOL    HW224258   4.183   2.862   4.337  0.0950 -0.0699  0.2388
 4266SOL     OW24259   2.400   4.327  14.321 -0.2706 -0.3302 -0.3336
 4266SOL    HW124260   2.351   4.400  14.283  0.7511  0.4723 -0.1096
 4266SOL    HW224261   2.356   4.319  14.406 -1.1702  0.4195 -0.7330
 4267SOL     OW24262   0.184   1.394   4.162 -0.0660  0.2118  0.6131
 4267SOL    HW124263   0.249   1.457   4.194  1.0487 -0.1334 -0.9976
 4267SOL    HW224264   0.159   1.360   4.248 -5.2247  1.1988 -0.5178
 4268SOL     OW24265   1.897   0.431   9.009 -0.4367 -0.6194  0.1457
 4268SOL    HW124266   1.803   0.422   8.997 -0.6316 -0.3860  1.4720
 4268SOL    HW224267   1.896   0.496   9.079 -0.2446 -0.4572 -0.0024
 4269SOL     OW24268   3.850   0.791  17.406  0.5077 -0.6636  0.1814
 4269SOL    HW124269   3.939   0.821  17.386  0.4693 -0.4457  0.3336
 4269SOL    HW224270   3.808   0.862  17.454 -1.1626 -0.3291 -1.7808
 4270SOL     OW24271   4.404   3.522   6.798 -0.1099  0.3475  0.0352
 4270SOL    HW124272   4.327   3.507   6.851  0.0681 -1.4815 -0.2260
 4270SOL    HW224273   4.432   3.606   6.836  0.7918 -0.3873  0.9702
 4271SOL     OW24274   3.886   0.291  13.263 -0.2796 -0.0103  0.3356
 4271SOL    HW124275   3.915   0.377  13.232 -0.1575 -0.3774 -0.5489
 4271SOL    HW224276   3.805   0.284  13.212 -1.4759  1.5092  2.0333
 4272SOL     OW24277   0.090   1.374   6.085 -0.4218  0.4119 -0.5142
 4272SOL    HW124278   4.724   1.343   6.087 -1.0682  2.5348  2.2452
 4272SOL    HW224279   0.128   1.298   6.040  2.6402  2.1080 -0.8139
 4273SOL     OW24280   2.303   2.504   7.561  0.0373  0.0530  0.0453
 4273SOL    HW124281   2.280   2.416   7.591  0.1023 -0.7028 -2.1244
 4273SOL    HW224282   2.371   2.518   7.627  1.7370  1.8006 -2.0786
 4274SOL     OW24283   2.667   0.833   8.119  0.2681  0.5396  0.6829
 4274SOL    HW124284   2.672   0.845   8.214 -0.0049  2.1611  0.5004
 4274SOL    HW224285   2.761   0.823   8.110 -0.0035 -1.3098 -0.0287
 4275SOL     OW24286   3.784   4.112   6.159  0.1013  0.1013 -0.1402
 4275SOL    HW124287   3.775   4.063   6.241  0.1781  1.3389  0.6117
 4275SOL    HW224288   3.853   4.063   6.115 -0.1765  0.4657 -0.9720
 4276SOL     OW24289   4.218   0.002  12.664 -0.5803  0.6784 -0.5826
 4276SOL    HW124290   4.274   4.671  12.609  0.9435  0.7014  0.9278
 4276SOL    HW224291   4.193   4.669  12.737  1.3053 -0.3143 -0.7090
 4277SOL     OW24292   1.464   3.736  12.896 -0.3767  0.3084 -0.1457
 4277SOL    HW124293   1.457   3.821  12.939  2.0326 -0.1634  1.1432
 4277SOL    HW224294   1.390   3.688  12.935 -0.2863  0.7102  0.4976
 4278SOL     OW24295   3.618   1.984   2.224 -0.3829  0.3445  0.2975
 4278SOL    HW124296   3.650   1.950   2.308 -0.1201 -1.7384 -0.6514
 4278SOL    HW224297   3.695   2.015   2.177  0.6563 -0.7858  1.2753
 4279SOL     OW24298   0.559   1.413   4.818  0.5574 -0.1835  0.0189
 4279SOL    HW124299   0.519   1.327   4.832  0.5847 -0.6219 -2.6688
 4279SOL    HW224300   0.482   1.469   4.824  0.3277 -0.4341 -0.6240
 4280SOL     OW24301   3.410   0.872   7.256 -0.5438  0.1862 -0.1253
 4280SOL    HW124302   3.393   0.942   7.193  0.6575 -0.5519 -1.2679
 4280SOL    HW224303   3.409   0.797   7.197 -0.1278  0.3811 -0.3807
 4281SOL     OW24304   2.716   1.777  12.219 -0.3571 -0.2818 -0.3229
 4281SOL    HW124305   2.645   1.839  12.236  1.6468  2.4347 -1.8630
 4281SOL    HW224306   2.787   1.797  12.280  0.7477  2.4847 -2.5293
 4282SOL     OW24307   4.197   2.844   2.940  0.0841  0.0319  0.2144
 4282SOL    HW124308   4.194   2.824   2.846 -0.8709  1.4966 -0.0530
 4282SOL    HW224309   4.286   2.877   2.946 -1.3199  3.4184  2.1299
 4283SOL     OW24310   2.422   0.350  17.562 -0.0816  0.0885  0.2598
 4283SOL    HW124311   2.456   0.437  17.581  2.0697 -0.5228 -0.7442
 4283SOL    HW224312   2.328   0.365  17.553 -0.2467 -1.1653 -0.1083
 4284SOL     OW24313   2.709   4.382   3.043  0.1248  0.5689 -0.2094
 4284SOL    HW124314   2.741   4.398   2.954  1.8057  0.9214  0.4663
 4284SOL    HW224315   2.734   4.290   3.041 -0.5968  0.3351  1.7229
 4285SOL     OW24316   3.625   2.415   3.785  1.0067  0.1227 -0.3067
 4285SOL    HW124317   3.677   2.334   3.781  2.1329  0.7389  1.9030
 4285SOL    HW224318   3.680   2.476   3.833 -0.6266 -0.1578  1.9152
 4286SOL     OW24319   2.606   3.355  10.207  0.1735 -0.1619  0.0053
 4286SOL    HW124320   2.621   3.443  10.242  2.0670 -0.6576  0.4799
 4286SOL    HW224321   2.677   3.306  10.249  0.5230  1.3691  1.2182
 4287SOL     OW24322   4.302   0.508   5.739  0.2240 -0.4872  0.2160
 4287SOL    HW124323   4.393   0.486   5.718  1.2216  2.8529  0.9762
 4287SOL    HW224324   4.267   0.420   5.753 -0.9224 -0.2882 -1.4083
 4288SOL     OW24325   3.040   1.487   8.351 -0.6771 -0.0988  0.6131
 4288SOL    HW124326   3.110   1.489   8.417 -2.7328 -2.5418  2.8714
 4288SOL    HW224327   2.975   1.537   8.399 -1.4769  0.2568 -0.8547
 4289SOL     OW24328   1.181   0.116   5.996  0.1211 -0.0019  0.3175
 4289SOL    HW124329   1.165   0.161   5.912 -1.8883 -0.9329  0.1985
 4289SOL    HW224330   1.276   0.123   6.007  0.3018 -1.0267 -0.5763
 4290SOL     OW24331   3.769   0.315   7.604  0.6973  0.0445  0.0006
 4290SOL    HW124332   3.836   0.289   7.667  0.4800 -0.9814 -0.1961
 4290SOL    HW224333   3.754   0.402   7.640  0.5824 -0.2328  0.6244
 4291SOL     OW24334   4.544   3.415   4.866 -0.4473  0.3192 -0.1593
 4291SOL    HW124335   4.488   3.339   4.880  1.6350 -1.5262 -1.8069
 4291SOL    HW224336   4.503   3.476   4.927 -2.1503 -0.7763 -0.1891
 4292SOL     OW24337   1.706   0.722   6.813 -0.2291  0.1773  0.1872
 4292SOL    HW124338   1.728   0.812   6.838 -1.7313  0.9203 -1.1820
 4292SOL    HW224339   1.792   0.678   6.809 -0.2425  0.2763 -1.2119
 4293SOL     OW24340   1.684   2.379   6.381 -0.0596  0.4175 -0.1482
 4293SOL    HW124341   1.669   2.473   6.392  0.0583  0.4589 -0.3465
 4293SOL    HW224342   1.747   2.351   6.448  0.7312  0.9790 -0.6616
 4294SOL     OW24343   4.352   4.042  16.393  0.3045  0.0559  0.4989
 4294SOL    HW124344   4.270   4.070  16.433 -0.2110 -0.2995 -0.3108
 4294SOL    HW224345   4.401   4.108  16.443  1.8213  0.8989 -2.1175
 4295SOL     OW24346   3.383   2.833  11.798 -0.1604  0.2239 -0.0596
 4295SOL    HW124347   3.317   2.865  11.737 -1.0952  0.2945  0.9948
 4295SOL    HW224348   3.455   2.835  11.734 -0.3097  0.1556 -0.2312
 4296SOL     OW24349   1.476   3.293  10.883  0.5785 -0.3100 -0.4218
 4296SOL    HW124350   1.407   3.229  10.897 -0.5508  1.2380  1.2225
 4296SOL    HW224351   1.551   3.247  10.921  0.0800 -1.9351 -1.4233
 4297SOL     OW24352   1.951   0.987   4.309 -0.4048  0.0307 -0.7083
 4297SOL    HW124353   1.892   0.915   4.331 -0.9396  0.3210 -1.2065
 4297SOL    HW224354   1.989   0.996   4.397  0.3376 -4.0846 -0.6066
 4298SOL     OW24355   0.617   3.615   4.321 -0.2028 -0.2857  0.0699
 4298SOL    HW124356   0.686   3.592   4.258 -1.7420 -3.0245 -0.6191
 4298SOL    HW224357   0.644   3.565   4.398 -0.5393  0.6539  0.8014
 4299SOL     OW24358   0.164   0.512   5.408  0.0160  0.3073  0.3017
 4299SOL    HW124359   0.246   0.551   5.378 -0.6165  0.8478 -0.7330
 4299SOL    HW224360   0.189   0.426   5.442 -2.1858 -0.5916 -0.4053
 4300SOL     OW24361   2.527   2.562   4.692 -0.4348 -0.8394  0.3022
 4300SOL    HW124362   2.471   2.630   4.729 -1.8420 -1.7977 -0.0571
 4300SOL    HW224363   2.606   2.611   4.670 -0.0912 -1.7079 -0.3655
 4301SOL     OW24364   2.444   1.691   8.262 -0.0593 -0.5863 -0.2954
 4301SOL    HW124365   2.432   1.644   8.344 -1.7531  1.0118  0.3757
 4301SOL    HW224366   2.470   1.774   8.303 -1.7993  1.0032 -2.3796
 4302SOL     OW24367   3.550   1.296   2.048  0.0192  0.0731 -0.4356
 4302SOL    HW124368   3.583   1.359   1.984  0.5644  0.0097 -0.2199
 4302SOL    HW224369   3.553   1.215   1.998 -0.8846 -0.3039  0.1164
 4303SOL     OW24370   3.646   4.601  10.136  0.4469  0.0925 -0.0248
 4303SOL    HW124371   3.716   4.653  10.097 -0.2495 -0.6687 -2.3056
 4303SOL    HW224372   3.602   4.668  10.189  1.7817 -0.4887  1.7934
 4304SOL     OW24373   2.686   3.777   7.420  1.0344  0.3026 -0.0405
 4304SOL    HW124374   2.619   3.709   7.428 -0.4363  1.7657  0.3000
 4304SOL    HW224375   2.707   3.783   7.514 -0.0839 -0.0326  0.2329
 4305SOL     OW24376   1.086   1.010   2.825  0.2527 -0.4776  0.4586
 4305SOL    HW124377   1.161   0.950   2.826  1.2536  0.7981  1.6767
 4305SOL    HW224378   1.014   0.953   2.798  0.2922 -0.4079  0.2057
 4306SOL     OW24379   0.068   1.922  10.392  0.1418 -0.1604  0.3974
 4306SOL    HW124380   0.019   1.881  10.463 -0.8206 -1.1462 -0.8340
 4306SOL    HW224381   4.719   1.928  10.330 -0.8538 -0.5003  1.5504
 4307SOL     OW24382   3.257   3.163   6.473  0.1900 -0.5055 -0.0749
 4307SOL    HW124383   3.349   3.189   6.474  0.4387 -1.4393  0.5753
 4307SOL    HW224384   3.222   3.228   6.533 -1.4858 -0.8103 -0.7182
 4308SOL     OW24385   3.107   1.467   3.051  0.5178  0.2007 -0.3668
 4308SOL    HW124386   3.043   1.471   3.121  0.7215  0.0297 -0.1698
 4308SOL    HW224387   3.175   1.529   3.078  0.5078 -1.5143  3.5849
 4309SOL     OW24388   2.052   1.586   7.757 -0.2853  0.4033  0.0765
 4309SOL    HW124389   2.148   1.588   7.759 -0.2791 -1.8691  3.0427
 4309SOL    HW224390   2.030   1.659   7.699 -2.3189 -1.3780 -1.3689
 4310SOL     OW24391   1.426   1.141   8.625  0.0845 -0.1162 -0.3640
 4310SOL    HW124392   1.501   1.085   8.641 -0.7541 -0.6000  1.9100
 4310SOL    HW224393   1.470   1.226   8.635  0.1603  0.2384 -3.6247
 4311SOL     OW24394   0.122   0.577  11.630  0.2783 -0.6206  0.8517
 4311SOL    HW124395   0.198   0.634  11.619  0.2795 -0.9570 -1.0372
 4311SOL    HW224396   0.101   0.563  11.537 -0.4307  1.1661  0.7375
 4312SOL     OW24397   0.411   1.028   8.418  0.4500  0.2417 -0.1573
 4312SOL    HW124398   0.431   1.111   8.461  2.3129 -0.1574 -0.2326
 4312SOL    HW224399   0.485   1.012   8.359 -1.4537 -1.2229 -2.1624
 4313SOL     OW24400   3.843   4.369   6.269  0.1737  0.0654  0.3427
 4313SOL    HW124401   3.800   4.448   6.236  0.0008 -0.8441 -1.5976
 4313SOL    HW224402   3.823   4.294   6.215  2.0705 -0.1388 -0.0955
 4314SOL     OW24403   3.960   0.444   1.478  0.1690 -0.0551 -0.0785
 4314SOL    HW124404   3.981   0.396   1.558 -0.7627  0.2241  0.3303
 4314SOL    HW224405   4.044   0.462   1.435 -0.1969  2.0072  0.0456
 4315SOL     OW24406   2.557   3.045   1.606  0.1526  0.2877  0.3842
 4315SOL    HW124407   2.513   3.126   1.630  0.2541  0.6024 -0.4977
 4315SOL    HW224408   2.562   3.062   1.512 -1.9293 -0.1931  0.1886
 4316SOL     OW24409   3.242   1.620   7.429  0.6866 -0.7766 -0.2097
 4316SOL    HW124410   3.243   1.702   7.479  1.7718 -0.8391 -0.1457
 4316SOL    HW224411   3.317   1.582   7.475  1.7529  1.3382 -0.2244
 4317SOL     OW24412   0.197   0.563   5.693 -0.7957  0.1227  0.0865
 4317SOL    HW124413   0.184   0.606   5.608 -0.1068 -1.9702 -1.0899
 4317SOL    HW224414   0.136   0.490   5.699 -0.4233 -0.1318  0.7947
 4318SOL     OW24415   1.850   1.702   7.949 -0.3812 -0.0902 -0.6780
 4318SOL    HW124416   1.887   1.664   7.869 -1.4189 -2.7109  0.0833
 4318SOL    HW224417   1.919   1.682   8.012 -0.7199 -1.4998 -0.7453
 4319SOL     OW24418   2.356   3.657   8.701  0.0163 -0.3284 -0.5735
 4319SOL    HW124419   2.330   3.749   8.711  1.4633 -0.0987  1.0112
 4319SOL    HW224420   2.274   3.630   8.660 -1.9396  0.6519  2.7612
 4320SOL     OW24421   0.039   0.570  16.480  0.0945  0.5534  0.2095
 4320SOL    HW124422   0.044   0.538  16.570 -0.7424  0.0287  0.0734
 4320SOL    HW224423   0.128   0.578  16.444  0.2071 -3.3729 -0.4414
 4321SOL     OW24424   2.418   2.817   3.261  0.1160  0.7089  0.2150
 4321SOL    HW124425   2.414   2.819   3.357  1.8299 -1.5341  0.3412
 4321SOL    HW224426   2.350   2.882   3.242 -0.1974  1.0689  2.5419
 4322SOL     OW24427   0.195   2.271   6.660 -0.0893 -0.7634 -0.0637
 4322SOL    HW124428   0.105   2.239   6.656  0.7450 -2.8707 -2.1912
 4322SOL    HW224429   0.203   2.305   6.570 -1.3056  0.4074  0.2666
 4323SOL     OW24430   0.580   3.551  13.363  0.2813 -0.0982 -0.3745
 4323SOL    HW124431   0.563   3.472  13.414 -0.6494  0.9539  0.9706
 4323SOL    HW224432   0.496   3.596  13.374  0.2817  0.0444 -0.9630
 4324SOL     OW24433   4.036   0.558   0.199 -0.1057 -0.1725 -0.0790
 4324SOL    HW124434   4.034   0.463   0.204 -0.6243 -0.0638  2.2999
 4324SOL    HW224435   3.999   0.576   0.113 -2.2600  1.0602  1.0769
 4325SOL     OW24436   0.731   1.461   0.743 -0.6507 -0.5879 -0.1077
 4325SOL    HW124437   0.681   1.380   0.731 -0.7589 -0.1331 -2.6975
 4325SOL    HW224438   0.763   1.431   0.828  1.1278  0.6772 -0.3319
 4326SOL     OW24439   4.178   0.186   9.082  0.0105 -0.4880  0.5676
 4326SOL    HW124440   4.107   0.190   9.146  0.7047 -1.7138  1.4176
 4326SOL    HW224441   4.253   0.181   9.142 -0.7409 -0.3088  1.5232
 4327SOL     OW24442   2.158   3.483   0.836 -0.4581 -0.2259  0.0812
 4327SOL    HW124443   2.176   3.399   0.794 -2.7066 -0.2845 -0.7841
 4327SOL    HW224444   2.237   3.496   0.888 -0.1951  1.7433 -0.8152
 4328SOL     OW24445   3.386   4.074   4.034 -0.0858  0.0180 -0.5961
 4328SOL    HW124446   3.447   4.129   4.083  2.5495 -2.9010 -0.6473
 4328SOL    HW224447   3.442   4.006   3.999  2.3109 -1.1839  5.6299
 4329SOL     OW24448   2.231   0.198   7.643 -0.3393  0.6432  0.1062
 4329SOL    HW124449   2.218   0.106   7.669 -0.7466  0.2566 -1.4676
 4329SOL    HW224450   2.323   0.199   7.668  0.4476  0.8422 -2.7961
 4330SOL     OW24451   3.100   2.972  12.038 -0.1478  0.3639  0.1144
 4330SOL    HW124452   3.051   2.993  11.959 -1.4565  0.9170  1.0752
 4330SOL    HW224453   3.143   3.056  12.052 -0.2165  0.6617 -1.5408
 4331SOL     OW24454   3.034   1.188   5.519 -0.5292 -0.3779 -0.0225
 4331SOL    HW124455   2.943   1.160   5.533 -0.9931  1.9274  1.5289
 4331SOL    HW224456   3.051   1.218   5.608  0.3850  1.3409 -0.7770
 4332SOL     OW24457   0.822   4.390   8.180 -0.1843  0.0589  0.3693
 4332SOL    HW124458   0.795   4.393   8.088  1.0558  0.4314  0.0190
 4332SOL    HW224459   0.732   4.366   8.202 -0.1608  2.0479  2.5533
 4333SOL     OW24460   1.164   4.054   2.074 -0.8864  0.1162  0.0776
 4333SOL    HW124461   1.144   4.072   1.982 -0.9747 -0.1749  0.0417
 4333SOL    HW224462   1.205   3.968   2.068 -0.4863  0.2832  0.4041
 4334SOL     OW24463   4.471   0.830   9.910  0.4855 -0.2640  0.2159
 4334SOL    HW124464   4.439   0.766   9.974  1.0477 -3.1793 -2.4469
 4334SOL    HW224465   4.553   0.869   9.941  0.4137  0.6025 -0.6770
 4335SOL     OW24466   2.192   4.169   8.778  0.1420  0.1130  0.5492
 4335SOL    HW124467   2.209   4.261   8.755 -1.9722 -0.2267 -2.3272
 4335SOL    HW224468   2.115   4.171   8.834  0.0031  1.3188  0.3132
 4336SOL     OW24469   2.135   0.380   4.053 -0.1076  0.1515 -0.7702
 4336SOL    HW124470   2.221   0.413   4.079  0.4696 -0.6025 -1.7030
 4336SOL    HW224471   2.096   0.371   4.140 -0.1333  0.6835 -0.7266
 4337SOL     OW24472   0.428   1.469   4.430 -0.2634 -0.7136  0.3669
 4337SOL    HW124473   0.443   1.548   4.377 -0.4061 -0.6254  0.4586
 4337SOL    HW224474   0.505   1.452   4.485 -0.6367  0.8372  1.3898
 4338SOL     OW24475   1.517   4.198   6.293  0.3902 -0.2929 -0.1144
 4338SOL    HW124476   1.438   4.182   6.242 -1.3292  2.3006  1.7520
 4338SOL    HW224477   1.499   4.144   6.371 -0.3504  0.3085  0.1344
 4339SOL     OW24478   1.041   3.863  16.281 -0.1837  0.1694  0.0997
 4339SOL    HW124479   1.126   3.877  16.240 -0.4374  0.3718 -0.3660
 4339SOL    HW224480   1.007   3.785  16.238  4.0567 -1.3425 -0.4920
 4340SOL     OW24481   2.489   1.627  12.291  0.2540 -0.3803  0.3098
 4340SOL    HW124482   2.445   1.607  12.208 -0.0567  2.0328 -0.0887
 4340SOL    HW224483   2.560   1.684  12.262  1.2622 -0.3587  2.8492
 4341SOL     OW24484   2.553   0.737   6.446 -0.3124 -0.1838  0.0348
 4341SOL    HW124485   2.622   0.740   6.380 -1.1154  2.2839 -0.6809
 4341SOL    HW224486   2.582   0.808   6.502  1.6381 -1.5036  0.6983
 4342SOL     OW24487   1.127   0.138   7.128  0.0902  0.9220 -0.5437
 4342SOL    HW124488   1.095   0.149   7.218  1.1644  1.4812 -0.2342
 4342SOL    HW224489   1.082   0.207   7.079 -1.0307 -0.3014 -1.2196
 4343SOL     OW24490   1.144   3.681  12.807  0.2069 -0.4826 -0.1411
 4343SOL    HW124491   1.129   3.771  12.838 -2.1683 -0.9912  0.2242
 4343SOL    HW224492   1.182   3.629  12.878  1.1623 -1.7381 -1.5582
 4344SOL     OW24493   2.330   2.842   8.756  0.0651 -0.4813  0.5118
 4344SOL    HW124494   2.388   2.772   8.726 -0.9630 -0.7659 -0.8210
 4344SOL    HW224495   2.245   2.798   8.746  0.0547 -0.4097  0.2899
 4345SOL     OW24496   1.057   1.455   3.887 -0.1574 -0.6987  0.3134
 4345SOL    HW124497   0.975   1.495   3.914 -1.1539 -1.6110 -1.3715
 4345SOL    HW224498   1.036   1.391   3.819 -2.6538  1.5000 -0.9567
 4346SOL     OW24499   1.415   0.442  17.153 -0.0824 -0.2007 -0.3835
 4346SOL    HW124500   1.497   0.405  17.119  0.8408  0.7491  0.7972
 4346SOL    HW224501   1.424   0.445  17.248 -2.2460  1.7192 -0.2292
 4347SOL     OW24502   1.746   1.476   5.131  0.4937 -0.3448 -0.5596
 4347SOL    HW124503   1.727   1.552   5.185 -3.3929 -0.8692 -1.1756
 4347SOL    HW224504   1.683   1.500   5.064 -0.2915  2.7468  1.2794
 4348SOL     OW24505   3.462   0.619  11.685  0.2595  0.1316 -0.3534
 4348SOL    HW124506   3.545   0.575  11.704  0.9237  1.2612 -0.6104
 4348SOL    HW224507   3.501   0.689  11.632  0.3685  0.0177 -0.4221
 4349SOL     OW24508   4.272   0.239   1.863  0.0442  0.2613  0.0021
 4349SOL    HW124509   4.290   0.148   1.883 -0.0040 -0.3240 -2.6462
 4349SOL    HW224510   4.278   0.290   1.944 -0.7808 -0.3607  0.4501
 4350SOL     OW24511   2.619   4.662   1.513 -0.4743 -0.0286 -0.0732
 4350SOL    HW124512   2.692   4.645   1.574 -0.8315  1.4539  0.7519
 4350SOL    HW224513   2.618   0.030   1.536 -1.1471 -0.1594  0.4212
 4351SOL     OW24514   1.452   0.369  17.407  0.1469 -0.8123  0.5135
 4351SOL    HW124515   1.477   0.457  17.433 -1.6986 -0.2633  0.3902
 4351SOL    HW224516   1.526   0.317  17.439 -0.3544 -2.0750 -0.3826
 4352SOL     OW24517   3.143   3.192   9.272  0.1319 -0.4481 -0.4308
 4352SOL    HW124518   3.087   3.179   9.348  0.2568 -0.4520 -0.3393
 4352SOL    HW224519   3.125   3.274   9.227 -0.1438  0.0634  0.6133
 4353SOL     OW24520   0.272   1.915   7.532 -0.1002  0.1700  0.3163
 4353SOL    HW124521   0.210   1.985   7.510  0.2347  0.2725 -0.3171
 4353SOL    HW224522   0.291   1.947   7.620 -3.0357 -0.8017  1.3160
 4354SOL     OW24523   2.676   3.471   5.191  0.4098 -0.1755 -0.4442
 4354SOL    HW124524   2.703   3.520   5.114  0.3527  1.7894  0.7879
 4354SOL    HW224525   2.750   3.492   5.249 -0.4783  0.3213  0.5080
 4355SOL     OW24526   0.694   1.475   1.232 -0.1549  0.0446  0.0950
 4355SOL    HW124527   0.615   1.498   1.282 -1.6434  2.0997 -3.1849
 4355SOL    HW224528   0.764   1.493   1.295 -0.5969 -1.2950  0.9706
 4356SOL     OW24529   0.747   4.614  15.292 -0.0565 -0.2324 -0.5144
 4356SOL    HW124530   0.682   4.639  15.226 -0.5477  1.4967  0.6133
 4356SOL    HW224531   0.778   4.700  15.322  1.1993 -1.1424  0.7642
 4357SOL     OW24532   0.097   4.616   9.036  0.0273  0.1463  0.6128
 4357SOL    HW124533   0.187   4.603   9.007 -0.4654 -0.6505 -0.5618
 4357SOL    HW224534   0.072   4.699   8.997  2.0334  0.7526  0.6214
 4358SOL     OW24535   2.936   2.782  11.751  0.1162  0.4182  0.3962
 4358SOL    HW124536   2.884   2.812  11.677 -0.0959 -1.6322 -0.2862
 4358SOL    HW224537   3.013   2.839  11.756  0.7583 -0.5669  2.1342
 4359SOL     OW24538   3.632   1.694   0.108  0.3360  0.0380 -0.3384
 4359SOL    HW124539   3.546   1.732   0.089  0.3883  0.5773  0.4787
 4359SOL    HW224540   3.693   1.764   0.085  1.0826 -0.7149 -0.6172
 4360SOL     OW24541   2.810   0.137   4.111  0.0612  0.3620 -0.1084
 4360SOL    HW124542   2.852   0.072   4.167  1.0498 -1.9432 -3.5264
 4360SOL    HW224543   2.789   0.074   4.042 -0.9565 -0.7969  1.2909
 4361SOL     OW24544   4.715   4.355  12.841  0.3210  0.3584  0.4083
 4361SOL    HW124545   0.026   4.406  12.768 -0.2911  1.3200  0.7867
 4361SOL    HW224546   0.022   4.267  12.820 -0.4411 -0.0623  1.0410
 4362SOL     OW24547   2.425   4.340   1.502  0.1663  0.3445 -0.2602
 4362SOL    HW124548   2.410   4.278   1.574 -1.1229  0.3113 -0.5532
 4362SOL    HW224549   2.347   4.327   1.448 -0.1187 -0.0556  0.2470
 4363SOL     OW24550   1.221   0.190   5.141  0.6062 -0.7397  0.0149
 4363SOL    HW124551   1.296   0.213   5.086 -0.0221  0.7444 -0.2125
 4363SOL    HW224552   1.210   0.096   5.130  0.9231 -0.8414  0.5567
 4364SOL     OW24553   2.705   2.239   8.916 -0.4862 -0.1791 -0.7033
 4364SOL    HW124554   2.754   2.293   8.978  1.0809 -2.9419  0.4595
 4364SOL    HW224555   2.772   2.194   8.866  2.1452  1.3871  1.3802
 4365SOL     OW24556   4.591   3.779   4.843 -0.2047 -0.4209 -0.1269
 4365SOL    HW124557   4.632   3.693   4.836 -0.6849 -0.3051 -4.1912
 4365SOL    HW224558   4.500   3.756   4.864 -0.2211  0.4745  0.8144
 4366SOL     OW24559   1.238   0.375   7.646  0.4052 -0.1878 -0.3718
 4366SOL    HW124560   1.315   0.332   7.684 -1.0808 -1.4553  1.2468
 4366SOL    HW224561   1.201   0.302   7.596  1.8611 -1.7248  0.7721
 4367SOL     OW24562   4.099   2.492  16.243  0.2183 -0.0242 -0.4712
 4367SOL    HW124563   4.058   2.409  16.218  0.1499  0.0871 -0.7233
 4367SOL    HW224564   4.172   2.449  16.289  1.1542  0.6691 -1.3136
 4368SOL     OW24565   3.427   1.929  11.643 -0.1387 -0.1491 -0.5083
 4368SOL    HW124566   3.455   1.849  11.688  0.1673  0.4695  0.3957
 4368SOL    HW224567   3.510   1.975  11.628 -0.4014  0.5031  0.0482
 4369SOL     OW24568   1.922   4.593   3.870 -0.0023 -0.2536  0.0268
 4369SOL    HW124569   1.919   4.499   3.891 -1.5590  0.1413  1.5439
 4369SOL    HW224570   1.926   4.588   3.775  1.5430  0.3724  0.0632
 4370SOL     OW24571   0.311   4.612   8.832  0.3984  0.0088 -0.5307
 4370SOL    HW124572   0.264   4.607   8.749 -3.4317 -0.4122  1.7092
 4370SOL    HW224573   0.396   4.641   8.797  0.2296 -1.1259 -1.8633
 4371SOL     OW24574   3.631   0.811  15.942  0.0776 -0.1910 -0.5457
 4371SOL    HW124575   3.649   0.733  15.995 -1.7253 -0.2327  0.0069
 4371SOL    HW224576   3.670   0.880  15.995 -0.3130  1.9267 -3.0650
 4372SOL     OW24577   4.324   2.737   7.819  0.2468 -0.5300  0.3101
 4372SOL    HW124578   4.415   2.760   7.801 -0.0696  0.3795 -0.0838
 4372SOL    HW224579   4.330   2.643   7.798 -2.1191 -0.5800 -0.1917
 4373SOL     OW24580   3.199   0.047   2.649  1.1541 -0.2793  0.7163
 4373SOL    HW124581   3.105   0.033   2.657  1.0139  0.4321  0.3260
 4373SOL    HW224582   3.218   0.132   2.688 -1.7077  0.2076  1.0736
 4374SOL     OW24583   3.931   2.784   5.804  0.1248 -0.6019  0.0831
 4374SOL    HW124584   3.849   2.770   5.758 -0.0139 -2.0945  0.7802
 4374SOL    HW224585   3.898   2.822   5.886 -0.3528 -3.3123  1.1343
 4375SOL     OW24586   3.881   0.791   8.728 -0.0157  0.0430 -0.0340
 4375SOL    HW124587   3.902   0.699   8.742  0.2739  0.3767  1.6518
 4375SOL    HW224588   3.786   0.797   8.724 -0.0756 -0.0228  1.5987
 4376SOL     OW24589   1.149   2.740   7.513 -0.3722 -0.5872 -0.9409
 4376SOL    HW124590   1.239   2.773   7.510 -0.8643  0.7505 -0.5910
 4376SOL    HW224591   1.133   2.696   7.596 -1.1527  0.9225 -0.3012
 4377SOL     OW24592   2.601   0.804   5.734 -0.1693 -0.4485 -0.5305
 4377SOL    HW124593   2.582   0.882   5.786  0.0265 -0.0100 -1.1046
 4377SOL    HW224594   2.666   0.759   5.787  0.5678 -2.2166 -2.9460
 4378SOL     OW24595   0.362   2.931   9.891  0.0097  0.0844  0.1815
 4378SOL    HW124596   0.272   2.940   9.857  0.2970  1.5020 -0.1902
 4378SOL    HW224597   0.342   2.954   9.982  2.3881  2.5301  0.0542
 4379SOL     OW24598   3.468   2.583  10.767  0.4548  0.3610 -0.2969
 4379SOL    HW124599   3.446   2.590  10.674 -0.2588  1.5149 -0.0452
 4379SOL    HW224600   3.405   2.647  10.802 -0.7869 -0.6464 -0.6912
 4380SOL     OW24601   2.809   1.268   3.392  0.1274 -0.4617 -0.5484
 4380SOL    HW124602   2.745   1.239   3.328  0.3170  0.3963 -1.1294
 4380SOL    HW224603   2.871   1.196   3.382  0.8775 -0.0377  1.0352
 4381SOL     OW24604   4.713   3.952  15.220 -0.4395 -0.7960  0.3062
 4381SOL    HW124605   4.703   3.858  15.207 -1.1189 -0.3891 -2.0576
 4381SOL    HW224606   0.054   3.978  15.155  0.4773 -0.5183  1.3483
 4382SOL     OW24607   2.993   1.759   9.931  0.0252 -0.1164  0.2974
 4382SOL    HW124608   3.001   1.829   9.995 -0.0182  0.5330 -0.4084
 4382SOL    HW224609   2.899   1.742   9.920 -0.4511  4.7599 -3.1019
 4383SOL     OW24610   2.711   3.912  16.477 -0.0429 -0.2764  0.5364
 4383SOL    HW124611   2.769   3.968  16.425 -1.6770 -0.7691 -1.7835
 4383SOL    HW224612   2.675   3.855  16.409 -1.1780  0.4779  0.5156
 4384SOL     OW24613   2.385   4.140   3.490  0.1009  0.1801 -0.0566
 4384SOL    HW124614   2.306   4.091   3.511 -0.2303  0.4649 -0.6291
 4384SOL    HW224615   2.336   4.218   3.467 -2.0233 -0.9415  0.7186
 4385SOL     OW24616   0.370   1.754   1.256 -0.3750 -0.3814 -0.1173
 4385SOL    HW124617   0.402   1.813   1.188 -1.0596 -0.5095 -0.5494
 4385SOL    HW224618   0.299   1.709   1.209 -0.0403 -1.6102  0.5534
 4386SOL     OW24619   3.757   2.322  12.592  0.0726 -0.3583  0.3649
 4386SOL    HW124620   3.811   2.248  12.623  0.5904 -0.0499  0.1964
 4386SOL    HW224621   3.722   2.290  12.509  0.0229 -1.2856  0.7431
 4387SOL     OW24622   1.300   0.838   2.785  0.2225 -0.7933  0.1275
 4387SOL    HW124623   1.260   0.849   2.699 -0.2165 -1.1084  0.2929
 4387SOL    HW224624   1.382   0.885   2.771 -0.5838  0.8340  0.8608
 4388SOL     OW24625   2.255   0.196  14.204  0.1795 -0.1651 -0.5775
 4388SOL    HW124626   2.165   0.226  14.216 -0.0123 -1.8506  2.2682
 4388SOL    HW224627   2.276   0.161  14.290 -0.5864 -0.4871 -0.5153
 4389SOL     OW24628   1.229   1.817  10.674 -0.0139 -0.3733  0.5591
 4389SOL    HW124629   1.181   1.786  10.751 -0.3476  1.3724  1.0642
 4389SOL    HW224630   1.235   1.912  10.684  0.2846 -0.3311 -0.0488
 4390SOL     OW24631   0.057   2.857   5.783  0.1916  0.5941  0.0416
 4390SOL    HW124632   4.689   2.857   5.756  0.3756  3.0883 -0.5303
 4390SOL    HW224633   0.050   2.857   5.878 -0.3265 -2.3556 -0.0064
 4391SOL     OW24634   0.193   3.186   8.429 -0.0498  0.0524 -0.1983
 4391SOL    HW124635   0.220   3.256   8.488  0.1848  0.1488 -0.4169
 4391SOL    HW224636   0.099   3.189   8.416 -0.3786  2.2440  2.7755
 4392SOL     OW24637   0.735   4.403   3.540  1.0216  0.3940 -0.0759
 4392SOL    HW124638   0.656   4.355   3.564  0.6679  0.6820 -0.6561
 4392SOL    HW224639   0.781   4.324   3.508  0.6820  0.6159 -1.1153
 4393SOL     OW24640   2.985   4.173  12.322  0.0707  0.0710  0.2365
 4393SOL    HW124641   3.007   4.179  12.415  0.2493  1.1146  0.1184
 4393SOL    HW224642   3.072   4.186  12.284  0.6612 -2.6295  0.6466
 4394SOL     OW24643   3.418   4.559  16.258 -0.0830 -0.1330 -0.1748
 4394SOL    HW124644   3.373   4.636  16.293 -2.2287 -1.8700  0.8684
 4394SOL    HW224645   3.349   4.507  16.217  0.7710 -1.1649 -0.3054
 4395SOL     OW24646   4.307   1.634  15.726  0.5889  0.4258  0.0492
 4395SOL    HW124647   4.213   1.653  15.726 -0.0295 -2.7062 -0.8169
 4395SOL    HW224648   4.334   1.662  15.813  1.0858 -1.5555  0.5255
 4396SOL     OW24649   0.322   3.839   9.734 -0.5469  0.4775 -0.7301
 4396SOL    HW124650   0.376   3.767   9.767  0.1389  1.4973  0.3649
 4396SOL    HW224651   0.267   3.848   9.812 -0.5913 -0.7859 -0.6184
 4397SOL     OW24652   1.264   3.153   6.006  0.9188 -0.1386 -0.4226
 4397SOL    HW124653   1.337   3.103   5.970 -0.0493 -1.8204 -0.0209
 4397SOL    HW224654   1.205   3.133   5.932  2.2770 -1.9016 -1.0170
 4398SOL     OW24655   4.129   0.388   2.354 -0.0218  0.6219  0.6943
 4398SOL    HW124656   4.051   0.338   2.375  1.4564 -1.1588  1.9764
 4398SOL    HW224657   4.111   0.418   2.265  0.5795  2.3648  1.1690
 4399SOL     OW24658   0.320   1.841   8.708  0.0050 -0.7063  0.1755
 4399SOL    HW124659   0.346   1.888   8.788 -0.6130  1.1660 -0.7420
 4399SOL    HW224660   0.286   1.759   8.744 -0.4467 -0.0708  1.2085
 4400SOL     OW24661   4.383   0.051   8.855  0.0920  0.5050  0.1960
 4400SOL    HW124662   4.441   0.010   8.919  0.6514 -0.1689 -0.7394
 4400SOL    HW224663   4.314   4.708   8.856 -0.0440  0.6456  0.2239
 4401SOL     OW24664   4.519   0.882   3.681 -0.2383  0.2652 -0.0122
 4401SOL    HW124665   4.541   0.821   3.612  0.9237 -1.6390  2.0530
 4401SOL    HW224666   4.432   0.855   3.711  0.2144 -0.9753  0.1879
 4402SOL     OW24667   2.738   4.583   8.692 -0.9119 -0.6347 -0.0132
 4402SOL    HW124668   2.679   4.658   8.695 -2.1606 -1.6498  0.6608
 4402SOL    HW224669   2.765   4.568   8.783 -0.2178  0.1039 -0.0978
 4403SOL     OW24670   0.980   0.850   9.432 -0.2691 -0.7001 -0.0460
 4403SOL    HW124671   0.993   0.807   9.517  1.5425 -1.4365 -0.6939
 4403SOL    HW224672   0.893   0.889   9.431  0.4088  0.8156  0.4725
 4404SOL     OW24673   4.616   2.532  11.355 -0.2915 -0.2436 -0.0528
 4404SOL    HW124674   4.592   2.455  11.407  1.7049 -0.7503  0.0960
 4404SOL    HW224675   4.637   2.476  11.280 -1.1488 -1.3689  0.5474
 4405SOL     OW24676   1.247   1.828   6.159  0.1466 -0.3180 -0.2017
 4405SOL    HW124677   1.324   1.775   6.176  0.6719  0.2532 -0.7920
 4405SOL    HW224678   1.280   1.915   6.182 -2.0046  0.3751  0.3341
 4406SOL     OW24679   0.921   4.462   2.143 -0.1596  0.1526  0.2573
 4406SOL    HW124680   0.999   4.411   2.121 -0.0732 -0.9555  3.1419
 4406SOL    HW224681   0.961   4.517   2.210 -0.3110  1.5790 -0.8091
 4407SOL     OW24682   0.725   2.544   4.753 -0.2289 -0.0023 -0.3711
 4407SOL    HW124683   0.749   2.472   4.694 -0.0573 -0.1894 -0.0753
 4407SOL    HW224684   0.655   2.579   4.698 -0.9402 -0.7204  0.0630
 4408SOL     OW24685   1.934   2.983  16.009 -0.0329  0.1998  0.9176
 4408SOL    HW124686   1.842   2.999  16.026  0.4518  1.3301  2.5450
 4408SOL    HW224687   1.935   2.887  16.005  0.0219  0.1310  2.5033
 4409SOL     OW24688   2.738   2.112  11.344 -0.0340 -0.1477  0.1719
 4409SOL    HW124689   2.700   2.025  11.330 -0.4102  0.4198 -2.2496
 4409SOL    HW224690   2.662   2.168  11.360 -1.3110 -1.4581 -1.3358
 4410SOL     OW24691   4.360   2.791   8.439  0.4290 -0.0974  0.5304
 4410SOL    HW124692   4.391   2.791   8.530  0.8264 -1.7956  0.4030
 4410SOL    HW224693   4.427   2.843   8.395 -0.4156 -0.0165 -0.6619
 4411SOL     OW24694   1.869   0.694   5.070 -0.3191  0.1943 -0.1551
 4411SOL    HW124695   1.817   0.673   5.148 -1.1783  2.2775 -0.1502
 4411SOL    HW224696   1.883   0.608   5.032  3.3068  0.1611  1.3066
 4412SOL     OW24697   1.847   0.135   9.181 -0.6322  0.4634 -0.4883
 4412SOL    HW124698   1.858   0.119   9.275  0.1362  1.5603 -0.3929
 4412SOL    HW224699   1.889   0.221   9.181  0.9351 -0.2825  1.0520
 4413SOL     OW24700   2.533   2.127   6.078 -0.3693 -0.2673  0.7346
 4413SOL    HW124701   2.438   2.130   6.068 -0.2745  3.0643  1.1357
 4413SOL    HW224702   2.566   2.190   6.013  1.0989 -0.8869  0.8661
 4414SOL     OW24703   1.240   4.072   6.724  0.1358 -0.4203 -0.0936
 4414SOL    HW124704   1.246   3.977   6.736 -1.7417 -0.1740  2.6172
 4414SOL    HW224705   1.146   4.089   6.720  0.6262  2.5014  1.0629
 4415SOL     OW24706   1.583   3.481   7.270 -0.2894  0.8158  0.4439
 4415SOL    HW124707   1.653   3.431   7.312  1.0277  1.3347 -1.1632
 4415SOL    HW224708   1.513   3.479   7.336 -0.6610 -0.8709  0.0023
 4416SOL     OW24709   0.537   2.601  14.444 -0.2448  0.3660 -0.7560
 4416SOL    HW124710   0.553   2.695  14.454 -0.8940  0.2810  1.1698
 4416SOL    HW224711   0.511   2.599  14.352  2.2702 -2.2042 -1.4405
 4417SOL     OW24712   2.804   4.567   3.223 -0.4568  0.0904 -0.0970
 4417SOL    HW124713   2.769   4.519   3.147 -0.5876 -0.8015  0.5310
 4417SOL    HW224714   2.845   4.500   3.277 -0.0561  3.2326  3.4355
 4418SOL     OW24715   4.116   0.444   8.958  0.0803 -0.6725  0.6093
 4418SOL    HW124716   4.146   0.359   8.991 -1.3729 -0.7545  1.7415
 4418SOL    HW224717   4.023   0.420   8.955 -0.3493  1.0528 -0.1437
 4419SOL     OW24718   1.571   3.484   4.856  0.8862  0.0475  0.5361
 4419SOL    HW124719   1.570   3.550   4.925  1.0565  0.7260 -0.1204
 4419SOL    HW224720   1.545   3.408   4.909  1.3575 -1.3345 -1.2012
 4420SOL     OW24721   4.122   4.381   6.294  0.3509 -0.0621 -0.1697
 4420SOL    HW124722   4.028   4.366   6.284  0.8131 -3.0972 -0.0888
 4420SOL    HW224723   4.144   4.343   6.379  0.1819 -0.4491 -0.2986
 4421SOL     OW24724   0.659   2.877  14.510  0.7718  0.1551  0.1746
 4421SOL    HW124725   0.728   2.817  14.538 -0.2194 -0.7168  0.7818
 4421SOL    HW224726   0.689   2.967  14.520  0.9241 -0.0592  1.6775
 4422SOL     OW24727   2.922   0.396   4.949 -0.3726 -0.1234 -0.4919
 4422SOL    HW124728   2.964   0.482   4.947  1.4742 -0.9385  2.2365
 4422SOL    HW224729   2.864   0.396   5.025  1.4077 -2.4650  0.8787
 4423SOL     OW24730   2.366   1.044   6.057  0.4490  0.3946  0.0997
 4423SOL    HW124731   2.426   0.970   6.048  1.0087  0.6077  2.1129
 4423SOL    HW224732   2.356   1.058   5.963  0.0947 -1.5461 -0.1405
 4424SOL     OW24733   0.244   3.684  10.538 -0.0702 -0.3889  0.5330
 4424SOL    HW124734   0.298   3.647  10.608 -0.0546  0.1092  0.7833
 4424SOL    HW224735   0.152   3.673  10.561 -0.3475  1.1990  0.1694
 4425SOL     OW24736   0.068   4.564   6.347 -0.0365  0.2330  0.2854
 4425SOL    HW124737   0.106   4.649   6.324  0.3225 -0.2100 -0.7707
 4425SOL    HW224738   0.026   4.546   6.263  0.7230  0.1842 -0.0828
 4426SOL     OW24739   2.436   2.520  16.979  0.6470  0.5327  0.0385
 4426SOL    HW124740   2.458   2.434  16.941  0.5427  0.6235 -0.2290
 4426SOL    HW224741   2.498   2.530  17.052  0.3196  0.8482  0.2720
 4427SOL     OW24742   0.559   3.716   8.863 -0.3771 -0.0799 -0.0712
 4427SOL    HW124743   0.595   3.791   8.910 -0.3827 -0.3040  0.2888
 4427SOL    HW224744   0.545   3.663   8.942 -0.8375 -0.2611 -0.2780
 4428SOL     OW24745   0.294   1.150   3.102 -0.0738  0.4545  0.8525
 4428SOL    HW124746   0.360   1.088   3.134  0.9224  1.2474  0.3541
 4428SOL    HW224747   0.323   1.168   3.013  0.2272  3.4730  1.5351
 4429SOL     OW24748   4.297   1.511  17.500 -0.5733 -0.5673 -0.0948
 4429SOL    HW124749   4.390   1.498  17.481  0.0274  0.6797  2.0093
 4429SOL    HW224750   4.251   1.522  17.417  1.0669  3.8639 -0.4192
 4430SOL     OW24751   3.364   1.255  15.301 -0.8841  0.1708  0.0974
 4430SOL    HW124752   3.282   1.216  15.272 -0.0168 -1.9710  0.5387
 4430SOL    HW224753   3.334   1.344  15.286 -0.2086  0.0155 -2.1814
 4431SOL     OW24754   3.934   0.523   6.738  0.6179  0.2682 -0.1555
 4431SOL    HW124755   3.959   0.459   6.671 -1.9679 -0.0007 -0.8686
 4431SOL    HW224756   3.946   0.476   6.820 -0.0049  3.5454  1.7932
 4432SOL     OW24757   3.427   3.312   5.626  0.2586  0.4002 -0.6887
 4432SOL    HW124758   3.511   3.353   5.646 -0.5103  1.1901  0.9156
 4432SOL    HW224759   3.449   3.249   5.557 -1.7442 -1.2709  0.1679
 4433SOL     OW24760   4.243   4.076   9.764 -0.1092  0.1380 -0.5020
 4433SOL    HW124761   4.155   4.076   9.728 -0.2144 -2.6693 -0.2459
 4433SOL    HW224762   4.259   3.982   9.758 -0.7480 -0.1050  1.8679
 4434SOL     OW24763   1.362   0.058   1.093 -0.2222 -0.5090 -0.1799
 4434SOL    HW124764   1.438   0.005   1.117 -0.0887 -0.7115 -1.0603
 4434SOL    HW224765   1.380   0.141   1.136 -0.9514 -0.6344  0.3705
 4435SOL     OW24766   0.795   2.822   4.647  0.1646 -0.5447  0.1984
 4435SOL    HW124767   0.801   2.768   4.725  1.6131 -0.7510 -0.0632
 4435SOL    HW224768   0.879   2.868   4.640 -0.7260  1.0023 -0.5101
 4436SOL     OW24769   2.811   2.848   5.230 -0.2646  0.3160 -0.0438
 4436SOL    HW124770   2.771   2.892   5.304 -0.8008 -0.3411  0.0607
 4436SOL    HW224771   2.809   2.757   5.260  1.2220  0.3410  0.1388
 4437SOL     OW24772   4.530   1.570  15.129  0.2653 -0.0169 -0.1770
 4437SOL    HW124773   4.624   1.585  15.142  0.5286  0.2553 -2.4753
 4437SOL    HW224774   4.506   1.630  15.059 -1.5298  1.7946  2.0056
 4438SOL     OW24775   3.409   2.277   2.348 -0.1818 -0.2173  0.0995
 4438SOL    HW124776   3.453   2.194   2.329  0.7122  0.3079 -0.1431
 4438SOL    HW224777   3.462   2.339   2.297 -1.9357  1.5266  0.3699
 4439SOL     OW24778   1.460   1.338  15.030  0.4127 -0.4463  0.7045
 4439SOL    HW124779   1.458   1.316  14.937 -2.3666 -2.0813  1.1610
 4439SOL    HW224780   1.540   1.391  15.026 -1.2191  1.6344 -4.3735
 4440SOL     OW24781   2.808   2.178   2.088  0.4984  0.3505  0.1393
 4440SOL    HW124782   2.792   2.219   2.173 -0.7083  1.1453 -0.4769
 4440SOL    HW224783   2.903   2.163   2.096  0.2584 -0.3457  1.7718
 4441SOL     OW24784   2.421   3.016   4.648  0.0267 -0.5952 -0.5969
 4441SOL    HW124785   2.444   2.923   4.644 -0.6278 -0.5614 -4.6735
 4441SOL    HW224786   2.422   3.038   4.555  0.5767 -0.9259 -0.6759
 4442SOL     OW24787   0.137   0.417   8.263  0.2798 -0.3364  0.0114
 4442SOL    HW124788   0.088   0.426   8.345  0.8247 -0.3913  0.3442
 4442SOL    HW224789   0.216   0.469   8.283  0.1635 -0.3674  0.5672
 4443SOL     OW24790   1.086   4.269   4.288  0.1066  0.3093 -0.6645
 4443SOL    HW124791   1.064   4.275   4.381 -1.8625 -0.9309 -1.0520
 4443SOL    HW224792   1.182   4.261   4.293 -0.1472 -1.3015  1.6374
 4444SOL     OW24793   3.778   1.930   5.938  0.3039 -0.2938 -0.3047
 4444SOL    HW124794   3.791   1.867   5.868  0.8533  1.0637 -1.4320
 4444SOL    HW224795   3.836   1.895   6.005  0.4100 -0.6095 -0.5622
 4445SOL     OW24796   3.009   3.706   6.713 -0.0329 -0.6441 -0.3543
 4445SOL    HW124797   2.989   3.665   6.629 -4.1653 -0.2450  0.4388
 4445SOL    HW224798   2.982   3.797   6.697 -0.3525 -0.3055  2.0190
 4446SOL     OW24799   2.352   3.190   8.185  0.6484  0.1336 -0.7695
 4446SOL    HW124800   2.281   3.242   8.147 -1.3757 -0.8221  1.6449
 4446SOL    HW224801   2.369   3.252   8.256 -1.0842 -0.3507  0.0723
 4447SOL     OW24802   1.126   3.896   1.774 -0.0210 -0.6173 -0.5583
 4447SOL    HW124803   1.100   3.807   1.748 -0.1186 -0.9718  0.7795
 4447SOL    HW224804   1.187   3.912   1.703 -2.5406 -1.6233 -2.9822
 4448SOL     OW24805   4.149   0.488   7.054 -0.3260 -0.2487 -0.1214
 4448SOL    HW124806   4.114   0.417   7.001  2.4732 -1.7504  0.0388
 4448SOL    HW224807   4.063   0.510   7.089 -0.5614  0.5516 -1.2075
 4449SOL     OW24808   1.150   1.108   1.308 -0.4199  0.7327  0.0551
 4449SOL    HW124809   1.126   1.017   1.290  2.8608 -0.3165  0.9632
 4449SOL    HW224810   1.070   1.131   1.356 -1.3961 -5.7708  1.5870
 4450SOL     OW24811   4.061   2.675   6.801  0.1048  0.2250 -0.4726
 4450SOL    HW124812   4.076   2.664   6.706  0.3763 -1.3260 -0.2641
 4450SOL    HW224813   3.989   2.737   6.798 -0.4194 -0.4152 -1.3060
 4451SOL     OW24814   3.559   1.085   8.581  0.8871 -0.3500  0.5196
 4451SOL    HW124815   3.545   1.009   8.525  0.1920  1.0547 -1.2016
 4451SOL    HW224816   3.629   1.043   8.631  0.4573  0.5432  1.8874
 4452SOL     OW24817   3.618   2.172   6.419 -0.1129  0.1396  1.2200
 4452SOL    HW124818   3.695   2.170   6.476 -0.5284 -0.1488  1.7652
 4452SOL    HW224819   3.630   2.088   6.375 -0.3357  1.1524 -0.7617
 4453SOL     OW24820   3.317   2.675   7.605 -0.3921 -0.0897 -0.1339
 4453SOL    HW124821   3.261   2.663   7.528  1.2397  2.1953 -1.6730
 4453SOL    HW224822   3.276   2.637   7.683 -1.4525 -2.6091 -1.8786
 4454SOL     OW24823   3.225   2.264   9.854  0.1303  0.6072 -0.7064
 4454SOL    HW124824   3.157   2.273   9.921  1.6765  1.7921  0.7137
 4454SOL    HW224825   3.247   2.171   9.854 -0.7668  0.3986 -0.9476
 4455SOL     OW24826   3.499   2.548   0.224 -0.0889  0.1372  0.2636
 4455SOL    HW124827   3.554   2.579   0.152  0.0730  0.0067  0.3293
 4455SOL    HW224828   3.426   2.610   0.222  1.1522  1.5688 -1.0565
 4456SOL     OW24829   4.118   1.439   0.030  0.7927  0.2604  0.4974
 4456SOL    HW124830   4.112   1.366   0.092  0.5212 -0.9628 -0.9938
 4456SOL    HW224831   4.035   1.436  17.683  1.1674  0.0091 -0.1692
 4457SOL     OW24832   2.017   3.346  12.565  0.4732  0.4615  0.1330
 4457SOL    HW124833   1.967   3.273  12.602 -0.8204  1.5999  0.6328
 4457SOL    HW224834   1.981   3.428  12.599  0.7164  2.2225 -3.8076
 4458SOL     OW24835   0.033   1.966   5.229  0.5673 -0.3306  0.1828
 4458SOL    HW124836   0.112   1.962   5.175  0.7076 -1.5142  0.4825
 4458SOL    HW224837   4.687   1.943   5.167  0.2033 -2.7025  1.4784
 4459SOL     OW24838   1.112   1.192   3.729  0.7110 -0.5027  0.3262
 4459SOL    HW124839   1.187   1.228   3.776  0.8210 -0.5347  0.1739
 4459SOL    HW224840   1.110   1.223   3.639 -0.7713  0.2420  0.6068
 4460SOL     OW24841   3.174   0.447  12.729  0.5209 -0.0863  0.2048
 4460SOL    HW124842   3.257   0.455  12.682  0.7382  1.5043  0.8563
 4460SOL    HW224843   3.147   0.358  12.705 -2.0068  0.7658 -0.2007
 4461SOL     OW24844   3.165   1.200  11.666  0.4101 -0.1995  0.0346
 4461SOL    HW124845   3.250   1.241  11.678 -0.1063  0.4862  1.3397
 4461SOL    HW224846   3.122   1.230  11.746 -0.3668  1.3310 -0.9449
 4462SOL     OW24847   2.344   3.254  15.506  0.0711 -0.5026 -0.1636
 4462SOL    HW124848   2.366   3.224  15.594 -1.4849  2.9262  1.3920
 4462SOL    HW224849   2.254   3.221  15.502  0.5485 -1.7954 -0.1627
 4463SOL     OW24850   3.467   0.910   1.043 -0.7278 -0.6005 -0.4050
 4463SOL    HW124851   3.376   0.882   1.053 -0.2626 -0.9783  2.5675
 4463SOL    HW224852   3.476   1.000   1.075  1.3134 -0.7889 -0.4096
 4464SOL     OW24853   3.520   1.784   5.293  0.2610 -0.1668 -0.2898
 4464SOL    HW124854   3.526   1.770   5.199  1.8743 -1.9840  0.0858
 4464SOL    HW224855   3.588   1.722   5.320  0.7517  0.6855  0.4350
 4465SOL     OW24856   2.969   4.263   9.522  0.7270 -0.4763 -0.0834
 4465SOL    HW124857   3.027   4.270   9.447 -0.6764 -0.7070 -1.1998
 4465SOL    HW224858   2.931   4.175   9.519  0.9467 -0.5132 -1.7120
 4466SOL     OW24859   1.599   1.507   8.254  0.0402  0.2006 -0.1346
 4466SOL    HW124860   1.564   1.422   8.282 -0.4663  0.2587 -0.5966
 4466SOL    HW224861   1.694   1.505   8.269  0.2055  1.9471 -0.8810
 4467SOL     OW24862   4.630   1.333   4.800  0.1783  0.3890 -0.1113
 4467SOL    HW124863   4.689   1.353   4.873 -0.0587 -0.1338  0.2203
 4467SOL    HW224864   4.612   1.415   4.753 -2.0954  0.5259  0.9816
 4468SOL     OW24865   3.447   0.935  11.122 -0.3291  0.1917  0.0112
 4468SOL    HW124866   3.367   0.883  11.111  0.6578 -1.0163 -1.3288
 4468SOL    HW224867   3.496   0.886  11.056 -1.3212 -0.1037 -0.5045
 4469SOL     OW24868   0.540   4.327  17.478 -0.0574 -0.3764  0.2546
 4469SOL    HW124869   0.576   4.416  17.477 -2.2195  0.4908 -0.0010
 4469SOL    HW224870   0.597   4.269  17.427  0.9014  1.0360 -0.2892
 4470SOL     OW24871   0.902   2.666  13.608  0.2193 -0.0444 -0.6890
 4470SOL    HW124872   0.877   2.649  13.699  0.7239  1.7220 -0.2265
 4470SOL    HW224873   0.873   2.584  13.568 -0.4395  0.2748 -0.8703
 4471SOL     OW24874   2.935   3.103   9.465 -0.7017 -0.6011  0.0696
 4471SOL    HW124875   2.889   3.032   9.509  0.3548 -1.2224  0.1544
 4471SOL    HW224876   2.879   3.110   9.387 -0.4613  0.3129 -0.0267
 4472SOL     OW24877   1.286   0.021   4.256  0.2417 -0.1229 -0.5126
 4472SOL    HW124878   1.237   0.079   4.197  0.2824 -0.2842 -0.7027
 4472SOL    HW224879   1.215   4.687   4.283 -1.2886  1.6997 -0.5044
 4473SOL     OW24880   2.891   0.581   6.948  0.0267  0.4919  0.5975
 4473SOL    HW124881   2.826   0.588   6.878  1.0038 -0.6196 -0.4121
 4473SOL    HW224882   2.915   0.674   6.949 -0.6488  0.6731 -0.1082
 4474SOL     OW24883   0.309   0.292   6.192 -0.4094 -0.5151 -0.0061
 4474SOL    HW124884   0.308   0.316   6.099 -0.0340 -0.4413  0.0125
 4474SOL    HW224885   0.349   0.366   6.237 -0.8216  0.2949 -0.9743
 4475SOL     OW24886   1.745   3.858  11.860 -0.4436 -0.1836  0.0742
 4475SOL    HW124887   1.813   3.830  11.922 -1.5875 -1.6476  0.6597
 4475SOL    HW224888   1.663   3.832  11.900  0.0759  0.0075  1.2551
 4476SOL     OW24889   3.216   0.580   8.960 -1.3389  0.4718  0.0472
 4476SOL    HW124890   3.136   0.529   8.971 -1.3220  0.5112  0.3496
 4476SOL    HW224891   3.220   0.563   8.866 -0.0095  2.1937 -0.2005
 4477SOL     OW24892   1.540   2.442  14.298 -0.3149 -0.1961 -0.1637
 4477SOL    HW124893   1.540   2.526  14.252  0.1743 -0.3746 -0.4801
 4477SOL    HW224894   1.463   2.403  14.256 -0.0669 -1.4043  0.5069
 4478SOL     OW24895   3.937   1.859   9.220  0.3258 -0.8151  0.2138
 4478SOL    HW124896   3.896   1.927   9.273  0.8013  0.8436 -1.5425
 4478SOL    HW224897   3.866   1.796   9.207 -1.8699  2.1814 -2.3866
 4479SOL     OW24898   1.828   4.070   9.514 -0.3906 -0.2622  0.1310
 4479SOL    HW124899   1.866   3.982   9.519  0.4969  0.2334  1.9047
 4479SOL    HW224900   1.891   4.112   9.573  0.1077  1.4950 -1.6542
 4480SOL     OW24901   2.570   2.652  14.176 -0.7288  1.0128  0.8838
 4480SOL    HW124902   2.546   2.645  14.269  0.2698  0.2182  1.0885
 4480SOL    HW224903   2.596   2.562  14.156  0.6190  1.7324 -0.6592
 4481SOL     OW24904   0.850   4.454   0.953 -0.0506 -0.0694  0.2955
 4481SOL    HW124905   0.805   4.526   0.910  1.5320 -0.1589 -1.5030
 4481SOL    HW224906   0.804   4.445   1.036  0.5827  0.7420  0.7397
 4482SOL     OW24907   3.937   1.196   4.907  0.3122 -0.3404 -0.1550
 4482SOL    HW124908   3.977   1.256   4.844 -0.0541 -0.5994 -0.6358
 4482SOL    HW224909   3.990   1.204   4.986 -0.0197  0.0921  0.0224
 4483SOL     OW24910   3.341   2.674   9.034  0.0321  0.2241 -0.2268
 4483SOL    HW124911   3.260   2.684   8.984  1.8737  3.3866 -2.6274
 4483SOL    HW224912   3.380   2.762   9.029  1.1026 -0.2108  0.4044
 4484SOL     OW24913   1.628   2.433   3.607 -0.1407  0.0399  0.0407
 4484SOL    HW124914   1.665   2.374   3.541 -0.1862 -0.9038  0.8492
 4484SOL    HW224915   1.588   2.369   3.667  1.1632  1.0113  1.9316
 4485SOL     OW24916   1.593   3.974   7.473 -0.0991  0.0740  0.0608
 4485SOL    HW124917   1.631   3.914   7.409  0.4224 -0.3105  0.7290
 4485SOL    HW224918   1.667   4.030   7.498 -0.0212  0.6573 -1.4672
 4486SOL     OW24919   3.311   4.488  10.166  0.4350  0.3562  0.0790
 4486SOL    HW124920   3.384   4.436  10.134 -0.7561 -1.4195  0.2704
 4486SOL    HW224921   3.356   4.549  10.225 -0.2634  0.4894  0.4745
 4487SOL     OW24922   0.469   0.885   5.513 -0.2147  0.0845 -0.1892
 4487SOL    HW124923   0.551   0.935   5.511 -0.5589  0.7172  1.9614
 4487SOL    HW224924   0.422   0.949   5.460  0.8964 -0.1250 -1.4312
 4488SOL     OW24925   4.076   3.574   1.930 -0.0765  0.6871 -0.0956
 4488SOL    HW124926   4.131   3.549   2.004  0.8964  0.7230 -0.8113
 4488SOL    HW224927   4.077   3.669   1.943 -0.7447  0.7643 -0.5548
 4489SOL     OW24928   1.444   3.688   0.105  0.4167 -0.1451 -0.0136
 4489SOL    HW124929   1.419   3.764   0.053  0.8904  1.1422  1.6580
 4489SOL    HW224930   1.384   3.622   0.070  0.6775 -0.4638  0.1436
 4490SOL     OW24931   3.536   3.652  10.674 -0.2120  0.7901 -0.0805
 4490SOL    HW124932   3.492   3.662  10.759 -0.2687  0.5346 -0.0789
 4490SOL    HW224933   3.577   3.566  10.682 -0.0395  1.1858  3.2900
 4491SOL     OW24934   1.840   2.331  17.502 -0.4380 -0.1326 -0.0292
 4491SOL    HW124935   1.863   2.251  17.455 -0.3857 -0.0120 -0.2063
 4491SOL    HW224936   1.900   2.322  17.576  1.4273  0.8356 -1.4223
 4492SOL     OW24937   4.375   3.274   8.975 -0.3075 -0.3961 -0.0273
 4492SOL    HW124938   4.320   3.245   9.049 -0.0290  0.3026  0.4529
 4492SOL    HW224939   4.424   3.195   8.953  0.6072  0.2905 -0.4370
 4493SOL     OW24940   0.236   2.120   9.102 -0.4959  0.5771 -0.3760
 4493SOL    HW124941   0.320   2.120   9.057  0.6455  1.3508  1.7321
 4493SOL    HW224942   0.247   2.051   9.168 -2.1835  0.3728 -0.2989
 4494SOL     OW24943   4.634   0.490  17.689  0.3853  0.0129 -0.0696
 4494SOL    HW124944   4.724   0.512  17.665  0.5892  0.1918  0.8795
 4494SOL    HW224945   4.638   0.396  17.674  0.5433 -0.2316  1.5239
 4495SOL     OW24946   0.186   0.902   6.899 -0.1369 -0.3773 -0.2655
 4495SOL    HW124947   0.262   0.947   6.861 -1.8496  1.3489 -1.6750
 4495SOL    HW224948   0.149   0.971   6.955 -0.3038  0.0549 -0.9044
 4496SOL     OW24949   0.715   4.306  17.105 -0.0187  0.6615 -0.6635
 4496SOL    HW124950   0.703   4.252  17.183  1.1967  0.4257 -0.6429
 4496SOL    HW224951   0.737   4.387  17.152  1.5666 -2.2814  3.6296
 4497SOL     OW24952   4.722   2.555   8.835  0.1215 -0.2721 -0.2470
 4497SOL    HW124953   0.081   2.586   8.801  1.0840 -1.3435  1.1252
 4497SOL    HW224954   0.026   2.468   8.862  1.4031  0.1475 -0.2413
 4498SOL     OW24955   2.591   0.580  15.563 -0.0251  0.4868  0.1490
 4498SOL    HW124956   2.644   0.652  15.528  0.5171 -0.3258 -0.6962
 4498SOL    HW224957   2.574   0.530  15.484  3.4806  1.7904 -1.4381
 4499SOL     OW24958   1.908   4.330  16.724 -0.1691  0.1212 -0.0614
 4499SOL    HW124959   1.897   4.251  16.672 -2.9372 -0.1062  0.8473
 4499SOL    HW224960   1.933   4.295  16.810 -3.1672  1.8760  1.5213
 4500SOL     OW24961   2.490   0.429  16.436 -0.8159  0.4531  0.1161
 4500SOL    HW124962   2.504   0.446  16.529  1.7923  2.5154 -0.6508
 4500SOL    HW224963   2.401   0.463  16.426 -1.5420 -0.8807  2.0716
 4501SOL     OW24964   3.597   2.973   5.792 -0.2861 -0.0292  0.6529
 4501SOL    HW124965   3.625   2.885   5.765  3.4388  1.7670 -1.2353
 4501SOL    HW224966   3.571   2.963   5.884 -1.0244  0.7792  0.5352
 4502SOL     OW24967   4.241   0.277   8.190  0.1802  0.1635  0.0134
 4502SOL    HW124968   4.163   0.322   8.224  0.9626  0.2930  1.6116
 4502SOL    HW224969   4.198   0.192   8.191  0.4058  0.0090 -2.9750
 4503SOL     OW24970   0.921   1.936  16.922 -0.4539 -0.1789 -0.2264
 4503SOL    HW124971   0.898   1.977  16.838  0.3087 -0.2639 -0.4764
 4503SOL    HW224972   1.014   1.926  16.901 -0.2946 -0.4124  0.6225
 4504SOL     OW24973   2.558   2.283   6.583 -0.5407  0.4372  0.3722
 4504SOL    HW124974   2.577   2.360   6.530 -1.3444  1.5371  1.6877
 4504SOL    HW224975   2.467   2.279   6.555 -0.4534 -0.5055  0.2149
 4505SOL     OW24976   2.586   2.860   1.019  0.3147  0.4214 -0.4188
 4505SOL    HW124977   2.651   2.931   1.018 -1.0737  1.6913  0.4651
 4505SOL    HW224978   2.542   2.860   0.934  0.1505  2.9626 -0.3247
 4506SOL     OW24979   0.568   4.160  14.971  0.2200  0.2041  0.2959
 4506SOL    HW124980   0.620   4.114  14.906 -0.3481  1.8663 -1.3131
 4506SOL    HW224981   0.566   4.097  15.043  0.8717  1.7774  1.6941
 4507SOL     OW24982   4.372   4.492   4.726  0.3999 -0.2924  0.2292
 4507SOL    HW124983   4.410   4.547   4.795  0.7134  2.7748 -2.4027
 4507SOL    HW224984   4.409   4.407   4.753  3.1991  0.8678  0.0086
 4508SOL     OW24985   2.076   0.660   8.919  0.0282 -0.7795  0.1629
 4508SOL    HW124986   2.066   0.737   8.975  0.7697  0.2643 -1.1527
 4508SOL    HW224987   2.030   0.592   8.969 -1.2074 -0.6902 -0.8695
 4509SOL     OW24988   4.515   0.266   7.671 -0.2438  0.2382  0.5195
 4509SOL    HW124989   4.510   0.306   7.758  0.8479 -0.3999  0.8789
 4509SOL    HW224990   4.515   0.347   7.620 -0.1528 -0.9213 -1.3142
 4510SOL     OW24991   4.519   0.309   7.939 -0.0451 -0.5954  0.0473
 4510SOL    HW124992   4.510   0.307   8.035 -0.2801 -1.0981  0.0139
 4510SOL    HW224993   4.614   0.301   7.933  0.1257 -0.8941  2.7221
 4511SOL     OW24994   1.420   3.329   2.370 -0.0535  0.4824 -0.0979
 4511SOL    HW124995   1.460   3.416   2.363  1.6410 -0.3571 -0.9477
 4511SOL    HW224996   1.332   3.358   2.393  0.1574 -0.1038  1.4542
 4512SOL     OW24997   3.513   3.242   1.949  0.1387  0.6918 -0.2262
 4512SOL    HW124998   3.495   3.187   1.873  2.2034  0.1316 -0.3027
 4512SOL    HW224999   3.609   3.246   1.949  0.2918 -3.4414 -1.1200
 4513SOL     OW25000   0.293   0.393   6.821 -0.2637  0.1855  0.5956
 4513SOL    HW125001   0.245   0.317   6.854  2.9826 -2.7513 -1.4813
 4513SOL    HW225002   0.377   0.374   6.861  0.0275 -1.0108 -0.5931
 4514SOL     OW25003   3.716   4.031   8.524 -0.0519 -0.1377  0.3626
 4514SOL    HW125004   3.755   3.952   8.487 -1.8409 -1.2220  0.7744
 4514SOL    HW225005   3.792   4.061   8.574  0.5546  1.3417 -1.4520
 4515SOL     OW25006   0.896   0.240   3.811  0.0304 -0.0873 -0.4415
 4515SOL    HW125007   0.986   0.232   3.780 -1.0911  0.5087 -3.8712
 4515SOL    HW225008   0.839   0.244   3.734  0.5192 -0.6507 -0.8443
 4516SOL     OW25009   2.792   2.632   8.826 -0.5176  0.4192  0.3235
 4516SOL    HW125010   2.813   2.566   8.892 -1.5242 -1.9395 -1.7103
 4516SOL    HW225011   2.778   2.710   8.879 -2.6847  0.4437 -0.2662
 4517SOL     OW25012   0.184   4.036   8.400  0.1426  0.1195 -0.5343
 4517SOL    HW125013   0.114   3.992   8.448  0.0131 -0.8712 -1.6207
 4517SOL    HW225014   0.258   4.037   8.461 -2.6637 -3.0209  2.9200
 4518SOL     OW25015   1.081   2.710   2.608  0.0560 -0.1119 -0.1140
 4518SOL    HW125016   1.138   2.686   2.681 -1.7147  2.4827  2.1342
 4518SOL    HW225017   1.103   2.801   2.591  0.2515 -0.5606 -2.1692
 4519SOL     OW25018   1.950   1.952   6.912 -0.4338 -0.5252  0.4356
 4519SOL    HW125019   1.922   1.905   6.833  1.0145  0.9654 -0.9754
 4519SOL    HW225020   1.922   2.042   6.895 -1.1603 -1.1409 -1.6410
 4520SOL     OW25021   1.209   4.589   1.876 -0.6061 -0.3823 -0.0271
 4520SOL    HW125022   1.244   4.635   1.952  2.8086 -1.3065 -1.0430
 4520SOL    HW225023   1.290   4.549   1.846 -0.3976  0.4313 -0.5636
 4521SOL     OW25024   1.456   3.201   2.925  0.3649  0.5458 -0.2631
 4521SOL    HW125025   1.489   3.253   2.851 -2.8136 -1.0119 -2.7826
 4521SOL    HW225026   1.388   3.256   2.965  0.4462 -1.5940  2.7972
 4522SOL     OW25027   2.549   2.759   7.754  0.4513  0.2492  0.4034
 4522SOL    HW125028   2.469   2.811   7.746  0.1870 -0.0415  1.1594
 4522SOL    HW225029   2.596   2.821   7.809 -1.3986  2.9253 -1.0423
 4523SOL     OW25030   2.462   0.374   7.733 -0.0664  0.2452  0.7005
 4523SOL    HW125031   2.441   0.446   7.674 -1.0074 -0.1610  0.5428
 4523SOL    HW225032   2.454   0.420   7.817  1.6459 -1.0611  1.5906
 4524SOL     OW25033   1.252   1.185   2.619  0.5620  0.0677 -0.0339
 4524SOL    HW125034   1.320   1.122   2.642  1.3763  0.5325 -1.1388
 4524SOL    HW225035   1.166   1.143   2.613  1.6825 -2.4992  2.2113
 4525SOL     OW25036   3.657   0.963  14.378 -0.0954 -0.3382  0.2238
 4525SOL    HW125037   3.703   0.918  14.307  0.2812 -0.8078  0.7723
 4525SOL    HW225038   3.581   0.907  14.396  1.0561 -2.3398 -1.2246
 4526SOL     OW25039   3.027   3.077   8.673 -0.0071 -0.4940  0.1468
 4526SOL    HW125040   3.053   3.052   8.584  1.3395  1.8067 -0.1215
 4526SOL    HW225041   3.100   3.137   8.683 -0.0144 -0.1890 -1.5361
 4527SOL     OW25042   1.573   1.270   0.155 -0.3873 -0.2910  0.3450
 4527SOL    HW125043   1.621   1.321   0.090 -1.1175 -0.8325 -0.6031
 4527SOL    HW225044   1.561   1.335   0.225  0.3196  1.4335 -1.1521
 4528SOL     OW25045   0.389   4.038  14.090 -0.0545 -0.3517  0.2915
 4528SOL    HW125046   0.473   4.049  14.046  0.2854 -0.6908  0.8565
 4528SOL    HW225047   0.337   3.989  14.026 -0.1258  0.3825 -0.2220
 4529SOL     OW25048   0.704   0.610  11.747 -0.3676  0.6479  0.8560
 4529SOL    HW125049   0.762   0.543  11.710 -2.8344 -0.5630 -0.8331
 4529SOL    HW225050   0.773   0.665  11.784 -2.7799  2.1758  3.0611
 4530SOL     OW25051   3.529   1.502   9.153 -0.3181 -0.3143 -0.0851
 4530SOL    HW125052   3.483   1.421   9.177 -1.8217  0.6375  0.1923
 4530SOL    HW225053   3.459   1.566   9.156 -0.4132 -0.4375  0.2803
 4531SOL     OW25054   4.557   1.361   5.621 -0.0172  0.1056  0.1630
 4531SOL    HW125055   4.651   1.350   5.634  0.0102  0.4305  0.2359
 4531SOL    HW225056   4.521   1.273   5.630  1.6568 -0.5091  0.8453
 4532SOL     OW25057   4.717   4.086   6.398  0.6638 -0.0756 -0.6658
 4532SOL    HW125058   0.014   4.169   6.439 -0.6050  0.2480 -0.6530
 4532SOL    HW225059   4.672   4.038   6.467 -0.7206  0.8642 -0.9242
 4533SOL     OW25060   1.304   4.601   2.573  0.0790 -0.4166 -0.1201
 4533SOL    HW125061   1.379   4.575   2.627  1.6220  2.0946 -1.0701
 4533SOL    HW225062   1.300   4.693   2.597  0.0343 -1.0974  2.5378
 4534SOL     OW25063   3.815   0.738   5.633 -0.3965 -0.4790  0.4005
 4534SOL    HW125064   3.763   0.726   5.553 -1.1045  1.2418  0.6188
 4534SOL    HW225065   3.871   0.660   5.635 -1.3682 -1.1312  1.7061
 4535SOL     OW25066   0.701   2.285   4.280  0.4073  0.6512  0.5178
 4535SOL    HW125067   0.733   2.369   4.246  0.1900  2.1268  3.9937
 4535SOL    HW225068   0.639   2.303   4.350 -0.1870  0.7058 -0.0208
 4536SOL     OW25069   2.309   3.795  16.027  0.3288 -0.0799  0.5878
 4536SOL    HW125070   2.369   3.728  15.996 -0.6754 -0.6944 -0.0230
 4536SOL    HW225071   2.269   3.825  15.945 -3.7103 -1.9114  1.8821
 4537SOL     OW25072   0.417   1.305  10.986 -0.1541 -0.0829  0.0492
 4537SOL    HW125073   0.323   1.307  11.004  0.1375  1.6750  1.3878
 4537SOL    HW225074   0.433   1.399  10.998 -1.6458  0.3829 -1.7149
 4538SOL     OW25075   3.486   1.108   9.498  0.2732 -0.3840  0.1374
 4538SOL    HW125076   3.546   1.093   9.571  0.6126  0.2124 -0.0170
 4538SOL    HW225077   3.550   1.128   9.429 -0.1436  0.4516 -0.0099
 4539SOL     OW25078   3.066   1.217   0.282  0.1282  0.3931 -0.0541
 4539SOL    HW125079   3.106   1.178   0.204  2.8164 -0.9415  2.0000
 4539SOL    HW225080   3.024   1.295   0.246  3.5054  1.4979 -1.6330
 4540SOL     OW25081   2.905   4.472   4.841  0.1218  0.3234 -0.0452
 4540SOL    HW125082   2.919   4.557   4.882  2.5823 -0.3226  0.4310
 4540SOL    HW225083   2.968   4.474   4.769  1.9989  2.4992  1.6717
 4541SOL     OW25084   2.818   2.744  12.601 -0.3990 -0.1075 -0.2987
 4541SOL    HW125085   2.723   2.747  12.589 -0.4654  1.0059  0.5854
 4541SOL    HW225086   2.839   2.728  12.509 -0.0518  1.9493 -0.5739
 4542SOL     OW25087   4.522   3.298   4.139  0.1627 -0.7835  0.6655
 4542SOL    HW125088   4.479   3.228   4.089  0.1312 -1.6458  1.9131
 4542SOL    HW225089   4.587   3.322   4.073 -0.8714 -0.4714 -0.2635
 4543SOL     OW25090   0.012   0.601   7.765 -0.1509  0.3284  0.8383
 4543SOL    HW125091   4.650   0.623   7.799  0.0670 -0.0051  1.6075
 4543SOL    HW225092   0.005   0.612   7.670  0.2802  0.4655  0.8248
 4544SOL     OW25093   1.112   0.108   4.509  0.6340  0.2677 -0.2139
 4544SOL    HW125094   1.199   0.075   4.532  0.4660  1.1714  1.7336
 4544SOL    HW225095   1.062   0.032   4.479 -1.1959  1.0523  0.8914
 4545SOL     OW25096   2.497   4.698  11.817 -0.2057 -0.2264  0.0090
 4545SOL    HW125097   2.508   0.002  11.726 -0.6479  0.4067  0.1549
 4545SOL    HW225098   2.405   4.714  11.837 -1.1064 -1.8940 -2.7334
 4546SOL     OW25099   1.787   3.053   7.776 -0.4827 -0.5834  0.5580
 4546SOL    HW125100   1.773   2.982   7.839 -0.9161 -1.2321 -0.2733
 4546SOL    HW225101   1.708   3.037   7.725  0.3778 -0.0731 -0.9138
 4547SOL     OW25102   1.120   0.079   9.179  0.0072 -0.3224 -0.8771
 4547SOL    HW125103   1.193   0.089   9.119  1.7571  0.2626  1.3470
 4547SOL    HW225104   1.056   0.115   9.117 -0.6704 -0.0986 -0.0463
 4548SOL     OW25105   2.635   3.502  16.795  0.4051  0.6430  0.0906
 4548SOL    HW125106   2.550   3.519  16.836  1.0802  0.6095  1.5277
 4548SOL    HW225107   2.639   3.580  16.740  0.8620  2.0841  2.1326
 4549SOL     OW25108   4.595   2.613   0.567 -0.1825  0.3467  0.1033
 4549SOL    HW125109   4.576   2.642   0.656 -0.2518 -1.7866  0.7731
 4549SOL    HW225110   4.665   2.548   0.565  1.0502  1.6731  0.0055
 4550SOL     OW25111   0.824   1.407   5.937  0.3556 -0.1213  0.2337
 4550SOL    HW125112   0.817   1.327   5.989 -1.5399  0.2354  0.5342
 4550SOL    HW225113   0.732   1.434   5.940  0.4482 -0.0005  2.1037
 4551SOL     OW25114   0.579   3.159   3.713 -0.4496  0.1679 -0.0191
 4551SOL    HW125115   0.670   3.174   3.738  0.6531 -0.6977 -3.4408
 4551SOL    HW225116   0.584   3.120   3.625 -1.2183 -0.5246  0.2412
 4552SOL     OW25117   0.191   2.711   2.669 -0.8186 -0.6618  0.4066
 4552SOL    HW125118   0.183   2.787   2.611  0.0535 -0.7632  0.1597
 4552SOL    HW225119   0.200   2.754   2.754 -0.6511 -0.1709  0.1432
 4553SOL     OW25120   4.045   4.132   7.908 -0.3403  0.5362  0.2620
 4553SOL    HW125121   4.081   4.219   7.924 -0.3661  0.5298  0.3580
 4553SOL    HW225122   4.045   4.119   7.813  2.0534 -0.1959  0.3548
 4554SOL     OW25123   4.094   3.974   6.584 -0.7243 -0.0875 -0.0408
 4554SOL    HW125124   4.130   3.924   6.657 -0.9530  0.1707  0.2512
 4554SOL    HW225125   4.005   3.939   6.578 -0.6439 -0.0570 -1.4284
 4555SOL     OW25126   2.754   0.602   4.186 -0.7360 -0.4901  0.2294
 4555SOL    HW125127   2.806   0.523   4.172  1.2514  1.2282 -2.0119
 4555SOL    HW225128   2.748   0.607   4.282 -0.6894 -0.0943  0.2126
 4556SOL     OW25129   0.177   3.004   3.111  0.0854  0.3756  0.2991
 4556SOL    HW125130   0.224   2.927   3.144 -2.0076 -0.1917  1.9733
 4556SOL    HW225131   0.223   3.009   3.027 -1.1808  1.5209 -0.3313
 4557SOL     OW25132   0.280   0.334  16.469  0.2917  0.5365  0.1484
 4557SOL    HW125133   0.249   0.377  16.549 -1.7936  1.8781 -1.3821
 4557SOL    HW225134   0.363   0.377  16.450  0.4080  0.0900 -0.3478
 4558SOL     OW25135   0.825   2.967   5.742 -0.0138  0.4790  0.3014
 4558SOL    HW125136   0.754   3.029   5.723  0.2955  0.8734  0.4301
 4558SOL    HW225137   0.824   2.910   5.665 -1.5530 -0.7753  1.2620
 4559SOL     OW25138   3.107   1.481  10.638 -0.1956 -0.2175 -0.1950
 4559SOL    HW125139   3.034   1.543  10.632  0.8246  0.9813 -0.3429
 4559SOL    HW225140   3.105   1.440  10.552  2.5155 -3.0088  1.0548
 4560SOL     OW25141   0.575   1.233  10.764  0.3042  0.6810 -0.6027
 4560SOL    HW125142   0.509   1.255  10.829  0.7383 -1.1186  0.4366
 4560SOL    HW225143   0.537   1.149  10.737  2.3871  0.3048 -2.3918
 4561SOL     OW25144   0.418   0.988   4.435  0.4011 -0.2399  0.1944
 4561SOL    HW125145   0.493   1.045   4.446 -0.5436  0.6695  1.9431
 4561SOL    HW225146   0.461   0.910   4.401 -0.4795  0.7113 -3.0180
 4562SOL     OW25147   3.441   3.335   3.749 -0.0083 -0.5616 -0.0049
 4562SOL    HW125148   3.346   3.338   3.758 -0.1622 -3.3289 -0.5133
 4562SOL    HW225149   3.451   3.418   3.704  2.3115 -0.2431  1.1193
 4563SOL     OW25150   0.049   2.468   6.041  0.0884  0.7356 -0.3225
 4563SOL    HW125151   0.014   2.525   6.109 -0.4243  1.2987 -1.0633
 4563SOL    HW225152   0.141   2.458   6.065 -0.0146 -0.3717 -0.3595
 4564SOL     OW25153   0.007   4.269   4.286  0.0961  0.0691  0.2436
 4564SOL    HW125154   4.703   4.344   4.235  1.4311 -0.3186 -1.0614
 4564SOL    HW225155   4.715   4.204   4.217 -0.6628  0.3594  0.1544
 4565SOL     OW25156   1.557   0.864   3.871 -0.0267  0.1478  0.0088
 4565SOL    HW125157   1.598   0.887   3.954 -0.0797 -2.5292  0.7807
 4565SOL    HW225158   1.620   0.806   3.830 -0.6730 -0.7112  0.2321
 4566SOL     OW25159   0.417   3.378  16.299 -0.3147 -0.1706  0.6762
 4566SOL    HW125160   0.326   3.365  16.271 -0.1505  0.5019 -0.1744
 4566SOL    HW225161   0.393   3.426  16.378  0.8977 -0.0439  0.9750
 4567SOL     OW25162   2.306   3.892   8.210 -0.5794  0.3637  0.4094
 4567SOL    HW125163   2.229   3.901   8.267 -2.3052 -1.5093 -1.5712
 4567SOL    HW225164   2.291   3.961   8.145  0.2030  0.0412 -0.1164
 4568SOL     OW25165   0.775   2.021  16.707  0.0314  0.0614 -0.0587
 4568SOL    HW125166   0.714   1.951  16.684  0.9773 -0.6973 -0.2476
 4568SOL    HW225167   0.793   2.056  16.619  0.8304 -1.3222 -0.4483
 4569SOL     OW25168   3.890   4.400   7.056  0.2092 -0.2278 -0.0482
 4569SOL    HW125169   3.865   4.491   7.071  2.2273  0.2238  0.5300
 4569SOL    HW225170   3.812   4.365   7.012 -0.1512 -1.3268  1.4451
 4570SOL     OW25171   1.399   2.604   7.772 -0.1471 -0.5549  0.1573
 4570SOL    HW125172   1.322   2.649   7.739 -0.1669 -1.1046 -0.5480
 4570SOL    HW225173   1.414   2.537   7.705 -3.0574 -0.5195 -0.5279
 4571SOL     OW25174   3.280   1.766   6.417  0.2154  0.5716  0.1939
 4571SOL    HW125175   3.242   1.801   6.498  0.0256 -0.9146  0.7487
 4571SOL    HW225176   3.315   1.852   6.393 -0.7869  1.4340  1.7839
 4572SOL     OW25177   2.148   1.847   5.439 -0.1067 -0.4148 -0.3836
 4572SOL    HW125178   2.162   1.758   5.470 -0.0409 -0.3225 -0.1498
 4572SOL    HW225179   2.097   1.821   5.362 -1.9260 -2.5855  1.5705
 4573SOL     OW25180   1.642   4.399  12.863  0.1437  0.3352  0.0169
 4573SOL    HW125181   1.583   4.412  12.789  1.6922  1.8061 -0.9475
 4573SOL    HW225182   1.692   4.325  12.828  1.8313  0.8864  1.3006
 4574SOL     OW25183   2.920   0.894   0.691 -0.7824 -0.3976  0.0851
 4574SOL    HW125184   2.965   0.936   0.618 -2.5274 -1.1653 -1.4472
 4574SOL    HW225185   2.890   0.821   0.636 -0.4347 -0.3274 -0.1966
 4575SOL     OW25186   1.592   3.512   5.358  0.1226  0.2880 -0.2751
 4575SOL    HW125187   1.561   3.422   5.346 -1.3686  0.6285  1.0225
 4575SOL    HW225188   1.517   3.571   5.347 -0.6613 -0.6634 -0.0397
 4576SOL     OW25189   0.666   2.196   1.858 -0.0087 -0.6440  0.2265
 4576SOL    HW125190   0.615   2.222   1.934  0.5355 -0.9698  0.7041
 4576SOL    HW225191   0.720   2.272   1.835 -0.7824  0.2060  1.2080
 4577SOL     OW25192   2.882   2.778   4.101 -0.2694 -0.0483 -0.1828
 4577SOL    HW125193   2.872   2.862   4.055 -1.4979 -0.4981 -0.7253
 4577SOL    HW225194   2.791   2.747   4.101  0.1079 -1.1928 -2.7121
 4578SOL     OW25195   3.834   2.556   3.339  0.0130  0.2725  0.3283
 4578SOL    HW125196   3.826   2.589   3.249  2.5569 -1.4298 -0.5188
 4578SOL    HW225197   3.803   2.634   3.385  0.4348  1.5947 -1.6055
 4579SOL     OW25198   2.558   0.378  15.376 -0.1474 -0.1030  0.0005
 4579SOL    HW125199   2.617   0.302  15.380  1.3740  1.2807  3.2504
 4579SOL    HW225200   2.473   0.340  15.398 -0.2464 -0.2342 -0.6187
 4580SOL     OW25201   0.362   1.446   0.835 -0.4462 -0.5857 -0.2235
 4580SOL    HW125202   0.337   1.502   0.762 -0.0115  0.9771  0.8368
 4580SOL    HW225203   0.348   1.362   0.791  1.5776 -0.1275 -1.7829
 4581SOL     OW25204   0.696   3.751  14.065  0.9000 -0.4008 -0.4030
 4581SOL    HW125205   0.740   3.829  14.031  2.1801 -1.5846 -1.4272
 4581SOL    HW225206   0.767   3.690  14.082 -0.5657 -1.5923  1.4726
 4582SOL     OW25207   3.225   1.420  14.905 -0.0150 -0.0112  0.1708
 4582SOL    HW125208   3.295   1.358  14.925 -0.5434 -1.3731 -2.1716
 4582SOL    HW225209   3.277   1.484  14.858  0.1332  0.1004  0.4869
 4583SOL     OW25210   2.769   4.133  12.714 -0.7171  0.6061 -0.0002
 4583SOL    HW125211   2.730   4.048  12.733  0.2457 -0.1601 -1.4650
 4583SOL    HW225212   2.703   4.185  12.670  1.5777  2.0823 -1.6931
 4584SOL     OW25213   1.556   0.970   8.960  0.1193 -0.1044  0.1403
 4584SOL    HW125214   1.637   1.020   8.950  1.3703 -1.9403  1.1906
 4584SOL    HW225215   1.579   0.889   9.005 -3.0107  0.0402  1.9809
 4585SOL     OW25216   1.434   4.367   9.451  0.3510  0.3709 -0.1570
 4585SOL    HW125217   1.354   4.346   9.500 -0.7287  0.6321 -1.7926
 4585SOL    HW225218   1.466   4.431   9.514  1.5461 -1.7296  1.3517
 4586SOL     OW25219   1.697   3.339   1.002 -0.4222 -0.2712  0.0181
 4586SOL    HW125220   1.667   3.423   1.037  1.5156  0.3128  0.2765
 4586SOL    HW225221   1.737   3.357   0.917 -0.6396 -1.5731 -0.3563
 4587SOL     OW25222   3.277   1.897   3.025 -0.9529 -0.0303  0.3988
 4587SOL    HW125223   3.276   1.975   2.969  1.6191 -0.8155 -0.7071
 4587SOL    HW225224   3.329   1.926   3.099 -0.2738  0.3199 -0.2136
 4588SOL     OW25225   1.682   2.770   6.151 -0.4202 -0.1548  0.2967
 4588SOL    HW125226   1.696   2.715   6.228 -0.6792  1.7604  1.7165
 4588SOL    HW225227   1.662   2.852   6.197 -0.3252 -0.0483  0.1478
 4589SOL     OW25228   4.585   3.836   9.373 -0.2104 -0.5619 -0.4623
 4589SOL    HW125229   4.646   3.827   9.446 -1.7443  0.7655  0.9609
 4589SOL    HW225230   4.560   3.745   9.357  0.9343 -1.3963  2.5216
 4590SOL     OW25231   1.417   2.245   5.916 -0.7406 -0.1840 -0.3262
 4590SOL    HW125232   1.403   2.270   5.825 -1.1230 -1.0314 -0.4960
 4590SOL    HW225233   1.484   2.311   5.935 -0.9245  0.1514 -0.8519
 4591SOL     OW25234   1.290   0.047   9.389 -0.4552  0.3959 -0.4077
 4591SOL    HW125235   1.228   4.704   9.416  1.3561 -0.1582  2.4349
 4591SOL    HW225236   1.250   0.076   9.307 -2.7557  0.8161  0.8718
 4592SOL     OW25237   3.097   3.460  12.075 -0.0429  0.4922  0.6033
 4592SOL    HW125238   3.087   3.483  11.983  1.1464 -0.8932  0.1268
 4592SOL    HW225239   3.152   3.383  12.058 -0.9369  0.2298 -1.1332
 4593SOL     OW25240   0.491   3.672   9.475  0.1765 -0.2954  0.6471
 4593SOL    HW125241   0.483   3.647   9.567 -0.7252 -1.7876  0.1611
 4593SOL    HW225242   0.586   3.677   9.467  0.2017  0.1416  1.2428
 4594SOL     OW25243   2.006   1.375   7.242 -0.3262  0.0404 -0.2977
 4594SOL    HW125244   2.024   1.284   7.222 -0.4347  0.3611 -1.8442
 4594SOL    HW225245   2.094   1.398   7.270 -0.4171  2.1439 -1.7265
 4595SOL     OW25246   1.138   2.758   5.938 -0.3895 -0.4589 -0.5420
 4595SOL    HW125247   1.198   2.697   5.894 -0.9672 -1.6248  0.2859
 4595SOL    HW225248   1.115   2.711   6.018 -0.3018  0.9580  0.3145
 4596SOL     OW25249   0.243   1.688   4.808 -0.2567  0.0044 -0.6520
 4596SOL    HW125250   0.217   1.653   4.723 -0.3791 -3.2573  0.7060
 4596SOL    HW225251   0.275   1.607   4.847  3.0496  1.4609 -0.3365
 4597SOL     OW25252   2.265   2.850   5.832 -0.6304  0.8417 -0.0153
 4597SOL    HW125253   2.294   2.900   5.908 -0.2418  1.4041 -0.5328
 4597SOL    HW225254   2.345   2.800   5.818 -0.9999  0.0738  0.6299
 4598SOL     OW25255   1.044   2.465   7.380 -0.3312 -0.1330  0.1330
 4598SOL    HW125256   1.061   2.451   7.474  1.8374  1.1272 -0.0922
 4598SOL    HW225257   1.135   2.454   7.353 -0.6200  0.1458 -0.9432
 4599SOL     OW25258   0.390   2.336   7.454  0.2624  0.1614 -0.4576
 4599SOL    HW125259   0.336   2.415   7.447 -0.9151 -0.3627  2.4128
 4599SOL    HW225260   0.476   2.376   7.445 -0.7029  2.4754  0.5786
 4600SOL     OW25261   2.246   1.278  12.693  0.3430  0.3719 -0.2506
 4600SOL    HW125262   2.158   1.289  12.727 -0.2587 -3.3864 -0.6381
 4600SOL    HW225263   2.264   1.188  12.718  1.6199  0.2582 -1.5531
 4601SOL     OW25264   2.911   1.509   6.236 -0.5803 -0.4067 -0.0656
 4601SOL    HW125265   2.907   1.419   6.203  1.1965 -0.5325  0.0303
 4601SOL    HW225266   2.963   1.552   6.169  0.3108  1.1024  1.5848
 4602SOL     OW25267   0.883   4.167  12.107  0.6532 -0.1771  0.1341
 4602SOL    HW125268   0.820   4.100  12.133 -2.3680  2.7629  0.4258
 4602SOL    HW225269   0.923   4.112  12.040  1.8380  0.7402  0.0975
 4603SOL     OW25270   2.916   2.085   9.130  0.4141  0.0985 -0.0145
 4603SOL    HW125271   2.957   2.028   9.065 -3.5970 -1.7066 -1.0075
 4603SOL    HW225272   2.952   2.172   9.116  0.0951  0.6333  2.4254
 4604SOL     OW25273   4.505   2.476  12.959  0.0402 -0.4447  0.2185
 4604SOL    HW125274   4.499   2.385  12.990 -2.6973 -1.2394 -2.6410
 4604SOL    HW225275   4.466   2.512  13.038 -0.7639 -0.0914 -0.3472
 4605SOL     OW25276   2.545   4.158   6.013  0.1058  0.0327 -0.1316
 4605SOL    HW125277   2.504   4.238   6.046  0.1903 -0.7616  1.9347
 4605SOL    HW225278   2.509   4.158   5.924  0.5248  1.1999 -0.2983
 4606SOL     OW25279   0.774   1.433  10.837  0.7554 -0.4674 -0.4969
 4606SOL    HW125280   0.841   1.407  10.901  1.7962  0.0824 -1.3695
 4606SOL    HW225281   0.722   1.355  10.818 -0.7897  0.2152  0.8929
 4607SOL     OW25282   2.441   1.199   9.492  0.3000  0.6570 -0.8636
 4607SOL    HW125283   2.497   1.172   9.565 -1.0360 -1.5814 -0.6646
 4607SOL    HW225284   2.410   1.286   9.517 -0.6117 -0.3691  1.5818
 4608SOL     OW25285   2.760   1.549   1.682 -0.3282 -0.3017 -0.3163
 4608SOL    HW125286   2.823   1.578   1.616 -1.8124  0.0311 -1.5921
 4608SOL    HW225287   2.808   1.503   1.751  2.0954 -0.1932 -1.9157
 4609SOL     OW25288   0.610   4.522   7.100  0.3839  0.1265  0.4347
 4609SOL    HW125289   0.584   4.573   7.176  0.6377 -1.6854  1.7179
 4609SOL    HW225290   0.662   4.449   7.133  1.2181 -0.0184 -1.1827
 4610SOL     OW25291   0.303   3.205   4.525 -0.5706 -0.5182  0.1079
 4610SOL    HW125292   0.307   3.156   4.443 -1.7659 -0.8065  0.2125
 4610SOL    HW225293   0.235   3.270   4.505 -0.6913 -0.5709  0.3385
 4611SOL     OW25294   0.511   2.547   7.313 -0.2365 -0.4535 -0.3815
 4611SOL    HW125295   0.599   2.532   7.279  0.0237 -2.7393  1.3016
 4611SOL    HW225296   0.526   2.634   7.349  0.9862 -1.0825  0.6062
 4612SOL     OW25297   0.223   3.364   7.977  0.2331 -0.4054  0.1200
 4612SOL    HW125298   0.319   3.357   7.970  0.4813  1.8136  1.2957
 4612SOL    HW225299   0.216   3.457   7.997 -0.4409 -0.4275 -0.0428
 4613SOL     OW25300   1.619   2.899   8.504 -0.1845  0.0434  0.2541
 4613SOL    HW125301   1.550   2.953   8.467  1.6403  1.3337 -1.2205
 4613SOL    HW225302   1.617   2.828   8.440  3.3812 -0.2896  0.4865
 4614SOL     OW25303   4.215   1.300   8.686  0.2418 -0.3255  0.3991
 4614SOL    HW125304   4.164   1.232   8.643 -1.3578  1.0184  0.1779
 4614SOL    HW225305   4.234   1.364   8.618 -0.7217 -2.7022 -2.0781
 4615SOL     OW25306   3.040   2.317  16.245 -0.1407 -0.1139  0.0866
 4615SOL    HW125307   2.994   2.389  16.201 -0.6960 -0.3361  0.3034
 4615SOL    HW225308   3.022   2.245  16.185 -0.5319 -1.0134  1.2902
 4616SOL     OW25309   0.173   2.178   7.534  0.4299  0.1848  0.4971
 4616SOL    HW125310   0.109   2.245   7.557  0.7445  0.5281  0.3728
 4616SOL    HW225311   0.256   2.225   7.525  0.3634  0.0770 -0.7005
 4617SOL     OW25312   3.956   3.568   8.171 -0.1971 -0.1057 -0.1049
 4617SOL    HW125313   4.028   3.574   8.233 -0.2029 -0.9497 -0.0170
 4617SOL    HW225314   3.964   3.642   8.110  0.2883 -0.2102 -0.1629
 4618SOL     OW25315   0.804   3.554   4.553 -0.0840 -0.0150  0.6583
 4618SOL    HW125316   0.896   3.547   4.530 -0.3116 -0.0286 -0.2632
 4618SOL    HW225317   0.806   3.616   4.626  1.5204  0.8400 -0.1194
 4619SOL     OW25318   3.690   3.773   1.166 -0.3348  0.2123 -0.5325
 4619SOL    HW125319   3.750   3.699   1.153  0.0984  0.4380  0.2119
 4619SOL    HW225320   3.719   3.833   1.097 -0.4878  0.5035 -0.3442
 4620SOL     OW25321   2.741   3.081   9.259  0.1245 -0.0734  0.7155
 4620SOL    HW125322   2.671   3.097   9.322 -0.3743 -2.0386  0.6661
 4620SOL    HW225323   2.685   3.102   9.184  0.7272  1.2360  0.6311
 4621SOL     OW25324   2.794   3.239  11.524 -0.0399  0.6147  0.1543
 4621SOL    HW125325   2.868   3.270  11.577 -0.1298  0.0349  0.6227
 4621SOL    HW225326   2.727   3.293  11.566 -1.0356  1.6695 -2.8085
 4622SOL     OW25327   1.725   1.877   7.579  0.7580  0.0988 -0.2773
 4622SOL    HW125328   1.696   1.969   7.583  0.2842 -0.0571 -0.1505
 4622SOL    HW225329   1.692   1.846   7.663  0.0655  1.0972 -0.1835
 4623SOL     OW25330   3.913   0.723  13.308 -0.0004 -0.2046  0.0787
 4623SOL    HW125331   3.861   0.804  13.311 -1.1231 -0.8528 -2.4758
 4623SOL    HW225332   3.995   0.760  13.276  0.5650 -1.5573 -0.0350
 4624SOL     OW25333   1.407   0.474   3.433  0.0327 -0.3282  0.3517
 4624SOL    HW125334   1.387   0.542   3.497 -0.6946 -1.5357  1.4281
 4624SOL    HW225335   1.429   0.518   3.351  0.0831 -2.4901 -0.8012
 4625SOL     OW25336   2.111   1.596   1.361 -0.3413 -0.0280  0.0839
 4625SOL    HW125337   2.152   1.511   1.344 -0.3731 -0.2426  1.0719
 4625SOL    HW225338   2.035   1.568   1.412  0.7496 -0.5582  1.4138
 4626SOL     OW25339   4.610   3.525   9.443  0.4778  0.1816 -0.1175
 4626SOL    HW125340   4.580   3.516   9.352  0.4948  0.7891 -0.1798
 4626SOL    HW225341   4.685   3.466   9.440  0.0111 -0.4132 -0.0732
 4627SOL     OW25342   1.050   0.919   9.928  0.0491  0.2547 -0.8099
 4627SOL    HW125343   1.029   1.010   9.947  1.9367  0.2258  1.3926
 4627SOL    HW225344   1.024   0.877  10.010  0.9324 -0.1023 -0.7117
 4628SOL     OW25345   4.293   3.604   6.566  0.2484  0.1968 -0.4628
 4628SOL    HW125346   4.217   3.546   6.563  0.9387 -0.7460  0.1209
 4628SOL    HW225347   4.345   3.582   6.643  0.7818  2.0003 -0.3026
 4629SOL     OW25348   1.136   4.626   9.741 -0.3042  0.0811  0.1629
 4629SOL    HW125349   1.219   4.667   9.714 -0.8866  1.2713  0.1649
 4629SOL    HW225350   1.083   4.705   9.752 -1.2713 -0.7072  1.0734
 4630SOL     OW25351   2.024   1.102   5.343  0.3440 -0.3816 -0.2603
 4630SOL    HW125352   1.946   1.157   5.342  0.9440  0.4939  2.0151
 4630SOL    HW225353   2.010   1.034   5.276  0.6149  0.2767 -0.9873
 4631SOL     OW25354   3.076   1.710   0.654 -0.5780  0.0905 -0.4035
 4631SOL    HW125355   3.121   1.769   0.593 -1.2707 -0.9161 -1.8754
 4631SOL    HW225356   3.038   1.774   0.715  2.9390  0.7564  1.0972
 4632SOL     OW25357   2.129   3.519   4.964  0.3300  1.1457 -0.1789
 4632SOL    HW125358   2.201   3.458   4.982  0.1581  0.9603 -0.1223
 4632SOL    HW225359   2.158   3.592   5.019  0.8114  0.7043  0.1550
 4633SOL     OW25360   3.204   1.666   4.548 -0.1342 -0.2896  0.0995
 4633SOL    HW125361   3.257   1.587   4.554 -0.2539 -0.5663 -2.4939
 4633SOL    HW225362   3.273   1.731   4.538 -1.1597  0.9710  1.2550
 4634SOL     OW25363   2.922   1.999   6.756 -0.0187 -0.4098 -0.6142
 4634SOL    HW125364   2.882   2.007   6.842 -0.5722 -0.6324 -0.8494
 4634SOL    HW225365   2.847   2.028   6.703  1.2906  1.7964 -1.2470
 4635SOL     OW25366   0.415   1.871   8.974  0.0654 -0.4964 -0.1997
 4635SOL    HW125367   0.487   1.817   9.006 -1.1408 -1.6103  0.6507
 4635SOL    HW225368   0.439   1.962   8.988  0.7627 -0.2756 -2.7131
 4636SOL     OW25369   4.394   1.268   7.842 -0.1638  0.7089  0.2049
 4636SOL    HW125370   4.400   1.172   7.847 -0.4141  0.7245  0.8654
 4636SOL    HW225371   4.418   1.291   7.932  0.1638 -0.2347  0.3609
 4637SOL     OW25372   2.427   4.265  11.547  0.1350 -0.1956 -0.3505
 4637SOL    HW125373   2.398   4.174  11.542  0.3756 -0.3430  0.7595
 4637SOL    HW225374   2.503   4.272  11.489  0.7774  1.1402  0.6476
 4638SOL     OW25375   4.546   0.504  11.483  0.2058 -0.0029  0.1470
 4638SOL    HW125376   4.630   0.517  11.440 -0.2161 -1.3972 -1.1147
 4638SOL    HW225377   4.534   0.410  11.469  2.6363 -0.5608  1.8214
 4639SOL     OW25378   2.171   0.675   4.309  0.0341 -0.1895 -0.0141
 4639SOL    HW125379   2.112   0.644   4.240  0.3596 -0.6129 -0.1042
 4639SOL    HW225380   2.112   0.701   4.380  2.3461  3.0454  0.6923
 4640SOL     OW25381   1.352   0.029   4.657  0.4141 -0.1305  0.4483
 4640SOL    HW125382   1.300   0.069   4.727  0.6450 -1.3812  1.3456
 4640SOL    HW225383   1.329   4.661   4.668  0.2718 -0.0232  1.0516
 4641SOL     OW25384   4.109   3.623   2.527  0.5102 -0.4211  0.8491
 4641SOL    HW125385   4.133   3.650   2.438 -1.3610 -2.1699 -0.1874
 4641SOL    HW225386   4.067   3.541   2.503  1.1478 -0.3516 -0.5291
 4642SOL     OW25387   3.555   2.337   6.020  0.0856  0.6289  0.0089
 4642SOL    HW125388   3.638   2.376   6.049 -0.8120  1.7946  0.9933
 4642SOL    HW225389   3.568   2.319   5.927 -0.5588 -2.7059  0.5596
 4643SOL     OW25390   2.741   0.578  11.306  0.2490 -0.0222  0.2718
 4643SOL    HW125391   2.745   0.483  11.314 -0.4218 -0.0768 -0.0308
 4643SOL    HW225392   2.677   0.590  11.235 -1.6907 -0.2601  1.9624
 4644SOL     OW25393   4.405   1.405  11.094 -0.1168 -0.1700  0.1415
 4644SOL    HW125394   4.476   1.382  11.033 -2.1570 -0.3600 -2.1807
 4644SOL    HW225395   4.399   1.328  11.150  1.2801 -0.9951 -0.8416
 4645SOL     OW25396   2.007   4.146   8.987  0.8537 -0.0225  0.1438
 4645SOL    HW125397   1.986   4.222   9.040 -0.5542  0.2653 -0.8154
 4645SOL    HW225398   1.925   4.097   8.990  0.7482  0.0021 -1.7761
 4646SOL     OW25399   4.445   3.032   6.062 -0.3546  0.2930  0.1605
 4646SOL    HW125400   4.527   3.059   6.104  0.7681 -1.1097 -1.1733
 4646SOL    HW225401   4.475   2.985   5.985 -0.4940 -0.6828  0.7010
 4647SOL     OW25402   2.197   1.971   3.307 -0.3540 -0.2015 -0.1904
 4647SOL    HW125403   2.196   1.903   3.240 -1.7483  0.4770 -0.8550
 4647SOL    HW225404   2.290   1.987   3.290  0.5312 -2.1870  2.8036
 4648SOL     OW25405   4.153   1.098   3.329  0.2748 -0.2507 -0.3816
 4648SOL    HW125406   4.206   1.151   3.388 -1.9310  0.5971  0.8273
 4648SOL    HW225407   4.075   1.093   3.384  0.6720 -0.8734  0.1154
 4649SOL     OW25408   4.022   0.389   6.492 -0.0859 -0.2599 -0.1521
 4649SOL    HW125409   4.019   0.436   6.409  2.2073 -1.3849 -0.8703
 4649SOL    HW225410   4.093   0.438   6.532  1.1628 -0.8672 -1.6291
 4650SOL     OW25411   0.596   4.037  13.918 -0.7806  0.2143  0.6868
 4650SOL    HW125412   0.596   4.110  13.856 -4.4521 -0.2650  0.1100
 4650SOL    HW225413   0.683   4.001  13.904 -0.2133  0.9611  2.2734
 4651SOL     OW25414   3.866   3.834  10.229  0.1781 -0.6783 -0.1107
 4651SOL    HW125415   3.859   3.786  10.146  1.1600  1.2365 -1.2747
 4651SOL    HW225416   3.790   3.889  10.243 -0.5784 -1.1203 -2.4117
 4652SOL     OW25417   2.260   1.001   3.181  0.1251 -0.0669  0.0140
 4652SOL    HW125418   2.264   0.929   3.119 -1.6900 -1.2330  1.2778
 4652SOL    HW225419   2.168   1.015   3.203  0.3162 -0.1189  0.8580
 4653SOL     OW25420   3.187   0.189   4.103 -0.0659 -0.0761 -0.5961
 4653SOL    HW125421   3.152   0.170   4.016  1.4403  3.6484 -2.0194
 4653SOL    HW225422   3.219   0.279   4.091 -0.5886  0.3173  1.0713
 4654SOL     OW25423   3.179   1.389   4.808 -0.3951 -0.2252  0.3091
 4654SOL    HW125424   3.129   1.370   4.888  1.2129 -0.3631  1.2795
 4654SOL    HW225425   3.129   1.464   4.776  0.2843  0.9297  1.9597
 4655SOL     OW25426   3.686   0.008   8.850  0.2570  0.2828  0.2911
 4655SOL    HW125427   3.772   0.051   8.843  1.2142 -1.2460  2.7609
 4655SOL    HW225428   3.710   4.669   8.918  1.3311  0.0369 -0.3302
 4656SOL     OW25429   3.733   4.651   9.817 -0.6998 -0.1151  1.3168
 4656SOL    HW125430   3.651   4.618   9.854 -0.8729  0.4122  1.4052
 4656SOL    HW225431   3.788   4.660   9.895  0.9829  0.2447  0.0825
 4657SOL     OW25432   1.385   0.750   2.494  0.5104 -0.5347 -0.1164
 4657SOL    HW125433   1.387   0.817   2.426  1.6012 -1.1921 -0.7384
 4657SOL    HW225434   1.461   0.696   2.472  0.2248 -0.9123 -0.1807
 4658SOL     OW25435   1.958   4.346   2.325 -0.0898 -0.2444 -0.2810
 4658SOL    HW125436   1.933   4.419   2.268  0.5403  0.5859  0.5185
 4658SOL    HW225437   2.003   4.295   2.258 -0.6563  1.3366 -1.8696
 4659SOL     OW25438   2.121   2.422   8.132 -0.3925 -0.2918  0.5237
 4659SOL    HW125439   2.046   2.379   8.091 -1.8001  0.3076  2.4705
 4659SOL    HW225440   2.084   2.481   8.198 -1.5687 -1.4345  0.8949
 4660SOL     OW25441   0.162   2.529  13.912 -0.0922  0.6714 -0.2646
 4660SOL    HW125442   0.168   2.433  13.912 -1.2354  0.5919 -0.1208
 4660SOL    HW225443   0.219   2.558  13.983  0.2557 -0.0412 -0.2473
 4661SOL     OW25444   0.938   3.387   0.482 -0.2025  0.2510 -0.4683
 4661SOL    HW125445   0.957   3.296   0.459 -0.4928  0.2644 -0.7768
 4661SOL    HW225446   0.844   3.396   0.470 -0.2370  0.3029 -0.1410
 4662SOL     OW25447   3.056   3.347   0.467 -0.4114 -0.0010 -0.2475
 4662SOL    HW125448   3.019   3.430   0.436 -2.5871 -0.9725 -0.2477
 4662SOL    HW225449   3.062   3.303   0.383 -1.1602 -0.6421  0.0346
 4663SOL     OW25450   4.443   3.686   6.359  0.3522 -0.5579  0.3020
 4663SOL    HW125451   4.374   3.752   6.348  0.8029 -0.1162  0.0855
 4663SOL    HW225452   4.409   3.635   6.432  1.1812 -1.4015  0.0947
 4664SOL     OW25453   2.883   0.234   5.242 -0.5304  0.0686 -0.5553
 4664SOL    HW125454   2.898   0.306   5.302 -2.5162  0.8729 -1.0305
 4664SOL    HW225455   2.822   0.272   5.178 -0.8953 -0.8560 -0.7563
 4665SOL     OW25456   2.091   1.012   6.759 -0.4396  0.8612 -0.0088
 4665SOL    HW125457   2.101   1.062   6.678  0.3017  1.9709  0.7699
 4665SOL    HW225458   2.026   0.948   6.730  0.9594 -0.2417 -0.7285
 4666SOL     OW25459   3.937   0.377   2.084 -0.0060 -0.0493  0.3954
 4666SOL    HW125460   3.921   0.284   2.097 -0.6733 -0.0461 -0.3901
 4666SOL    HW225461   3.864   0.422   2.041 -0.3803  1.0937  2.1848
 4667SOL     OW25462   1.767   0.766   7.708 -0.0922 -0.1240  0.1197
 4667SOL    HW125463   1.784   0.712   7.785  2.2653  0.5729  0.0907
 4667SOL    HW225464   1.826   0.840   7.723  0.8482 -1.4739  3.1123
 4668SOL     OW25465   2.480   3.357   7.396 -0.6401 -0.0251  0.0923
 4668SOL    HW125466   2.530   3.298   7.452 -0.5999  0.4374  0.5341
 4668SOL    HW225467   2.395   3.316   7.385 -0.8049  0.4238 -0.3177
 4669SOL     OW25468   1.549   4.417   9.121 -0.5748  0.2581 -0.8073
 4669SOL    HW125469   1.585   4.364   9.192 -1.1446  1.5963  0.4737
 4669SOL    HW225470   1.606   4.494   9.117 -0.6204  0.3153 -0.3064
 4670SOL     OW25471   2.738   3.450   8.904  0.6690  0.1583  0.1574
 4670SOL    HW125472   2.665   3.458   8.842  1.4524  0.8485 -0.6830
 4670SOL    HW225473   2.717   3.530   8.952 -1.0457  0.2367 -0.7217
 4671SOL     OW25474   2.268   3.189  13.934  0.8945  0.2883  0.1530
 4671SOL    HW125475   2.244   3.214  13.845  0.8169  0.5559  0.2508
 4671SOL    HW225476   2.343   3.134  13.909  1.5686  1.8377 -1.2433
 4672SOL     OW25477   1.408   0.780   8.049 -0.1314  0.0197  0.4889
 4672SOL    HW125478   1.313   0.780   8.050 -0.1335  0.9526 -0.3067
 4672SOL    HW225479   1.438   0.731   8.126 -2.1922 -1.1242  0.5612
 4673SOL     OW25480   3.539   0.553  13.654 -0.2760 -0.0760  0.2496
 4673SOL    HW125481   3.549   0.458  13.659  0.5337 -0.0049 -0.1169
 4673SOL    HW225482   3.610   0.553  13.590  0.3147 -0.1137  0.9078
 4674SOL     OW25483   4.650   1.294   5.292  0.1550  0.0832 -0.0457
 4674SOL    HW125484   4.669   1.387   5.299  1.4925  0.0065 -2.5151
 4674SOL    HW225485   4.558   1.289   5.316  0.0881 -3.3522 -0.9332
 4675SOL     OW25486   1.213   0.837   8.734 -0.1815  0.4832 -0.4148
 4675SOL    HW125487   1.223   0.882   8.818  4.2189 -1.8663  0.3748
 4675SOL    HW225488   1.180   0.915   8.690 -3.3352  0.0037  1.1218
 4676SOL     OW25489   3.573   0.842   2.181  0.0054 -0.2464 -0.3482
 4676SOL    HW125490   3.614   0.837   2.267  0.3544 -1.1649 -0.5717
 4676SOL    HW225491   3.540   0.754   2.166  2.8076 -0.9979 -2.2094
 4677SOL     OW25492   1.225   2.904   7.903 -0.6354 -0.4115 -0.1787
 4677SOL    HW125493   1.222   2.996   7.879 -2.0575 -0.3569  0.2037
 4677SOL    HW225494   1.154   2.866   7.851 -0.6212 -1.2774  0.4261
 4678SOL     OW25495   1.881   1.363   2.309 -0.1564 -0.1227  0.4564
 4678SOL    HW125496   1.825   1.406   2.245 -1.1768 -0.1803  1.3075
 4678SOL    HW225497   1.912   1.283   2.267  0.0811  0.0808  0.2489
 4679SOL     OW25498   3.830   0.364   6.073  0.1485 -0.5245 -0.1652
 4679SOL    HW125499   3.738   0.384   6.090  0.1315  0.0011 -0.8811
 4679SOL    HW225500   3.860   0.317   6.151  0.6620 -1.4164 -0.8834
 4680SOL     OW25501   1.269   2.818  11.890 -1.1714 -0.3523  0.8109
 4680SOL    HW125502   1.334   2.808  11.821 -0.7987 -1.0723  1.2689
 4680SOL    HW225503   1.311   2.878  11.952  1.2202  0.5430 -1.7193
 4681SOL     OW25504   0.857   3.740   7.319  0.3500 -0.0878  0.3700
 4681SOL    HW125505   0.807   3.662   7.293 -1.8742  1.3068  0.5044
 4681SOL    HW225506   0.901   3.714   7.400 -0.3562  0.5082  0.9412
 4682SOL     OW25507   3.405   0.571   1.743 -0.1291 -0.1330  0.0615
 4682SOL    HW125508   3.429   0.572   1.651 -2.1750 -1.2962 -0.4703
 4682SOL    HW225509   3.376   0.481   1.755 -0.0463  0.0746  1.8698
 4683SOL     OW25510   0.138   4.006  10.626  0.0094 -0.2611 -0.4728
 4683SOL    HW125511   0.147   4.098  10.600 -0.8626  0.0138  0.1650
 4683SOL    HW225512   0.175   3.959  10.552 -0.8476 -0.6734 -0.6397
 4684SOL     OW25513   0.547   2.382  13.308 -0.1916  0.6962 -0.1191
 4684SOL    HW125514   0.472   2.339  13.351  0.5352 -1.0586 -0.6111
 4684SOL    HW225515   0.518   2.398  13.218  0.1020 -1.1999 -0.5405
 4685SOL     OW25516   4.137   4.366  14.357  0.2359 -0.2414  0.5106
 4685SOL    HW125517   4.063   4.424  14.375 -0.8304 -1.0704 -1.2700
 4685SOL    HW225518   4.088   4.310  14.298  1.3651 -0.3114 -0.3636
 4686SOL     OW25519   3.099   1.554   5.777  0.1256  0.5075  0.7786
 4686SOL    HW125520   3.020   1.540   5.830  1.1206 -0.9973  1.8826
 4686SOL    HW225521   3.107   1.646   5.801  4.1214  1.1560 -3.1787
 4687SOL     OW25522   2.940   0.771   2.988 -0.4209  0.3867  0.4749
 4687SOL    HW125523   2.913   0.859   2.962 -0.1534  0.8905  1.9281
 4687SOL    HW225524   3.005   0.776   3.057  1.3981 -0.5598 -1.1517
 4688SOL     OW25525   2.606   2.300   1.963 -0.1686 -0.3240  0.7480
 4688SOL    HW125526   2.538   2.288   2.030 -0.9024  1.3108  0.3023
 4688SOL    HW225527   2.672   2.246   2.006 -0.4945 -0.7544  0.7142
 4689SOL     OW25528   4.415   3.207   3.539 -0.4470  0.3118  0.4094
 4689SOL    HW125529   4.357   3.142   3.580 -2.5934  2.3044  0.5691
 4689SOL    HW225530   4.448   3.153   3.467 -1.9220 -0.5327  0.3624
 4690SOL     OW25531   0.650   3.335  12.448  0.3305  0.2991 -0.3048
 4690SOL    HW125532   0.627   3.285  12.369 -4.1289 -1.2474  1.9427
 4690SOL    HW225533   0.569   3.387  12.450 -1.5321 -2.5856 -0.7043
 4691SOL     OW25534   1.509   0.087   1.603 -0.3131  0.2914  0.3048
 4691SOL    HW125535   1.562   0.115   1.678  1.6197  1.2048 -1.3791
 4691SOL    HW225536   1.581   0.078   1.540 -0.7111  0.7789 -0.2249
 4692SOL     OW25537   1.044   0.082   0.878 -0.5747 -0.1103  0.8166
 4692SOL    HW125538   0.993   0.052   0.803 -0.6846 -0.3964  1.0103
 4692SOL    HW225539   1.097   0.148   0.833 -1.9518 -0.2217 -0.9452
 4693SOL     OW25540   1.891   1.995  15.077 -0.2549 -0.0675 -0.5082
 4693SOL    HW125541   1.914   1.904  15.098  2.5894  0.6954 -0.3464
 4693SOL    HW225542   1.855   2.024  15.161  0.8489  1.8164 -0.6964
 4694SOL     OW25543   4.460   3.172  14.826 -0.0419 -0.0309  0.0261
 4694SOL    HW125544   4.459   3.083  14.792 -0.4861 -0.5000  1.2591
 4694SOL    HW225545   4.554   3.189  14.829  0.2977 -1.7485 -0.9869
 4695SOL     OW25546   0.187   4.670   4.498 -0.3775 -0.4050  0.0515
 4695SOL    HW125547   0.165   0.003   4.572  0.9013 -1.2864  1.1200
 4695SOL    HW225548   0.110   4.613   4.504 -0.7264 -0.0273 -0.8919
 4696SOL     OW25549   4.699   2.386   2.346 -0.7357 -0.2893 -0.6380
 4696SOL    HW125550   0.028   2.463   2.328 -1.0690  0.2366  0.6681
 4696SOL    HW225551   0.045   2.328   2.377  1.0533  1.5477 -1.2368
 4697SOL     OW25552   2.601   3.110   8.360 -0.6154  0.1493 -0.3129
 4697SOL    HW125553   2.660   3.074   8.427  0.0428 -1.0533 -1.5383
 4697SOL    HW225554   2.575   3.032   8.311  0.0519 -1.0601  1.2227
 4698SOL     OW25555   4.560   2.165   6.805  0.4028  0.3276 -0.1087
 4698SOL    HW125556   4.498   2.114   6.859 -0.0087  1.2453  0.2828
 4698SOL    HW225557   4.637   2.159   6.862 -0.6972 -2.2215  1.1198
 4699SOL     OW25558   4.498   4.199  14.959  0.6322 -0.4109  0.2128
 4699SOL    HW125559   4.482   4.175  14.868 -0.2673 -2.8331  1.0125
 4699SOL    HW225560   4.593   4.207  14.958  0.6119 -0.1549  0.6700
 4700SOL     OW25561   3.461   4.131   6.561  0.0407 -0.0349 -0.1588
 4700SOL    HW125562   3.550   4.151   6.532  0.1443 -2.0013 -1.1676
 4700SOL    HW225563   3.456   4.192   6.635  0.6309  0.2996 -0.3987
 4701SOL     OW25564   1.445   1.139   4.910 -0.5881  0.5472 -0.3951
 4701SOL    HW125565   1.408   1.223   4.938 -4.0284 -0.4625 -1.8384
 4701SOL    HW225566   1.365   1.087   4.901  0.7943 -1.4570 -0.8858
 4702SOL     OW25567   3.739   0.736   4.499 -0.0402 -0.0229 -0.2826
 4702SOL    HW125568   3.673   0.734   4.430  0.1981 -1.3762 -0.4612
 4702SOL    HW225569   3.711   0.668   4.560 -1.2412  1.4829  0.8685
 4703SOL     OW25570   0.553   4.718   2.196  0.2705 -0.3980  0.3953
 4703SOL    HW125571   0.623   0.053   2.224 -0.3947  0.5105  0.0975
 4703SOL    HW225572   0.488   0.002   2.266 -0.4306  0.0670 -0.3156
 4704SOL     OW25573   1.060   4.609   4.317  0.6157 -0.6286 -0.1110
 4704SOL    HW125574   0.968   4.588   4.303  0.9240 -2.6593  0.8888
 4704SOL    HW225575   1.090   4.527   4.358 -0.1738 -2.2594 -2.7730
 4705SOL     OW25576   3.204   1.473   3.484  0.3252 -0.4647 -0.2317
 4705SOL    HW125577   3.204   1.389   3.437  0.1781  0.5270 -1.9716
 4705SOL    HW225578   3.248   1.530   3.421  2.2482 -1.6246  0.0614
 4706SOL     OW25579   0.702   2.090  12.994 -0.1468  0.2649  0.3369
 4706SOL    HW125580   0.788   2.132  13.001 -1.3371  2.7057  0.3467
 4706SOL    HW225581   0.726   2.006  12.954 -2.2880 -0.9132  1.5223
 4707SOL     OW25582   2.267   3.172   7.424 -0.3860  0.2823  0.4149
 4707SOL    HW125583   2.249   3.141   7.512 -0.6325  0.1281  0.3096
 4707SOL    HW225584   2.243   3.091   7.378  0.5096  1.1874 -1.6340
 4708SOL     OW25585   3.829   2.046   3.502 -0.2354 -0.0606  0.0986
 4708SOL    HW125586   3.782   1.977   3.549  0.1300 -0.0438  0.4919
 4708SOL    HW225587   3.847   2.008   3.416  0.3404  2.8398 -1.0385
 4709SOL     OW25588   2.238   4.006   2.811 -0.1738  0.2409 -1.0848
 4709SOL    HW125589   2.270   3.958   2.887  0.2656 -0.0821 -1.4734
 4709SOL    HW225590   2.188   4.078   2.850  0.5841  0.2169 -0.0630
 4710SOL     OW25591   2.532   1.352   0.424  0.8078 -0.2177  0.2683
 4710SOL    HW125592   2.513   1.411   0.497 -0.0888  1.4346 -1.2916
 4710SOL    HW225593   2.510   1.404   0.347 -1.5618  0.3124  1.3009
 4711SOL     OW25594   0.738   3.619   9.278  0.3023  0.2579  0.2008
 4711SOL    HW125595   0.825   3.588   9.253 -0.5405 -3.2713  1.7410
 4711SOL    HW225596   0.758   3.713   9.281 -0.9025  0.4695  1.2608
 4712SOL     OW25597   0.786   1.319   8.022 -0.0518  0.2996  0.0262
 4712SOL    HW125598   0.847   1.269   7.968 -2.0370 -0.2944 -1.6538
 4712SOL    HW225599   0.735   1.372   7.961  0.0151  0.1685 -0.1435
 4713SOL     OW25600   0.167   4.166  13.423 -0.3460  0.2828  0.3349
 4713SOL    HW125601   0.091   4.109  13.424 -0.3179  0.2418  0.1903
 4713SOL    HW225602   0.179   4.177  13.328 -1.5454  1.8305  0.3580
 4714SOL     OW25603   2.738   2.660  17.131 -0.1989 -0.5063 -0.3203
 4714SOL    HW125604   2.727   2.687  17.223 -0.4525  0.6828 -0.7065
 4714SOL    HW225605   2.786   2.581  17.156  1.0141  0.5156  0.5671
 4715SOL     OW25606   1.041   1.860   6.328 -0.5354 -0.0338 -0.2018
 4715SOL    HW125607   1.059   1.954   6.320 -0.4110 -0.0542 -0.1570
 4715SOL    HW225608   1.118   1.834   6.278 -1.6974 -2.3016 -0.7911
 4716SOL     OW25609   3.579   4.381   8.756  0.2072 -0.2245 -0.8341
 4716SOL    HW125610   3.663   4.425   8.746 -1.2918  2.4748 -1.7933
 4716SOL    HW225611   3.569   4.387   8.851 -0.9382 -1.0974 -0.8888
 4717SOL     OW25612   1.029   0.438   2.054 -0.1026 -0.9937  0.0152
 4717SOL    HW125613   0.950   0.418   2.003 -1.1305  0.1062  1.1950
 4717SOL    HW225614   1.052   0.355   2.097 -2.7235 -2.1545 -0.7955
 4718SOL     OW25615   3.679   2.020   5.042  0.0238 -0.0177  0.3391
 4718SOL    HW125616   3.601   1.964   5.048  0.4536 -0.5490  0.9309
 4718SOL    HW225617   3.646   2.095   5.090 -1.0312  0.6256 -1.3789
 4719SOL     OW25618   2.330   4.070   2.557 -0.2689 -0.3521  0.6641
 4719SOL    HW125619   2.314   4.056   2.651 -0.3742  0.4415  0.7642
 4719SOL    HW225620   2.391   4.143   2.566  1.1249 -1.5163  0.5638
 4720SOL     OW25621   3.405   2.870   3.865  0.0638 -0.0471  0.1524
 4720SOL    HW125622   3.311   2.848   3.861 -0.2531  1.8697 -2.7368
 4720SOL    HW225623   3.440   2.834   3.783 -0.5042 -1.1679  0.3889
 4721SOL     OW25624   3.968   3.748   0.434 -0.4032 -0.6025  0.1395
 4721SOL    HW125625   3.960   3.725   0.527 -2.9618  0.4155  0.1653
 4721SOL    HW225626   4.022   3.674   0.406  1.8353  0.5039  1.5156
 4722SOL     OW25627   1.351   0.595   7.519  0.1938 -0.3523  0.0140
 4722SOL    HW125628   1.313   0.519   7.562  0.3835 -0.6052 -0.2638
 4722SOL    HW225629   1.389   0.652   7.586  0.0205 -1.3270  0.9397
 4723SOL     OW25630   4.681   2.984   4.504 -0.2128 -0.3242  0.2811
 4723SOL    HW125631   4.722   3.007   4.588  3.2226 -0.0965 -1.4496
 4723SOL    HW225632   4.643   2.897   4.521  1.5041 -1.1483 -0.0800
 4724SOL     OW25633   1.895   1.902  14.453  0.1949  0.1697  0.0801
 4724SOL    HW125634   1.867   1.911  14.544  1.3382  0.5155  0.4060
 4724SOL    HW225635   1.897   1.993  14.422 -0.5549  0.6105  1.3230
 4725SOL     OW25636   3.627   2.425   7.509  0.4367  0.4514 -0.1135
 4725SOL    HW125637   3.694   2.471   7.559  0.0715  1.4695 -0.5520
 4725SOL    HW225638   3.562   2.495   7.496 -0.8697 -1.0732 -1.8184
 4726SOL     OW25639   0.501   2.181   7.911 -0.1361 -0.4200 -0.2753
 4726SOL    HW125640   0.507   2.130   7.830  0.4652  0.7210 -0.9490
 4726SOL    HW225641   0.499   2.269   7.875 -2.2435 -1.2827 -2.2820
 4727SOL     OW25642   1.856   2.402   8.181  0.3062  0.1927 -0.0382
 4727SOL    HW125643   1.865   2.390   8.275  1.9641  3.1974  0.1753
 4727SOL    HW225644   1.782   2.345   8.159  0.4556 -0.0329  0.0536
 4728SOL     OW25645   4.209   2.595   1.980 -0.2812 -0.1381  0.0609
 4728SOL    HW125646   4.222   2.686   2.007  0.3380 -0.1622 -0.1695
 4728SOL    HW225647   4.198   2.550   2.064 -0.8933 -0.0402  0.0346
 4729SOL     OW25648   4.431   1.031   2.595 -0.4352  0.2022  0.5700
 4729SOL    HW125649   4.386   1.049   2.512  0.7955 -1.2837 -0.4193
 4729SOL    HW225650   4.420   1.118   2.633 -1.3813 -0.6692  2.2823
 4730SOL     OW25651   1.936   2.935   6.529 -0.1220 -0.0746  0.3677
 4730SOL    HW125652   1.961   3.026   6.516  0.9799 -0.3452  0.6336
 4730SOL    HW225653   1.978   2.893   6.454 -0.0114 -0.5145  0.6761
 4731SOL     OW25654   0.682   2.574   7.635  0.5070 -0.1131  0.1708
 4731SOL    HW125655   0.652   2.663   7.655 -1.2854 -1.0553  1.6796
 4731SOL    HW225656   0.773   2.587   7.606  0.8333 -3.0812 -0.1116
 4732SOL     OW25657   2.910   1.750   5.495  0.0096 -0.7978  0.3121
 4732SOL    HW125658   2.848   1.801   5.548 -0.3440 -1.2756  0.3571
 4732SOL    HW225659   2.993   1.798   5.495  0.0313 -0.8562 -1.1526
 4733SOL     OW25660   2.101   0.030   7.321 -0.1121  0.8502 -0.6972
 4733SOL    HW125661   2.148   4.683   7.277  0.6474 -0.3110  2.0310
 4733SOL    HW225662   2.166   0.099   7.316  1.4901 -0.6157 -0.0277
 4734SOL     OW25663   0.528   2.835   3.514  0.5522  0.5383 -0.0290
 4734SOL    HW125664   0.454   2.776   3.498  1.8187 -0.9507 -0.3682
 4734SOL    HW225665   0.490   2.887   3.585  0.3134 -1.2119  1.1062
 4735SOL     OW25666   0.835   1.305   3.769  0.4812  0.0580  0.0620
 4735SOL    HW125667   0.847   1.258   3.852 -0.4017  2.1018  1.3354
 4735SOL    HW225668   0.879   1.257   3.699  0.2511 -1.8140  1.1768
 4736SOL     OW25669   3.027   0.667  11.357 -0.3278 -0.0651  0.1131
 4736SOL    HW125670   3.084   0.640  11.285 -0.6694  1.6976 -0.8160
 4736SOL    HW225671   2.941   0.646  11.321 -0.3345  1.7638 -0.9742
 4737SOL     OW25672   4.155   3.654   3.267 -0.0216 -0.0573  0.7795
 4737SOL    HW125673   4.107   3.717   3.321  0.6498  1.3227 -0.2173
 4737SOL    HW225674   4.174   3.587   3.333  0.8863 -0.1681  0.4121
 4738SOL     OW25675   1.677   4.327   8.859 -0.1262 -0.0687  0.2164
 4738SOL    HW125676   1.598   4.371   8.829 -1.3516 -1.5220  1.2547
 4738SOL    HW225677   1.663   4.317   8.954  0.1124 -0.5398  0.2038
 4739SOL     OW25678   3.589   2.063   8.898  0.2342  0.3466  0.7082
 4739SOL    HW125679   3.675   2.095   8.872 -0.2198  1.5867  0.6824
 4739SOL    HW225680   3.600   1.972   8.922  0.6905  0.1862 -0.1117
 4740SOL     OW25681   3.003   1.293   8.579 -0.2196 -0.0208 -0.1478
 4740SOL    HW125682   3.078   1.351   8.582  0.0484 -0.4870  2.0122
 4740SOL    HW225683   2.937   1.358   8.603 -0.8869 -1.3704  1.7403
 4741SOL     OW25684   2.309   2.025   7.416 -0.3355 -0.4701  0.8296
 4741SOL    HW125685   2.396   2.042   7.453 -0.1201  1.7508 -0.6701
 4741SOL    HW225686   2.333   1.955   7.357  0.0052  1.1955 -1.0166
 4742SOL     OW25687   2.418   1.190   5.595  0.1391 -0.2269 -0.8151
 4742SOL    HW125688   2.363   1.210   5.520  0.6227  1.5400 -0.7016
 4742SOL    HW225689   2.475   1.266   5.588 -1.4772  1.0039 -0.6403
 4743SOL     OW25690   2.615   1.648   8.767 -0.1271  0.8898 -0.3048
 4743SOL    HW125691   2.580   1.569   8.806  0.1041  0.5690 -0.7511
 4743SOL    HW225692   2.593   1.706   8.840 -0.2606  2.1253 -1.3077
 4744SOL     OW25693   3.452   0.228   2.334  0.1231  0.1860  0.1912
 4744SOL    HW125694   3.475   0.257   2.422 -0.9862 -1.4614  1.0188
 4744SOL    HW225695   3.537   0.203   2.298 -0.1908  1.8915 -1.7006
 4745SOL     OW25696   2.780   1.105   5.598  0.0915 -0.1610 -0.1866
 4745SOL    HW125697   2.707   1.068   5.548 -0.9725  1.1055  0.4279
 4745SOL    HW225698   2.748   1.100   5.688 -2.9458  0.0866 -1.2215
 4746SOL     OW25699   2.827   1.921   2.629 -0.0575  0.0543 -0.1322
 4746SOL    HW125700   2.834   1.998   2.573 -0.0652  0.6028  0.6146
 4746SOL    HW225701   2.916   1.887   2.632 -0.0199  0.2822  1.6112
 4747SOL     OW25702   4.097   2.565   5.000  0.1746 -0.4146 -0.0554
 4747SOL    HW125703   4.109   2.473   4.974  3.0023 -0.3853  1.2014
 4747SOL    HW225704   4.080   2.550   5.093 -0.6685 -0.2627 -0.1856
 4748SOL     OW25705   4.438   4.692   7.388 -0.4203 -0.5259 -0.3659
 4748SOL    HW125706   4.528   4.722   7.376 -0.8679 -0.7316 -4.0005
 4748SOL    HW225707   4.383   0.045   7.397  0.4389  0.1061 -0.6050
 4749SOL     OW25708   3.054   3.991  10.198  0.4096 -0.2617  0.1366
 4749SOL    HW125709   3.011   3.975  10.114 -0.7138 -2.1134  1.0901
 4749SOL    HW225710   3.047   4.087  10.192 -0.0984 -0.3108 -0.0357
 4750SOL     OW25711   4.439   1.297   8.405  0.5951  0.4998  0.1861
 4750SOL    HW125712   4.516   1.305   8.462 -0.1949  2.5848  0.9266
 4750SOL    HW225713   4.380   1.353   8.454 -2.6471 -1.0971 -1.9516
 4751SOL     OW25714   1.232   0.955   4.898  0.1795 -0.3153  0.4567
 4751SOL    HW125715   1.180   0.917   4.827 -0.5418 -1.1371  1.4248
 4751SOL    HW225716   1.313   0.904   4.903  1.9342  2.1745 -2.8621
 4752SOL     OW25717   3.081   1.521   6.734  0.2148  0.2291 -0.5109
 4752SOL    HW125718   3.019   1.593   6.742  2.2781  2.0549 -1.0146
 4752SOL    HW225719   3.074   1.505   6.640 -0.8642 -1.5265 -0.1437
 4753SOL     OW25720   4.076   0.344   5.811  0.3180  0.4773 -0.4244
 4753SOL    HW125721   4.115   0.427   5.837  0.4081 -0.0310  1.0437
 4753SOL    HW225722   3.990   0.384   5.796 -0.1656 -1.3270 -2.5056
 4754SOL     OW25723   1.158   3.148   7.617 -0.0082 -0.6397  0.7771
 4754SOL    HW125724   1.206   3.151   7.699 -1.4026  0.9741  1.5204
 4754SOL    HW225725   1.232   3.147   7.556 -0.5320 -1.4921  0.1456
 4755SOL     OW25726   2.396   2.421   7.190  0.4411 -0.2078 -0.1283
 4755SOL    HW125727   2.453   2.381   7.256  2.0002 -1.9730 -2.5119
 4755SOL    HW225728   2.426   2.389   7.104 -1.5981  0.7333 -1.2023
 4756SOL     OW25729   3.066   2.590   5.615  0.0998 -0.0009  0.3124
 4756SOL    HW125730   3.122   2.610   5.690  1.7792  1.7965 -1.4334
 4756SOL    HW225731   3.132   2.570   5.548  1.5280 -1.0801  2.0367
 4757SOL     OW25732   3.070   2.745   1.651  0.7179  0.3587  0.5969
 4757SOL    HW125733   3.092   2.653   1.638  2.2579  1.1075 -2.0583
 4757SOL    HW225734   3.147   2.774   1.701  1.0379  0.5220 -0.0017
 4758SOL     OW25735   3.410   3.607  13.308 -0.6097 -0.3423 -0.1281
 4758SOL    HW125736   3.421   3.700  13.330 -0.6369 -0.2870 -0.3501
 4758SOL    HW225737   3.335   3.580  13.362 -1.7292  1.6437 -0.6864
 4759SOL     OW25738   3.896   0.953   3.398  0.6302  0.1048 -0.3565
 4759SOL    HW125739   3.932   0.914   3.478  0.0758  2.1643  0.9038
 4759SOL    HW225740   3.813   0.985   3.434  0.6296  0.5802 -0.7762
 4760SOL     OW25741   2.665   3.391   9.921 -0.0443 -0.3479 -0.1009
 4760SOL    HW125742   2.661   3.338  10.000  0.8247 -0.5115 -0.1682
 4760SOL    HW225743   2.739   3.448   9.945  0.4836 -0.6313 -1.0486
 4761SOL     OW25744   0.757   1.332   9.533  0.4609  0.0047  0.1521
 4761SOL    HW125745   0.808   1.328   9.614 -0.4506 -3.0914  0.5712
 4761SOL    HW225746   0.671   1.360   9.563  1.1667  1.0440  1.2213
 4762SOL     OW25747   2.329   2.376   4.857  0.1878  0.0648  0.1084
 4762SOL    HW125748   2.275   2.445   4.894  0.6865  0.1211  0.7398
 4762SOL    HW225749   2.353   2.413   4.772  0.2991  1.7253  0.8671
 4763SOL     OW25750   3.411   3.390   4.964 -0.0331  0.3261 -0.2026
 4763SOL    HW125751   3.500   3.403   4.995 -0.4097  0.6716  0.7285
 4763SOL    HW225752   3.397   3.297   4.983 -0.4493  0.4377  0.0581
 4764SOL     OW25753   0.140   4.438   7.904  0.0640 -0.1002  0.6330
 4764SOL    HW125754   0.167   4.521   7.866  0.7079 -0.9908 -0.8632
 4764SOL    HW225755   0.052   4.435   7.866 -0.0044  0.8146  0.7233
 4765SOL     OW25756   0.340   3.847   2.742  0.5637  0.3185  0.1858
 4765SOL    HW125757   0.349   3.807   2.656 -0.9800  0.0594  0.1332
 4765SOL    HW225758   0.290   3.926   2.721 -0.3905 -0.6762 -1.3367
 4766SOL     OW25759   2.062   2.798   2.858 -0.2901  0.2638  0.3863
 4766SOL    HW125760   2.074   2.746   2.779 -0.6143 -0.9124  1.1153
 4766SOL    HW225761   2.123   2.761   2.923 -1.5837 -0.2400  1.3212
 4767SOL     OW25762   0.842   1.087   7.405  0.4902  0.2341 -0.3120
 4767SOL    HW125763   0.830   1.163   7.348 -1.0748  0.7501  0.6835
 4767SOL    HW225764   0.760   1.086   7.456  0.6570 -1.4868 -0.0882
 4768SOL     OW25765   2.240   4.648   5.794  0.1923 -0.1890 -0.5373
 4768SOL    HW125766   2.269   4.625   5.882 -0.7397  0.5226 -0.0430
 4768SOL    HW225767   2.241   4.564   5.749 -1.0525  0.2544 -1.4109
 4769SOL     OW25768   3.337   1.709   5.498 -0.3362 -0.5520 -0.4065
 4769SOL    HW125769   3.392   1.716   5.420 -1.0071 -0.5630 -0.8801
 4769SOL    HW225770   3.269   1.776   5.501  1.0211  0.8150  0.1677
 4770SOL     OW25771   4.485   4.491  12.757 -0.2591  1.0252 -0.3476
 4770SOL    HW125772   4.562   4.439  12.780 -1.0044 -0.3141 -0.9446
 4770SOL    HW225773   4.524   4.528  12.678 -1.0590  1.3646 -0.5846
 4771SOL     OW25774   4.531   0.726  12.120 -0.4793  0.0724  0.1807
 4771SOL    HW125775   4.507   0.759  12.033  1.2686  0.0150 -0.3255
 4771SOL    HW225776   4.625   0.729  12.106 -0.8202  0.9144 -2.0248
 4772SOL     OW25777   0.132   1.973  14.384 -0.4360 -0.3417 -0.4069
 4772SOL    HW125778   0.188   1.983  14.307 -0.5501  0.1287 -0.4304
 4772SOL    HW225779   0.116   2.061  14.418 -0.3758 -0.5187  0.0732
 4773SOL     OW25780   2.815   2.644  10.020 -0.4240  0.7655  0.0479
 4773SOL    HW125781   2.725   2.624  10.045 -0.4508 -0.0424 -0.6995
 4773SOL    HW225782   2.818   2.738   9.998 -0.0186  0.6239 -0.5112
 4774SOL     OW25783   3.464   3.587   5.330 -0.4266 -0.0284 -0.1358
 4774SOL    HW125784   3.448   3.676   5.362  0.5186  0.3366 -0.6691
 4774SOL    HW225785   3.403   3.591   5.256 -0.3004  0.4471 -0.2143
 4775SOL     OW25786   1.859   3.062   4.954 -0.7740  0.4349  0.3352
 4775SOL    HW125787   1.885   3.125   4.887  0.8654 -1.2107 -0.5744
 4775SOL    HW225788   1.798   3.123   4.997  1.2435  0.7891  2.6605
 4776SOL     OW25789   2.304   0.405   8.871 -0.3666 -0.2010  0.0159
 4776SOL    HW125790   2.388   0.362   8.859 -0.0972  0.3890 -0.2381
 4776SOL    HW225791   2.265   0.348   8.937 -0.0424 -1.2100 -0.6592
 4777SOL     OW25792   0.466   3.598   0.264 -0.1470 -0.4117 -0.0555
 4777SOL    HW125793   0.480   3.632   0.353 -1.8632 -1.0997  0.4800
 4777SOL    HW225794   0.413   3.667   0.225  1.0617 -0.0832 -1.0996
 4778SOL     OW25795   2.140   0.670   5.987 -0.1768 -0.3588 -0.6367
 4778SOL    HW125796   2.132   0.747   5.930 -0.9641 -0.9350 -1.2946
 4778SOL    HW225797   2.106   0.701   6.071  1.3087  1.5333 -0.7310
 4779SOL     OW25798   2.018   1.074   4.926 -0.4388  0.0169  0.5890
 4779SOL    HW125799   1.962   1.141   4.963  0.5454  1.2399 -0.1152
 4779SOL    HW225800   2.031   1.019   5.003  2.7736  0.5926  0.4621
 4780SOL     OW25801   3.172   4.105   3.473 -0.4092  0.2620 -0.1218
 4780SOL    HW125802   3.196   4.026   3.425  1.2817  0.2538  0.7427
 4780SOL    HW225803   3.086   4.111   3.432 -1.0802  0.1892  1.2445
 4781SOL     OW25804   4.002   0.900  12.964 -0.3623 -0.3792 -0.2355
 4781SOL    HW125805   3.995   0.852  12.882  2.0286  0.1571 -0.7335
 4781SOL    HW225806   3.954   0.980  12.945 -0.1514  0.0469  0.9849
 4782SOL     OW25807   0.363   1.474   2.839  0.3065  0.1341  0.1038
 4782SOL    HW125808   0.305   1.448   2.768 -0.6694  1.3623  0.4612
 4782SOL    HW225809   0.452   1.464   2.803  0.6554  0.1244  0.9613
 4783SOL     OW25810   3.737   0.199  13.535  0.1802 -0.1934 -0.2171
 4783SOL    HW125811   3.663   0.222  13.479 -0.3639 -2.5047 -0.4503
 4783SOL    HW225812   3.707   0.195  13.626  1.1696  0.0130  0.1305
 4784SOL     OW25813   1.738   3.956   6.781 -0.3079 -0.0966 -0.1677
 4784SOL    HW125814   1.662   3.912   6.742 -0.2967 -0.5589  0.3321
 4784SOL    HW225815   1.698   4.042   6.791 -0.8586 -0.2748 -0.8109
 4785SOL     OW25816   2.839   3.714   9.848 -0.5309 -0.4028 -0.6850
 4785SOL    HW125817   2.924   3.755   9.867 -0.8010  0.0702 -0.5085
 4785SOL    HW225818   2.844   3.633   9.899  0.2878 -0.0215 -0.1457
 4786SOL     OW25819   1.246   4.040  13.953 -0.3315  0.2560 -0.4806
 4786SOL    HW125820   1.311   4.049  14.023 -2.8869  4.1967  1.4097
 4786SOL    HW225821   1.206   4.120  13.986 -0.7948 -0.5870  1.0196
 4787SOL     OW25822   3.667   2.504  17.117 -0.2317  0.0354 -0.3786
 4787SOL    HW125823   3.749   2.532  17.159 -0.6468 -1.4463  1.4476
 4787SOL    HW225824   3.697   2.420  17.081 -1.1387 -0.0484 -0.9285
 4788SOL     OW25825   0.676   3.946   3.796 -0.1803  0.8631  0.1525
 4788SOL    HW125826   0.601   3.975   3.847  1.0362  2.9011  0.7683
 4788SOL    HW225827   0.676   3.856   3.829  0.2083  1.0480  0.6462
 4789SOL     OW25828   1.951   4.331   1.086 -0.1905  0.2189 -0.2816
 4789SOL    HW125829   1.897   4.261   1.050  2.4434 -1.4841 -0.9391
 4789SOL    HW225830   1.973   4.288   1.169 -0.7921 -1.8506 -1.2092
 4790SOL     OW25831   1.532   4.092   8.776 -0.0151  0.0078  0.0620
 4790SOL    HW125832   1.608   4.149   8.791  0.1062 -1.1572  3.7220
 4790SOL    HW225833   1.474   4.162   8.745 -0.7474 -1.4845 -1.9267
 4791SOL     OW25834   2.998   3.675   4.791  0.2277  0.1164  0.4486
 4791SOL    HW125835   2.941   3.610   4.750  0.4446  0.7062 -0.7629
 4791SOL    HW225836   3.084   3.632   4.794  0.9337  1.3306 -2.6366
 4792SOL     OW25837   3.720   4.430  13.685 -0.1848 -0.7787  0.1433
 4792SOL    HW125838   3.638   4.470  13.658  0.3215  0.7877  0.9213
 4792SOL    HW225839   3.748   4.506  13.735  1.0489  0.6586 -2.7511
 4793SOL     OW25840   4.641   1.555   8.210  0.1509 -0.3106  0.4970
 4793SOL    HW125841   4.674   1.643   8.232  0.9203 -1.3495  3.5111
 4793SOL    HW225842   4.706   1.500   8.254  1.9992  1.9027  0.5579
 4794SOL     OW25843   0.515   3.329  16.737  0.4594 -0.2588  0.3589
 4794SOL    HW125844   0.586   3.276  16.701  0.8861  0.2984  0.3907
 4794SOL    HW225845   0.451   3.262  16.764 -1.7336  0.2971 -3.4347
 4795SOL     OW25846   1.713   1.001   8.141  0.3406 -0.2861 -0.5224
 4795SOL    HW125847   1.685   0.950   8.216 -1.2753 -0.0732 -0.9695
 4795SOL    HW225848   1.806   0.997   8.121  0.5015 -1.1011  0.4532
 4796SOL     OW25849   0.340   4.286   7.725 -0.2188  0.1343  0.2468
 4796SOL    HW125850   0.298   4.356   7.776  0.9775  0.4641  0.7627
 4796SOL    HW225851   0.315   4.210   7.778  4.1830 -0.1410  1.8896
 4797SOL     OW25852   2.738   0.718   6.213  0.0512 -0.7182  0.3063
 4797SOL    HW125853   2.823   0.751   6.244  0.1942  0.3495 -1.2081
 4797SOL    HW225854   2.770   0.650   6.155 -1.7395 -2.9120  1.8981
 4798SOL     OW25855   3.156   2.472   5.869  0.1581 -0.4056  0.4521
 4798SOL    HW125856   3.224   2.516   5.818 -0.7201 -0.6921 -0.9586
 4798SOL    HW225857   3.203   2.447   5.949 -2.2256 -1.9708  1.3571
 4799SOL     OW25858   0.664   4.368   6.173  0.3898 -0.2442  0.2022
 4799SOL    HW125859   0.635   4.458   6.182 -1.5931 -0.8387 -0.3312
 4799SOL    HW225860   0.759   4.367   6.183  0.4016  0.4499  0.1529
 4800SOL     OW25861   4.004   0.445   0.502  0.0696 -0.9197 -0.1780
 4800SOL    HW125862   4.011   0.535   0.469  0.9177 -0.4605  1.2847
 4800SOL    HW225863   4.056   0.440   0.582  0.5613 -2.1163 -0.5725
 4801SOL     OW25864   0.976   2.969   6.010  0.6324 -0.3048  0.5193
 4801SOL    HW125865   0.919   2.961   5.933 -0.9742  0.2733  1.6325
 4801SOL    HW225866   1.038   2.901   5.983 -0.8772 -0.4281 -2.6610
 4802SOL     OW25867   1.133   4.240  17.109 -0.6936 -0.3694 -0.5464
 4802SOL    HW125868   1.216   4.275  17.076 -0.0458 -2.2344 -0.8548
 4802SOL    HW225869   1.144   4.148  17.088 -1.2356  0.3550 -4.0022
 4803SOL     OW25870   4.432   1.089  11.410  0.2250 -0.5800  0.8172
 4803SOL    HW125871   4.366   1.124  11.350 -0.4451  1.1079  2.5337
 4803SOL    HW225872   4.476   1.173  11.420 -0.0478 -0.1484 -1.6777
 4804SOL     OW25873   2.064   2.388   9.239  0.4231 -0.4246 -0.7459
 4804SOL    HW125874   2.030   2.472   9.267 -3.3821 -1.9837 -0.7208
 4804SOL    HW225875   2.002   2.362   9.171  2.3390 -0.8746 -2.3073
 4805SOL     OW25876   3.919   3.278   3.588 -0.0673  0.0031 -0.4376
 4805SOL    HW125877   3.912   3.245   3.677 -2.3108 -0.9726 -0.9773
 4805SOL    HW225878   3.826   3.295   3.569  0.1842  2.1784  0.2050
 4806SOL     OW25879   1.836   0.832   9.364 -0.2608  0.4460  0.1473
 4806SOL    HW125880   1.742   0.815   9.363 -0.6581  2.6372  0.7206
 4806SOL    HW225881   1.871   0.793   9.444  1.1405  1.2167 -0.0993
 4807SOL     OW25882   1.442   2.367   0.977  0.6628 -1.0673  0.0047
 4807SOL    HW125883   1.514   2.353   1.039 -0.9617 -0.2838  2.0513
 4807SOL    HW225884   1.451   2.459   0.954  1.5732 -1.6855 -2.0442
 4808SOL     OW25885   4.022   1.893   7.762 -0.1607  0.1825 -0.1061
 4808SOL    HW125886   4.086   1.861   7.825  0.4983  3.1618  0.7143
 4808SOL    HW225887   3.943   1.887   7.816  1.8405 -0.6972  2.7110
 4809SOL     OW25888   0.915   0.109   7.619  0.6264  0.7690 -0.4746
 4809SOL    HW125889   0.920   0.108   7.714  1.8939 -0.4874 -0.5473
 4809SOL    HW225890   0.860   0.032   7.605  0.0609  0.9084  1.0223
 4810SOL     OW25891   1.611   4.305  16.826  0.0520  0.0497  0.6078
 4810SOL    HW125892   1.661   4.385  16.814  1.0623 -0.6673  0.0652
 4810SOL    HW225893   1.675   4.241  16.857  0.5959  0.3083  0.0196
 4811SOL     OW25894   0.889   2.497   3.878 -0.3740 -0.7194 -0.1171
 4811SOL    HW125895   0.915   2.524   3.966 -2.9680  1.4797 -0.0305
 4811SOL    HW225896   0.954   2.550   3.832  0.1055 -0.7904  0.4731
 4812SOL     OW25897   0.757   3.893   2.021 -0.4606  0.0613  0.2068
 4812SOL    HW125898   0.813   3.965   1.993 -1.8681  1.2178  0.3446
 4812SOL    HW225899   0.740   3.935   2.105 -2.0085  0.8956 -0.5266
 4813SOL     OW25900   2.066   0.169   3.900  0.2325 -0.0894 -0.1402
 4813SOL    HW125901   1.981   0.190   3.863 -0.9118 -0.2010  2.4450
 4813SOL    HW225902   2.086   0.239   3.962 -1.9168  0.9440 -0.6297
 4814SOL     OW25903   0.706   3.400  16.410 -0.2741 -0.4491  0.1392
 4814SOL    HW125904   0.721   3.361  16.496 -0.7086 -0.3088  0.2784
 4814SOL    HW225905   0.613   3.380  16.402 -0.4210  0.3068 -0.0090
 4815SOL     OW25906   2.411   4.047  16.401  0.4546  0.0459  0.5410
 4815SOL    HW125907   2.355   3.977  16.367 -0.7937  1.0498  0.5193
 4815SOL    HW225908   2.409   4.024  16.494 -0.4516  1.4735  0.8690
 4816SOL     OW25909   2.619   2.685  14.848 -0.1007 -0.1020  0.4643
 4816SOL    HW125910   2.603   2.768  14.803 -0.8675 -0.5285 -0.0528
 4816SOL    HW225911   2.711   2.665  14.828 -1.1968 -0.9207 -3.7700
 4817SOL     OW25912   4.006   1.138  10.029  0.4259  0.5346  0.4812
 4817SOL    HW125913   4.093   1.175  10.015  0.0059  0.6526 -1.7409
 4817SOL    HW225914   4.002   1.094   9.944  1.4705  3.0569 -0.8526
 4818SOL     OW25915   1.396   0.335   1.240  0.5423  0.5613  0.1136
 4818SOL    HW125916   1.407   0.393   1.165 -0.4513 -0.2256 -0.6372
 4818SOL    HW225917   1.486   0.342   1.271 -0.2376  0.5275  2.3926
 4819SOL     OW25918   1.734   2.790   9.149  0.3370  0.3747  0.1886
 4819SOL    HW125919   1.822   2.821   9.169  0.4911  0.1588 -0.1636
 4819SOL    HW225920   1.700   2.867   9.102  1.6236  0.8657  0.0651
 4820SOL     OW25921   0.354   2.126  15.174  0.2787 -0.2776  0.2522
 4820SOL    HW125922   0.355   2.100  15.081  1.2596  0.2945  0.1024
 4820SOL    HW225923   0.416   2.067  15.216  0.5632 -0.2773 -0.1675
 4821SOL     OW25924   4.240   1.128   8.125 -0.1028  0.1214  0.8845
 4821SOL    HW125925   4.318   1.075   8.109 -0.1933  0.3747 -0.4068
 4821SOL    HW225926   4.173   1.060   8.115  0.3226 -0.1293 -0.3255
 4822SOL     OW25927   3.529   2.954   8.466 -0.3541 -0.3982 -0.0199
 4822SOL    HW125928   3.559   2.893   8.398  1.0120 -0.5301  0.7155
 4822SOL    HW225929   3.540   2.897   8.542  1.1349 -1.2724 -0.8971
 4823SOL     OW25930   4.652   0.830   8.973  0.1107 -0.5170 -0.6019
 4823SOL    HW125931   4.672   0.820   8.880 -2.2238 -1.8544 -0.9462
 4823SOL    HW225932   4.581   0.768   8.982  1.2706 -2.0006 -1.6653
 4824SOL     OW25933   0.487   4.039   7.768  0.9367  0.2385 -0.1301
 4824SOL    HW125934   0.411   3.985   7.788  0.0579  1.1939 -0.8724
 4824SOL    HW225935   0.473   4.110   7.831 -0.5804 -1.2378  1.1828
 4825SOL     OW25936   3.803   2.550   2.312  0.1286  0.0688 -0.0665
 4825SOL    HW125937   3.801   2.636   2.354  1.0054  1.4485 -2.8538
 4825SOL    HW225938   3.857   2.550   2.233  1.6168 -1.4679  0.9653
 4826SOL     OW25939   0.544   2.787   5.802  0.3804 -0.2785  0.0701
 4826SOL    HW125940   0.470   2.789   5.742  1.1380 -1.2970 -0.9121
 4826SOL    HW225941   0.613   2.739   5.755 -0.5803 -0.6321 -0.9605
 4827SOL     OW25942   2.288   4.252   2.124 -1.1222  0.3381  0.0519
 4827SOL    HW125943   2.197   4.265   2.097 -1.6983  1.0351  2.3185
 4827SOL    HW225944   2.334   4.296   2.052 -2.7075  0.4941 -0.8836
 4828SOL     OW25945   2.878   1.180   2.588 -0.6476 -0.1374 -0.7279
 4828SOL    HW125946   2.845   1.145   2.505 -0.1929 -1.7201 -0.2507
 4828SOL    HW225947   2.798   1.230   2.602 -1.0218 -1.1665  0.8062
 4829SOL     OW25948   4.647   4.177   1.607 -0.4140  0.1583  0.2605
 4829SOL    HW125949   4.665   4.113   1.538  1.7354 -1.2215  2.0836
 4829SOL    HW225950   4.640   4.129   1.690  1.6454 -0.7698 -0.0825
 4830SOL     OW25951   2.811   1.651   4.776  0.8062 -0.4478  0.4167
 4830SOL    HW125952   2.854   1.580   4.728  0.5180 -0.4703  0.1844
 4830SOL    HW225953   2.722   1.631   4.745  0.5971  0.7975  0.2215
 4831SOL     OW25954   3.812   2.860   6.042 -0.2975  0.3981 -0.0338
 4831SOL    HW125955   3.824   2.941   6.092 -1.3888 -0.2279  1.2351
 4831SOL    HW225956   3.721   2.876   6.017  0.1902  2.5621 -0.4225
 4832SOL     OW25957   0.612   2.108   8.493  0.4087 -0.3675  0.0384
 4832SOL    HW125958   0.628   2.120   8.399  1.2665 -0.7061  0.1360
 4832SOL    HW225959   0.627   2.191   8.537 -1.7347 -0.8063  1.6133
 4833SOL     OW25960   4.302   0.763  14.751  0.4124 -0.0546 -0.3375
 4833SOL    HW125961   4.349   0.768  14.834 -2.5132 -1.1145  1.3976
 4833SOL    HW225962   4.219   0.807  14.773  0.6973  0.4394 -0.2511
 4834SOL     OW25963   3.331   1.114   1.826  0.1143  0.3848 -0.3974
 4834SOL    HW125964   3.293   1.033   1.791 -2.5798  0.8465  1.4490
 4834SOL    HW225965   3.413   1.084   1.864 -0.5115 -0.9750 -0.1168
 4835SOL     OW25966   0.185   1.619   1.833 -0.5127 -0.1081  0.5678
 4835SOL    HW125967   0.170   1.542   1.887  2.3775 -0.2113  1.1975
 4835SOL    HW225968   0.279   1.619   1.820 -0.5734 -0.9829  0.1818
 4836SOL     OW25969   4.188   0.128   4.678  0.1724  0.0127  0.1290
 4836SOL    HW125970   4.093   0.142   4.674  0.6624  4.1109  3.0839
 4836SOL    HW225971   4.185   0.056   4.741 -0.9091  1.2460  1.4745
 4837SOL     OW25972   0.760   0.236  13.911  0.1020 -0.3679 -0.3189
 4837SOL    HW125973   0.849   0.209  13.935  0.6254 -1.0565 -3.0613
 4837SOL    HW225974   0.769   0.332  13.915  1.3703 -0.4479 -1.1506
 4838SOL     OW25975   0.662   0.817   1.467 -0.1186  0.0320  0.1014
 4838SOL    HW125976   0.642   0.777   1.383 -0.0817  1.0916 -0.4180
 4838SOL    HW225977   0.580   0.807   1.515  0.5783 -0.5607  1.1677
 4839SOL     OW25978   1.095   0.993  17.604  0.0782 -0.5534  0.3984
 4839SOL    HW125979   1.175   1.031  17.640  1.2330 -1.9598 -0.7614
 4839SOL    HW225980   1.035   0.995  17.679  1.0332  2.2051  1.1204
 4840SOL     OW25981   0.260   1.243   4.458  0.4904  0.3090  0.4038
 4840SOL    HW125982   0.324   1.176   4.484  1.5016  0.8662 -0.6619
 4840SOL    HW225983   0.319   1.318   4.458 -0.0148  0.6823 -1.3872
 4841SOL     OW25984   0.953   3.067  11.727  0.0828  0.2910  0.1348
 4841SOL    HW125985   0.861   3.073  11.702  0.3566 -1.8405 -1.4823
 4841SOL    HW225986   1.000   3.146  11.700 -0.0277 -0.0712 -1.1368
 4842SOL     OW25987   2.309   2.835   6.331 -0.2101  0.0912 -0.2051
 4842SOL    HW125988   2.353   2.910   6.370  1.2207 -0.0114 -1.6113
 4842SOL    HW225989   2.338   2.833   6.240  0.6073 -0.1994  0.0614
 4843SOL     OW25990   1.142   3.923   4.545  0.2734  0.1427 -0.2318
 4843SOL    HW125991   1.203   3.893   4.477 -1.0033  2.4198 -2.3806
 4843SOL    HW225992   1.126   3.846   4.600  1.6301  0.4553  0.6002
 4844SOL     OW25993   1.650   1.413  11.459  0.0642 -0.0643 -0.3022
 4844SOL    HW125994   1.603   1.497  11.460 -1.8867 -1.1704  1.0887
 4844SOL    HW225995   1.734   1.435  11.420 -0.2376  0.7620 -0.4932
 4845SOL     OW25996   2.850   0.503  13.255 -0.1865  0.4537 -0.2543
 4845SOL    HW125997   2.822   0.424  13.301 -0.2590  0.0638 -0.9874
 4845SOL    HW225998   2.940   0.482  13.230 -0.9262 -4.8132  1.4529
 4846SOL     OW25999   3.725   2.061  14.047  0.4100 -0.2748 -0.3186
 4846SOL    HW126000   3.809   2.048  14.092 -1.2559 -1.7237  2.3377
 4846SOL    HW226001   3.760   2.089  13.962 -1.5576 -1.4271 -1.5137
 4847SOL     OW26002   0.447   3.262  11.519  0.2288 -0.1856  0.4513
 4847SOL    HW126003   0.407   3.349  11.528 -2.9706 -1.3353 -2.4497
 4847SOL    HW226004   0.396   3.219  11.450  0.5390 -1.6043  1.1090
 4848SOL     OW26005   3.974   2.897   5.381 -0.4175  0.5467 -0.0243
 4848SOL    HW126006   3.979   2.816   5.433  0.6158  0.7135  0.1508
 4848SOL    HW226007   4.049   2.945   5.416  0.4687 -0.8829  0.0691
 4849SOL     OW26008   1.762   0.153   5.664  0.8510  1.1053  0.1727
 4849SOL    HW126009   1.822   0.117   5.729  1.3376  2.0524  0.2538
 4849SOL    HW226010   1.742   0.071   5.619  2.9261  0.2744  0.7617
 4850SOL     OW26011   0.242   4.652   5.979  0.0540  0.1413 -0.0302
 4850SOL    HW126012   0.174   4.691   6.034  1.1260  1.3367  0.4453
 4850SOL    HW226013   0.272   4.721   5.920 -0.2325  0.6388  0.4099
 4851SOL     OW26014   3.431   0.897   6.711  0.0372  0.8349 -0.1490
 4851SOL    HW126015   3.456   0.964   6.775  0.2963 -0.3215  0.9658
 4851SOL    HW226016   3.489   0.918   6.638  1.5666  0.8548  1.0615
 4852SOL     OW26017   0.056   3.304   0.625  0.4309  0.9216  0.8911
 4852SOL    HW126018   0.016   3.354   0.695  0.7779  0.5126  1.3798
 4852SOL    HW226019   0.012   3.220   0.638  0.6525  0.6052 -0.3294
 4853SOL     OW26020   0.984   1.486   3.378  0.1720 -0.1705  0.1979
 4853SOL    HW126021   0.950   1.566   3.418 -0.6913 -0.3132 -0.2444
 4853SOL    HW226022   1.061   1.470   3.432  1.0754  0.4354 -0.9167
 4854SOL     OW26023   1.792   3.383   7.425 -0.0087  0.3611 -0.4734
 4854SOL    HW126024   1.882   3.415   7.418  1.2135 -3.1653 -0.9215
 4854SOL    HW226025   1.771   3.389   7.518  1.5498  1.0756 -0.1589
 4855SOL     OW26026   0.025   1.488  15.408 -0.0263 -0.4587 -0.6078
 4855SOL    HW126027   0.104   1.452  15.447 -1.7666 -3.3107  0.2519
 4855SOL    HW226028   4.722   1.427  15.340  1.7512 -0.3433 -1.4305
 4856SOL     OW26029   4.462   1.715   4.821  0.3496  0.9476  0.0020
 4856SOL    HW126030   4.530   1.655   4.790  0.0809  1.0556 -0.7874
 4856SOL    HW226031   4.508   1.760   4.892  0.6590  1.0738 -0.2815
 4857SOL     OW26032   2.679   0.317   5.087  0.3912  0.4061 -0.1526
 4857SOL    HW126033   2.634   0.251   5.034 -1.5387  1.8355 -0.2678
 4857SOL    HW226034   2.612   0.385   5.086  2.4915  2.4703  0.7261
 4858SOL     OW26035   3.126   0.918  11.272  0.4157  0.1286  0.5198
 4858SOL    HW126036   3.170   0.865  11.206 -1.0714  0.4762 -0.7761
 4858SOL    HW226037   3.077   0.853  11.321  1.6138 -3.0355 -2.4768
 4859SOL     OW26038   4.659   3.517   2.852 -0.0083  0.2182 -0.2728
 4859SOL    HW126039   4.644   3.492   2.943  1.6428 -0.7680 -0.2791
 4859SOL    HW226040   4.713   3.443   2.823 -0.7310 -0.9130  1.2670
 4860SOL     OW26041   3.744   1.115   1.029 -0.3637 -0.5942 -0.2330
 4860SOL    HW126042   3.726   1.170   1.105 -0.2213  0.9174 -1.2982
 4860SOL    HW226043   3.835   1.088   1.045 -0.0111  0.0775 -1.1228
 4861SOL     OW26044   2.587   3.000   6.775  0.0003  0.1848 -0.0559
 4861SOL    HW126045   2.492   3.004   6.768 -0.0524 -0.5462  0.1990
 4861SOL    HW226046   2.597   2.906   6.789 -0.4432 -0.0467 -1.2859
 4862SOL     OW26047   1.946   4.464   6.269 -1.0764  0.0144 -0.2116
 4862SOL    HW126048   1.853   4.461   6.294 -0.3299 -2.4302  2.2580
 4862SOL    HW226049   1.981   4.422   6.347 -0.3390  0.1984 -0.4407
 4863SOL     OW26050   4.636   3.220   8.386 -0.0579  0.7184 -0.0257
 4863SOL    HW126051   4.685   3.292   8.346 -1.0007  2.8589  2.6496
 4863SOL    HW226052   4.558   3.272   8.405 -0.0026 -0.2628  2.9804
 4864SOL     OW26053   3.554   2.808   2.597 -0.3543  0.1162  0.0555
 4864SOL    HW126054   3.481   2.800   2.536 -0.1946 -1.7526  0.0990
 4864SOL    HW226055   3.612   2.854   2.536 -1.5444  1.3122 -0.1659
 4865SOL     OW26056   2.932   3.592  10.362 -0.0408  0.2574  0.1463
 4865SOL    HW126057   3.004   3.600  10.424 -1.5621  1.0472  1.7904
 4865SOL    HW226058   2.976   3.619  10.281  1.3767  1.3092  1.2677
 4866SOL     OW26059   0.907   4.621   4.630  0.0514  0.0170  0.6943
 4866SOL    HW126060   0.872   4.695   4.581  0.4069  0.9891  1.9298
 4866SOL    HW226061   0.832   4.578   4.672 -1.0834 -1.0407 -2.4330
 4867SOL     OW26062   2.066   1.176   6.536  0.1731 -0.5909  0.3102
 4867SOL    HW126063   2.011   1.248   6.565 -0.5686 -1.1006  0.1564
 4867SOL    HW226064   2.151   1.217   6.516 -0.9084  0.6225 -1.7857
 4868SOL     OW26065   1.638   3.314   3.359  0.1453 -0.0990 -0.0994
 4868SOL    HW126066   1.716   3.280   3.316  1.1375 -0.2781  1.8742
 4868SOL    HW226067   1.673   3.349   3.441  0.1198  0.7611 -0.4551
 4869SOL     OW26068   1.993   2.365   3.268 -0.0994  0.2589 -0.5496
 4869SOL    HW126069   2.088   2.358   3.274 -0.2096  0.4555  1.2986
 4869SOL    HW226070   1.975   2.299   3.201 -0.9550 -0.0729 -0.0001
 4870SOL     OW26071   2.572   2.442   5.209 -0.2192 -0.2955  0.1194
 4870SOL    HW126072   2.508   2.374   5.186 -0.9914 -0.0120  1.4017
 4870SOL    HW226073   2.636   2.428   5.140  1.1173 -1.3755  1.5753
 4871SOL     OW26074   1.374   1.830   4.996  0.1767 -0.0396  0.1503
 4871SOL    HW126075   1.362   1.766   4.926  0.8084  0.8249 -0.7493
 4871SOL    HW226076   1.283   1.830   5.026  0.1429 -1.4693  0.0485
 4872SOL     OW26077   4.456   2.951   7.162  0.2431 -0.0414  0.2970
 4872SOL    HW126078   4.402   2.901   7.101  0.7026  0.0962 -0.2318
 4872SOL    HW226079   4.396   2.995   7.222  1.1653 -0.4074  1.4809
 4873SOL     OW26080   1.755   0.775   7.402 -0.2720 -0.0019 -0.2930
 4873SOL    HW126081   1.698   0.851   7.393 -1.1676 -0.4767  1.2375
 4873SOL    HW226082   1.733   0.757   7.494 -0.3711  0.0404 -0.3087
 4874SOL     OW26083   4.281   2.431   8.646 -0.4722 -0.0686  0.1762
 4874SOL    HW126084   4.375   2.446   8.647 -0.2375 -1.3550 -1.1815
 4874SOL    HW226085   4.273   2.402   8.736  1.5902  0.6004  0.5636
 4875SOL     OW26086   1.501   2.445  17.547 -0.0317 -0.4915 -0.1946
 4875SOL    HW126087   1.484   2.521  17.603  3.3010  0.1555 -0.0514
 4875SOL    HW226088   1.566   2.474  17.483 -0.3651  3.5518  1.2690
 4876SOL     OW26089   2.336   3.844   7.649 -0.1551  0.4161 -0.1678
 4876SOL    HW126090   2.343   3.813   7.740  1.6105 -0.0609 -0.4570
 4876SOL    HW226091   2.396   3.784   7.604 -0.2787  1.1739 -1.3379
 4877SOL     OW26092   2.799   1.623   5.277 -0.7624  0.2185  0.2096
 4877SOL    HW126093   2.719   1.570   5.283 -1.7016  1.7414  1.2059
 4877SOL    HW226094   2.835   1.628   5.366 -0.6963 -0.7277  0.2286
 4878SOL     OW26095   1.221   2.319   8.612 -0.0425 -0.0791  0.2909
 4878SOL    HW126096   1.213   2.336   8.706  0.6069 -1.0245  0.5201
 4878SOL    HW226097   1.221   2.223   8.616  1.6268 -0.2296 -3.7523
 4879SOL     OW26098   0.493   3.121  12.007  0.2471  0.1650 -0.1539
 4879SOL    HW126099   0.533   3.043  11.967 -2.0538  0.1698 -2.4501
 4879SOL    HW226100   0.432   3.147  11.938 -1.5662  1.4675  1.9999
 4880SOL     OW26101   0.431   2.214   3.147 -0.1594 -0.6749  0.5164
 4880SOL    HW126102   0.463   2.284   3.204  1.5706 -0.0658 -1.2286
 4880SOL    HW226103   0.512   2.180   3.110 -0.0117 -0.9716  1.0988
 4881SOL     OW26104   4.020   4.270  12.110 -0.5623  0.3040 -0.5305
 4881SOL    HW126105   3.937   4.293  12.152  0.5388  2.1630  0.5973
 4881SOL    HW226106   3.987   4.224  12.032  0.9703  0.4625 -1.2709
 4882SOL     OW26107   1.415   2.569   6.576  0.0544  0.0628 -0.7714
 4882SOL    HW126108   1.372   2.483   6.581 -1.1045  0.7951  2.1583
 4882SOL    HW226109   1.392   2.611   6.659  2.9651 -0.1658  0.1365
 4883SOL     OW26110   2.367   3.068   4.919  0.7998  0.0020 -0.1128
 4883SOL    HW126111   2.376   2.991   4.976  1.6842  1.2940  1.5079
 4883SOL    HW226112   2.381   3.022   4.837 -0.1473  1.8391 -1.3044
 4884SOL     OW26113   3.029   3.971  12.857  0.2396 -0.4888 -0.1836
 4884SOL    HW126114   3.093   3.900  12.847  2.2301  1.5346 -1.6990
 4884SOL    HW226115   2.958   3.926  12.902  0.2854 -0.2319  0.1445
 4885SOL     OW26116   1.517   4.634   5.923 -0.3256 -0.2457 -0.0921
 4885SOL    HW126117   1.484   4.722   5.939 -0.5420 -0.3130 -0.1687
 4885SOL    HW226118   1.475   4.591   5.998 -1.5116 -3.0946 -2.4049
 4886SOL     OW26119   1.475   3.772   6.940  0.1889  0.6000  0.2453
 4886SOL    HW126120   1.420   3.812   6.873 -0.2282  2.8753  1.9454
 4886SOL    HW226121   1.480   3.679   6.914  1.6029  0.5345  0.7423
 4887SOL     OW26122   2.318   3.855   5.768 -0.3257 -0.4424 -0.1209
 4887SOL    HW126123   2.376   3.846   5.692  2.7562  1.8209  1.9406
 4887SOL    HW226124   2.228   3.845   5.736 -0.1665 -1.1988 -0.3367
 4888SOL     OW26125   2.911   1.982  10.075  0.0399  0.1929  0.1263
 4888SOL    HW126126   2.822   2.017  10.076 -0.4707 -1.1532  2.4498
 4888SOL    HW226127   2.964   2.062  10.075 -1.5356  1.2263 -2.3696
 4889SOL     OW26128   1.068   4.084  13.699  0.6742 -0.7506 -0.3669
 4889SOL    HW126129   1.144   4.055  13.649  2.4376  1.4150  1.0974
 4889SOL    HW226130   1.082   4.056  13.789 -0.5033  1.1411  0.4136
 4890SOL     OW26131   2.627   3.722  16.984 -0.0383 -0.4528 -0.4403
 4890SOL    HW126132   2.545   3.770  16.971 -0.0804 -0.1846  0.7416
 4890SOL    HW226133   2.683   3.787  16.943  0.5657 -1.5207 -1.2794
 4891SOL     OW26134   0.222   2.573   7.464 -0.0146 -0.5617 -0.0927
 4891SOL    HW126135   0.283   2.633   7.506 -0.7830  2.0510 -2.7314
 4891SOL    HW226136   0.144   2.599   7.512  0.1570  0.9587 -0.6332
 4892SOL     OW26137   2.304   3.266   9.840  0.3529  0.2696  0.3584
 4892SOL    HW126138   2.314   3.361   9.844  0.4405  0.2294  1.1416
 4892SOL    HW226139   2.327   3.261   9.933  0.7126  2.0115  0.3691
 4893SOL     OW26140   1.721   1.057   8.648 -0.0431  0.0042 -0.7883
 4893SOL    HW126141   1.758   1.071   8.735  0.1192 -6.9434  0.2484
 4893SOL    HW226142   1.803   1.051   8.599  1.5581  0.0109  1.8625
 4894SOL     OW26143   1.270   0.302  16.654  0.2443  0.0251  0.0242
 4894SOL    HW126144   1.359   0.335  16.647  0.3979 -0.7137 -1.4046
 4894SOL    HW226145   1.235   0.368  16.715  1.7927  0.6279  0.2421
 4895SOL     OW26146   0.388   1.775   3.754 -0.3728  0.0033 -0.3214
 4895SOL    HW126147   0.354   1.692   3.720  1.5547 -1.5162  1.4989
 4895SOL    HW226148   0.426   1.809   3.673 -1.3418  1.9859  0.0443
 4896SOL     OW26149   3.532   2.451  17.574  0.3491 -0.0003  0.1893
 4896SOL    HW126150   3.567   2.369  17.610 -0.5014 -0.6369 -0.4121
 4896SOL    HW226151   3.498   2.420  17.490 -0.8813 -0.5246  0.8838
 4897SOL     OW26152   4.357   3.974   9.299 -0.7867 -0.2734  0.0508
 4897SOL    HW126153   4.427   3.919   9.333 -0.4418  1.5070  2.2911
 4897SOL    HW226154   4.400   4.059   9.308 -2.3351  0.4255  0.9115
 4898SOL     OW26155   2.732   0.731   8.844  0.3300 -0.5373  0.5806
 4898SOL    HW126156   2.741   0.663   8.911 -3.6827 -2.8275 -1.1912
 4898SOL    HW226157   2.664   0.783   8.885 -1.6603 -1.0320 -2.1098
 4899SOL     OW26158   1.794   3.269  10.145 -0.3652 -0.0229  0.2490
 4899SOL    HW126159   1.846   3.349  10.153  0.6618 -0.6967  0.2734
 4899SOL    HW226160   1.868   3.213  10.119  0.4462  0.2727  1.9362
 4900SOL     OW26161   4.567   1.531  17.425  0.1795 -0.3197  0.3761
 4900SOL    HW126162   4.547   1.604  17.484  1.9220 -0.7399  1.4647
 4900SOL    HW226163   4.649   1.501  17.464  0.9158 -0.6125 -1.4149
 4901SOL     OW26164   1.158   0.619   2.406  1.0344 -0.3658 -0.0491
 4901SOL    HW126165   1.138   0.626   2.499  0.0776 -0.0620 -0.2816
 4901SOL    HW226166   1.241   0.666   2.398 -0.1503  1.5677 -1.0832
 4902SOL     OW26167   2.815   4.498  12.473  0.0182 -0.8369 -0.0936
 4902SOL    HW126168   2.782   4.566  12.531  1.1910 -0.1983 -0.1837
 4902SOL    HW226169   2.793   4.522  12.383  2.5593  0.2067 -0.4347
 4903SOL     OW26170   1.717   0.207   4.903  0.0230  0.0704  0.1042
 4903SOL    HW126171   1.789   0.177   4.958 -0.7886  0.3349  1.2908
 4903SOL    HW226172   1.749   0.183   4.816  0.5044 -1.6160  0.7512
 4904SOL     OW26173   2.348   0.025   5.513  1.0317 -0.8147 -0.3402
 4904SOL    HW126174   2.317   4.660   5.494 -0.4626 -0.5143  0.6770
 4904SOL    HW226175   2.264   0.069   5.526  0.6981 -1.2829 -0.9407
 4905SOL     OW26176   3.336   4.597   8.382  0.1271 -0.3479  0.1246
 4905SOL    HW126177   3.297   4.662   8.325  1.0463  1.5121  1.6024
 4905SOL    HW226178   3.311   4.521   8.330 -1.1622 -0.4938  0.9548
 4906SOL     OW26179   0.002   4.193   6.107  0.1899 -0.2029 -0.0148
 4906SOL    HW126180   0.030   4.119   6.160  0.4359 -0.0942  0.0105
 4906SOL    HW226181   0.078   4.249   6.126 -1.2503  1.5521  0.6153
 4907SOL     OW26182   4.059   1.170  11.015 -0.4998 -0.4038 -0.5676
 4907SOL    HW126183   4.041   1.155  10.922 -0.5864  1.0693 -0.7910
 4907SOL    HW226184   4.096   1.258  11.022  2.7839 -1.7661 -0.9331
 4908SOL     OW26185   0.398   1.301  12.101 -0.0948 -0.1497 -0.3124
 4908SOL    HW126186   0.364   1.221  12.141 -0.2044  1.1684  2.2043
 4908SOL    HW226187   0.354   1.363  12.159  1.0146 -0.4569  0.8605
 4909SOL     OW26188   1.590   2.200   2.890 -0.4410  0.0714  0.6474
 4909SOL    HW126189   1.669   2.149   2.909 -1.3841 -1.4307  0.4505
 4909SOL    HW226190   1.558   2.134   2.829 -0.9091  1.3549 -0.4767
 4910SOL     OW26191   3.060   0.043   1.307 -0.2978 -0.1953 -1.0163
 4910SOL    HW126192   3.124   4.707   1.268  0.9720  0.6246 -0.1857
 4910SOL    HW226193   3.074   0.106   1.236 -0.6089  1.3224  0.2639
 4911SOL     OW26194   0.375   2.812   4.224  0.2106  0.2431 -0.0157
 4911SOL    HW126195   0.325   2.741   4.264 -0.3603  0.5620 -0.1716
 4911SOL    HW226196   0.411   2.784   4.139  1.3326  3.1135 -0.4904
 4912SOL     OW26197   0.527   1.936   1.077  0.0873  0.0796 -0.2242
 4912SOL    HW126198   0.547   1.984   0.996 -0.6467 -0.2902 -0.6285
 4912SOL    HW226199   0.602   1.883   1.101 -0.5189 -0.3785  0.6647
 4913SOL     OW26200   1.833   1.155   2.589 -0.1762  0.5764  0.3536
 4913SOL    HW126201   1.908   1.134   2.532  0.1468  0.1856  0.9242
 4913SOL    HW226202   1.779   1.077   2.583 -0.2300  0.3954  3.1950
 4914SOL     OW26203   2.549   2.778   0.594 -0.1779 -0.1619 -0.7059
 4914SOL    HW126204   2.504   2.849   0.640  1.1702  1.7805 -2.3909
 4914SOL    HW226205   2.633   2.807   0.561 -1.4811  1.7747 -2.2764
 4915SOL     OW26206   3.515   3.781   3.893  0.7802  0.1614  0.0178
 4915SOL    HW126207   3.583   3.748   3.835  1.0236  1.5836 -0.5075
 4915SOL    HW226208   3.538   3.735   3.974  1.0530  0.5042  0.1334
 4916SOL     OW26209   4.424   1.208  15.479 -0.0065 -0.1435 -0.1012
 4916SOL    HW126210   4.465   1.286  15.517  0.1065 -0.9697  1.4310
 4916SOL    HW226211   4.433   1.229  15.385  0.5298  3.3746  0.7228
 4917SOL     OW26212   2.577   3.737  16.649  0.7658 -0.3673  0.2882
 4917SOL    HW126213   2.632   3.800  16.602  1.4855 -0.2655  1.2801
 4917SOL    HW226214   2.575   3.788  16.730 -1.5767  0.5329 -0.3186
 4918SOL     OW26215   3.618   2.648  17.339  0.2199 -0.3745  0.4053
 4918SOL    HW126216   3.586   2.605  17.259 -0.8873 -1.9360  1.6986
 4918SOL    HW226217   3.697   2.595  17.332 -0.3781 -1.0754 -1.2634
 4919SOL     OW26218   2.271   4.257   9.528  0.0448  0.2110  0.3747
 4919SOL    HW126219   2.299   4.333   9.478 -0.2810 -0.1417 -0.3432
 4919SOL    HW226220   2.336   4.255   9.598 -0.3114  1.2546  0.7292
 4920SOL     OW26221   4.373   3.482   5.227 -0.0949  0.0607  0.1450
 4920SOL    HW126222   4.315   3.558   5.221 -1.2276 -1.0006 -2.1895
 4920SOL    HW226223   4.461   3.514   5.205 -0.1132 -0.2794 -0.4136
 4921SOL     OW26224   3.299   2.105   1.448 -0.1428 -0.4620 -0.3462
 4921SOL    HW126225   3.346   2.024   1.430 -1.6229 -1.8830  2.1158
 4921SOL    HW226226   3.207   2.086   1.465 -0.4142 -1.0325 -2.5195
 4922SOL     OW26227   0.250   2.455  11.525  0.0748 -0.0760  0.3248
 4922SOL    HW126228   0.220   2.422  11.441 -2.3237  1.2767  0.6615
 4922SOL    HW226229   0.217   2.390  11.588  0.3477 -0.4748  0.0598
 4923SOL     OW26230   1.424   2.473   2.582 -0.1907 -0.1733  0.2441
 4923SOL    HW126231   1.468   2.400   2.538  1.5540 -0.3216  2.2212
 4923SOL    HW226232   1.360   2.495   2.514 -0.6877 -0.3583  0.6593
 4924SOL     OW26233   0.923   1.706  15.996  0.2679 -0.3120  0.1512
 4924SOL    HW126234   0.914   1.658  15.914  0.7705  3.8716 -2.3532
 4924SOL    HW226235   0.839   1.692  16.039 -0.5824 -0.9843 -1.7278
 4925SOL     OW26236   4.075   4.697   8.449  0.0143 -0.0378  0.0432
 4925SOL    HW126237   4.009   0.043   8.453 -3.4061 -3.1949 -0.9642
 4925SOL    HW226238   4.099   4.718   8.359  1.1323 -1.7480 -0.0562
 4926SOL     OW26239   0.265   3.192   7.612 -0.1559 -0.2624 -0.5758
 4926SOL    HW126240   0.292   3.199   7.521  1.3122  0.6097 -0.0897
 4926SOL    HW226241   0.207   3.268   7.613 -0.5014 -0.5386  1.0620
 4927SOL     OW26242   0.836   1.426   6.246 -0.0266 -0.1401  0.2406
 4927SOL    HW126243   0.869   1.488   6.181  0.3182 -0.0124  0.5354
 4927SOL    HW226244   0.750   1.401   6.211 -1.1305  0.7846  2.3068
 4928SOL     OW26245   4.221   2.408   5.886 -0.4128 -0.4887  0.0293
 4928SOL    HW126246   4.189   2.365   5.806  0.4747  0.4130 -0.8093
 4928SOL    HW226247   4.145   2.388   5.941 -0.3714 -0.2723  0.1645
 4929SOL     OW26248   3.053   2.369   4.590  0.0195  0.3059  0.9476
 4929SOL    HW126249   3.008   2.427   4.528  1.0829  1.4788  1.2650
 4929SOL    HW226250   3.054   2.419   4.671  0.7910  0.1277  1.0462
 4930SOL     OW26251   0.203   3.896  10.368  0.0479 -0.3558 -0.5920
 4930SOL    HW126252   0.206   3.810  10.411  2.5540 -0.3107 -0.6770
 4930SOL    HW226253   0.297   3.901  10.350 -0.1197  1.2864 -1.0547
 4931SOL     OW26254   2.199   2.463   1.709  0.4540  0.2709 -0.2612
 4931SOL    HW126255   2.257   2.471   1.785  0.6477  1.2672 -0.5107
 4931SOL    HW226256   2.161   2.550   1.704 -1.5744 -0.5122  1.6457
 4932SOL     OW26257   3.542   0.498   7.935  0.3274  0.0322  0.2549
 4932SOL    HW126258   3.632   0.529   7.940  0.5637 -0.3556 -1.5892
 4932SOL    HW226259   3.506   0.552   8.005  1.8569 -0.3980  1.3665
 4933SOL     OW26260   0.660   1.844   7.064  0.1571 -0.2490  0.3597
 4933SOL    HW126261   0.726   1.806   7.006  1.9613  0.0092  2.2553
 4933SOL    HW226262   0.653   1.933   7.032 -1.0403 -0.3861  0.2611
 4934SOL     OW26263   1.347   3.477  17.642 -0.5016 -0.2372 -0.0069
 4934SOL    HW126264   1.425   3.474  17.587 -2.0832 -1.3224 -2.1983
 4934SOL    HW226265   1.280   3.503  17.578 -0.1505 -3.3273 -1.6027
 4935SOL     OW26266   1.381   0.548   2.087 -0.3312 -0.1719  0.1502
 4935SOL    HW126267   1.407   0.581   2.001  3.2151 -1.0344  0.8770
 4935SOL    HW226268   1.287   0.562   2.080 -0.3462 -0.8769 -1.0830
 4936SOL     OW26269   3.707   0.545   1.512  0.2326  0.6727  0.1278
 4936SOL    HW126270   3.785   0.491   1.498 -0.6282 -0.3892 -0.6067
 4936SOL    HW226271   3.689   0.537   1.605  0.0557 -0.4391 -0.0048
 4937SOL     OW26272   2.447   4.289   8.662  0.0211 -0.3940  0.3299
 4937SOL    HW126273   2.363   4.334   8.667  0.9006  1.3736 -0.5009
 4937SOL    HW226274   2.424   4.208   8.616 -0.3966 -0.9107  1.4412
 4938SOL     OW26275   0.079   0.911   5.016  0.0389 -0.3172  0.0673
 4938SOL    HW126276   0.023   0.844   4.976 -0.2635 -1.4672  2.4436
 4938SOL    HW226277   0.089   0.974   4.945 -2.2816 -0.2533 -0.1998
 4939SOL     OW26278   4.168   1.668   2.429 -0.6517  0.1072  0.1328
 4939SOL    HW126279   4.220   1.593   2.401  0.2181  0.0798  1.8465
 4939SOL    HW226280   4.229   1.738   2.452 -1.4343 -0.1891  3.1477
 4940SOL     OW26281   1.132   1.098   1.640  0.1534  0.0696 -0.0366
 4940SOL    HW126282   1.065   1.072   1.577 -0.6779 -1.6346  1.5732
 4940SOL    HW226283   1.195   1.140   1.581 -1.8994  2.1065 -0.7836
 4941SOL     OW26284   0.957   0.024   0.617  0.1021 -0.0525  0.0224
 4941SOL    HW126285   0.961   0.066   0.531 -1.8825 -1.4898 -0.7590
 4941SOL    HW226286   0.883   4.691   0.600  0.6517 -1.4416  2.3078
 4942SOL     OW26287   3.599   1.586   4.094 -0.5442  0.1435  0.5800
 4942SOL    HW126288   3.562   1.628   4.171 -1.5503 -0.9750  0.7064
 4942SOL    HW226289   3.548   1.623   4.023 -0.0196 -2.3870 -1.1212
 4943SOL     OW26290   1.499   3.590   2.330 -0.4366  0.8188 -0.5762
 4943SOL    HW126291   1.537   3.678   2.337 -1.1371  0.9946  0.9606
 4943SOL    HW226292   1.474   3.591   2.238 -0.7135  0.9390 -0.4984
 4944SOL     OW26293   1.521   1.372   3.957 -0.5206 -0.0388 -0.2255
 4944SOL    HW126294   1.503   1.351   3.865  2.4138 -1.3428 -0.4997
 4944SOL    HW226295   1.615   1.380   3.943 -0.6936  1.4466 -0.4789
 4945SOL     OW26296   0.440   1.623   0.436 -0.0385 -0.3299  0.0007
 4945SOL    HW126297   0.409   1.562   0.369  0.7175  0.4154 -1.0129
 4945SOL    HW226298   0.516   1.658   0.390 -0.7220 -1.2692 -1.8494
 4946SOL     OW26299   1.393   1.742   7.532 -0.1337 -0.4541  0.0542
 4946SOL    HW126300   1.431   1.720   7.617  1.1793 -0.1422 -0.4534
 4946SOL    HW226301   1.439   1.678   7.477  1.5479  0.0827  0.8239
 4947SOL     OW26302   2.771   3.788   5.242 -0.7135 -0.2828 -0.4762
 4947SOL    HW126303   2.847   3.759   5.191  0.7433  1.7401  0.5393
 4947SOL    HW226304   2.725   3.817   5.164  0.6004  2.4629 -0.2523
 4948SOL     OW26305   4.443   3.060  11.415 -0.3692  0.0601  0.1692
 4948SOL    HW126306   4.463   2.972  11.383 -1.7836  0.2324 -1.1622
 4948SOL    HW226307   4.347   3.060  11.416 -0.3738  1.2856  1.3247
 4949SOL     OW26308   2.331   3.313   2.392 -0.5087 -0.2328 -0.3297
 4949SOL    HW126309   2.289   3.396   2.416  0.3276 -0.1291  0.7760
 4949SOL    HW226310   2.330   3.265   2.474  0.9810 -1.5937 -1.1203
 4950SOL     OW26311   3.930   0.878   2.930 -0.1045  0.0155  0.1972
 4950SOL    HW126312   3.905   0.968   2.955  0.7804  0.9285 -2.2181
 4950SOL    HW226313   3.893   0.820   2.996  1.0589  0.6704  1.4405
 4951SOL     OW26314   0.728   4.482   4.960 -0.4703 -0.3972  0.1549
 4951SOL    HW126315   0.715   4.502   4.867 -0.2363  1.2988  0.4931
 4951SOL    HW226316   0.790   4.548   4.989 -0.6374 -0.4403  0.6133
 4952SOL     OW26317   2.143   4.428   4.797  0.3994 -0.2499  0.0410
 4952SOL    HW126318   2.057   4.457   4.828 -0.3425 -1.5526 -0.8171
 4952SOL    HW226319   2.171   4.373   4.870  0.7147  1.3955  1.1699
 4953SOL     OW26320   4.548   1.670   8.495 -0.2151  0.0064  0.4289
 4953SOL    HW126321   4.609   1.709   8.433  1.4010 -3.7772 -0.3348
 4953SOL    HW226322   4.600   1.636   8.568  0.0513 -2.0430 -0.7092
 4954SOL     OW26323   1.779   0.184   7.155 -0.0157 -0.4582  0.1642
 4954SOL    HW126324   1.825   0.244   7.096 -1.6326  0.2539 -0.4052
 4954SOL    HW226325   1.696   0.168   7.109  1.2995  0.5508 -2.5113
 4955SOL     OW26326   2.564   0.906   0.328  0.4052 -0.0628 -0.4045
 4955SOL    HW126327   2.618   0.978   0.296 -2.2060  1.9038 -0.4240
 4955SOL    HW226328   2.481   0.954   0.337 -0.0934 -0.4540 -2.6930
 4956SOL     OW26329   3.557   1.560   4.817  0.6284  0.0301  0.0108
 4956SOL    HW126330   3.602   1.503   4.880 -0.7538 -1.1615 -0.0915
 4956SOL    HW226331   3.534   1.630   4.878  0.6595 -0.1675  0.2499
 4957SOL     OW26332   0.516   0.955  10.710  0.2094  0.5254 -0.3362
 4957SOL    HW126333   0.481   0.908  10.634 -1.3249  2.6426 -0.9501
 4957SOL    HW226334   0.608   0.930  10.708  0.1155  0.1620 -0.0873
 4958SOL     OW26335   3.155   3.051   4.372  0.2219 -0.1939  0.2505
 4958SOL    HW126336   3.148   2.988   4.300 -1.1989  0.1790  0.0540
 4958SOL    HW226337   3.220   3.113   4.342  1.3405 -0.6607  1.7035
 4959SOL     OW26338   0.440   0.110   3.547 -0.0516 -0.5728  0.2692
 4959SOL    HW126339   0.377   0.047   3.583  0.5812 -1.6308 -0.4695
 4959SOL    HW226340   0.480   0.055   3.480  0.5487  0.7544 -0.4687
 4960SOL     OW26341   0.055   0.762  12.127  0.1759  0.6703  0.3758
 4960SOL    HW126342   0.092   0.827  12.187 -0.8961 -0.3808  2.1538
 4960SOL    HW226343   0.135   0.710  12.114 -0.2111  0.2883 -0.5025
 4961SOL     OW26344   3.120   4.152   7.292 -0.1646 -0.0663 -0.2330
 4961SOL    HW126345   3.194   4.119   7.343 -0.6104  0.5361  0.7990
 4961SOL    HW226346   3.065   4.199   7.355 -0.3701 -0.3599 -0.1902
 4962SOL     OW26347   1.469   0.002  13.099 -0.9681 -0.2794 -0.6390
 4962SOL    HW126348   1.530   0.051  13.044 -0.3241 -0.6008 -0.2114
 4962SOL    HW226349   1.494   4.635  13.085  0.1722  0.0311 -0.6493
 4963SOL     OW26350   3.136   0.823   4.887 -0.4488  0.1487  0.2028
 4963SOL    HW126351   3.152   0.896   4.829 -0.9233 -0.4816 -0.7187
 4963SOL    HW226352   3.159   0.750   4.830  1.7198 -1.4436  3.1046
 4964SOL     OW26353   0.120   0.704   6.209  0.0930  0.2230 -0.3308
 4964SOL    HW126354   0.156   0.616   6.217 -2.4652 -0.7333  0.4729
 4964SOL    HW226355   0.192   0.749   6.164  0.8646  0.1483  0.8090
 4965SOL     OW26356   1.662   3.508   1.388  0.5139  0.0324  0.6133
 4965SOL    HW126357   1.651   3.523   1.294  1.6080  1.4552  0.7101
 4965SOL    HW226358   1.722   3.578   1.412 -1.2183  1.9077 -0.4870
 4966SOL     OW26359   3.625   3.595  10.345 -0.9619  0.2209  0.5371
 4966SOL    HW126360   3.555   3.619  10.405  0.4328  1.9390  1.4753
 4966SOL    HW226361   3.581   3.532  10.288  0.3963 -0.8170  0.6200
 4967SOL     OW26362   1.098   1.222   2.228 -0.7500 -0.0665  0.3051
 4967SOL    HW126363   1.103   1.302   2.177  2.4966 -1.5479 -1.6510
 4967SOL    HW226364   1.065   1.160   2.163 -0.8379  0.9059 -0.5755
 4968SOL     OW26365   1.133   4.397   9.882  0.1648  0.8810 -0.1703
 4968SOL    HW126366   1.207   4.455   9.901  1.5103 -1.7673  2.7537
 4968SOL    HW226367   1.065   4.447   9.837 -2.1105 -1.0588  1.0800
 4969SOL     OW26368   0.176   4.129   9.406  0.2480 -0.5309 -0.6962
 4969SOL    HW126369   0.267   4.111   9.428 -0.0574  0.3633  1.3158
 4969SOL    HW226370   0.172   4.223   9.422  1.0644 -0.2627 -2.0090
 4970SOL     OW26371   0.577   4.346   3.212 -0.0874  0.9244 -0.2514
 4970SOL    HW126372   0.517   4.319   3.142  0.5902 -1.8805  0.2752
 4970SOL    HW226373   0.523   4.409   3.260 -2.1518 -0.2093 -1.0478
 4971SOL     OW26374   2.945   0.956   1.808  0.4533 -0.0291  0.0238
 4971SOL    HW126375   2.916   1.045   1.789 -0.2363 -0.3586 -0.4851
 4971SOL    HW226376   2.866   0.912   1.776 -0.5175  1.0537  0.9451
 4972SOL     OW26377   0.217   0.147   8.308  0.0064  0.1825  0.1859
 4972SOL    HW126378   0.176   0.232   8.291  0.5900  0.0254 -2.0783
 4972SOL    HW226379   0.218   0.121   8.215  0.2201 -1.0029  0.5199
 4973SOL     OW26380   0.379   0.510   6.303 -0.4804 -0.0669 -0.9088
 4973SOL    HW126381   0.421   0.581   6.254  0.7540  0.0102  0.2634
 4973SOL    HW226382   0.408   0.529   6.393  0.9843  1.7544 -1.7555
 4974SOL     OW26383   1.366   2.184   8.295 -0.1313  0.3296  0.1774
 4974SOL    HW126384   1.275   2.216   8.289 -0.0371  0.4925 -0.3414
 4974SOL    HW226385   1.364   2.102   8.247 -0.5783 -0.3009  1.2662
 4975SOL     OW26386   0.835   2.927   0.230 -0.2505  0.6939  0.6019
 4975SOL    HW126387   0.905   2.880   0.184  0.0008 -0.4184  2.1115
 4975SOL    HW226388   0.843   3.008   0.179 -1.1653 -1.9199 -3.7049
 4976SOL     OW26389   3.847   4.213   6.776 -0.5394 -0.5469  0.3714
 4976SOL    HW126390   3.821   4.258   6.696  1.2422 -2.1032 -1.1060
 4976SOL    HW226391   3.943   4.222   6.780 -0.7630  0.7729  2.4301
 4977SOL     OW26392   1.687   1.434  11.132 -0.4927  0.0776  0.0827
 4977SOL    HW126393   1.743   1.508  11.109 -0.1563 -0.1644  0.1248
 4977SOL    HW226394   1.730   1.410  11.214 -0.9800 -1.7517 -0.2139
 4978SOL     OW26395   4.701   3.096   0.977 -0.2859 -0.5364 -0.1886
 4978SOL    HW126396   4.625   3.045   0.949 -0.2173 -1.0284  0.5504
 4978SOL    HW226397   4.660   3.179   0.999 -1.3513 -0.5989 -1.9133
 4979SOL     OW26398   1.924   3.622  13.233  0.2740  0.5349 -0.4710
 4979SOL    HW126399   1.830   3.639  13.227  0.6211  2.3981 -0.7455
 4979SOL    HW226400   1.930   3.529  13.256 -0.2040  0.1987 -1.7089
 4980SOL     OW26401   0.371   3.526   6.957  0.2992  0.0525  0.0584
 4980SOL    HW126402   0.380   3.466   6.883  3.3383 -0.2406  0.6844
 4980SOL    HW226403   0.415   3.481   7.029  1.8679  0.7803 -0.4283
 4981SOL     OW26404   4.068   3.616   6.946  0.0260 -0.5630 -0.0577
 4981SOL    HW126405   4.128   3.616   7.021 -0.9230  1.5420  0.7017
 4981SOL    HW226406   4.010   3.541   6.960  1.5337 -1.7260 -0.0705
 4982SOL     OW26407   1.516   3.523   2.064 -0.3562  0.4130  0.4766
 4982SOL    HW126408   1.459   3.558   1.996  0.5987 -1.2161 -1.1758
 4982SOL    HW226409   1.500   3.429   2.054 -0.5426  0.6313 -1.4028
 4983SOL     OW26410   1.307   4.377   2.408  0.0638 -0.3115  0.0288
 4983SOL    HW126411   1.256   4.311   2.456 -0.7561 -0.7591 -1.4524
 4983SOL    HW226412   1.301   4.461   2.454 -0.0520 -1.1951  1.6025
 4984SOL     OW26413   3.338   0.215  11.041 -0.0367  0.4417  0.2147
 4984SOL    HW126414   3.247   0.246  11.042  0.1872  1.1220 -0.9088
 4984SOL    HW226415   3.377   0.295  11.007 -1.2444  0.8240 -0.2746
 4985SOL     OW26416   3.910   2.985   4.736  0.4887 -0.8223  0.1977
 4985SOL    HW126417   3.919   2.932   4.656 -1.3283 -0.1899 -0.4290
 4985SOL    HW226418   3.924   3.074   4.706  1.3238 -1.1479 -0.3988
 4986SOL     OW26419   1.165   1.180   3.459  0.3306  0.6017 -0.5783
 4986SOL    HW126420   1.122   1.155   3.377  2.0980 -0.0262 -1.3203
 4986SOL    HW226421   1.200   1.096   3.489 -1.0949  0.3351  0.3616
 4987SOL     OW26422   3.623   4.400  11.662  0.6393  0.1883 -1.2616
 4987SOL    HW126423   3.623   4.309  11.692  2.4520  0.4108 -0.5744
 4987SOL    HW226424   3.533   4.406  11.631 -0.3808 -1.6529  1.3240
 4988SOL     OW26425   0.059   3.791   8.160  0.0556  0.1582 -0.4745
 4988SOL    HW126426   4.711   3.854   8.156  0.6746  0.8762 -0.2475
 4988SOL    HW226427   0.129   3.856   8.156  1.0079 -1.0392 -3.8297
 4989SOL     OW26428   4.107   2.062   5.143 -0.4088  0.5430 -0.7227
 4989SOL    HW126429   4.060   2.121   5.201  1.2202  1.3445 -0.2519
 4989SOL    HW226430   4.189   2.050   5.190  1.1753  0.9347 -3.4053
 4990SOL     OW26431   0.780   2.018   5.763  0.3117 -0.2282 -0.0931
 4990SOL    HW126432   0.723   1.944   5.741  0.9716 -0.4971 -0.8794
 4990SOL    HW226433   0.865   1.975   5.772 -0.0616 -1.1066 -0.6835
 4991SOL     OW26434   4.487   0.572  14.102 -0.2363  0.3229  0.0502
 4991SOL    HW126435   4.476   0.655  14.149 -1.1199  0.2088  0.0549
 4991SOL    HW226436   4.496   0.594  14.009  1.8810 -2.6978 -0.4341
 4992SOL     OW26437   3.643   3.987  13.519  0.2277  0.4110 -0.4900
 4992SOL    HW126438   3.726   4.027  13.490 -0.2042 -0.3296 -2.6944
 4992SOL    HW226439   3.649   4.018  13.610  0.8036 -0.8056 -0.1116
 4993SOL     OW26440   4.467   3.848  13.539  0.7149  0.5018 -0.1204
 4993SOL    HW126441   4.411   3.925  13.526 -1.9004 -1.4011 -0.1088
 4993SOL    HW226442   4.392   3.793  13.562  0.8301 -0.8423 -2.9181
 4994SOL     OW26443   2.315   2.830   8.383 -0.1527 -0.0420 -0.8044
 4994SOL    HW126444   2.237   2.884   8.370 -0.4604 -0.1252  0.6947
 4994SOL    HW226445   2.268   2.747   8.387  0.8968 -0.6342 -0.8495
 4995SOL     OW26446   1.164   2.186  12.919 -0.4803  0.0690 -0.4093
 4995SOL    HW126447   1.117   2.107  12.946  1.8809 -1.2378 -0.0468
 4995SOL    HW226448   1.098   2.252  12.899  1.0309  1.8166  0.3904
 4996SOL     OW26449   1.637   2.289   1.145 -0.3035 -0.2799 -0.1885
 4996SOL    HW126450   1.691   2.241   1.082  0.2453 -0.0226  0.0780
 4996SOL    HW226451   1.699   2.286   1.219 -0.2240 -0.2164 -0.2530
 4997SOL     OW26452   3.786   4.586   7.723  0.2445  0.2424  0.2858
 4997SOL    HW126453   3.784   4.525   7.649 -0.5861  2.2216 -1.3519
 4997SOL    HW226454   3.823   4.547   7.802 -0.2020 -0.9931 -0.1224
 4998SOL     OW26455   1.634   3.858  17.025 -0.4965 -0.1309 -0.2308
 4998SOL    HW126456   1.651   3.829  17.114  1.2181  0.3138 -0.4222
 4998SOL    HW226457   1.559   3.914  17.045 -0.6651 -0.0351 -1.1253
 4999SOL     OW26458   0.331   2.793  12.497 -0.0432  0.5789 -0.1670
 4999SOL    HW126459   0.264   2.790  12.428 -1.2216  4.0919  0.8545
 4999SOL    HW226460   0.267   2.798  12.569  0.2212 -0.7519  0.1726
 5000SOL     OW26461   0.115   2.001  15.950 -0.0831  0.3141  0.8147
 5000SOL    HW126462   0.188   2.026  16.007  2.5525 -2.1756 -1.5574
 5000SOL    HW226463   0.039   2.037  15.997 -0.9571  0.8604 -1.0409
 5001SOL     OW26464   3.694   3.792   0.484  0.2696  1.0111  0.5155
 5001SOL    HW126465   3.778   3.800   0.439 -0.9240  0.9582 -1.7317
 5001SOL    HW226466   3.696   3.703   0.517  0.3436  1.0939  0.7326
 5002SOL     OW26467   0.479   3.132   6.591  0.6801  0.3151  0.0150
 5002SOL    HW126468   0.568   3.132   6.627  1.0675 -0.3293 -0.9588
 5002SOL    HW226469   0.453   3.042   6.611 -0.9853  0.3539 -2.0200
 5003SOL     OW26470   2.531   4.635   7.492  0.3861 -0.2831  0.5851
 5003SOL    HW126471   2.610   4.656   7.443  0.9383  1.2057  2.1176
 5003SOL    HW226472   2.533   4.697   7.565  0.4466 -2.2999  2.3010
 5004SOL     OW26473   3.176   2.005   7.873  0.1651  0.7041 -0.3674
 5004SOL    HW126474   3.214   2.052   7.947  1.8053 -1.4639  0.1522
 5004SOL    HW226475   3.232   1.928   7.862  1.1761  1.1752  1.5012
 5005SOL     OW26476   4.037   1.084   4.142  0.0773 -0.3612 -0.0424
 5005SOL    HW126477   3.953   1.086   4.188  0.4765  0.5380  0.6375
 5005SOL    HW226478   4.024   1.116   4.053 -0.5868 -0.0064  0.1850
 5006SOL     OW26479   0.961   2.387  14.292 -0.3197 -1.0013  0.0072
 5006SOL    HW126480   0.873   2.405  14.327  0.0858 -0.2755  0.6608
 5006SOL    HW226481   1.002   2.339  14.363 -1.2776  1.6594  2.4021
 5007SOL     OW26482   1.304   3.525   3.720  0.0352  0.1807 -0.2682
 5007SOL    HW126483   1.373   3.561   3.776  0.5696  0.0618 -0.8406
 5007SOL    HW226484   1.322   3.577   3.641  0.6123  2.4397  1.3314
 5008SOL     OW26485   3.403   3.416   3.431  0.2592  0.6014 -0.0924
 5008SOL    HW126486   3.417   3.485   3.496  1.2282  0.3793 -0.0553
 5008SOL    HW226487   3.309   3.425   3.417  0.1967  1.1926  0.6955
 5009SOL     OW26488   2.993   4.618   2.760 -0.3574  0.6187  0.4689
 5009SOL    HW126489   2.991   4.644   2.852  2.9176 -0.2424  0.7651
 5009SOL    HW226490   3.018   4.526   2.770  0.3757  1.0930  2.9062
 5010SOL     OW26491   1.660   4.283   8.233  0.3100 -0.0383  0.8147
 5010SOL    HW126492   1.564   4.286   8.227  0.3558 -1.9995 -0.9090
 5010SOL    HW226493   1.671   4.196   8.271 -0.0764 -0.7819 -0.7463
 5011SOL     OW26494   3.407   0.849   1.511 -0.6868 -0.3681  0.0685
 5011SOL    HW126495   3.500   0.866   1.496 -0.6583  1.0826  1.9506
 5011SOL    HW226496   3.402   0.876   1.602 -0.2889 -0.8068  0.2178
 5012SOL     OW26497   2.875   4.625   9.054 -0.2282 -0.0479 -0.0168
 5012SOL    HW126498   2.901   4.600   8.966  0.5830  0.2515  0.1404
 5012SOL    HW226499   2.908   4.714   9.064  1.2568 -0.3851 -1.9607
 5013SOL     OW26500   0.611   0.054  13.799 -0.1182 -0.5155  0.4924
 5013SOL    HW126501   0.529   0.103  13.798  0.6822  0.7881 -1.6193
 5013SOL    HW226502   0.671   0.124  13.827 -1.2878  1.3108 -1.5408
 5014SOL     OW26503   1.946   1.719   5.324 -0.4263  0.2899  0.6782
 5014SOL    HW126504   1.851   1.735   5.324 -0.7061 -1.2809  2.5913
 5014SOL    HW226505   1.936   1.649   5.389 -0.9196  0.1156  0.4181
 5015SOL     OW26506   0.905   1.008   4.797 -0.4957 -0.1968 -0.1532
 5015SOL    HW126507   0.845   1.063   4.847  0.6963  0.6055  0.3794
 5015SOL    HW226508   0.931   0.935   4.853 -0.2467 -0.3583 -0.4751
 5016SOL     OW26509   1.305   4.121   2.921 -0.0141  0.7202  0.1057
 5016SOL    HW126510   1.331   4.035   2.887 -2.3776  0.2606 -0.5474
 5016SOL    HW226511   1.279   4.092   3.009 -2.0941 -2.3978 -1.5457
 5017SOL     OW26512   2.897   3.290   4.869  0.2513 -0.2868  0.5255
 5017SOL    HW126513   2.927   3.201   4.890  0.7794  0.2491  2.0243
 5017SOL    HW226514   2.969   3.305   4.808  1.5836  0.1262  2.1950
 5018SOL     OW26515   3.215   4.388   6.575  0.6122  0.1575 -0.1390
 5018SOL    HW126516   3.186   4.459   6.632 -2.4631 -0.1035 -1.3822
 5018SOL    HW226517   3.152   4.323   6.606  1.3057 -1.8969 -3.0180
 5019SOL     OW26518   3.533   3.974   8.087  0.6849 -0.1871  0.9096
 5019SOL    HW126519   3.627   3.990   8.095  0.6218  2.0014 -3.1755
 5019SOL    HW226520   3.517   3.912   8.159 -2.1313  0.1694  0.5865
 5020SOL     OW26521   3.423   0.287  13.670  0.2955  0.4144  0.0631
 5020SOL    HW126522   3.333   0.312  13.653  0.1469 -0.2459 -0.1296
 5020SOL    HW226523   3.397   0.204  13.710  1.4928  0.3113  0.6237
 5021SOL     OW26524   3.103   4.058  13.963  0.3239  0.0330 -0.2117
 5021SOL    HW126525   3.148   4.083  13.882 -1.2200 -0.3810 -1.2013
 5021SOL    HW226526   3.016   4.097  13.952 -0.0880 -1.2923 -1.7882
 5022SOL     OW26527   2.493   2.064  13.339 -0.1200 -0.0838 -0.6378
 5022SOL    HW126528   2.496   2.149  13.383  2.6488 -0.5458  0.0888
 5022SOL    HW226529   2.586   2.068  13.314  0.1271 -3.3117 -0.1957
 5023SOL     OW26530   1.683   0.569   2.005  0.2922 -0.1356  0.6919
 5023SOL    HW126531   1.725   0.655   1.998 -0.1458  0.1966  2.0866
 5023SOL    HW226532   1.620   0.577   1.934  0.2852 -1.6184  0.5301
 5024SOL     OW26533   4.593   3.835   2.944  0.1799  0.8972 -0.0997
 5024SOL    HW126534   4.606   3.746   2.911  0.2612  0.7854  0.2263
 5024SOL    HW226535   4.540   3.823   3.023  0.1401  1.5818 -0.0308
 5025SOL     OW26536   2.279   1.794   6.177 -0.0936 -0.7029  0.2242
 5025SOL    HW126537   2.332   1.750   6.243  0.0078  0.7709  1.1105
 5025SOL    HW226538   2.346   1.811   6.111 -2.0364 -0.5501 -1.7046
 5026SOL     OW26539   2.816   1.204   1.793 -0.0318 -0.1050 -0.3288
 5026SOL    HW126540   2.779   1.193   1.706 -0.0354 -0.5524 -0.2718
 5026SOL    HW226541   2.889   1.260   1.767 -0.4784  1.1048  1.0192
 5027SOL     OW26542   3.184   2.861   8.166 -0.4830 -0.3368 -0.2065
 5027SOL    HW126543   3.185   2.824   8.254  1.3277  1.0364  0.3555
 5027SOL    HW226544   3.208   2.952   8.180 -0.9527 -0.1501 -0.6325
 5028SOL     OW26545   4.179   2.300   7.730  0.2098  0.1707 -0.1532
 5028SOL    HW126546   4.143   2.234   7.670 -0.5520  0.1617  0.3125
 5028SOL    HW226547   4.122   2.299   7.807  0.2667 -1.8120 -0.1273
 5029SOL     OW26548   0.332   0.837   7.990  0.1912 -0.1408  0.0741
 5029SOL    HW126549   0.319   0.755   7.943 -0.2461 -0.3406  0.5522
 5029SOL    HW226550   0.246   0.843   8.031  0.7502  0.1487  1.2145
 5030SOL     OW26551   3.490   3.750   3.313  0.2668  0.1911  0.0949
 5030SOL    HW126552   3.557   3.722   3.251 -0.0855 -0.4516  0.0056
 5030SOL    HW226553   3.502   3.684   3.382 -1.2081  0.8829  0.9963
 5031SOL     OW26554   3.957   0.225   9.229 -0.2756 -0.2771  0.2029
 5031SOL    HW126555   3.878   0.173   9.213 -1.2408  1.4169 -0.5600
 5031SOL    HW226556   3.932   0.306   9.272  3.3581 -0.1491  2.0554
 5032SOL     OW26557   3.166   3.710  11.586  1.0431 -0.4499  0.4399
 5032SOL    HW126558   3.182   3.633  11.640  0.5325  0.0685  1.3331
 5032SOL    HW226559   3.071   3.703  11.579  0.8443  1.9125  0.7094
 5033SOL     OW26560   1.348   3.957  12.560  0.2361  0.1973  0.1299
 5033SOL    HW126561   1.357   3.996  12.473 -0.3620 -0.8113 -0.3890
 5033SOL    HW226562   1.350   3.863  12.542  1.0451  0.3976 -0.8096
 5034SOL     OW26563   3.727   3.175   3.121  0.1554  0.0866 -0.1917
 5034SOL    HW126564   3.690   3.250   3.075  0.8379  1.0060  0.7530
 5034SOL    HW226565   3.771   3.127   3.051 -1.8005  0.8976 -1.9452
 5035SOL     OW26566   0.042   4.483  15.639  0.4705 -0.5181 -0.1591
 5035SOL    HW126567   4.694   4.440  15.684  0.6550 -0.4566  0.1955
 5035SOL    HW226568   0.067   4.557  15.694 -1.0588  0.0720 -0.2433
 5036SOL     OW26569   2.431   3.437  12.172  0.1241 -0.0607 -0.2714
 5036SOL    HW126570   2.388   3.357  12.141 -0.9997  0.9819 -1.3890
 5036SOL    HW226571   2.362   3.501  12.154 -0.0502  0.2474  1.5623
 5037SOL     OW26572   3.228   2.606   1.301  0.4438 -0.4800  0.1342
 5037SOL    HW126573   3.248   2.700   1.294  0.1617 -0.4372 -0.0700
 5037SOL    HW226574   3.317   2.573   1.289  1.3353  1.4988  1.2716
 5038SOL     OW26575   1.544   1.353  11.999  0.2353 -0.1931  0.4208
 5038SOL    HW126576   1.569   1.406  11.923 -0.8939 -0.3884 -0.0851
 5038SOL    HW226577   1.562   1.411  12.073 -1.4449  1.4887 -0.5056
 5039SOL     OW26578   1.612   3.785  13.516 -0.1508  0.3980 -0.2641
 5039SOL    HW126579   1.621   3.877  13.539 -0.1523  0.3620 -0.1186
 5039SOL    HW226580   1.522   3.773  13.548  0.5929  1.1275  2.0762
 5040SOL     OW26581   3.328   3.877   0.139  0.1105 -0.0101  0.1614
 5040SOL    HW126582   3.247   3.927   0.142 -0.0159 -0.2174  0.2077
 5040SOL    HW226583   3.382   3.925   0.202  3.8614 -1.6542 -1.7650
 5041SOL     OW26584   1.505   3.180   4.516  0.0991  0.1247 -0.2660
 5041SOL    HW126585   1.516   3.275   4.512  1.4847 -0.0894 -1.4232
 5041SOL    HW226586   1.427   3.175   4.460  1.3339  0.7585 -2.0419
 5042SOL     OW26587   1.241   4.671   8.764 -0.2062 -0.3215 -0.6481
 5042SOL    HW126588   1.246   4.659   8.669  2.8833  0.7046 -0.6114
 5042SOL    HW226589   1.163   0.002   8.774 -0.7611 -1.3100  0.5836
 5043SOL     OW26590   3.985   1.741   0.607 -0.0829  0.1047 -0.2319
 5043SOL    HW126591   3.925   1.717   0.678 -1.2208 -0.6735 -1.4815
 5043SOL    HW226592   4.068   1.748   0.655 -0.4958  0.9892  0.3586
 5044SOL     OW26593   4.238   3.669   7.169  0.0527  0.0878  0.1359
 5044SOL    HW126594   4.328   3.646   7.193 -0.7397 -3.8144 -0.5181
 5044SOL    HW226595   4.233   3.760   7.197  1.5842  0.3827 -0.5756
 5045SOL     OW26596   2.245   1.257   8.748  0.3570 -0.4818 -0.2021
 5045SOL    HW126597   2.168   1.288   8.699 -0.8423 -0.2231  1.8718
 5045SOL    HW226598   2.215   1.257   8.839  0.8668 -0.1356 -0.0339
 5046SOL     OW26599   4.503   1.000   7.833  0.1915  0.2643 -0.5317
 5046SOL    HW126600   4.590   1.041   7.839  0.4685 -0.3729 -0.1491
 5046SOL    HW226601   4.487   0.994   7.739  0.9684 -1.6320 -0.5428
 5047SOL     OW26602   2.211   2.309   3.557 -0.7672 -0.1645 -0.0169
 5047SOL    HW126603   2.291   2.282   3.603 -0.1370  1.1926 -0.3263
 5047SOL    HW226604   2.142   2.247   3.583  0.6443 -1.0964  1.5463
 5048SOL     OW26605   1.743   4.439   2.158 -0.2791  0.0541 -0.6052
 5048SOL    HW126606   1.765   4.507   2.095 -3.0964  1.5011 -0.0335
 5048SOL    HW226607   1.647   4.444   2.154 -0.4605 -0.7310  2.5223
 5049SOL     OW26608   3.719   0.678   9.343 -0.3287  0.2364 -0.2976
 5049SOL    HW126609   3.739   0.769   9.320  2.4099 -0.3241 -0.2012
 5049SOL    HW226610   3.632   0.690   9.381 -0.7850 -0.5381 -1.0951
 5050SOL     OW26611   4.042   2.588   7.767  0.7148 -0.1522 -0.2234
 5050SOL    HW126612   4.054   2.536   7.846 -2.3891  0.4098  0.6179
 5050SOL    HW226613   4.123   2.638   7.759  2.2395 -2.7763 -1.1272
 5051SOL     OW26614   4.367   2.632   5.916 -0.0450  0.3991  0.0638
 5051SOL    HW126615   4.335   2.543   5.902  2.6434 -0.6293  0.5242
 5051SOL    HW226616   4.286   2.681   5.902 -0.3141 -0.0432  0.0734
 5052SOL     OW26617   0.491   2.990   4.993  0.2841  0.2257  0.1840
 5052SOL    HW126618   0.485   3.032   4.908  0.5416 -0.0339  0.0387
 5052SOL    HW226619   0.402   2.963   5.015  0.1908 -0.1636 -0.6996
 5053SOL     OW26620   4.462   0.037   6.165 -0.2246 -0.1464  0.2001
 5053SOL    HW126621   4.508   0.083   6.235  0.2197 -1.5740  0.8448
 5053SOL    HW226622   4.410   4.699   6.215 -1.5665  0.6945 -0.1349
 5054SOL     OW26623   2.953   4.331   6.974 -0.2032 -0.4792  0.0937
 5054SOL    HW126624   3.031   4.333   7.029 -0.1149 -2.7688  0.0860
 5054SOL    HW226625   2.929   4.238   6.974 -0.6140 -0.3784  0.7887
 5055SOL     OW26626   3.893   0.788   3.184  0.1956  0.2891 -0.3923
 5055SOL    HW126627   3.853   0.714   3.230  0.6823 -0.1164 -0.6308
 5055SOL    HW226628   3.892   0.852   3.256  2.5828 -1.2334  0.9662
 5056SOL     OW26629   0.261   0.905   3.951 -0.1769 -0.5481  0.4863
 5056SOL    HW126630   0.269   0.989   3.997 -1.6315  0.0471 -0.3754
 5056SOL    HW226631   0.237   0.922   3.861  1.8171  3.5033  0.6887
 5057SOL     OW26632   1.778   0.186   6.180  0.7285 -0.0277 -0.1484
 5057SOL    HW126633   1.696   0.235   6.185 -0.8670 -2.6962 -0.2949
 5057SOL    HW226634   1.831   0.265   6.166 -0.6329  1.0022  0.5527
 5058SOL     OW26635   3.621   1.228   6.406  0.1483  0.0129 -0.0554
 5058SOL    HW126636   3.690   1.277   6.451  0.2083 -0.3420  0.2467
 5058SOL    HW226637   3.667   1.218   6.323 -0.7830 -1.2924 -0.4159
 5059SOL     OW26638   0.466   2.272   2.856  0.1112  0.7044 -0.1219
 5059SOL    HW126639   0.398   2.339   2.865  1.7332  1.9138  2.8363
 5059SOL    HW226640   0.418   2.197   2.821 -0.5949  1.0179  0.1851
 5060SOL     OW26641   4.495   3.885   5.280 -0.2391 -0.2171 -0.0553
 5060SOL    HW126642   4.467   3.940   5.353  4.8189  1.7568  0.3826
 5060SOL    HW226643   4.506   3.800   5.323 -0.3078 -0.4290 -0.4591
 5061SOL     OW26644   2.201   3.641  14.585 -0.7970 -0.0835 -0.0180
 5061SOL    HW126645   2.210   3.576  14.515  1.3835 -0.1077  0.2909
 5061SOL    HW226646   2.158   3.718  14.547  2.1017 -0.3131 -3.7441
 5062SOL     OW26647   2.414   2.611   3.820 -0.1719 -0.2711  0.1308
 5062SOL    HW126648   2.427   2.539   3.882  0.3048 -1.4817 -1.3488
 5062SOL    HW226649   2.501   2.649   3.813 -0.5356  0.4758 -0.3931
 5063SOL     OW26650   4.303   2.755   4.240 -0.4252 -0.2784 -0.2280
 5063SOL    HW126651   4.360   2.808   4.184 -0.4803  2.7127  2.5292
 5063SOL    HW226652   4.372   2.700   4.276 -1.2987 -0.3880  1.2746
 5064SOL     OW26653   0.707   1.036  16.018  0.0600 -0.2122  0.6687
 5064SOL    HW126654   0.677   1.072  15.935  0.3781  1.7481  1.4201
 5064SOL    HW226655   0.677   1.108  16.073  0.2510  0.3068  0.0892
 5065SOL     OW26656   2.372   4.014   9.165 -0.2387  0.2293 -0.2738
 5065SOL    HW126657   2.348   4.100   9.131 -0.2724  0.4202  0.2429
 5065SOL    HW226658   2.351   4.016   9.258  2.1655  0.9608  0.2667
 5066SOL     OW26659   3.897   1.706  12.413 -0.0229 -0.3571 -0.2699
 5066SOL    HW126660   3.871   1.667  12.330  0.0136 -0.2597 -0.3270
 5066SOL    HW226661   3.990   1.725  12.399 -0.2902  0.0831 -1.4838
 5067SOL     OW26662   2.331   3.479   3.257  0.8288 -0.2992 -0.2083
 5067SOL    HW126663   2.412   3.437   3.228  0.5550 -1.4094  0.6017
 5067SOL    HW226664   2.352   3.573   3.262  1.5647 -0.4837  0.2794
 5068SOL     OW26665   2.948   3.017  12.947 -0.4484 -0.1262 -0.2093
 5068SOL    HW126666   3.004   3.005  13.024 -1.8140 -0.2705  0.7768
 5068SOL    HW226667   2.939   3.112  12.953  1.5429  0.0248  0.0952
 5069SOL     OW26668   4.483   2.672   3.913  0.4050  0.2293  0.1243
 5069SOL    HW126669   4.395   2.680   3.876  1.1082 -0.9547 -1.7547
 5069SOL    HW226670   4.530   2.725   3.849 -2.7675  3.6334  0.5933
 5070SOL     OW26671   2.052   4.613   1.928  0.0046 -0.9510  0.0395
 5070SOL    HW126672   2.082   4.539   1.874  1.0597  0.3880 -1.2492
 5070SOL    HW226673   2.070   4.687   1.869 -0.6702 -1.9030 -1.3590
 5071SOL     OW26674   0.184   4.402   4.902 -0.2218 -0.4427 -0.5295
 5071SOL    HW126675   0.248   4.396   4.830  2.2289 -3.0618  1.8523
 5071SOL    HW226676   0.229   4.451   4.971 -0.9613 -0.2515 -0.1854
 5072SOL     OW26677   1.473   3.927   3.703 -0.1511  0.0251 -0.0990
 5072SOL    HW126678   1.527   3.850   3.685  0.0309 -0.3960  2.2056
 5072SOL    HW226679   1.388   3.889   3.681  0.2223 -0.6649 -0.3560
 5073SOL     OW26680   0.004   1.699   0.588  0.2874  0.0925 -0.1062
 5073SOL    HW126681   0.042   1.709   0.675 -1.7567 -0.3498  0.8526
 5073SOL    HW226682   4.679   1.781   0.583 -2.0282 -1.3220 -0.5483
 5074SOL     OW26683   1.869   1.421   1.477  0.4668  0.0669 -0.0403
 5074SOL    HW126684   1.811   1.450   1.407 -1.3207  2.0037  2.2386
 5074SOL    HW226685   1.894   1.335   1.444 -1.5236 -0.6057  0.2174
 5075SOL     OW26686   0.127   2.093   2.553 -0.5310  0.6688  0.0743
 5075SOL    HW126687   0.216   2.072   2.526 -1.1368  0.4863 -1.7802
 5075SOL    HW226688   0.081   2.056   2.478 -0.3323  1.1015 -0.2594
 5076SOL     OW26689   2.243   0.027  11.787 -0.1452  0.0491  0.3607
 5076SOL    HW126690   2.160   0.066  11.813 -0.3954 -0.2842  0.0415
 5076SOL    HW226691   2.256   0.065  11.700 -0.1129 -0.5947  0.0811
 5077SOL     OW26692   3.162   3.907   4.928  0.0268  0.5776  0.0186
 5077SOL    HW126693   3.137   3.912   4.836 -2.8223  0.7763  0.7774
 5077SOL    HW226694   3.257   3.902   4.923  0.1694  1.5890  1.8131
 5078SOL     OW26695   3.116   1.843   0.259 -0.1410  0.0791 -0.5059
 5078SOL    HW126696   3.148   1.873   0.344 -0.5697  0.7248 -0.5756
 5078SOL    HW226697   3.121   1.747   0.263  1.6368  0.0720 -2.7129
 5079SOL     OW26698   3.728   3.738  11.408  0.5277 -0.1953  0.3429
 5079SOL    HW126699   3.687   3.679  11.346  0.2593 -1.5934  1.8629
 5079SOL    HW226700   3.785   3.676  11.454  0.2705 -1.6439 -1.2837
 5080SOL     OW26701   0.417   1.231   5.849  0.0246  0.3741 -0.2198
 5080SOL    HW126702   0.349   1.199   5.909 -1.2968  1.0641 -1.3326
 5080SOL    HW226703   0.488   1.169   5.866 -1.8724 -1.7576  0.0099
 5081SOL     OW26704   1.811   0.322   4.036  0.0485  0.3620 -0.0173
 5081SOL    HW126705   1.781   0.248   4.089 -4.5599  1.1401 -1.5907
 5081SOL    HW226706   1.809   0.290   3.946 -0.1238  0.8076 -0.1704
 5082SOL     OW26707   3.393   4.283   3.458 -0.1707  0.0674  0.3738
 5082SOL    HW126708   3.332   4.212   3.441  1.1020 -0.8531 -0.3471
 5082SOL    HW226709   3.427   4.298   3.370  0.5558  0.9582  0.8024
 5083SOL     OW26710   3.327   2.090   7.046  0.4047  0.0098 -0.5738
 5083SOL    HW126711   3.251   2.046   7.006  0.6372 -0.1912 -0.8019
 5083SOL    HW226712   3.377   2.013   7.073 -0.9630 -0.5762  0.2913
 5084SOL     OW26713   0.113   3.266   7.068 -0.8511  0.1403 -0.8779
 5084SOL    HW126714   0.135   3.200   7.002  1.0547  1.0100 -1.1106
 5084SOL    HW226715   0.077   3.328   7.005 -0.6726 -0.7492 -1.8563
 5085SOL     OW26716   1.197   4.593  16.762 -0.7884  0.0885  0.1836
 5085SOL    HW126717   1.209   4.569  16.854  2.6321 -1.3636 -0.6476
 5085SOL    HW226718   1.163   4.516  16.716  0.6092  0.8068 -2.0918
 5086SOL     OW26719   1.602   3.643   3.670  0.1716  0.3501 -0.5031
 5086SOL    HW126720   1.557   3.653   3.586 -0.2445 -0.1461 -0.3401
 5086SOL    HW226721   1.637   3.554   3.666 -1.1108 -0.1276 -0.9443
 5087SOL     OW26722   3.187   4.337   9.314  0.2145  0.2054 -0.4426
 5087SOL    HW126723   3.147   4.379   9.237  0.6386 -2.5841 -2.1981
 5087SOL    HW226724   3.173   4.416   9.366 -3.2652 -0.2539 -0.7423
 5088SOL     OW26725   1.735   0.068   1.394  0.6469  0.3833  0.0668
 5088SOL    HW126726   1.798   0.005   1.360  1.1698  0.2437  1.2816
 5088SOL    HW226727   1.789   0.103   1.465  0.5910 -2.1190  1.3756
 5089SOL     OW26728   2.829   3.714   6.482 -0.6098 -0.1247  0.4957
 5089SOL    HW126729   2.743   3.711   6.441 -0.2135  0.0057 -0.3622
 5089SOL    HW226730   2.861   3.793   6.437 -0.3514 -1.2886 -1.3555
 5090SOL     OW26731   2.626   0.921   7.540 -0.1875  0.5129 -0.3911
 5090SOL    HW126732   2.674   1.003   7.550  1.5890 -0.4105 -1.3196
 5090SOL    HW226733   2.682   0.857   7.583 -1.1050  0.5883  0.8954
 5091SOL     OW26734   2.092   3.589   1.837  0.7980 -0.6411  0.3482
 5091SOL    HW126735   2.075   3.513   1.781 -4.2534  1.3896 -0.9197
 5091SOL    HW226736   2.075   3.557   1.925  2.0416 -0.7825  0.5378
 5092SOL     OW26737   0.465   0.081   8.062  0.3916 -0.1970  0.5829
 5092SOL    HW126738   0.552   0.093   8.101  1.1210 -0.1934 -1.0465
 5092SOL    HW226739   0.473   4.719   8.021  2.6162 -0.0501  0.6929
 5093SOL     OW26740   4.165   1.698  12.210  0.1786  0.0785 -0.5214
 5093SOL    HW126741   4.237   1.645  12.245 -1.1846 -0.2700  1.7376
 5093SOL    HW226742   4.104   1.626  12.196 -0.1937  0.7182 -2.1518
 5094SOL     OW26743   3.793   2.406   5.510 -0.4070  0.1514 -0.1859
 5094SOL    HW126744   3.810   2.316   5.482 -2.5761 -0.3362  0.0694
 5094SOL    HW226745   3.731   2.390   5.580  0.4290  0.5890  0.6619
 5095SOL     OW26746   4.591   3.899   2.080 -0.3531  0.1486  0.6807
 5095SOL    HW126747   4.644   3.845   2.138 -0.5970 -0.0501  0.7174
 5095SOL    HW226748   4.631   3.877   1.995 -1.7724  1.7314 -0.3920
 5096SOL     OW26749   4.573   0.267   3.104 -0.4009  0.1405 -0.3461
 5096SOL    HW126750   4.504   0.286   3.040 -0.9613 -1.3602 -0.1797
 5096SOL    HW226751   4.641   0.232   3.046 -0.5739  2.0682 -1.7174
 5097SOL     OW26752   3.810   2.052   7.395 -0.2574  0.4674 -0.8917
 5097SOL    HW126753   3.847   2.092   7.474 -0.9424 -0.4479 -0.1019
 5097SOL    HW226754   3.738   2.113   7.381 -1.2376 -0.2978  0.8823
 5098SOL     OW26755   0.352   3.908   8.781 -0.2729  0.1025  0.5606
 5098SOL    HW126756   0.336   3.874   8.869  1.0927  1.8290  1.4690
 5098SOL    HW226757   0.265   3.947   8.770 -0.3507  0.0975  1.1658
 5099SOL     OW26758   2.393   1.084  13.475 -0.2464 -0.7408  0.4927
 5099SOL    HW126759   2.340   1.071  13.396 -1.1803  0.6416  0.8836
 5099SOL    HW226760   2.416   0.994  13.498 -0.2454 -1.0370 -0.6856
 5100SOL     OW26761   2.359   1.940   8.629  0.1281  0.1074 -0.7682
 5100SOL    HW126762   2.407   1.987   8.698 -2.2913 -0.4339  1.2517
 5100SOL    HW226763   2.297   2.009   8.609  3.7692  3.1564 -1.6472
 5101SOL     OW26764   1.576   0.089   3.206  0.1421 -0.5679  0.7900
 5101SOL    HW126765   1.572   0.078   3.111 -0.8164  1.0881  0.6305
 5101SOL    HW226766   1.486   0.120   3.215 -0.2777 -1.4692 -0.3154
 5102SOL     OW26767   3.239   0.890   0.739  0.6650 -0.8638  0.0217
 5102SOL    HW126768   3.151   0.854   0.730  0.0540  0.6991 -0.1889
 5102SOL    HW226769   3.234   0.953   0.811 -1.1767 -0.7948 -0.1637
 5103SOL     OW26770   3.221   3.397   5.934 -0.3345  0.2509 -0.5581
 5103SOL    HW126771   3.132   3.432   5.936 -1.0116 -1.4782 -0.8724
 5103SOL    HW226772   3.242   3.400   5.840  0.5699  0.1979 -0.3591
 5104SOL     OW26773   1.134   3.395   2.437 -0.0364  0.6663 -0.5614
 5104SOL    HW126774   1.114   3.486   2.453  1.1628  0.9401 -0.5739
 5104SOL    HW226775   1.119   3.353   2.521 -0.2041  0.2884 -0.7760
 5105SOL     OW26776   3.961   4.311   3.578 -0.4002 -0.2165  0.0506
 5105SOL    HW126777   3.886   4.314   3.637 -2.2341  0.9034 -2.3295
 5105SOL    HW226778   4.027   4.262   3.627 -0.8045 -1.2399 -0.4219
 5106SOL     OW26779   0.570   0.066  14.617  0.3421  0.3635 -0.1333
 5106SOL    HW126780   0.630   0.134  14.648  1.2708  0.0131 -1.1415
 5106SOL    HW226781   0.577   0.092  14.525 -1.0394  1.9015  0.1940
 5107SOL     OW26782   2.022   4.534   6.649  0.0204  0.4796 -0.1694
 5107SOL    HW126783   2.059   4.489   6.573 -1.8413 -0.4931 -0.5054
 5107SOL    HW226784   1.933   4.499   6.651  0.3965 -0.4615 -0.0087
 5108SOL     OW26785   4.059   2.863   8.099  0.2459  0.6406  0.2845
 5108SOL    HW126786   4.153   2.849   8.091 -0.0261 -0.9853 -0.1009
 5108SOL    HW226787   4.063   2.953   8.133  0.2370  1.4179 -1.7965
 5109SOL     OW26788   0.034   4.250   6.685  0.2262  0.4007  0.0100
 5109SOL    HW126789   0.118   4.219   6.720  1.2009  1.5196 -1.3304
 5109SOL    HW226790   4.708   4.171   6.702  1.5053 -0.9722 -2.5472
 5110SOL     OW26791   0.421   3.172  17.143 -0.2593  0.1511  0.3209
 5110SOL    HW126792   0.470   3.097  17.111  1.6254  0.3912  2.5911
 5110SOL    HW226793   0.461   3.180  17.230 -0.7526  6.0805 -0.0026
 5111SOL     OW26794   4.643   2.186   8.140  0.3609 -0.5532 -0.2028
 5111SOL    HW126795   4.650   2.224   8.227  1.8885 -0.0393 -0.5476
 5111SOL    HW226796   0.006   2.154   8.116  1.8013  0.8947  3.2525
 5112SOL     OW26797   1.556   1.397   8.614  0.0729 -0.5945 -0.5791
 5112SOL    HW126798   1.638   1.379   8.661  0.7108 -1.0674 -1.8966
 5112SOL    HW226799   1.553   1.491   8.634 -3.3490 -1.0131  0.9416
 5113SOL     OW26800   3.850   1.496   2.009  0.1829  0.5809  0.7172
 5113SOL    HW126801   3.931   1.473   1.963  0.5808  1.0725  1.1642
 5113SOL    HW226802   3.789   1.461   1.944 -0.0931  1.4055  0.5393
 5114SOL     OW26803   3.103   1.182   9.396 -0.0713 -0.2121  0.0533
 5114SOL    HW126804   3.009   1.167   9.400  0.1299 -1.9248 -1.6245
 5114SOL    HW226805   3.140   1.111   9.449  0.7460  0.9377  1.0245
 5115SOL     OW26806   3.590   3.874  10.883 -0.1398  0.8083 -0.3518
 5115SOL    HW126807   3.543   3.827  10.952  0.8156  2.9033  1.6957
 5115SOL    HW226808   3.568   3.963  10.909 -0.2058  0.9414 -0.8673
 5116SOL     OW26809   0.005   2.034   2.302 -0.7162  0.3442  0.2522
 5116SOL    HW126810   0.028   2.102   2.238 -0.8482  0.7437  0.6264
 5116SOL    HW226811   0.093   1.997   2.308  0.1090  1.8242 -2.2134
 5117SOL     OW26812   2.452   1.679   6.387  0.0813  0.1001 -0.0041
 5117SOL    HW126813   2.505   1.618   6.336  0.4055 -0.5872  1.1526
 5117SOL    HW226814   2.439   1.636   6.472 -1.5834 -0.4181 -0.5151
 5118SOL     OW26815   2.573   3.755   2.740  0.4311 -0.1386 -0.1634
 5118SOL    HW126816   2.617   3.768   2.656  0.3428 -2.4179 -0.5705
 5118SOL    HW226817   2.625   3.690   2.787  0.3389  0.8256  1.2536
 5119SOL     OW26818   4.405   0.731   4.867 -0.2047 -0.5368 -0.7673
 5119SOL    HW126819   4.497   0.733   4.840 -1.2309  2.8326 -3.9815
 5119SOL    HW226820   4.376   0.646   4.835  1.6174 -1.3968 -0.1661
 5120SOL     OW26821   0.678   2.505   5.300 -0.0109 -0.7358  0.3531
 5120SOL    HW126822   0.705   2.586   5.258 -1.6381  0.2769  1.2722
 5120SOL    HW226823   0.623   2.546   5.367  1.0099  2.4251 -0.7842
 5121SOL     OW26824   3.189   4.523   5.716 -0.4353 -0.0224  0.1029
 5121SOL    HW126825   3.187   4.612   5.752  3.2708 -0.5118  1.4651
 5121SOL    HW226826   3.119   4.533   5.652 -0.3728  1.4266  0.2616
 5122SOL     OW26827   2.448   3.128   3.400  0.4330 -0.2276  0.1512
 5122SOL    HW126828   2.417   3.112   3.311 -2.3525 -2.7021  1.5372
 5122SOL    HW226829   2.539   3.099   3.390  0.5051 -0.5331  1.7326
 5123SOL     OW26830   0.501   0.240   6.502  0.2120 -0.0617 -0.4016
 5123SOL    HW126831   0.409   0.238   6.529  0.8882  1.3774  1.9603
 5123SOL    HW226832   0.508   0.153   6.462 -1.1743 -0.5784  0.4800
 5124SOL     OW26833   3.440   1.164   0.401 -0.2038  0.3796  0.0463
 5124SOL    HW126834   3.481   1.223   0.338  0.9991 -0.6683 -0.1283
 5124SOL    HW226835   3.444   1.221   0.479  2.0878  0.2492  0.0170
 5125SOL     OW26836   0.301   4.112   7.352  0.1443  0.1404 -0.2685
 5125SOL    HW126837   0.271   4.175   7.286 -0.3069 -0.5946 -0.7637
 5125SOL    HW226838   0.231   4.123   7.416  0.8918  2.0059  0.2422
 5126SOL     OW26839   3.842   0.220   6.322 -0.2204 -0.3633  0.2119
 5126SOL    HW126840   3.781   0.147   6.324  1.1705 -1.5521 -0.7502
 5126SOL    HW226841   3.847   0.254   6.412  0.4751 -1.6469  0.6543
 5127SOL     OW26842   0.433   1.834   6.063 -0.3831  0.1247 -0.4077
 5127SOL    HW126843   0.386   1.751   6.055 -0.9645  0.3740  0.5147
 5127SOL    HW226844   0.370   1.904   6.078  0.5357  0.7253  0.6525
 5128SOL     OW26845   2.620   3.219   9.700 -0.1995  0.1324  0.0929
 5128SOL    HW126846   2.525   3.220   9.702 -0.2047  1.4131 -0.6592
 5128SOL    HW226847   2.641   3.295   9.754 -1.2568  1.2177 -1.0192
 5129SOL     OW26848   1.943   3.625   7.135  0.2418 -0.1874  0.4101
 5129SOL    HW126849   1.937   3.649   7.043  1.5418  0.7729  0.5764
 5129SOL    HW226850   1.944   3.529   7.130 -0.2004 -0.1311 -0.7717
 5130SOL     OW26851   3.210   4.652   9.371  0.6458 -0.1830 -0.2494
 5130SOL    HW126852   3.179   4.699   9.448 -1.6985 -0.7128 -0.8650
 5130SOL    HW226853   3.167   4.710   9.307  0.4148  0.3343  0.3778
 5131SOL     OW26854   4.027   3.256   4.685 -0.0144 -0.2784  0.0936
 5131SOL    HW126855   4.119   3.230   4.678 -0.0301 -0.9358  2.3641
 5131SOL    HW226856   4.039   3.348   4.711  2.3137  0.0623 -2.1585
 5132SOL     OW26857   1.053   2.620   3.709 -0.0681 -0.0889 -0.6185
 5132SOL    HW126858   1.144   2.639   3.685 -0.3909  0.5594 -1.3365
 5132SOL    HW226859   1.011   2.686   3.653  0.6744 -0.5163 -1.6911
 5133SOL     OW26860   3.451   1.400   4.340 -0.1194 -0.4516  0.4420
 5133SOL    HW126861   3.417   1.438   4.421 -0.1910  1.5272 -0.5289
 5133SOL    HW226862   3.454   1.481   4.290  0.4247 -0.5794  0.2768
 5134SOL     OW26863   4.026   1.981  11.586 -0.1219  0.2056 -0.3997
 5134SOL    HW126864   4.101   2.023  11.628 -0.8030 -0.7333  1.8032
 5134SOL    HW226865   4.060   1.896  11.559 -1.3113 -1.3736  2.9981
 5135SOL     OW26866   2.816   0.307   2.661 -0.5484 -0.2854 -0.0390
 5135SOL    HW126867   2.803   0.214   2.643  0.4948 -0.8375  2.0798
 5135SOL    HW226868   2.906   0.305   2.695 -1.3457 -2.6186  1.9605
 5136SOL     OW26869   4.306   4.343   8.675 -0.3267  0.0605  0.0113
 5136SOL    HW126870   4.276   4.264   8.718  2.7361  0.5558  3.0182
 5136SOL    HW226871   4.389   4.310   8.639 -0.4682 -0.4040  0.1092
 5137SOL     OW26872   4.466   1.384  15.682 -0.4169 -0.1322 -0.3839
 5137SOL    HW126873   4.463   1.392  15.778  1.2726  0.6785 -0.3925
 5137SOL    HW226874   4.402   1.450  15.657 -1.2541 -1.8277 -2.6067
 5138SOL     OW26875   1.909   4.288   9.217  0.5154 -0.7139 -0.0792
 5138SOL    HW126876   1.933   4.373   9.253 -1.1826  0.0612 -0.7777
 5138SOL    HW226877   1.823   4.277   9.257  0.9882  0.8279  1.3329
 5139SOL     OW26878   0.716   3.112   4.771 -0.2481 -0.4597 -0.0077
 5139SOL    HW126879   0.711   3.023   4.807  0.9312  0.2657  1.9863
 5139SOL    HW226880   0.625   3.127   4.746 -0.3723 -0.6110  0.3397
 5140SOL     OW26881   3.003   0.426   1.298  0.4670 -0.6588 -0.0666
 5140SOL    HW126882   3.009   0.513   1.258 -1.1709  0.8102  2.9230
 5140SOL    HW226883   3.071   0.381   1.247 -0.0724 -0.2875 -1.1247
 5141SOL     OW26884   4.681   0.982   3.315 -0.3322  0.2031 -0.3259
 5141SOL    HW126885   0.008   1.056   3.281  1.4030 -0.3134  1.1850
 5141SOL    HW226886   4.590   1.008   3.299 -1.0275 -2.1410 -0.0878
 5142SOL     OW26887   0.281   2.582   3.578 -0.3076 -0.1396 -0.1572
 5142SOL    HW126888   0.322   2.577   3.665 -1.6691 -1.5953  0.3949
 5142SOL    HW226889   0.252   2.673   3.577 -2.6623 -0.9191 -0.8312
 5143SOL     OW26890   2.373   4.187   1.692 -0.2875  0.3792 -0.0144
 5143SOL    HW126891   2.391   4.094   1.705 -1.5254  0.1332 -0.0001
 5143SOL    HW226892   2.302   4.197   1.755 -0.4349  2.4306 -0.5094
 5144SOL     OW26893   0.690   0.995   8.954  0.2437 -0.8312 -0.1959
 5144SOL    HW126894   0.728   0.944   9.026 -0.1706  0.1124  0.6971
 5144SOL    HW226895   0.603   1.018   8.986  0.0260 -1.7913 -0.0904
 5145SOL     OW26896   1.455   2.589   3.416 -0.1194  0.2185  0.2296
 5145SOL    HW126897   1.453   2.606   3.510 -0.9838 -0.0719  0.2666
 5145SOL    HW226898   1.519   2.518   3.408 -0.2666  0.1393 -0.2671
 5146SOL     OW26899   1.854   1.378  13.304 -0.0962  0.0623  1.1832
 5146SOL    HW126900   1.836   1.369  13.398 -2.4487 -0.6124  0.6757
 5146SOL    HW226901   1.946   1.351  13.303  0.2202  1.2105 -0.3244
 5147SOL     OW26902   1.473   1.985   5.465 -0.2766 -0.3431  0.1111
 5147SOL    HW126903   1.520   2.051   5.516  1.1463 -3.6598  3.1152
 5147SOL    HW226904   1.530   1.909   5.479  1.3014  1.0506  1.2218
 5148SOL     OW26905   2.987   0.039   8.186 -0.3385  0.5318  0.0151
 5148SOL    HW126906   2.920   0.039   8.254  0.5939  0.8226  0.9195
 5148SOL    HW226907   2.954   0.088   8.111  3.3922  2.5693 -0.2906
 5149SOL     OW26908   1.543   4.604  14.005  0.0540  0.1123  0.2186
 5149SOL    HW126909   1.493   4.607  14.086 -1.5703  0.3087 -0.7938
 5149SOL    HW226910   1.600   4.677  14.028 -0.7230  0.5815  0.6538
 5150SOL     OW26911   0.326   3.471   2.943  0.6777 -0.1715  1.0016
 5150SOL    HW126912   0.312   3.565   2.934  2.1457  0.0587  1.1197
 5150SOL    HW226913   0.420   3.464   2.928  0.3135 -0.9907 -0.9485
 5151SOL     OW26914   1.591   0.575   4.894 -0.2797 -0.1023 -0.2960
 5151SOL    HW126915   1.658   0.643   4.887 -0.4171 -0.0712 -1.3297
 5151SOL    HW226916   1.651   0.503   4.914 -0.5440 -0.4097 -0.6185
 5152SOL     OW26917   4.449   1.320   8.860  0.3407 -0.0441 -0.1995
 5152SOL    HW126918   4.390   1.334   8.785  0.8926  1.2115 -0.3971
 5152SOL    HW226919   4.429   1.226   8.864  0.0068  0.0429  0.1449
 5153SOL     OW26920   2.148   1.523   5.980  0.1683 -0.3263  0.4025
 5153SOL    HW126921   2.128   1.447   5.926  0.8435  0.1659 -0.5243
 5153SOL    HW226922   2.243   1.535   5.984  0.3895 -1.8107 -0.4062
 5154SOL     OW26923   0.200   3.424   9.645  0.9460  0.1920 -0.3137
 5154SOL    HW126924   0.292   3.415   9.617  0.6550  2.4767 -2.0183
 5154SOL    HW226925   0.160   3.394   9.563 -1.1690  0.0606  0.7711
 5155SOL     OW26926   1.190   4.427  15.115  0.3133 -0.0079  0.4250
 5155SOL    HW126927   1.175   4.405  15.023 -2.3189  0.2340  0.8029
 5155SOL    HW226928   1.234   4.349  15.150  1.6690  1.2631  1.5500
 5156SOL     OW26929   1.952   3.494   2.753  0.4411 -0.8709  0.3105
 5156SOL    HW126930   1.930   3.498   2.660  2.5939 -0.8222 -0.2111
 5156SOL    HW226931   1.919   3.410   2.784 -0.6901 -1.2764 -1.9808
 5157SOL     OW26932   0.322   0.562  11.318  0.3173  0.1010  0.3374
 5157SOL    HW126933   0.377   0.637  11.339 -0.5323  0.7890  0.1092
 5157SOL    HW226934   0.378   0.493  11.353  1.1880  1.5816  1.8743
 5158SOL     OW26935   1.448   1.928   3.428  0.2190  0.1225 -0.2904
 5158SOL    HW126936   1.418   1.943   3.339  2.7946  0.1105 -1.1580
 5158SOL    HW226937   1.373   1.912   3.486  0.7631  0.8438  0.6132
 5159SOL     OW26938   0.216   1.555   7.974  0.4315  0.0024  0.0214
 5159SOL    HW126939   0.202   1.462   7.995 -0.6669 -0.5150 -3.0434
 5159SOL    HW226940   0.125   1.584   7.975  0.6761  0.7487  0.5724
 5160SOL     OW26941   1.171   3.545   1.564  0.5593 -0.0919 -0.4707
 5160SOL    HW126942   1.244   3.584   1.517  0.7641  0.4845  0.3348
 5160SOL    HW226943   1.101   3.603   1.534  1.0546  1.6898  1.8872
 5161SOL     OW26944   2.577   3.547   4.356  0.3075  0.6656 -0.4032
 5161SOL    HW126945   2.520   3.623   4.349  0.1550  0.9948  4.6131
 5161SOL    HW226946   2.596   3.546   4.450  1.2104  2.0808 -0.5640
 5162SOL     OW26947   0.793   1.077   9.371  0.0219  0.3990  1.1463
 5162SOL    HW126948   0.711   1.058   9.324  1.0830  0.4983 -0.7423
 5162SOL    HW226949   0.756   1.133   9.439 -4.3177 -2.6131  1.2712
 5163SOL     OW26950   0.946   3.568  16.345  0.0383  0.0201  0.0762
 5163SOL    HW126951   0.880   3.511  16.386  0.3013 -0.8038 -0.6539
 5163SOL    HW226952   1.000   3.594  16.419 -0.7385  0.1228  0.6140
 5164SOL     OW26953   4.205   1.477   6.052 -0.3486 -0.2125 -0.4082
 5164SOL    HW126954   4.234   1.504   5.965  2.1641 -0.0420  0.4847
 5164SOL    HW226955   4.112   1.478   6.028 -0.3852 -1.8923 -0.3811
 5165SOL     OW26956   4.469   2.554  14.548  0.4446  0.1258 -0.8882
 5165SOL    HW126957   4.522   2.601  14.484  0.4999 -1.6014 -2.1208
 5165SOL    HW226958   4.491   2.599  14.629  3.2471 -0.9581 -1.0447
 5166SOL     OW26959   3.001   0.595  13.517 -0.4138  0.3435 -0.4958
 5166SOL    HW126960   2.987   0.590  13.612  0.4681 -1.4188 -0.4736
 5166SOL    HW226961   2.950   0.521  13.483 -0.6534  1.1381 -1.8546
 5167SOL     OW26962   3.992   3.012  16.311 -0.4401  0.2027  0.2485
 5167SOL    HW126963   3.942   2.969  16.241 -2.3858  0.5385  1.4242
 5167SOL    HW226964   3.977   2.953  16.385 -3.5317 -0.6344 -1.0434
 5168SOL     OW26965   2.035   3.109   3.701  0.7072 -0.1586 -0.1446
 5168SOL    HW126966   2.034   3.205   3.699  3.3753 -0.1490 -1.0754
 5168SOL    HW226967   2.110   3.089   3.645  0.1860  3.7037 -2.2150
 5169SOL     OW26968   4.524   2.763   0.827 -0.3916  0.1846  0.0378
 5169SOL    HW126969   4.490   2.851   0.845  0.5736  0.0075  2.7851
 5169SOL    HW226970   4.576   2.746   0.906  0.3725 -1.2744 -0.7753
 5170SOL     OW26971   2.132   0.926   0.885 -0.6094 -1.1334  0.1399
 5170SOL    HW126972   2.201   0.963   0.942  0.5194 -2.4035 -0.4002
 5170SOL    HW226973   2.145   0.832   0.897  1.9538 -0.3816  3.5148
 5171SOL     OW26974   3.258   0.196  11.461 -0.1643  0.0227 -0.4470
 5171SOL    HW126975   3.300   0.272  11.420  0.2699 -0.1343 -0.2941
 5171SOL    HW226976   3.174   0.237  11.480  0.5125  1.6226 -0.8316
 5172SOL     OW26977   2.913   0.405   6.640  0.4031  0.1108  0.0350
 5172SOL    HW126978   2.872   0.393   6.554 -0.4109 -0.0590  0.4394
 5172SOL    HW226979   2.869   0.484   6.673 -0.9777 -1.3219  1.6860
 5173SOL     OW26980   3.778   3.728   5.997  0.2811  0.4641 -0.4603
 5173SOL    HW126981   3.765   3.652   6.055  1.8420  1.7293  1.5310
 5173SOL    HW226982   3.683   3.733   5.983  0.3128 -0.2763 -0.9694
 5174SOL     OW26983   3.475   4.688   6.248  0.1013 -0.0879  0.2060
 5174SOL    HW126984   3.455   4.629   6.320 -0.1961 -1.2065 -0.7996
 5174SOL    HW226985   3.482   0.046   6.297 -0.3841  0.5461 -0.7970
 5175SOL     OW26986   2.992   1.636   7.675 -0.2186  0.3113 -0.6391
 5175SOL    HW126987   2.956   1.720   7.704 -0.2181  0.2285 -0.3981
 5175SOL    HW226988   3.024   1.646   7.585  0.6524  1.5662 -0.1948
 5176SOL     OW26989   1.408   0.304   4.053 -0.1772 -0.1180  0.0939
 5176SOL    HW126990   1.445   0.358   4.123  2.1890 -1.3158 -0.2073
 5176SOL    HW226991   1.468   0.331   3.983  0.7362 -1.6429  0.2984
 5177SOL     OW26992   2.508   2.517   7.823  0.1615  0.0307 -0.0918
 5177SOL    HW126993   2.422   2.543   7.857 -0.3325 -0.5312 -0.9142
 5177SOL    HW226994   2.537   2.604   7.794 -1.1432  0.3925 -0.3218
 5178SOL     OW26995   1.811   3.909  12.270 -0.1750 -0.2839 -0.2722
 5178SOL    HW126996   1.826   3.900  12.176 -0.7211 -1.6788 -0.2279
 5178SOL    HW226997   1.719   3.885  12.281  0.5132 -2.1829  1.3702
 5179SOL     OW26998   3.370   0.320  12.014  0.0466  0.3138 -0.4440
 5179SOL    HW126999   3.293   0.306  11.959  0.0361 -2.5064  0.2757
 5179SOL    HW227000   3.439   0.278  11.962 -0.0002  1.8044 -1.7013
 5180SOL     OW27001   3.187   3.435   4.030  0.0723  0.0812  0.2973
 5180SOL    HW127002   3.241   3.448   4.108 -0.6012  0.6275  0.6745
 5180SOL    HW227003   3.102   3.411   4.068 -0.6771  2.3699  0.0344
 5181SOL     OW27004   2.895   2.215  11.592 -0.2407 -0.7201  0.0865
 5181SOL    HW127005   2.989   2.204  11.604 -0.1502  0.4331  0.4329
 5181SOL    HW227006   2.880   2.136  11.541 -0.5770 -0.0565 -0.8558
 5182SOL     OW27007   0.154   0.102   6.327  0.0149 -0.0178  0.3195
 5182SOL    HW127008   0.206   0.158   6.269  0.9497 -0.4767  0.7294
 5182SOL    HW227009   0.071   0.149   6.333  0.9148  1.7854 -1.1691
 5183SOL     OW27010   2.883   0.630   9.360 -0.3244 -0.3085 -0.2072
 5183SOL    HW127011   2.841   0.681   9.430  1.1898  1.7787 -0.8352
 5183SOL    HW227012   2.938   0.567   9.407 -2.7980 -0.5394  2.4408
 5184SOL     OW27013   3.480   4.430  15.948 -0.4807  0.0164 -0.8526
 5184SOL    HW127014   3.426   4.396  16.019  1.2109 -0.9910 -0.0418
 5184SOL    HW227015   3.473   4.351  15.894 -0.4107  0.4972 -1.5719
 5185SOL     OW27016   0.086   0.858   5.803  0.0407  0.1524  0.0938
 5185SOL    HW127017   0.170   0.858   5.758 -0.4666 -0.6646 -0.8588
 5185SOL    HW227018   0.045   0.919   5.741  0.6464  1.8132  1.3373
 5186SOL     OW27019   2.436   4.530  16.487 -0.1192  0.0990 -0.1016
 5186SOL    HW127020   2.504   4.491  16.432 -1.8986  0.8512 -2.8091
 5186SOL    HW227021   2.416   4.613  16.444  1.2381  1.6801  2.3083
 5187SOL     OW27022   3.987   4.448   8.515  0.3134  0.1128  0.5508
 5187SOL    HW127023   3.957   4.412   8.432 -1.5026 -1.4270  1.9050
 5187SOL    HW227024   4.020   4.534   8.488 -0.9012 -0.3205 -2.3141
 5188SOL     OW27025   0.617   1.052   5.811  0.2900  0.1444  0.4648
 5188SOL    HW127026   0.664   0.968   5.811  0.9952  0.5476 -0.2879
 5188SOL    HW227027   0.641   1.107   5.737 -0.6843 -1.0257 -0.7246
 5189SOL     OW27028   1.676   2.921  13.068 -0.7364  0.4891 -0.1347
 5189SOL    HW127029   1.606   2.882  13.016  1.5859 -1.0805 -2.0909
 5189SOL    HW227030   1.644   2.908  13.158 -1.1098 -1.8136 -0.5951
 5190SOL     OW27031   3.088   3.181   2.348 -0.3753 -0.2439  0.1160
 5190SOL    HW127032   3.107   3.104   2.295  1.4546 -0.9530  1.7867
 5190SOL    HW227033   3.025   3.226   2.292 -1.4716 -0.1060  1.4579
 5191SOL     OW27034   4.146   1.289   2.645 -0.0550  0.1248 -0.7998
 5191SOL    HW127035   4.112   1.284   2.556  1.1825 -0.0371 -1.2639
 5191SOL    HW227036   4.240   1.301   2.632 -0.2582  1.3813 -1.0695
 5192SOL     OW27037   2.704   0.339   2.015  0.0252  0.6188 -0.1164
 5192SOL    HW127038   2.691   0.385   2.099  0.2110 -2.4331  1.5669
 5192SOL    HW227039   2.798   0.353   2.002  0.5297 -1.6557  1.1250
 5193SOL     OW27040   4.626   1.284   3.772  0.2048 -0.1589  0.2487
 5193SOL    HW127041   4.708   1.323   3.802 -0.1732  0.6602  0.2131
 5193SOL    HW227042   4.590   1.358   3.722 -0.5009 -2.6742 -2.9990
 5194SOL     OW27043   2.028   2.314   5.226 -0.4271 -0.1155 -0.2361
 5194SOL    HW127044   1.947   2.349   5.264  2.3847  0.8835  4.8083
 5194SOL    HW227045   2.084   2.391   5.227  0.7093 -0.9501  0.3180
 5195SOL     OW27046   3.803   1.787  10.389 -0.1420 -0.4274 -0.0120
 5195SOL    HW127047   3.731   1.791  10.452  1.6330  1.7544  1.8879
 5195SOL    HW227048   3.785   1.705  10.344  0.4835 -1.8405  2.3303
 5196SOL     OW27049   3.253   4.346   8.304  0.1188 -0.2913  0.3915
 5196SOL    HW127050   3.199   4.287   8.252  0.0457  1.3777 -1.3831
 5196SOL    HW227051   3.336   4.326   8.261 -0.1420 -1.9762  0.6472
 5197SOL     OW27052   2.088   3.637  16.133 -0.3293  0.1160 -0.6641
 5197SOL    HW127053   2.145   3.704  16.098  1.5901 -0.3247  1.5948
 5197SOL    HW227054   2.123   3.553  16.102 -1.7077  0.1190 -2.2169
 5198SOL     OW27055   3.812   0.548  14.662 -0.1844  0.3475 -0.3395
 5198SOL    HW127056   3.829   0.616  14.597 -0.5834 -0.3855 -1.2143
 5198SOL    HW227057   3.745   0.587  14.718  0.9419 -0.2993  1.4299
 5199SOL     OW27058   3.645   0.135  17.240  0.0952  0.1445 -0.5968
 5199SOL    HW127059   3.638   0.127  17.145  0.9690  0.7799 -0.7157
 5199SOL    HW227060   3.710   0.069  17.264 -0.3011 -0.3550 -0.8949
 5200SOL     OW27061   1.894   1.698  10.075  0.0524 -0.1141  0.2660
 5200SOL    HW127062   1.858   1.683  10.162  1.2446  1.3249  1.0087
 5200SOL    HW227063   1.813   1.718  10.029  0.0230  0.3722  0.5219
 5201SOL     OW27064   3.803   1.227   5.500  0.5534  0.7864  0.1065
 5201SOL    HW127065   3.838   1.142   5.478 -1.4110  0.8240 -3.1313
 5201SOL    HW227066   3.721   1.231   5.450  0.0423  1.0520  0.9436
 5202SOL     OW27067   0.519   1.418  11.457  0.3167 -0.2940  0.1730
 5202SOL    HW127068   0.551   1.333  11.488  0.9354 -1.2994 -3.1457
 5202SOL    HW227069   0.599   1.459  11.423  0.1586 -0.1119  0.0155
 5203SOL     OW27070   1.426   2.258   6.358  0.9149 -0.1740  0.9186
 5203SOL    HW127071   1.454   2.173   6.391  0.1500 -0.4629  0.8378
 5203SOL    HW227072   1.505   2.311   6.371  1.1341 -0.6896  1.6640
 5204SOL     OW27073   2.583   2.984   1.959  0.8505 -0.2503 -0.5531
 5204SOL    HW127074   2.604   3.075   1.939  3.6579 -0.9816 -0.9758
 5204SOL    HW227075   2.490   2.982   1.980  1.3248  1.3901  1.6642
 5205SOL     OW27076   4.539   2.172  15.869 -0.7118  0.3186  0.0494
 5205SOL    HW127077   4.479   2.100  15.886 -0.8370  0.2534 -0.6561
 5205SOL    HW227078   4.605   2.151  15.935 -0.5276 -0.5297 -0.4059
 5206SOL     OW27079   3.475   2.304   8.826  0.3004 -0.6328 -0.4173
 5206SOL    HW127080   3.522   2.221   8.829 -1.3177 -1.5384  0.1872
 5206SOL    HW227081   3.459   2.305   8.732  0.1884 -0.4233 -0.3967
 5207SOL     OW27082   0.867   2.324   3.432  0.4814 -0.1227 -0.3841
 5207SOL    HW127083   0.960   2.319   3.409  1.3149 -2.0626  3.4184
 5207SOL    HW227084   0.861   2.297   3.524  0.8466 -0.6069 -0.5044
 5208SOL     OW27085   4.254   0.598   2.763  0.2728  0.3829  0.3974
 5208SOL    HW127086   4.341   0.572   2.734  1.0062  0.8497  2.1346
 5208SOL    HW227087   4.261   0.616   2.857  1.2184  1.6520  0.0947
 5209SOL     OW27088   2.768   4.210   8.352  0.2874 -0.2414 -0.0260
 5209SOL    HW127089   2.737   4.148   8.285  1.3837  3.0813 -3.6523
 5209SOL    HW227090   2.690   4.265   8.354  1.6811  1.6750  1.3185
 5210SOL     OW27091   1.974   4.426  13.741 -0.3827 -0.0069 -0.5340
 5210SOL    HW127092   1.888   4.445  13.780  0.2246  1.0303  0.2930
 5210SOL    HW227093   1.952   4.445  13.650  0.8881  0.8345 -0.6484
 5211SOL     OW27094   2.240   3.759   3.006  0.7223 -0.2129 -0.0492
 5211SOL    HW127095   2.254   3.813   3.084 -0.8531 -0.1255  0.1590
 5211SOL    HW227096   2.165   3.712   3.041 -1.2470  0.4937 -3.3706
 5212SOL     OW27097   2.896   1.463   5.580  0.0681  0.4153  0.4769
 5212SOL    HW127098   2.958   1.536   5.587 -0.0222  0.4150  1.3123
 5212SOL    HW227099   2.957   1.392   5.602 -0.3566 -0.3562 -0.8702
 5213SOL     OW27100   1.086   1.119   8.205 -0.0042  0.0480  0.2860
 5213SOL    HW127101   1.130   1.204   8.215  1.0165 -0.3970 -0.3372
 5213SOL    HW227102   1.071   1.104   8.298  0.4258  0.0751  0.3621
 5214SOL     OW27103   2.721   0.043   6.925 -0.1436  0.3342 -0.2990
 5214SOL    HW127104   2.677   0.005   6.849 -2.0767  0.1030  0.9522
 5214SOL    HW227105   2.657   0.103   6.963  2.2315  1.7215  1.5649
 5215SOL     OW27106   4.075   2.265  17.695 -0.4378 -0.0832 -0.1854
 5215SOL    HW127107   4.026   2.222   0.066  0.8402 -1.8326 -0.3607
 5215SOL    HW227108   4.090   2.353   0.031  1.7376 -1.7500  3.1106
 5216SOL     OW27109   2.314   3.203   0.579 -0.1583 -0.4545 -0.3195
 5216SOL    HW127110   2.262   3.282   0.567 -0.2243 -0.4242  0.1509
 5216SOL    HW227111   2.272   3.149   0.512 -1.9611  0.9927 -0.3610
 5217SOL     OW27112   0.554   1.346   2.110 -0.0030  0.1037  0.0408
 5217SOL    HW127113   0.492   1.415   2.133  1.4897  1.5810 -0.3264
 5217SOL    HW227114   0.561   1.300   2.193  3.1233  1.5715  0.6248
 5218SOL     OW27115   2.038   2.788   6.291  0.3333  0.2780  0.4650
 5218SOL    HW127116   2.133   2.787   6.301  0.1794  1.0356  1.9119
 5218SOL    HW227117   2.031   2.829   6.205 -0.2521  0.0671  0.4087
 5219SOL     OW27118   4.346   1.102   1.077 -0.6511  0.1513 -0.4648
 5219SOL    HW127119   4.428   1.134   1.112  1.1476 -1.8902 -2.8209
 5219SOL    HW227120   4.276   1.156   1.114 -1.0341  0.0161 -0.9847
 5220SOL     OW27121   0.091   1.701  17.392 -0.4699  0.5470 -0.2000
 5220SOL    HW127122   0.105   1.686  17.485  1.1228  0.7604 -0.4037
 5220SOL    HW227123   0.179   1.706  17.354  0.2189  0.3328  1.3840
 5221SOL     OW27124   0.673   1.846  11.269 -0.0927  0.5423 -0.0954
 5221SOL    HW127125   0.604   1.781  11.258 -0.6402  0.7993  1.9726
 5221SOL    HW227126   0.686   1.837  11.363 -1.9371  0.8961  0.1857
 5222SOL     OW27127   1.726   3.702   2.819  0.2878  0.0463 -0.0707
 5222SOL    HW127128   1.756   3.665   2.736  1.3621  1.3349 -0.2550
 5222SOL    HW227129   1.757   3.792   2.817 -1.6680  0.8019  3.0100
 5223SOL     OW27130   0.423   1.299   7.780  0.2688 -0.1032  0.5053
 5223SOL    HW127131   0.436   1.215   7.824 -0.2297  0.6134  2.0261
 5223SOL    HW227132   0.491   1.355   7.818  0.8670 -0.6294  0.2189
 5224SOL     OW27133   2.636   0.887   3.497  0.4865 -0.0100 -0.4653
 5224SOL    HW127134   2.599   0.853   3.416  0.6459 -0.6843 -0.2534
 5224SOL    HW227135   2.574   0.958   3.516 -1.7914 -1.8911 -0.9656
 5225SOL     OW27136   2.794   3.222   7.371 -0.0204 -0.0744 -0.2010
 5225SOL    HW127137   2.741   3.254   7.297 -0.8498 -0.7961  0.0840
 5225SOL    HW227138   2.873   3.191   7.327 -1.2248 -1.2385 -1.5645
 5226SOL     OW27139   4.104   0.501   4.763  0.4590  0.2565 -0.3034
 5226SOL    HW127140   4.169   0.483   4.831 -0.3030 -1.3947  0.0106
 5226SOL    HW227141   4.091   0.594   4.782  4.1816  1.1120 -2.0476
 5227SOL     OW27142   0.355   1.067   0.466  0.5971  0.2026 -0.0458
 5227SOL    HW127143   0.380   1.063   0.374  0.0295  0.3811 -0.2066
 5227SOL    HW227144   0.445   1.076   0.498 -0.4054  1.4960  2.4412
 5228SOL     OW27145   1.852   0.696   6.120 -0.0285 -0.0442 -0.0962
 5228SOL    HW127146   1.793   0.623   6.139 -0.7431  1.0652  2.0105
 5228SOL    HW227147   1.837   0.753   6.195  0.1859 -1.2024  0.8167
 5229SOL     OW27148   2.791   0.150   8.924 -0.6529 -0.1758  0.5660
 5229SOL    HW127149   2.747   0.152   8.840  0.6925  0.3770 -0.1323
 5229SOL    HW227150   2.717   0.141   8.984  0.2213 -0.8564  1.5591
 5230SOL     OW27151   3.403   3.046  10.295  0.0809 -0.0622  0.0770
 5230SOL    HW127152   3.360   3.017  10.214 -0.1397  1.7553 -0.4682
 5230SOL    HW227153   3.354   2.995  10.359  1.2763  0.8957  1.7417
 5231SOL     OW27154   2.253   3.723   5.065 -0.2792 -0.1854 -0.5626
 5231SOL    HW127155   2.305   3.804   5.067  0.8142 -0.8607 -2.0226
 5231SOL    HW227156   2.216   3.725   5.153  2.3833  0.3546  0.5187
 5232SOL     OW27157   2.433   4.652   6.083 -0.0829 -0.4795 -0.3622
 5232SOL    HW127158   2.469   4.685   6.001 -3.1331  2.0992 -0.6286
 5232SOL    HW227159   2.421   0.008   6.132 -0.1703 -0.6900 -0.0345
 5233SOL     OW27160   0.709   3.815   6.351 -0.8949  0.7657 -0.1983
 5233SOL    HW127161   0.717   3.808   6.446  0.9472  0.2738 -0.3979
 5233SOL    HW227162   0.732   3.726   6.324 -0.5914  0.4790  0.9805
 5234SOL     OW27163   2.044   2.227  11.227  0.2163  0.2304 -0.5318
 5234SOL    HW127164   2.048   2.176  11.146 -1.8266  2.1806 -1.8776
 5234SOL    HW227165   2.126   2.192  11.262 -0.7714  1.0669  2.6295
 5235SOL     OW27166   2.532   0.020   6.497 -0.7253 -0.5490  0.2002
 5235SOL    HW127167   2.465   0.073   6.455 -0.6396  0.6639  1.6283
 5235SOL    HW227168   2.606   0.060   6.452 -0.8449 -0.4684  0.0758
 5236SOL     OW27169   1.464   1.287  11.118  0.5637 -0.1338  0.1632
 5236SOL    HW127170   1.543   1.339  11.101  0.3597 -0.1845 -0.9656
 5236SOL    HW227171   1.494   1.246  11.199  0.0142  0.2481  0.5583
 5237SOL     OW27172   3.693   2.249  17.043  0.2128 -0.2098 -0.3389
 5237SOL    HW127173   3.694   2.247  16.947  1.5553  0.6751 -0.3449
 5237SOL    HW227174   3.658   2.161  17.058  2.7006 -1.3391 -1.1213
 5238SOL     OW27175   3.859   0.573  13.820 -0.1536  0.2426  0.0493
 5238SOL    HW127176   3.819   0.486  13.812 -1.0625  0.7403 -0.7152
 5238SOL    HW227177   3.867   0.610  13.732  0.4269  3.8620  1.6125
 5239SOL     OW27178   0.596   4.202   9.460  0.3195  0.4253 -0.1791
 5239SOL    HW127179   0.578   4.111   9.480 -2.6368  1.3231  1.1121
 5239SOL    HW227180   0.544   4.216   9.381  1.0531  1.7648 -0.4357
 5240SOL     OW27181   2.832   3.432  16.966 -0.2433  0.1747 -0.2317
 5240SOL    HW127182   2.781   3.443  16.886 -0.1438  2.8756  0.0597
 5240SOL    HW227183   2.794   3.491  17.031 -0.8506 -0.0795 -0.3565
 5241SOL     OW27184   0.554   4.235  14.371 -0.5632 -0.4843  0.7129
 5241SOL    HW127185   0.459   4.233  14.364 -0.6356  1.5464  1.0680
 5241SOL    HW227186   0.573   4.248  14.278  0.0392 -0.1125  0.8878
 5242SOL     OW27187   1.704   2.849   7.913 -0.2096  0.3377  0.2220
 5242SOL    HW127188   1.624   2.858   7.965 -0.4394 -0.9549  0.0737
 5242SOL    HW227189   1.765   2.884   7.979 -1.7640  0.8614  1.3820
 5243SOL     OW27190   2.720   2.071  12.466 -0.1551 -0.8436 -0.8955
 5243SOL    HW127191   2.670   2.063  12.384  0.4779  0.2876 -1.4002
 5243SOL    HW227192   2.688   1.996  12.516 -0.5910 -0.6501 -0.8832
 5244SOL     OW27193   0.573   1.733   6.604  0.0867 -0.2897  0.4350
 5244SOL    HW127194   0.534   1.693   6.526 -1.0576  1.9604 -0.1415
 5244SOL    HW227195   0.667   1.716   6.595  0.5248  3.4649 -1.9677
 5245SOL     OW27196   2.685   0.559   0.309 -0.2833  0.0398  0.3467
 5245SOL    HW127197   2.644   0.536   0.392  2.2411 -0.3820  1.4816
 5245SOL    HW227198   2.668   0.478   0.260 -0.8765  0.2642  0.1830
 5246SOL     OW27199   0.193   1.652  10.934 -0.1398 -0.2639  0.2125
 5246SOL    HW127200   0.188   1.691  10.847 -2.4852  1.6448  1.2166
 5246SOL    HW227201   0.100   1.637  10.952 -0.0359 -0.0369  0.9379
 5247SOL     OW27202   2.814   4.429   5.431 -0.4718 -0.0348  0.3566
 5247SOL    HW127203   2.856   4.471   5.506 -1.5851  0.9682  0.4137
 5247SOL    HW227204   2.725   4.433   5.467 -0.4498  1.0170  0.2914
 5248SOL     OW27205   0.767   0.599   4.344  0.4750  0.0180 -0.2960
 5248SOL    HW127206   0.713   0.585   4.266  1.4841 -0.5597 -0.9008
 5248SOL    HW227207   0.764   0.694   4.349  0.7500 -0.0082  0.4072
 5249SOL     OW27208   3.622   0.277   8.801  0.3097 -0.4646 -0.4826
 5249SOL    HW127209   3.717   0.282   8.799  0.1383  2.6126 -1.7274
 5249SOL    HW227210   3.611   0.182   8.804  1.1972 -0.5477  0.1805
 5250SOL     OW27211   2.958   3.117   0.598  0.3171 -0.5652 -0.0860
 5250SOL    HW127212   2.954   3.198   0.546 -3.5621  0.2639  1.5142
 5250SOL    HW227213   2.923   3.158   0.677 -0.9947  1.5506 -1.7416
 5251SOL     OW27214   3.441   2.697  16.199 -0.3899 -0.0756  0.2981
 5251SOL    HW127215   3.428   2.775  16.253 -1.3429  0.3020 -0.4716
 5251SOL    HW227216   3.354   2.686  16.160  0.5440  0.0364 -1.8088
 5252SOL     OW27217   1.667   3.124  11.021 -0.2178 -0.3326 -0.0675
 5252SOL    HW127218   1.755   3.108  10.986  0.3765 -1.2807  1.8138
 5252SOL    HW227219   1.617   3.057  10.974 -0.9133  0.0230  0.1687
 5253SOL     OW27220   0.061   0.378   7.906  0.0292 -0.4528  0.5303
 5253SOL    HW127221   0.056   0.448   7.841  1.5176 -1.1508 -0.3127
 5253SOL    HW227222   0.154   0.374   7.926  0.3491 -0.1012 -0.8958
 5254SOL     OW27223   0.451   2.277   1.989  0.5396  0.6059  0.4835
 5254SOL    HW127224   0.405   2.358   2.011 -2.0002 -0.4332 -0.9933
 5254SOL    HW227225   0.416   2.248   1.904  0.9649  1.5280 -0.0051
 5255SOL     OW27226   3.793   0.728  15.655 -0.2499  0.2068 -0.0859
 5255SOL    HW127227   3.699   0.742  15.666 -0.2713  1.1880 -1.4269
 5255SOL    HW227228   3.816   0.796  15.591 -1.4513  2.4189  1.8247
 5256SOL     OW27229   1.540   0.857   2.221 -0.3344 -0.8279 -0.2712
 5256SOL    HW127230   1.446   0.841   2.226 -0.4592 -0.6521 -1.9740
 5256SOL    HW227231   1.542   0.915   2.145 -2.3487  0.2712  0.5184
 5257SOL     OW27232   0.158   4.441   7.365  0.0593  0.3644  0.2467
 5257SOL    HW127233   0.141   4.490   7.284 -0.9386  0.2957  0.4190
 5257SOL    HW227234   0.113   4.358   7.353 -0.2615  0.5841 -0.0743
 5258SOL     OW27235   3.361   0.060   1.923  0.0851  0.0994 -0.2949
 5258SOL    HW127236   3.344   4.698   1.885  2.1588  0.5719 -2.3706
 5258SOL    HW227237   3.357   0.051   2.018  1.1441 -0.8547 -0.3352
 5259SOL     OW27238   3.391   2.527   2.558  0.2338 -0.2517 -0.0472
 5259SOL    HW127239   3.385   2.474   2.638  0.0516 -0.2121 -0.0349
 5259SOL    HW227240   3.445   2.471   2.503  1.1760  0.9773 -0.3637
 5260SOL     OW27241   0.459   2.637  16.761  0.4930 -0.0273 -0.3043
 5260SOL    HW127242   0.435   2.574  16.830 -3.0639  0.5317 -1.0093
 5260SOL    HW227243   0.544   2.607  16.731  0.3583 -0.7433  0.0232
 5261SOL     OW27244   2.803   4.195  12.136  0.2106  0.7387 -0.0262
 5261SOL    HW127245   2.817   4.103  12.114 -0.6908  0.9117 -1.3662
 5261SOL    HW227246   2.849   4.196  12.219  0.6982  1.8517 -0.3133
 5262SOL     OW27247   4.058   1.075   6.413 -0.6623  0.0882 -0.3074
 5262SOL    HW127248   4.007   1.081   6.333 -0.2194  2.1572 -0.4306
 5262SOL    HW227249   4.015   1.151   6.452 -0.4073 -0.3423  0.8318
 5263SOL     OW27250   0.475   2.080   3.655 -0.0460  0.0163 -0.0880
 5263SOL    HW127251   0.394   2.100   3.607 -0.5060 -1.3692  0.0949
 5263SOL    HW227252   0.521   2.029   3.589  0.5732 -1.1514  1.2585
 5264SOL     OW27253   3.930   1.473   0.320 -0.1091 -0.3519 -0.0954
 5264SOL    HW127254   3.901   1.473   0.228  1.6600 -0.8614 -0.6463
 5264SOL    HW227255   3.852   1.498   0.369 -1.4408  1.6045 -3.1928
 5265SOL     OW27256   3.150   1.006  14.606 -0.1491 -0.0160 -0.5303
 5265SOL    HW127257   3.091   0.988  14.532 -3.2341  2.0596  1.3919
 5265SOL    HW227258   3.237   1.008  14.566  0.2779 -0.6796  0.3846
 5266SOL     OW27259   4.553   1.270   6.139 -0.4979  0.6631  0.2786
 5266SOL    HW127260   4.484   1.212   6.107 -1.3303  1.4187  0.7019
 5266SOL    HW227261   4.518   1.356   6.117 -1.4337  0.1207 -0.3758
 5267SOL     OW27262   1.887   4.133  16.537  0.2232  0.2518  0.3163
 5267SOL    HW127263   1.893   4.149  16.443  2.6707 -0.6840  0.3053
 5267SOL    HW227264   1.953   4.065  16.553 -0.6304 -0.7604 -0.5320
 5268SOL     OW27265   0.665   3.231  13.335 -0.1769  0.9824  0.5356
 5268SOL    HW127266   0.656   3.251  13.428 -1.5140 -1.8593  1.0070
 5268SOL    HW227267   0.749   3.272  13.313 -0.1471  0.5688 -0.1136
 5269SOL     OW27268   3.790   2.029  14.485 -0.1113  0.7109 -0.7377
 5269SOL    HW127269   3.769   1.959  14.423 -0.9037  0.1657  0.1396
 5269SOL    HW227270   3.754   2.104  14.437 -1.5255  0.5151 -0.0070
 5270SOL     OW27271   0.778   3.117  14.497  0.3624  0.2645  0.5234
 5270SOL    HW127272   0.753   3.186  14.558 -1.5257 -1.0485  1.2412
 5270SOL    HW227273   0.856   3.162  14.464 -0.8492  1.4660 -0.6895
 5271SOL     OW27274   2.963   2.518   1.916 -0.1450  0.8324  0.1989
 5271SOL    HW127275   2.876   2.513   1.875 -1.2573 -1.0465  2.7656
 5271SOL    HW227276   3.022   2.510   1.841 -1.6056  1.1411 -0.9954
 5272SOL     OW27277   1.080   2.870   2.075 -0.3234  0.2338  0.1475
 5272SOL    HW127278   1.042   2.814   2.143  0.1287  0.8168  0.8842
 5272SOL    HW227279   1.141   2.927   2.123  0.1828 -3.6700  4.2106
 5273SOL     OW27280   0.948   0.447   8.126 -0.0122 -0.2178 -0.1177
 5273SOL    HW127281   0.933   0.509   8.054  0.7433  0.3103  0.1827
 5273SOL    HW227282   0.985   0.508   8.190 -0.5420  0.1079 -0.1243
 5274SOL     OW27283   4.204   0.190   6.759 -0.3180 -0.3093  0.0800
 5274SOL    HW127284   4.268   0.244   6.712  1.0943 -1.1597  1.0100
 5274SOL    HW227285   4.239   0.182   6.848  0.9165 -0.1244 -0.3882
 5275SOL     OW27286   0.713   1.962   2.728 -0.0408 -0.3266  0.3557
 5275SOL    HW127287   0.808   1.952   2.736  0.4183  3.0662 -0.6920
 5275SOL    HW227288   0.706   2.019   2.652 -1.8734  0.5793  1.2011
 5276SOL     OW27289   3.298   0.358   7.446 -0.0409 -0.2894 -0.5721
 5276SOL    HW127290   3.373   0.311   7.482 -0.2058 -0.2999 -0.2391
 5276SOL    HW227291   3.289   0.425   7.514 -1.2976 -0.0005 -1.0198
 5277SOL     OW27292   1.073   4.429   4.543 -0.5388 -0.1130 -0.0945
 5277SOL    HW127293   1.158   4.439   4.585 -1.3460  0.4407  1.3890
 5277SOL    HW227294   1.028   4.495   4.595 -2.6942  0.3727 -2.5534
 5278SOL     OW27295   0.637   3.160   2.899  0.1949 -0.1542 -0.3601
 5278SOL    HW127296   0.702   3.169   2.968 -1.2783 -0.1861  1.0396
 5278SOL    HW227297   0.561   3.139   2.954 -0.8310  2.1330 -0.8716
 5279SOL     OW27298   1.358   1.623   8.155  0.4391  0.4186  0.1023
 5279SOL    HW127299   1.305   1.629   8.234 -1.4209 -2.2645 -0.9603
 5279SOL    HW227300   1.431   1.586   8.204 -0.3944 -0.5473  0.6149
 5280SOL     OW27301   1.302   4.083  14.234 -0.8860  0.1424  0.2348
 5280SOL    HW127302   1.318   4.176  14.218 -0.8590 -0.3195 -2.4515
 5280SOL    HW227303   1.317   4.076  14.328 -0.4276  0.0001  0.1546
 5281SOL     OW27304   0.686   2.664   8.983 -0.3303  0.0285 -0.1445
 5281SOL    HW127305   0.708   2.656   9.076  1.3539  0.1723 -0.5324
 5281SOL    HW227306   0.593   2.687   8.985  0.1447  1.9890 -0.8022
 5282SOL     OW27307   1.471   0.174   9.802 -0.2770  0.0843 -0.4816
 5282SOL    HW127308   1.561   0.157   9.773 -0.6641  0.6707 -2.0406
 5282SOL    HW227309   1.489   0.239   9.869 -0.3026  0.6952 -1.0621
 5283SOL     OW27310   1.634   2.644   6.424 -0.1270 -0.8279 -0.2470
 5283SOL    HW127311   1.647   2.728   6.468 -0.1775  0.3744 -2.4928
 5283SOL    HW227312   1.554   2.614   6.466 -0.4617  1.3040  0.6222
 5284SOL     OW27313   4.581   4.518  12.495  0.2080 -0.1320  0.5763
 5284SOL    HW127314   4.487   4.537  12.484  0.3087  0.2193  0.3214
 5284SOL    HW227315   4.590   4.452  12.426  3.5611  0.3752  0.5345
 5285SOL     OW27316   0.483   1.962   9.991  0.2134  0.0733  0.4152
 5285SOL    HW127317   0.564   1.916  10.011  0.3285 -0.3199 -0.9715
 5285SOL    HW227318   0.473   2.020  10.067  0.3422  0.6960 -0.0447
 5286SOL     OW27319   3.338   2.757   7.960 -0.1510 -0.0153  0.0172
 5286SOL    HW127320   3.278   2.799   8.021 -1.9814 -2.5473 -0.0101
 5286SOL    HW227321   3.427   2.775   7.988  0.2738  0.9463 -1.9977
 5287SOL     OW27322   1.066   3.535   6.959 -0.1030  0.1077  0.4304
 5287SOL    HW127323   1.129   3.501   7.023  1.1852 -0.6446 -1.2449
 5287SOL    HW227324   1.055   3.615   7.010 -1.4467 -0.7768  1.5143
 5288SOL     OW27325   3.964   4.479   2.086  0.3208  0.2834 -0.0994
 5288SOL    HW127326   3.921   4.487   2.000 -0.4315  0.8278  0.3274
 5288SOL    HW227327   4.057   4.473   2.065  0.1995  1.7380 -1.0374
 5289SOL     OW27328   3.183   0.231   8.386 -0.0815 -0.1669  0.3234
 5289SOL    HW127329   3.132   0.150   8.390 -0.0439 -0.2038  0.0819
 5289SOL    HW227330   3.185   0.252   8.293 -0.1510  0.3896  0.4480
 5290SOL     OW27331   3.246   3.233  16.059 -0.0137 -0.2887  0.3204
 5290SOL    HW127332   3.187   3.157  16.065  0.0198 -0.5430 -2.6938
 5290SOL    HW227333   3.262   3.235  15.965 -0.0272  0.7081  0.3373
 5291SOL     OW27334   3.696   1.608   0.362 -0.2821  0.4234  0.0239
 5291SOL    HW127335   3.614   1.560   0.369  0.8265 -1.5285 -0.3960
 5291SOL    HW227336   3.697   1.637   0.271  0.4903 -2.5615 -0.9123
 5292SOL     OW27337   2.892   2.253   1.642 -0.8564  0.3534  0.0464
 5292SOL    HW127338   2.895   2.328   1.702  0.3803  1.6029 -1.5772
 5292SOL    HW227339   2.802   2.230   1.665 -1.3672  1.9746 -0.2765
 5293SOL     OW27340   2.543   2.005   8.836  0.1580 -0.2048  0.1666
 5293SOL    HW127341   2.614   1.943   8.851  1.0603  0.4964 -1.1939
 5293SOL    HW227342   2.580   2.091   8.853  0.8920 -0.8746  2.0056
 5294SOL     OW27343   3.333   4.414   8.624  0.3134 -0.5253  0.1363
 5294SOL    HW127344   3.413   4.387   8.669  2.1945  1.8378 -1.7488
 5294SOL    HW227345   3.373   4.482   8.569 -0.3357  0.4176  0.8225
 5295SOL     OW27346   4.190   1.854   9.171 -0.2711 -0.4478 -0.1867
 5295SOL    HW127347   4.232   1.769   9.158  1.3616  0.4223 -0.4457
 5295SOL    HW227348   4.105   1.832   9.211  0.1920  1.5579  1.8687
 5296SOL     OW27349   0.955   2.946   9.215 -0.1939  0.7199  0.9588
 5296SOL    HW127350   0.897   2.949   9.139  1.1764 -2.2009 -0.1799
 5296SOL    HW227351   1.032   2.978   9.168  0.3837 -2.3378 -0.1756
 5297SOL     OW27352   0.780   2.831   8.421  0.2041  0.0487  0.5033
 5297SOL    HW127353   0.823   2.752   8.386 -0.0963 -1.0248  2.5721
 5297SOL    HW227354   0.690   2.826   8.388 -0.0554  0.1745  1.1859
 5298SOL     OW27355   1.383   0.198  12.170 -0.5573 -0.5070  0.2837
 5298SOL    HW127356   1.349   0.282  12.202 -0.7307 -0.5352  0.1753
 5298SOL    HW227357   1.475   0.223  12.172  0.0170 -2.6450 -0.2759
 5299SOL     OW27358   2.468   3.120   7.757 -0.2712 -0.9768  0.3537
 5299SOL    HW127359   2.446   3.142   7.847 -0.0987  1.6178 -0.2416
 5299SOL    HW227360   2.427   3.033   7.757 -2.7166  0.1742  0.0550
 5300SOL     OW27361   1.975   2.312  13.325 -0.6369  0.0367 -0.7447
 5300SOL    HW127362   2.012   2.303  13.238 -0.8020 -3.1811 -0.5120
 5300SOL    HW227363   1.936   2.226  13.345  0.9601 -0.9837 -2.1084
 5301SOL     OW27364   0.765   0.146  10.392 -0.1611  0.3392 -0.4578
 5301SOL    HW127365   0.801   0.058  10.377 -0.0904  0.4075 -0.6973
 5301SOL    HW227366   0.717   0.128  10.472 -0.3926  0.0839 -0.6522
 5302SOL     OW27367   2.168   4.238   7.893  0.3039  0.0706 -0.8359
 5302SOL    HW127368   2.134   4.149   7.890 -1.1514  0.5252  2.5707
 5302SOL    HW227369   2.256   4.226   7.859  0.0150  0.1646 -1.6179
 5303SOL     OW27370   1.803   4.007   2.396  0.2087 -0.3238  0.3348
 5303SOL    HW127371   1.770   4.084   2.442 -0.6428  0.6519 -1.8962
 5303SOL    HW227372   1.894   4.021   2.422  0.3280 -0.4666 -0.0160
 5304SOL     OW27373   3.122   2.221   6.659 -0.1863  0.0957  0.2890
 5304SOL    HW127374   3.057   2.158   6.690 -0.2310 -0.9937 -2.0139
 5304SOL    HW227375   3.165   2.251   6.739  0.1502 -2.2910  1.0007
 5305SOL     OW27376   1.107   2.128   6.915  0.0016  0.2155  0.4856
 5305SOL    HW127377   1.134   2.136   7.007 -0.2169  3.0584  0.3301
 5305SOL    HW227378   1.063   2.213   6.903 -0.4471  0.3044  2.7032
 5306SOL     OW27379   2.054   4.521   4.368 -0.5187  0.3030 -0.3670
 5306SOL    HW127380   2.048   4.612   4.395  0.8475  0.6814 -1.3768
 5306SOL    HW227381   2.009   4.516   4.283 -0.5862 -2.2698 -0.1910
 5307SOL     OW27382   3.659   4.167   4.706 -0.5639  0.0183 -0.8340
 5307SOL    HW127383   3.681   4.191   4.796 -0.5003 -0.5275 -0.7050
 5307SOL    HW227384   3.694   4.247   4.668  1.2040  0.0484  0.8188
 5308SOL     OW27385   0.562   4.233   6.824  0.1977  0.4035 -0.5201
 5308SOL    HW127386   0.632   4.296   6.813  0.2744  0.5024  0.5172
 5308SOL    HW227387   0.483   4.288   6.818  1.4936  2.1187 -1.6394
 5309SOL     OW27388   3.671   1.425   5.103 -0.9982  0.5136  0.0926
 5309SOL    HW127389   3.651   1.467   5.186  1.0245 -1.1247  1.4066
 5309SOL    HW227390   3.730   1.354   5.129 -0.1792  2.0750  2.5398
 5310SOL     OW27391   3.582   1.877  15.453 -0.3748 -0.4872 -1.0702
 5310SOL    HW127392   3.647   1.886  15.382  2.0498 -0.0862  1.1856
 5310SOL    HW227393   3.575   1.968  15.484 -1.1490 -1.0773  0.4866
 5311SOL     OW27394   3.383   0.400   5.948  0.0922  0.6175  0.0903
 5311SOL    HW127395   3.458   0.439   5.905  0.2950  2.3428  2.0126
 5311SOL    HW227396   3.426   0.397   6.033  0.0867 -1.8121  0.0074
 5312SOL     OW27397   3.177   3.649   2.285 -0.0368 -0.0810  0.0721
 5312SOL    HW127398   3.182   3.699   2.203 -0.3717 -1.5011 -0.8113
 5312SOL    HW227399   3.268   3.633   2.307 -0.4014 -0.9722  0.9478
 5313SOL     OW27400   4.703   1.834   2.784  0.2163 -0.3118 -0.1250
 5313SOL    HW127401   4.678   1.892   2.713  1.3437 -0.3198 -0.5388
 5313SOL    HW227402   4.719   1.758   2.728 -0.8033 -1.8996  1.7311
 5314SOL     OW27403   4.366   1.745  15.954 -0.2003  0.4278  0.0807
 5314SOL    HW127404   4.329   1.731  16.041  2.2912  2.8068  1.5217
 5314SOL    HW227405   4.349   1.838  15.946  1.5481  0.9097  1.8673
 5315SOL     OW27406   3.158   1.289   7.813 -0.4265  0.3503 -0.0824
 5315SOL    HW127407   3.212   1.244   7.879  0.2137 -1.5705 -1.9210
 5315SOL    HW227408   3.140   1.215   7.755  0.5824  1.2209 -1.4766
 5316SOL     OW27409   1.303   0.756   9.342  0.0014  0.6271 -0.0549
 5316SOL    HW127410   1.300   0.817   9.268  2.6553  0.4211 -0.3506
 5316SOL    HW227411   1.269   0.672   9.312  1.4910 -0.3742  1.0640
 5317SOL     OW27412   3.006   2.771   9.747  0.1257 -0.2854 -0.0208
 5317SOL    HW127413   3.034   2.721   9.824  0.4834  0.6983  0.4915
 5317SOL    HW227414   3.079   2.748   9.689  0.7057  2.5759 -0.4186
 5318SOL     OW27415   1.374   1.047   3.049  0.0801 -0.0024  0.4072
 5318SOL    HW127416   1.340   1.095   2.974 -1.3508 -0.0352  1.0317
 5318SOL    HW227417   1.436   1.110   3.086  0.9536  0.6046 -2.0606
 5319SOL     OW27418   2.911   4.633  15.696 -0.0490  0.1259 -0.4033
 5319SOL    HW127419   2.947   4.599  15.614  0.2832  1.6183 -0.8648
 5319SOL    HW227420   2.939   4.722  15.676  0.6995 -0.2764 -1.1511
 5320SOL     OW27421   3.228   3.520   8.146  0.1690  0.0248 -0.5232
 5320SOL    HW127422   3.295   3.452   8.137 -0.9022 -1.1989  0.7356
 5320SOL    HW227423   3.174   3.489   8.219 -0.6004 -0.6932 -1.3770
 5321SOL     OW27424   1.048   2.561  17.201  0.5987 -0.6898 -0.3229
 5321SOL    HW127425   1.015   2.547  17.112  0.6420 -1.2074 -0.2572
 5321SOL    HW227426   1.143   2.569  17.187  0.4663  2.4069  0.7218
 5322SOL     OW27427   0.519   4.594   6.092 -0.0214  0.2656 -0.0441
 5322SOL    HW127428   0.452   4.602   6.024 -4.3452 -0.9039  4.0156
 5322SOL    HW227429   0.555   4.683   6.092 -2.6366  1.3314 -1.2484
 5323SOL     OW27430   2.534   0.847   5.256  0.9097  0.0699  0.2684
 5323SOL    HW127431   2.469   0.878   5.318  0.3278  1.3952 -1.0141
 5323SOL    HW227432   2.513   0.895   5.176 -1.4075  0.2826  1.0018
 5324SOL     OW27433   3.760   2.528   8.117 -0.2783  0.3554  0.0213
 5324SOL    HW127434   3.714   2.455   8.075  0.3769  0.9801 -1.7727
 5324SOL    HW227435   3.810   2.567   8.046  2.3449 -2.3136  0.4101
 5325SOL     OW27436   0.797   3.559  15.286  0.3790  0.1529 -0.3573
 5325SOL    HW127437   0.782   3.554  15.191 -0.4506 -1.6817 -0.1238
 5325SOL    HW227438   0.715   3.604  15.311  0.1973 -0.3119 -0.1208
 5326SOL     OW27439   3.109   2.759   6.933 -0.1948 -0.1447  0.2371
 5326SOL    HW127440   3.149   2.816   6.998  1.2064 -0.7887 -0.0682
 5326SOL    HW227441   3.069   2.820   6.871  1.5112  0.2924 -0.4297
 5327SOL     OW27442   1.833   2.628  16.430  0.1564 -0.1281  0.0403
 5327SOL    HW127443   1.802   2.700  16.375  2.4187  1.9948  1.5489
 5327SOL    HW227444   1.771   2.634  16.503 -0.3129  0.8304 -0.4308
 5328SOL     OW27445   2.855   2.069   5.018  0.4187 -0.3532  0.5703
 5328SOL    HW127446   2.937   2.037   4.980 -0.2911 -0.8065 -0.5689
 5328SOL    HW227447   2.812   1.985   5.034  0.4544 -0.3796  0.5280
 5329SOL     OW27448   1.348   3.157   5.275  0.0130 -0.0375 -0.2744
 5329SOL    HW127449   1.290   3.213   5.326 -1.2716  0.0022 -1.7997
 5329SOL    HW227450   1.343   3.202   5.191  0.2684  1.0502  0.2925
 5330SOL     OW27451   3.294   4.554   4.094 -0.1896  0.0952  0.0270
 5330SOL    HW127452   3.238   4.574   4.019  0.8980  1.8378 -0.3096
 5330SOL    HW227453   3.362   4.621   4.092 -1.6135  1.5254 -1.1395
 5331SOL     OW27454   3.736   0.101  11.838  0.1635  0.8687 -0.4336
 5331SOL    HW127455   3.761   0.107  11.745  0.7353 -2.2711 -0.5045
 5331SOL    HW227456   3.797   0.161  11.881  2.0765 -1.1310 -0.3499
 5332SOL     OW27457   3.177   2.345   7.406  0.2347 -0.3271 -0.4289
 5332SOL    HW127458   3.197   2.256   7.379 -0.6783 -0.6079 -0.1859
 5332SOL    HW227459   3.167   2.334   7.501  1.1102  1.2565 -0.1466
 5333SOL     OW27460   4.359   1.860   2.490 -0.4145  0.6137  0.2800
 5333SOL    HW127461   4.431   1.919   2.513  2.0745 -2.8598  1.4944
 5333SOL    HW227462   4.374   1.855   2.395  0.9990 -1.4417  0.6064
 5334SOL     OW27463   2.798   0.390  11.602  0.2643 -0.1119 -0.5482
 5334SOL    HW127464   2.804   0.481  11.634 -1.2910 -1.0064  2.2829
 5334SOL    HW227465   2.709   0.369  11.628  1.2050 -3.1629  0.2126
 5335SOL     OW27466   2.499   0.382   1.826  0.1646 -0.0197 -0.3934
 5335SOL    HW127467   2.567   0.358   1.889  2.4830  0.5055 -2.6848
 5335SOL    HW227468   2.550   0.437   1.766  1.8348  0.4497  1.4319
 5336SOL     OW27469   0.507   3.337   7.451  0.0100 -0.1312  0.3604
 5336SOL    HW127470   0.517   3.402   7.520  1.4374  1.0699 -0.9491
 5336SOL    HW227471   0.434   3.373   7.401 -0.4501 -0.0800  1.0752
 5337SOL     OW27472   0.635   3.237   5.819  0.8999  0.1441 -0.2596
 5337SOL    HW127473   0.611   3.287   5.741  0.2624  1.4143  0.7380
 5337SOL    HW227474   0.579   3.159   5.818  1.9623 -0.6771  3.5217
 5338SOL     OW27475   3.494   4.352   9.016  0.6299 -0.3396 -0.0937
 5338SOL    HW127476   3.403   4.324   9.026  0.3904 -0.0358 -1.3916
 5338SOL    HW227477   3.490   4.432   9.068 -1.8124 -0.1621 -0.5195
 5339SOL     OW27478   2.695   0.116  15.369  0.4514 -0.2674 -0.1485
 5339SOL    HW127479   2.761   0.103  15.300  0.1604 -0.7433 -0.3358
 5339SOL    HW227480   2.684   0.027  15.401 -0.1347 -0.0399  0.2795
 5340SOL     OW27481   2.951   2.546  16.088  0.1716 -0.6629 -0.2449
 5340SOL    HW127482   2.968   2.519  15.998 -2.7971 -0.1624 -0.9582
 5340SOL    HW227483   2.872   2.600  16.082 -0.0713 -1.3235 -2.9525
 5341SOL     OW27484   2.189   1.505   4.003  0.0595 -0.3481  0.2162
 5341SOL    HW127485   2.110   1.556   3.984  1.6656  1.5696 -1.3348
 5341SOL    HW227486   2.156   1.422   3.971  0.3356 -0.5452  0.4434
 5342SOL     OW27487   4.432   4.513   7.159 -0.0163 -0.0222 -0.3611
 5342SOL    HW127488   4.422   4.568   7.237  1.5044 -0.0471 -0.1504
 5342SOL    HW227489   4.391   4.561   7.088  0.8329  0.3982 -0.5729
 5343SOL     OW27490   0.645   1.982  16.957  0.0486 -0.0044  0.3473
 5343SOL    HW127491   0.738   1.960  16.951 -0.1171 -0.3721 -0.8694
 5343SOL    HW227492   0.619   1.947  16.872  1.0526  1.6111 -0.6126
 5344SOL     OW27493   0.348   0.331   5.481 -0.2588 -0.4348  0.6814
 5344SOL    HW127494   0.323   0.256   5.535  2.6666 -1.6788  0.2864
 5344SOL    HW227495   0.443   0.321   5.475 -0.5833 -2.9207 -0.3739
 5345SOL     OW27496   4.132   2.961   7.509  0.6461 -0.0567  0.1927
 5345SOL    HW127497   4.109   2.869   7.513 -2.0522  0.4980 -2.5057
 5345SOL    HW227498   4.185   2.967   7.588 -0.1381 -3.8609  0.9948
 5346SOL     OW27499   3.085   4.389  15.569  0.0210 -0.3738  0.8847
 5346SOL    HW127500   3.089   4.482  15.547  1.6337 -0.8129 -0.7803
 5346SOL    HW227501   3.178   4.377  15.588 -0.3155 -0.8578  2.1807
 5347SOL     OW27502   2.548   0.027  14.253  0.3498 -0.1341  0.7094
 5347SOL    HW127503   2.532   0.067  14.339 -1.0961 -0.1317  0.4473
 5347SOL    HW227504   2.496   0.086  14.198  0.6003  0.0478  0.6662
 5348SOL     OW27505   0.527   0.132  15.165 -0.0956 -0.1904 -0.0074
 5348SOL    HW127506   0.505   0.170  15.080  1.4311 -2.7731 -1.5652
 5348SOL    HW227507   0.609   0.173  15.192 -0.5774  1.4183 -1.0344
 5349SOL     OW27508   4.400   2.029   4.616  0.6889 -0.7202  0.1848
 5349SOL    HW127509   4.435   2.103   4.567  1.2322 -0.4897  0.9149
 5349SOL    HW227510   4.315   2.008   4.577  0.0429  3.6234 -0.7084
 5350SOL     OW27511   1.165   1.264   4.276 -0.1429  0.2921 -0.5997
 5350SOL    HW127512   1.224   1.200   4.237  1.2332  1.7777 -0.9781
 5350SOL    HW227513   1.209   1.347   4.254 -1.1636  0.4940 -1.9297
 5351SOL     OW27514   4.272   3.125   4.692  0.5809  0.2757  0.1239
 5351SOL    HW127515   4.333   3.130   4.618 -1.5128  2.7009 -1.4239
 5351SOL    HW227516   4.262   3.030   4.691 -0.2334  0.3173  4.2217
 5352SOL     OW27517   1.545   4.000   9.143  0.0853 -0.3208 -0.5203
 5352SOL    HW127518   1.470   4.006   9.084 -0.4250  1.2527  0.2908
 5352SOL    HW227519   1.512   4.060   9.209 -2.0189 -0.7498 -1.1721
 5353SOL     OW27520   1.442   4.712   2.188  0.1656 -0.0834  0.5072
 5353SOL    HW127521   1.460   0.015   2.278  1.3774  2.2682 -0.4525
 5353SOL    HW227522   1.359   4.664   2.191  2.1821 -3.3855  3.6678
 5354SOL     OW27523   3.970   0.887  11.458  0.2077  0.3779 -0.3952
 5354SOL    HW127524   4.060   0.897  11.487 -0.3640  0.2929  1.3848
 5354SOL    HW227525   3.975   0.830  11.381  2.5646 -0.1430  0.1382
 5355SOL     OW27526   1.805   1.574   2.171  0.2662 -0.2940  0.3489
 5355SOL    HW127527   1.867   1.638   2.205 -0.2507 -0.5014  1.6632
 5355SOL    HW227528   1.792   1.607   2.082 -1.5116 -0.2580  0.6164
 5356SOL     OW27529   2.873   4.005   1.767  0.1110 -0.0130  0.1769
 5356SOL    HW127530   2.805   4.062   1.733  0.4488  0.0716 -0.3587
 5356SOL    HW227531   2.952   4.052   1.741  0.8198 -0.9408  0.6100
 5357SOL     OW27532   2.787   4.088  13.734  0.4869 -0.4469  0.1484
 5357SOL    HW127533   2.766   4.022  13.801 -1.2563  0.3877  0.4274
 5357SOL    HW227534   2.823   4.155  13.792  0.8012 -0.5052  0.0213
 5358SOL     OW27535   0.996   4.033  16.508 -0.4904  0.0364 -0.2302
 5358SOL    HW127536   0.973   3.974  16.580 -3.0005 -1.0866 -1.9793
 5358SOL    HW227537   1.035   3.968  16.449 -0.0729 -0.1067  0.1954
 5359SOL     OW27538   1.820   3.221   4.708 -0.1619  0.2526 -0.1292
 5359SOL    HW127539   1.761   3.291   4.737 -1.2001  0.3745 -2.5479
 5359SOL    HW227540   1.760   3.188   4.640 -0.4848 -2.7448  1.5934
 5360SOL     OW27541   2.725   3.848   8.584 -0.3300 -0.3703 -0.1924
 5360SOL    HW127542   2.664   3.799   8.530  0.5289 -1.9960  0.2947
 5360SOL    HW227543   2.716   3.807   8.670  0.2348 -0.6773 -0.2773
 5361SOL     OW27544   0.887   2.110  11.694 -0.2914  0.5524 -0.0664
 5361SOL    HW127545   0.886   2.014  11.701 -0.3420  0.6305  1.0407
 5361SOL    HW227546   0.793   2.128  11.689 -0.4961  0.4776  3.5885
 5362SOL     OW27547   1.997   0.405  13.021 -0.1078 -0.5360 -0.4174
 5362SOL    HW127548   1.951   0.489  13.012  1.0708 -0.0082 -1.4588
 5362SOL    HW227549   2.068   0.429  13.080  0.5420 -0.2781 -1.3039
 5363SOL     OW27550   0.131   2.791  12.313 -0.3269  0.2911 -0.3279
 5363SOL    HW127551   0.134   2.757  12.223 -1.2608 -0.6754 -0.0034
 5363SOL    HW227552   0.051   2.740  12.323 -0.6617  0.7101 -0.8952
 5364SOL     OW27553   3.945   4.117  10.168 -0.5237 -0.4772  0.2946
 5364SOL    HW127554   3.974   4.054  10.234  1.0165  0.0459  0.1072
 5364SOL    HW227555   3.936   4.196  10.222 -1.5365  0.6534 -1.5175
 5365SOL     OW27556   1.051   4.498   7.468 -0.2739 -0.0700 -0.2371
 5365SOL    HW127557   1.102   4.440   7.412 -0.4389 -0.8080  0.3791
 5365SOL    HW227558   1.105   4.507   7.547 -1.5326 -0.4116  0.6663
 5366SOL     OW27559   3.407   0.398  11.345 -0.2946 -0.4315  0.1082
 5366SOL    HW127560   3.400   0.480  11.296  0.0082 -0.7157 -0.4175
 5366SOL    HW227561   3.503   0.399  11.343 -0.3281  1.4246 -1.0750
 5367SOL     OW27562   3.093   2.917   2.269 -0.3800  0.7185  0.2287
 5367SOL    HW127563   3.032   2.927   2.196 -0.9546 -1.5750  0.4169
 5367SOL    HW227564   3.036   2.885   2.339 -0.5472  1.1809  0.3073
 5368SOL     OW27565   0.849   3.959  13.986 -0.4921  1.0322 -0.1159
 5368SOL    HW127566   0.865   3.977  14.078 -0.0104 -1.2120  0.2376
 5368SOL    HW227567   0.892   4.035  13.948 -0.9554  2.4215  2.2087
 5369SOL     OW27568   1.276   4.318   5.546  0.9985  0.2880 -0.1960
 5369SOL    HW127569   1.337   4.271   5.604  0.4755 -0.3742 -0.1865
 5369SOL    HW227570   1.194   4.272   5.563  0.2942  1.7431  0.3981
 5370SOL     OW27571   0.564   4.306   8.298 -0.7793  0.5223  0.0363
 5370SOL    HW127572   0.601   4.365   8.364  0.1728  2.2639 -2.0601
 5370SOL    HW227573   0.593   4.223   8.335  2.5050  0.8063 -1.8546
 5371SOL     OW27574   4.068   2.515   2.655 -0.2027 -0.3499  0.0446
 5371SOL    HW127575   4.116   2.438   2.624  1.5942  1.0826 -0.7672
 5371SOL    HW227576   4.090   2.583   2.590  0.0096 -0.5390 -0.0846
 5372SOL     OW27577   3.446   3.060   4.482  0.4359  0.0722 -0.1540
 5372SOL    HW127578   3.427   3.105   4.400  2.2763 -1.1551 -1.2677
 5372SOL    HW227579   3.514   3.120   4.510  0.2129  1.0627 -1.7008
 5373SOL     OW27580   1.432   0.660  16.287  0.0150  0.7325  0.0996
 5373SOL    HW127581   1.500   0.721  16.317 -0.5355  1.0833  0.6219
 5373SOL    HW227582   1.483   0.579  16.284  0.0269  0.7032  1.3041
 5374SOL     OW27583   4.334   4.232   7.196 -0.1947  0.3939  0.4746
 5374SOL    HW127584   4.241   4.211   7.189  0.3975 -2.2568  0.3193
 5374SOL    HW227585   4.328   4.327   7.199  3.1484  0.5995  0.0274
 5375SOL     OW27586   3.969   4.057   8.928 -0.7432  0.3266 -0.3029
 5375SOL    HW127587   3.929   4.141   8.948 -0.6906  0.5144 -0.9756
 5375SOL    HW227588   4.027   4.037   9.001 -0.7057  1.1885 -0.1064
 5376SOL     OW27589   4.156   3.137   3.910 -0.7424 -0.5651 -0.1436
 5376SOL    HW127590   4.068   3.105   3.889 -1.3623  0.2573  1.1744
 5376SOL    HW227591   4.136   3.205   3.974  0.8678 -0.4975  0.2760
 5377SOL     OW27592   2.669   3.157   8.724 -0.1937  0.1475 -0.3250
 5377SOL    HW127593   2.729   3.175   8.796  0.0059  1.6621 -0.8770
 5377SOL    HW227594   2.715   3.101   8.661  0.7754 -0.0364  0.5539
 5378SOL     OW27595   3.809   2.077   2.063 -0.2153  0.1198 -0.6051
 5378SOL    HW127596   3.751   2.136   2.014  1.3497  0.9472 -1.4867
 5378SOL    HW227597   3.885   2.134   2.074  1.2979 -2.0386  0.1070
 5379SOL     OW27598   1.177   0.154   1.992  0.6686 -0.1242  0.7293
 5379SOL    HW127599   1.106   0.097   2.020 -0.9389  1.8424  0.6513
 5379SOL    HW227600   1.149   0.170   1.902  0.3895 -0.9531  0.6637
 5380SOL     OW27601   1.764   3.202   2.232 -0.0368  0.6087  0.1219
 5380SOL    HW127602   1.670   3.196   2.218  0.2834  1.6224 -2.3531
 5380SOL    HW227603   1.784   3.169   2.320  2.9956 -0.1826 -0.8833
 5381SOL     OW27604   2.179   2.264   5.671  0.0550 -0.2235 -0.2744
 5381SOL    HW127605   2.171   2.170   5.657 -3.0065 -0.2560  1.8116
 5381SOL    HW227606   2.209   2.301   5.588 -2.0162 -2.0175 -1.8368
 5382SOL     OW27607   4.055   2.821   4.109 -0.2499  0.1182 -0.6323
 5382SOL    HW127608   4.129   2.802   4.167 -0.2169 -0.5205 -0.8792
 5382SOL    HW227609   4.093   2.847   4.025  2.2548  1.4306  0.9024
 5383SOL     OW27610   4.241   3.270   6.418  0.1622 -0.4739  0.0384
 5383SOL    HW127611   4.248   3.183   6.379  0.3501 -1.0371  1.3534
 5383SOL    HW227612   4.263   3.322   6.341 -1.7158  0.7761  0.3340
 5384SOL     OW27613   1.791   3.018   8.677 -0.7729  0.0888  0.4635
 5384SOL    HW127614   1.724   2.980   8.620 -0.0613 -0.7858  0.2182
 5384SOL    HW227615   1.785   3.114   8.674 -0.5405  0.0882 -0.1831
 5385SOL     OW27616   2.696   3.362  12.127  0.2685  0.3987  0.2781
 5385SOL    HW127617   2.602   3.378  12.129  0.6029  2.3925 -0.7023
 5385SOL    HW227618   2.723   3.384  12.038  0.5704 -1.5277 -0.1150
 5386SOL     OW27619   2.465   0.776   1.865  0.3607  0.0831 -0.3638
 5386SOL    HW127620   2.540   0.811   1.816 -1.3676  1.7824 -1.7990
 5386SOL    HW227621   2.504   0.755   1.950 -3.6677 -1.7163  1.0396
 5387SOL     OW27622   4.525   2.069   2.928 -0.2601  0.1016 -0.2603
 5387SOL    HW127623   4.607   2.041   2.970  0.3918  1.3976 -0.6458
 5387SOL    HW227624   4.564   2.131   2.867 -1.4127  1.0532 -0.0309
 5388SOL     OW27625   2.921   1.024   1.346 -0.1692 -0.7765  0.3194
 5388SOL    HW127626   2.964   1.104   1.377 -2.5421 -0.1274  1.9382
 5388SOL    HW227627   2.892   1.036   1.256 -1.8063  0.0152  0.9645
 5389SOL     OW27628   1.497   3.721   8.343 -0.7407 -0.2728 -0.2241
 5389SOL    HW127629   1.587   3.714   8.375 -0.0082 -3.4524 -3.0072
 5389SOL    HW227630   1.464   3.631   8.352  0.4027 -0.5046  1.7253
 5390SOL     OW27631   0.640   0.867  11.770 -0.1127 -0.2066 -0.3379
 5390SOL    HW127632   0.619   0.774  11.772  0.0006 -0.1927  2.1059
 5390SOL    HW227633   0.566   0.909  11.815  0.7880  0.4118  0.5884
 5391SOL     OW27634   1.955   3.891   6.615  0.6019 -0.2530  0.4156
 5391SOL    HW127635   1.884   3.918   6.674 -1.0249 -1.3851 -1.0335
 5391SOL    HW227636   1.972   3.977   6.576 -1.2582  0.6568  1.6145
 5392SOL     OW27637   2.193   2.588   7.120  0.8762 -0.0917 -0.6149
 5392SOL    HW127638   2.159   2.631   7.199 -0.3867 -0.9822 -0.6693
 5392SOL    HW227639   2.246   2.514   7.149 -0.2741 -1.2353 -1.3975
 5393SOL     OW27640   4.475   0.103   8.299  0.4215 -0.6929  0.3439
 5393SOL    HW127641   4.421   0.173   8.262  1.1448 -1.1025 -1.5083
 5393SOL    HW227642   4.533   0.153   8.355 -0.4940  0.7663 -0.0105
 5394SOL     OW27643   4.685   2.804  10.919  0.0042 -0.1841 -0.0445
 5394SOL    HW127644   0.054   2.807  10.938  0.5968  0.1007 -2.9456
 5394SOL    HW227645   4.678   2.867  10.847 -3.0143 -0.2007  0.2408
 5395SOL     OW27646   3.043   3.345  15.367  0.6487 -0.2483  0.2717
 5395SOL    HW127647   3.090   3.297  15.299  1.9132  0.1094  0.8869
 5395SOL    HW227648   2.952   3.334  15.340  0.6341  1.2317 -0.3096
 5396SOL     OW27649   3.572   3.959   2.542  0.4715  1.0027 -0.2045
 5396SOL    HW127650   3.619   3.974   2.460  1.4258  1.7244  0.4801
 5396SOL    HW227651   3.509   4.030   2.531  0.1550  0.7723  0.1226
 5397SOL     OW27652   4.182   3.736   5.450 -0.6703 -0.6859  0.1545
 5397SOL    HW127653   4.102   3.782   5.475 -0.0597  1.2489 -1.4216
 5397SOL    HW227654   4.159   3.657   5.498 -0.1597 -0.4133  0.8604
 5398SOL     OW27655   1.638   0.769  10.629  0.3092  0.2769 -0.0265
 5398SOL    HW127656   1.613   0.809  10.712 -2.6007 -2.5067  0.4263
 5398SOL    HW227657   1.674   0.846  10.584 -0.8007  0.1813 -1.0578
 5399SOL     OW27658   3.551   2.740   7.476  0.1385 -0.3185 -0.3101
 5399SOL    HW127659   3.618   2.772   7.537 -1.9193  3.8459 -0.2785
 5399SOL    HW227660   3.481   2.732   7.541  0.3556 -2.0232 -0.2877
 5400SOL     OW27661   1.491   1.012   4.619 -0.0893 -0.3833 -0.1681
 5400SOL    HW127662   1.423   0.947   4.599  1.2482 -2.0036  0.6196
 5400SOL    HW227663   1.442   1.092   4.640 -0.3374 -0.3652 -0.8115
 5401SOL     OW27664   2.948   4.654  15.247  0.0661 -0.9194 -0.1809
 5401SOL    HW127665   2.891   4.683  15.176  0.0800  2.5032  1.1813
 5401SOL    HW227666   2.897   4.580  15.280 -0.2946 -0.1396  1.0198
 5402SOL     OW27667   3.260   3.181   4.794 -0.1674  1.1143  0.3460
 5402SOL    HW127668   3.251   3.160   4.887  2.2814 -0.8960  0.1496
 5402SOL    HW227669   3.344   3.137   4.779 -0.5741  0.3044  0.4203
 5403SOL     OW27670   2.763   1.497  13.832 -0.5596 -0.9919 -0.1259
 5403SOL    HW127671   2.674   1.521  13.858 -0.0525 -0.2130  0.8916
 5403SOL    HW227672   2.755   1.489  13.737  1.8712  1.9371 -0.5761
 5404SOL     OW27673   1.264   0.482   4.275 -0.1084  0.0153 -0.4264
 5404SOL    HW127674   1.209   0.405   4.290  1.0969 -1.1124 -1.7205
 5404SOL    HW227675   1.195   0.542   4.248 -0.7508 -0.4566  0.1593
 5405SOL     OW27676   2.135   3.884  15.833  0.1473  0.4802  0.1895
 5405SOL    HW127677   2.106   3.942  15.904 -1.0194 -0.3126  0.3590
 5405SOL    HW227678   2.147   3.944  15.759 -0.6237  1.4076  0.8196
 5406SOL     OW27679   4.415   3.103   4.458 -0.5132  0.0134 -0.5524
 5406SOL    HW127680   4.504   3.077   4.478 -0.2008  3.2489  2.2711
 5406SOL    HW227681   4.405   3.051   4.378  0.0714  1.5834 -1.6507
 5407SOL     OW27682   0.216   1.685  15.529  0.0244 -0.2773 -0.0645
 5407SOL    HW127683   0.195   1.759  15.586  2.2256  0.6565 -0.5002
 5407SOL    HW227684   0.126   1.658  15.509 -0.1842 -0.3531  0.9451
 5408SOL     OW27685   2.096   4.045   4.511 -0.1437 -0.4600  0.4417
 5408SOL    HW127686   2.077   4.130   4.548 -0.4347 -0.3211 -0.0282
 5408SOL    HW227687   2.095   4.058   4.416 -3.6878  1.0527  0.6953
 5409SOL     OW27688   0.160   1.849  15.120 -0.1638 -0.7975 -0.1840
 5409SOL    HW127689   0.247   1.829  15.154  0.1710  1.2158  0.1460
 5409SOL    HW227690   0.177   1.907  15.045  0.1927 -0.7788 -0.0917
 5410SOL     OW27691   2.458   2.456   0.637 -0.3963 -0.3527 -0.0409
 5410SOL    HW127692   2.528   2.398   0.666 -0.2038  0.0799  0.3621
 5410SOL    HW227693   2.421   2.482   0.721 -4.0520  1.0374 -2.1071
 5411SOL     OW27694   1.967   3.008  11.348  0.2557  0.0625  0.3834
 5411SOL    HW127695   1.914   3.070  11.299  1.3116 -1.0848 -2.2297
 5411SOL    HW227696   1.908   2.992  11.421 -0.9832  0.4188 -0.5458
 5412SOL     OW27697   1.118   1.629   4.859 -0.3847  0.1102 -0.4810
 5412SOL    HW127698   1.056   1.656   4.791 -2.2172  1.6509  1.8061
 5412SOL    HW227699   1.109   1.536   4.877 -1.5386  0.5040  0.9428
 5413SOL     OW27700   3.970   1.801   3.007  0.0192 -0.0467 -0.5219
 5413SOL    HW127701   3.904   1.736   2.983 -1.0264 -0.0458  2.4537
 5413SOL    HW227702   4.054   1.760   2.985 -0.2565  0.3718 -2.3993
 5414SOL     OW27703   0.649   0.741   2.550  0.0328  0.0531 -0.2096
 5414SOL    HW127704   0.563   0.704   2.529 -0.2776  0.7833 -0.2362
 5414SOL    HW227705   0.664   0.711   2.639  1.0899 -0.2587 -0.4969
 5415SOL     OW27706   1.893   4.496   5.883  0.2927 -0.6160 -0.3023
 5415SOL    HW127707   1.830   4.558   5.919  1.3480 -0.5771  1.4901
 5415SOL    HW227708   1.957   4.518   5.951 -0.4710  0.4065  0.0907
 5416SOL     OW27709   3.135   2.819   8.891  0.2485 -1.2440  0.6035
 5416SOL    HW127710   3.200   2.823   8.820 -1.8023  0.3482 -1.1670
 5416SOL    HW227711   3.075   2.886   8.861 -0.6625 -2.4196 -0.2076
 5417SOL     OW27712   0.775   2.980   4.421  0.3213 -0.1709  0.1722
 5417SOL    HW127713   0.756   2.927   4.498 -0.8855 -1.6957 -1.1530
 5417SOL    HW227714   0.868   2.995   4.435  0.3786 -0.5455  0.1884
 5418SOL     OW27715   2.290   0.729   8.032  0.3249  0.2194 -0.2808
 5418SOL    HW127716   2.287   0.820   8.000  3.1614  0.5918  0.5689
 5418SOL    HW227717   2.197   0.714   8.012  0.3318 -0.4120  0.1877
 5419SOL     OW27718   2.054   0.054   6.338 -0.1416 -0.4274  0.2997
 5419SOL    HW127719   2.074   0.142   6.306  0.9166 -0.9863 -0.5907
 5419SOL    HW227720   1.959   0.054   6.332 -0.0886 -1.9771 -0.6085
 5420SOL     OW27721   3.186   3.644   5.651 -0.4977  0.5212  0.1911
 5420SOL    HW127722   3.278   3.639   5.676 -0.4538  3.2743  0.5530
 5420SOL    HW227723   3.175   3.731   5.690 -2.9193 -0.6157  2.0606
 5421SOL     OW27724   4.503   4.069   5.065 -0.2393  0.4625  0.7235
 5421SOL    HW127725   4.472   4.030   5.146 -1.7764 -2.9188 -1.4849
 5421SOL    HW227726   4.591   4.035   5.079 -1.5008 -2.5190  1.4453
 5422SOL     OW27727   1.598   1.160  11.416 -0.4807  0.1211  0.5281
 5422SOL    HW127728   1.609   1.251  11.443 -1.7969  1.1299 -2.3417
 5422SOL    HW227729   1.508   1.140  11.441 -0.1284  2.0512  3.3353
 5423SOL     OW27730   1.286   0.350   8.693  0.3817 -0.3652 -0.3304
 5423SOL    HW127731   1.207   0.298   8.709  0.9944 -1.2277 -0.1617
 5423SOL    HW227732   1.244   0.432   8.664 -0.4630 -0.9464 -0.7477
 5424SOL     OW27733   0.656   3.483  15.583  0.1017  0.5534 -0.4052
 5424SOL    HW127734   0.717   3.552  15.611 -0.4068  1.3211 -1.1985
 5424SOL    HW227735   0.585   3.546  15.570 -1.7144 -1.5214 -0.5606
 5425SOL     OW27736   0.941   0.456   5.541 -0.6628  0.1771  0.5248
 5425SOL    HW127737   0.862   0.510   5.547  0.7489  2.2190  0.5836
 5425SOL    HW227738   0.936   0.416   5.454 -0.9768 -2.1624  1.6191
 5426SOL     OW27739   2.887   0.580   7.898  0.0526 -0.0101  0.5003
 5426SOL    HW127740   2.847   0.616   7.978 -1.5034  0.6629 -0.5875
 5426SOL    HW227741   2.975   0.566   7.934  0.5932 -0.6594 -1.0928
 5427SOL     OW27742   1.837   0.633   1.607 -0.1815  0.3240 -0.1679
 5427SOL    HW127743   1.755   0.644   1.656  0.9528 -1.0051  2.0186
 5427SOL    HW227744   1.897   0.626   1.681  0.1040  0.1230 -0.4152
 5428SOL     OW27745   4.350   4.657  10.819 -0.0653 -0.0398  0.4296
 5428SOL    HW127746   4.375   4.571  10.854  1.6304  0.5965  0.8040
 5428SOL    HW227747   4.274   4.633  10.767  0.0693  0.7716 -0.1297
 5429SOL     OW27748   3.694   0.825   1.471  0.5792  0.2333 -0.1640
 5429SOL    HW127749   3.682   0.731   1.481 -0.6377  0.6367  2.0105
 5429SOL    HW227750   3.686   0.823   1.375  0.6235  1.0695 -0.1879
 5430SOL     OW27751   1.029   2.096   5.318  0.3108  0.0983 -0.2487
 5430SOL    HW127752   1.117   2.107   5.353 -0.4443 -2.6535  2.5016
 5430SOL    HW227753   0.996   2.185   5.330  1.3106  0.5607 -0.8808
 5431SOL     OW27754   1.678   0.517  10.405  1.0412  0.2669 -0.4143
 5431SOL    HW127755   1.601   0.568  10.380  0.4282 -1.0581 -1.2737
 5431SOL    HW227756   1.753   0.576  10.407 -0.2865  1.9833 -1.5946
 5432SOL     OW27757   3.627   0.789   3.880  0.5206 -0.0768  0.4483
 5432SOL    HW127758   3.627   0.755   3.969 -1.9409  0.3439  0.6135
 5432SOL    HW227759   3.691   0.735   3.834 -1.7037  0.4781 -3.3400
 5433SOL     OW27760   3.682   0.276   6.589 -0.0555 -0.3817 -0.3127
 5433SOL    HW127761   3.729   0.359   6.584  0.6630 -0.7465  0.5200
 5433SOL    HW227762   3.652   0.291   6.678  0.1526 -0.6823 -0.1936
 5434SOL     OW27763   4.675   3.193  10.193 -0.1449 -0.0505 -0.4190
 5434SOL    HW127764   0.012   3.130  10.158  1.8622  0.7519  1.6548
 5434SOL    HW227765   4.713   3.274  10.159 -2.0136  0.7306 -0.6670
 5435SOL     OW27766   0.062   1.244   5.665  0.1822  0.0117  0.3516
 5435SOL    HW127767   0.047   1.175   5.600 -1.9738  1.4797 -0.7049
 5435SOL    HW227768   0.155   1.249   5.647 -0.4434 -0.5178 -2.9608
 5436SOL     OW27769   4.236   4.413   9.343  0.4058 -0.4264  0.1396
 5436SOL    HW127770   4.164   4.472   9.366 -0.1092  0.0595 -2.6774
 5436SOL    HW227771   4.189   4.331   9.354  0.0577 -0.2095  0.2788
 5437SOL     OW27772   3.168   0.340   4.870  0.0416 -0.2361 -0.6588
 5437SOL    HW127773   3.075   0.330   4.893  0.1120 -0.8868 -0.6748
 5437SOL    HW227774   3.210   0.296   4.944 -0.6094  0.0388 -0.1239
 5438SOL     OW27775   3.788   2.008   8.067  0.2458  0.0096  0.1077
 5438SOL    HW127776   3.791   1.922   8.110  0.0840 -0.4120 -0.7187
 5438SOL    HW227777   3.759   1.985   7.979 -3.6616 -0.4960  1.5089
 5439SOL     OW27778   4.434   0.369   8.946 -0.0382  0.4052 -0.6437
 5439SOL    HW127779   4.381   0.354   9.024  0.3386 -0.1144 -0.4892
 5439SOL    HW227780   4.448   0.464   8.943  2.9343 -0.0036  0.3296
 5440SOL     OW27781   3.065   4.476   0.979  0.1121 -0.1646  1.0095
 5440SOL    HW127782   2.993   4.432   0.933  1.8224 -0.2370 -1.6018
 5440SOL    HW227783   3.008   4.549   1.003  0.1600 -0.8579  3.2547
 5441SOL     OW27784   3.325   3.790  10.507 -0.0485 -0.7275 -0.1951
 5441SOL    HW127785   3.393   3.755  10.564 -0.4923 -0.1449  0.7037
 5441SOL    HW227786   3.273   3.710  10.499  0.4785 -0.9145 -1.6772
 5442SOL     OW27787   1.839   2.674   3.463  0.4154  0.2757 -0.2765
 5442SOL    HW127788   1.812   2.710   3.547 -2.6358 -1.1298 -0.6599
 5442SOL    HW227789   1.920   2.625   3.479 -0.3698 -0.8964  0.1456
 5443SOL     OW27790   2.153   1.627   3.291 -0.7169 -0.2502  0.6009
 5443SOL    HW127791   2.092   1.631   3.217  2.6532  1.0558 -2.1015
 5443SOL    HW227792   2.123   1.547   3.335 -2.2126  0.1324  0.2709
 5444SOL     OW27793   0.841   2.836   9.434 -0.1422 -0.0732  0.0244
 5444SOL    HW127794   0.775   2.785   9.387  0.6799 -2.5060  1.4631
 5444SOL    HW227795   0.896   2.873   9.365  0.7683 -2.7808 -0.7358
 5445SOL     OW27796   2.497   2.783   1.518  0.9527 -0.3887  0.8892
 5445SOL    HW127797   2.523   2.871   1.543  0.0178 -0.4500  2.0612
 5445SOL    HW227798   2.480   2.757   1.608 -0.1512 -0.9412  0.5292
 5446SOL     OW27799   4.144   4.425   7.038  0.0440  0.0573 -0.2784
 5446SOL    HW127800   4.051   4.415   7.059 -0.0118  0.3071 -0.4061
 5446SOL    HW227801   4.152   4.355   6.974 -1.9249 -1.6792  1.3560
 5447SOL     OW27802   0.405   2.857   2.108 -0.0399  0.0844 -0.9297
 5447SOL    HW127803   0.434   2.926   2.168 -2.6180 -0.5887  1.0797
 5447SOL    HW227804   0.488   2.810   2.101  0.7954  1.0817  1.9845
 5448SOL     OW27805   2.521   2.389   1.464  0.2169 -0.4129 -0.2260
 5448SOL    HW127806   2.557   2.346   1.542 -0.1905 -0.6403 -0.1622
 5448SOL    HW227807   2.558   2.473   1.490 -1.2102 -0.1015  0.7719
 5449SOL     OW27808   4.482   2.986   4.208  0.4498 -0.5528 -0.2369
 5449SOL    HW127809   4.577   2.995   4.210  0.3639 -0.0804  2.3294
 5449SOL    HW227810   4.456   3.019   4.122 -2.0671 -1.0346  0.3362
 5450SOL     OW27811   2.628   0.882   4.835  0.4948  0.2976 -0.0991
 5450SOL    HW127812   2.547   0.886   4.886  1.0722  1.5846  0.7140
 5450SOL    HW227813   2.691   0.829   4.884 -0.3891  1.0255  1.8024
 5451SOL     OW27814   3.931   1.321   8.776  0.6009  0.2890  0.0035
 5451SOL    HW127815   3.955   1.233   8.804  0.3092  0.9794  2.4638
 5451SOL    HW227816   3.851   1.319   8.724  0.0422  0.2357  0.8686
 5452SOL     OW27817   0.039   2.759   4.165 -0.4243  0.3998 -0.3234
 5452SOL    HW127818   4.671   2.732   4.162 -0.0951 -0.9212  1.8108
 5452SOL    HW227819   0.096   2.682   4.160 -0.2211  0.5983 -1.1110
 5453SOL     OW27820   4.025   1.295   9.681  0.5671  0.4074 -0.2212
 5453SOL    HW127821   3.959   1.232   9.708  2.5192 -0.7824  1.7555
 5453SOL    HW227822   3.983   1.372   9.719  1.2409 -0.4237  2.1807
 5454SOL     OW27823   2.820   2.595   8.340  0.3245  0.7256  0.5799
 5454SOL    HW127824   2.732   2.559   8.350  1.4056 -1.6232  1.5737
 5454SOL    HW227825   2.829   2.649   8.419  1.3429 -1.1988  1.8058
 5455SOL     OW27826   4.089   0.611   2.118 -0.0021 -0.5259 -0.0410
 5455SOL    HW127827   4.025   0.543   2.100 -1.8782  1.2699 -0.1503
 5455SOL    HW227828   4.047   0.694   2.097 -0.2099 -0.5844  0.1557
 5456SOL     OW27829   1.167   3.170  10.767  0.0709 -0.2788  0.3070
 5456SOL    HW127830   1.242   3.198  10.715  0.1029 -1.0394 -0.0611
 5456SOL    HW227831   1.121   3.105  10.713 -1.0243  0.8280 -0.0960
 5457SOL     OW27832   2.595   2.763   2.325  0.0045  0.4995 -0.9583
 5457SOL    HW127833   2.622   2.675   2.351 -0.0049  0.9541  0.6052
 5457SOL    HW227834   2.531   2.743   2.257  0.5508  2.0350 -1.9293
 5458SOL     OW27835   3.029   1.901   7.405 -0.4672 -0.1310 -0.3027
 5458SOL    HW127836   3.120   1.930   7.411 -0.7406  0.6961 -0.1202
 5458SOL    HW227837   3.000   1.960   7.336 -2.0517 -1.3823 -0.6900
 5459SOL     OW27838   4.498   2.218  13.016 -0.8925  0.4708  0.0089
 5459SOL    HW127839   4.538   2.158  13.079  1.0081  2.5575  0.7974
 5459SOL    HW227840   4.539   2.187  12.935 -0.8259  0.0044  0.2203
 5460SOL     OW27841   0.501   0.985  14.185 -0.3155 -0.3077  0.6197
 5460SOL    HW127842   0.471   1.000  14.096  0.0824  2.4563  0.9516
 5460SOL    HW227843   0.558   1.059  14.205  1.4432 -0.9221 -2.1783
 5461SOL     OW27844   4.707   2.630   4.752 -0.0009  0.1045 -0.8950
 5461SOL    HW127845   4.681   2.544   4.785  0.6677  0.1824 -0.1793
 5461SOL    HW227846   0.057   2.655   4.807 -1.1209  2.4012 -0.4482
 5462SOL     OW27847   1.483   2.916   5.959  0.0998 -0.7752 -0.6140
 5462SOL    HW127848   1.473   2.960   5.875 -0.1171 -1.4070 -0.9209
 5462SOL    HW227849   1.559   2.859   5.944  1.9146  1.4930  0.0157
 5463SOL     OW27850   4.001   2.403   3.748  0.3986 -0.9535  0.1716
 5463SOL    HW127851   4.006   2.356   3.831 -0.6635 -2.8195 -0.8408
 5463SOL    HW227852   4.050   2.343   3.692  0.9174 -0.0460 -0.3548
 5464SOL     OW27853   1.029   1.566   1.086 -0.3239 -0.3594  0.8765
 5464SOL    HW127854   0.949   1.518   1.063  0.4963 -1.1964 -0.2763
 5464SOL    HW227855   1.007   1.632   1.151  0.6314 -0.8433  1.6970
 5465SOL     OW27856   2.717   0.778   7.311  0.6564  0.5386  0.7832
 5465SOL    HW127857   2.721   0.857   7.365 -0.0950  2.8689 -2.5480
 5465SOL    HW227858   2.675   0.717   7.372  1.8085 -0.9954  0.0625
 5466SOL     OW27859   1.293   1.399   9.249 -0.3393 -0.1643  0.3556
 5466SOL    HW127860   1.352   1.345   9.303 -0.4328 -0.1856  0.4347
 5466SOL    HW227861   1.222   1.339   9.226  0.2791 -0.8083  0.1011
 5467SOL     OW27862   4.363   1.146  14.709  0.1957 -0.4119  0.1204
 5467SOL    HW127863   4.337   1.098  14.788 -0.8252  0.0757  0.0831
 5467SOL    HW227864   4.369   1.229  14.755 -0.0989 -0.2764 -0.0831
 5468SOL     OW27865   0.164   3.482  12.657 -0.2465  0.1748  0.2209
 5468SOL    HW127866   0.197   3.537  12.728 -1.7806 -1.3865  2.1750
 5468SOL    HW227867   0.145   3.410  12.717  1.0463  0.8146  1.3879
 5469SOL     OW27868   3.385   2.046   8.614 -0.0987 -0.0923 -0.3279
 5469SOL    HW127869   3.463   2.005   8.575 -0.7780 -0.5436 -1.2098
 5469SOL    HW227870   3.416   2.135   8.626  2.0794 -0.7953 -0.6447
 5470SOL     OW27871   2.106   3.411   9.204 -0.1276  0.1982 -0.2394
 5470SOL    HW127872   2.071   3.378   9.287  1.7565  0.9914  0.8667
 5470SOL    HW227873   2.190   3.454   9.219 -0.6308  1.1322 -0.0832
 5471SOL     OW27874   3.757   1.321  11.305  0.0035 -0.2045 -0.1385
 5471SOL    HW127875   3.668   1.344  11.330  0.1616 -0.3993  0.5874
 5471SOL    HW227876   3.789   1.270  11.379 -0.5586  0.2276  0.3905
 5472SOL     OW27877   0.147   4.355   2.508 -0.2864  0.3168  0.5199
 5472SOL    HW127878   0.207   4.370   2.435  0.9477 -1.5620  1.1520
 5472SOL    HW227879   0.150   4.429   2.569  0.3026 -0.7648  1.8012
 5473SOL     OW27880   1.212   2.620   8.574 -0.1444 -0.5836 -0.2456
 5473SOL    HW127881   1.231   2.534   8.608  2.1670  0.0253 -0.0408
 5473SOL    HW227882   1.304   2.637   8.554 -0.1182 -1.1211 -0.5559
 5474SOL     OW27883   2.091   0.234  17.536 -0.3745 -0.6427 -0.2726
 5474SOL    HW127884   2.085   0.218  17.630  0.3238 -0.5533 -0.2177
 5474SOL    HW227885   2.094   0.330  17.537  0.1462 -0.6225 -2.2874
 5475SOL     OW27886   3.893   4.609   3.640  0.5845  0.6942 -0.2913
 5475SOL    HW127887   3.961   4.662   3.682  1.0401 -2.0682  2.4263
 5475SOL    HW227888   3.950   4.591   3.566  0.4216  0.7109 -0.4220
 5476SOL     OW27889   3.106   0.613  15.852 -0.0417  0.1496 -0.7530
 5476SOL    HW127890   3.164   0.643  15.923 -2.0113  1.1900  0.4149
 5476SOL    HW227891   3.087   0.526  15.885 -0.4924  0.3599 -0.4596
 5477SOL     OW27892   4.059   0.891  16.893 -0.2474  0.2888 -0.3528
 5477SOL    HW127893   4.042   0.808  16.938 -3.2690  0.8392 -0.4403
 5477SOL    HW227894   3.983   0.946  16.913 -1.7139 -1.3067 -1.5004
 5478SOL     OW27895   2.529   4.046   3.304  0.1225 -0.0666  0.0473
 5478SOL    HW127896   2.600   3.993   3.341  0.4285  0.3491  0.0481
 5478SOL    HW227897   2.481   4.074   3.382 -0.0362 -0.6783  0.1679
 5479SOL     OW27898   0.146   3.532   5.033 -0.1595  0.3800 -0.1750
 5479SOL    HW127899   0.055   3.513   5.055 -0.9531  2.2918 -1.7624
 5479SOL    HW227900   0.137   3.573   4.947 -0.0784 -1.4571 -1.0610
 5480SOL     OW27901   1.437   0.233   4.979 -0.2163  0.2158 -0.0448
 5480SOL    HW127902   1.402   0.263   4.895  1.6973 -0.8835 -1.2542
 5480SOL    HW227903   1.529   0.222   4.955  0.3159  0.3662  1.8912
 5481SOL     OW27904   3.068   2.028   8.297 -0.4966  0.6245  0.4427
 5481SOL    HW127905   3.055   2.056   8.207  1.7132  0.9557  0.2264
 5481SOL    HW227906   3.128   1.955   8.280 -1.0682 -0.1514  1.7141
 5482SOL     OW27907   2.945   0.748   5.930  0.0608  0.1251 -0.2964
 5482SOL    HW127908   2.995   0.811   5.983 -0.0310  1.3865 -1.7028
 5482SOL    HW227909   2.940   0.675   5.991  0.8625  0.4642  0.1811
 5483SOL     OW27910   2.832   1.839  14.077 -0.4231  0.0100 -0.5476
 5483SOL    HW127911   2.834   1.759  14.129  1.0975 -0.0774 -0.7395
 5483SOL    HW227912   2.925   1.843  14.056 -0.6649 -3.3597 -2.1590
 5484SOL     OW27913   0.113   3.477   5.497 -0.5365  0.8273 -0.4379
 5484SOL    HW127914   0.103   3.411   5.428  1.7395 -1.2455  1.2054
 5484SOL    HW227915   0.041   3.446   5.552 -1.1921  2.8376 -0.1628
 5485SOL     OW27916   4.677   0.042   0.643  0.3771  0.1825  0.2871
 5485SOL    HW127917   4.671   0.067   0.551  0.2395 -0.1628  0.2027
 5485SOL    HW227918   4.614   4.695   0.643 -0.1597  0.6535  1.3823
 5486SOL     OW27919   4.113   1.492   9.924 -0.6898 -0.6051  0.2942
 5486SOL    HW127920   4.170   1.549   9.873  0.7461  0.1105  2.7510
 5486SOL    HW227921   4.034   1.518   9.875  0.1198  1.6205  0.1942
 5487SOL     OW27922   4.456   3.649   6.081  0.1779 -0.2760 -0.4028
 5487SOL    HW127923   4.465   3.677   6.172 -1.0518 -0.7112 -0.1446
 5487SOL    HW227924   4.523   3.707   6.047 -0.9562  0.6328 -1.1001
 5488SOL     OW27925   2.999   1.445   1.357  0.4308  0.3257 -0.5690
 5488SOL    HW127926   2.905   1.450   1.345  0.2213 -1.9503  0.1686
 5488SOL    HW227927   3.023   1.530   1.319 -0.0671  0.7703  0.1117
 5489SOL     OW27928   3.045   3.332   2.777 -0.3896 -0.2275  0.1576
 5489SOL    HW127929   3.125   3.281   2.770  0.7621  1.3534  2.0544
 5489SOL    HW227930   3.089   3.416   2.769 -0.2614 -0.2809  0.3062
 5490SOL     OW27931   4.419   2.902   9.378  0.3420  0.2001 -0.3084
 5490SOL    HW127932   4.440   2.980   9.429  0.3979  0.5706 -0.9011
 5490SOL    HW227933   4.339   2.876   9.424 -0.1744  1.2986 -0.5749
 5491SOL     OW27934   3.079   1.667   6.089 -0.3334 -0.2233 -0.4787
 5491SOL    HW127935   3.071   1.740   6.151 -3.5719  1.1184 -2.4883
 5491SOL    HW227936   3.075   1.705   6.001 -0.8999  0.5536 -0.1155
 5492SOL     OW27937   2.956   4.058   9.312  0.5945 -0.5275  0.2414
 5492SOL    HW127938   2.897   3.985   9.294  0.3853 -0.8837  2.3721
 5492SOL    HW227939   2.905   4.132   9.280  0.7018 -1.0479 -1.1704
 5493SOL     OW27940   2.310   3.619  11.735 -0.2226  0.5519 -0.6333
 5493SOL    HW127941   2.296   3.658  11.648  2.6603  0.6411 -1.0561
 5493SOL    HW227942   2.276   3.686  11.795  1.1284 -0.8736  1.6695
 5494SOL     OW27943   1.875   1.466   8.160  0.1483 -0.2932  0.2626
 5494SOL    HW127944   1.830   1.439   8.080 -1.5963  0.9929  0.8101
 5494SOL    HW227945   1.847   1.397   8.220  1.1196  0.5180  1.6460
 5495SOL     OW27946   2.805   4.550   6.213  0.2144  0.0896 -0.1473
 5495SOL    HW127947   2.846   4.573   6.130 -0.8641  1.6940 -0.2413
 5495SOL    HW227948   2.790   4.636   6.252 -1.9161 -1.0663  1.5766
 5496SOL     OW27949   3.818   0.984  11.002  0.1770 -0.0743 -0.4364
 5496SOL    HW127950   3.906   0.976  11.039 -1.1574 -2.5559  2.2088
 5496SOL    HW227951   3.779   0.902  11.030  0.1223  0.2592  0.4649
 5497SOL     OW27952   1.250   0.466  11.802  0.3448  0.2204 -0.0286
 5497SOL    HW127953   1.165   0.441  11.839  0.0256  0.8117 -0.3566
 5497SOL    HW227954   1.223   0.550  11.765  0.7574 -0.7052 -2.4725
 5498SOL     OW27955   0.065   0.551   4.016  0.0949 -0.3089  0.0386
 5498SOL    HW127956   0.063   0.459   4.042 -1.2166 -0.7067 -1.5225
 5498SOL    HW227957   0.115   0.587   4.089 -2.9022  0.4096  1.7686
 5499SOL     OW27958   2.924   1.696   2.963  0.2764 -0.0473 -0.6972
 5499SOL    HW127959   2.909   1.611   2.922  0.8521 -0.3489 -0.2914
 5499SOL    HW227960   2.985   1.725   2.895 -1.3711 -0.8032 -2.4824
 5500SOL     OW27961   3.784   1.819   2.555  0.2094  0.9099  0.1256
 5500SOL    HW127962   3.832   1.879   2.612 -0.5062 -0.5276  2.2615
 5500SOL    HW227963   3.820   1.734   2.580  0.7795  1.5949  1.6616
 5501SOL     OW27964   0.989   1.779   1.310  0.4128  0.3772  0.7348
 5501SOL    HW127965   0.979   1.712   1.377 -0.2668  1.0017  1.2612
 5501SOL    HW227966   1.006   1.859   1.359 -0.2987  0.4565  0.8508
 5502SOL     OW27967   4.350   1.438   5.116  0.2734  0.1845 -0.7741
 5502SOL    HW127968   4.356   1.424   5.210  0.7467  0.4964 -0.7554
 5502SOL    HW227969   4.261   1.468   5.098 -0.1406 -0.1168  0.7648
 5503SOL     OW27970   0.004   1.894   9.952 -0.1573  0.1018  0.1207
 5503SOL    HW127971   0.010   1.916   9.859  1.0933 -3.4576 -0.6442
 5503SOL    HW227972   0.083   1.843   9.966 -0.7254 -0.4853  1.2308
 5504SOL     OW27973   0.986   2.766   1.259 -0.3708  0.3290  0.6632
 5504SOL    HW127974   1.008   2.687   1.309  1.2800 -0.0540 -0.6655
 5504SOL    HW227975   0.971   2.728   1.173  2.3212  1.3366 -0.2559
 5505SOL     OW27976   1.904   3.227  11.148  0.5410  0.0586  0.1681
 5505SOL    HW127977   1.907   3.322  11.150 -1.2787  0.0821  1.3277
 5505SOL    HW227978   1.809   3.213  11.144  0.8015 -1.2240 -1.4342
 5506SOL     OW27979   2.850   3.432   7.541  0.3316 -0.0341  0.0290
 5506SOL    HW127980   2.808   3.412   7.625 -1.9918  4.9121  0.0600
 5506SOL    HW227981   2.816   3.368   7.479  2.2484 -1.7539  0.7695
 5507SOL     OW27982   1.213   1.228   2.909 -0.0197 -0.0802 -0.2238
 5507SOL    HW127983   1.150   1.159   2.891  1.5287 -2.0156  1.7792
 5507SOL    HW227984   1.233   1.264   2.823  0.3934 -2.1387 -0.9813
 5508SOL     OW27985   0.137   3.582   3.165 -0.1474  0.7240  0.0591
 5508SOL    HW127986   0.214   3.570   3.109 -1.0804  1.4052 -1.3617
 5508SOL    HW227987   0.077   3.517   3.130  1.7381 -0.5395 -0.8056
 5509SOL     OW27988   0.949   4.616  17.229  0.5543 -0.0409 -0.2720
 5509SOL    HW127989   0.925   4.649  17.142  1.9583 -2.3901 -1.5398
 5509SOL    HW227990   0.969   4.703  17.265 -2.0285  0.2980  0.3938
 5510SOL     OW27991   0.941   1.806   5.514 -0.3966 -0.6000  0.2966
 5510SOL    HW127992   0.941   1.754   5.594 -0.1400 -0.8169  0.1575
 5510SOL    HW227993   1.017   1.862   5.531  0.0544 -0.2770 -2.6119
 5511SOL     OW27994   4.112   3.538   7.443 -0.3293  0.2670 -0.0490
 5511SOL    HW127995   4.126   3.589   7.363  0.4034 -1.5322 -1.0555
 5511SOL    HW227996   4.036   3.590   7.471  0.0629  0.9989 -0.3529
 5512SOL     OW27997   4.469   0.305   3.485  0.0954  0.0544 -0.4916
 5512SOL    HW127998   4.562   0.324   3.473  0.5244 -0.8413  1.3682
 5512SOL    HW227999   4.427   0.356   3.416 -2.0810 -1.6562 -0.4414
 5513SOL     OW28000   0.925   0.186   8.155  0.1647 -0.1587 -0.4660
 5513SOL    HW128001   0.904   0.275   8.126  0.3706 -0.4614 -1.5605
 5513SOL    HW228002   0.984   0.200   8.229  1.2146  2.3946 -1.7599
 5514SOL     OW28003   3.013   3.866   6.308 -0.1589  0.3331 -0.3520
 5514SOL    HW128004   3.050   3.939   6.258 -0.4524  1.1546  0.6373
 5514SOL    HW228005   2.959   3.819   6.244  0.1642 -1.1073  0.4206
 5515SOL     OW28006   2.335   4.295   7.030 -0.6911 -0.1724 -0.3465
 5515SOL    HW128007   2.397   4.360   6.999 -1.2658  0.6307  0.1902
 5515SOL    HW228008   2.391   4.217   7.031  2.3422  2.0171 -0.8975
 5516SOL     OW28009   0.917   0.665   5.030 -0.4418 -0.3084 -1.0248
 5516SOL    HW128010   0.879   0.577   5.032  0.2049 -0.5983 -1.3457
 5516SOL    HW228011   0.943   0.666   4.937  0.1600 -0.3490 -0.8619
 5517SOL     OW28012   4.648   3.541  14.714 -0.1292  0.0581 -0.1033
 5517SOL    HW128013   4.574   3.549  14.775  1.1174 -2.3085  1.7138
 5517SOL    HW228014   4.598   3.549  14.632 -1.5203  2.2638  0.9733
 5518SOL     OW28015   1.913   1.186   3.007 -0.4689 -0.0111  0.9093
 5518SOL    HW128016   1.827   1.205   3.045 -1.2372  1.6167 -1.6476
 5518SOL    HW228017   1.922   1.249   2.935 -0.3744  0.3983  1.2834
 5519SOL     OW28018   3.536   1.255   5.408  0.2311 -0.2686  0.4652
 5519SOL    HW128019   3.547   1.181   5.348  0.8567  0.3768 -0.2086
 5519SOL    HW228020   3.446   1.279   5.388  0.5675  0.5851 -0.0297
 5520SOL     OW28021   2.241   3.418  11.924  0.3614  0.0938 -0.2576
 5520SOL    HW128022   2.306   3.349  11.912  1.0949  0.5969  0.8198
 5520SOL    HW228023   2.258   3.473  11.847 -2.8359  2.8277  0.9728
 5521SOL     OW28024   4.229   3.376   2.049 -0.0374 -0.1775  0.3252
 5521SOL    HW128025   4.293   3.415   1.989  0.1020  1.4955  1.5420
 5521SOL    HW228026   4.172   3.338   1.982  0.8919  1.5856 -1.4611
 5522SOL     OW28027   1.823   4.256   7.871 -0.1099  0.5377  0.2628
 5522SOL    HW128028   1.790   4.173   7.905 -0.1743  0.0753 -0.9096
 5522SOL    HW228029   1.875   4.229   7.796  2.5073  2.0469  1.5365
 5523SOL     OW28030   4.075   0.294   1.667  0.7389  0.9455  0.1194
 5523SOL    HW128031   4.136   0.310   1.739  0.2453  0.1127  0.7234
 5523SOL    HW228032   4.131   0.249   1.605  0.1363 -0.7506  0.8130
 5524SOL     OW28033   2.202   4.359   5.039 -0.0157 -0.0302  0.1791
 5524SOL    HW128034   2.294   4.337   5.052 -0.1462 -1.2115 -0.8406
 5524SOL    HW228035   2.169   4.331   5.124  0.3221  0.6676  0.5358
 5525SOL     OW28036   4.169   4.000  12.931  0.0291  0.4842  0.5858
 5525SOL    HW128037   4.165   3.962  12.844 -0.3591 -0.5290  1.0436
 5525SOL    HW228038   4.221   4.077  12.911  0.5388  0.1774  0.7344
 5526SOL     OW28039   3.878   0.775   8.227 -0.5919 -0.1463  0.0374
 5526SOL    HW128040   3.958   0.805   8.185 -0.5181 -0.1178  0.1997
 5526SOL    HW228041   3.867   0.841   8.295  1.8075  1.1587 -0.8437
 5527SOL     OW28042   4.137   1.215   5.365  0.2025  0.3060 -0.8267
 5527SOL    HW128043   4.202   1.146   5.376 -0.2568 -0.1139 -0.7815
 5527SOL    HW228044   4.103   1.221   5.454 -0.5553 -1.9278 -0.9872
 5528SOL     OW28045   1.306   3.065   1.942  0.1447 -0.0673  0.4226
 5528SOL    HW128046   1.352   3.148   1.955 -1.8077  0.9935  0.6763
 5528SOL    HW228047   1.368   3.012   1.894 -0.9948 -1.6360  0.6835
 5529SOL     OW28048   4.079   3.039  12.178  0.3641 -1.0868 -0.3627
 5529SOL    HW128049   4.048   2.949  12.184  1.3980 -1.4630 -0.6596
 5529SOL    HW228050   4.158   3.034  12.232  1.3534  1.8473 -1.4916
 5530SOL     OW28051   0.125   1.067  11.985 -0.0529 -0.1976 -0.2984
 5530SOL    HW128052   0.192   1.071  12.054 -0.6328  0.8638  0.2044
 5530SOL    HW228053   0.133   0.972  11.973  0.2320  0.0101 -1.7872
 5531SOL     OW28054   1.464   3.898   4.569 -0.1589 -0.5713  0.2785
 5531SOL    HW128055   1.539   3.877   4.624 -0.4048  1.0834  1.2750
 5531SOL    HW228056   1.400   3.903   4.639 -1.1579 -0.9013 -0.6108
 5532SOL     OW28057   1.391   3.928   2.743 -0.0253 -0.2887  0.3405
 5532SOL    HW128058   1.318   3.867   2.738 -0.7218  0.6583 -1.1794
 5532SOL    HW228059   1.453   3.891   2.681  0.3897  0.0761  0.5337
 5533SOL     OW28060   3.576   1.927   1.909 -0.3164 -0.0280 -0.1673
 5533SOL    HW128061   3.570   1.964   1.997 -0.4160  0.3682 -0.3415
 5533SOL    HW228062   3.603   1.840   1.939  0.0494 -0.7033 -2.4200
 5534SOL     OW28063   2.717   0.908   6.584 -0.0569  0.0130  1.1225
 5534SOL    HW128064   2.701   1.002   6.598  1.0111  0.7491 -2.4828
 5534SOL    HW228065   2.812   0.913   6.574 -0.1688  2.6982  1.3601
 5535SOL     OW28066   4.422   4.111  13.419  0.5346 -0.5074  0.4288
 5535SOL    HW128067   4.428   4.173  13.492  0.8658  0.9701 -0.8330
 5535SOL    HW228068   4.378   4.174  13.362  0.3938 -1.3106 -0.3369
 5536SOL     OW28069   1.920   3.785  17.063 -0.4793 -0.0510  0.0822
 5536SOL    HW128070   1.864   3.786  17.141  0.0612 -2.6540  0.5032
 5536SOL    HW228071   1.859   3.824  17.000 -0.1666 -0.2879 -0.3737
 5537SOL     OW28072   2.556   2.271  11.498 -0.3814  0.1820  0.9799
 5537SOL    HW128073   2.501   2.235  11.567 -0.5690 -1.4895 -0.0417
 5537SOL    HW228074   2.635   2.287  11.549  0.4412  1.4636 -0.6888
 5538SOL     OW28075   2.621   4.618   9.305  0.0119  0.5233 -0.1442
 5538SOL    HW128076   2.712   4.609   9.334 -0.6778  0.5882  2.0370
 5538SOL    HW228077   2.576   4.623   9.389  0.0755 -1.7927  0.0184
 5539SOL     OW28078   0.153   0.937   4.381 -0.6709 -0.6074 -0.0774
 5539SOL    HW128079   0.236   0.977   4.408 -0.2479 -1.3990 -0.2208
 5539SOL    HW228080   0.185   0.877   4.314 -0.3481 -0.7124  0.1741
 5540SOL     OW28081   1.879   0.795   6.389  0.1153  0.2500  0.1850
 5540SOL    HW128082   1.944   0.759   6.449  0.5688  0.4253 -0.1968
 5540SOL    HW228083   1.811   0.840   6.440  1.1421  0.5892  1.2489
 5541SOL     OW28084   2.117   3.241   9.619  0.6045 -0.5488  0.3437
 5541SOL    HW128085   2.177   3.194   9.677  0.4299 -1.1960 -0.0027
 5541SOL    HW228086   2.043   3.235   9.679 -1.2773  0.6109 -1.8869
 5542SOL     OW28087   0.234   4.234   3.274 -0.1153  0.6369 -0.3228
 5542SOL    HW128088   0.272   4.153   3.308  2.2561  1.9576  0.1638
 5542SOL    HW228089   0.253   4.299   3.341 -1.4422  1.1682 -0.4694
 5543SOL     OW28090   1.902   4.396  12.180 -0.4228 -0.0787 -0.3563
 5543SOL    HW128091   1.904   4.308  12.142 -0.9308  0.8078 -2.4022
 5543SOL    HW228092   1.836   4.374  12.246 -1.3395  2.6910 -0.3555
 5544SOL     OW28093   3.445   3.996  10.661 -0.0426  0.0463  0.0598
 5544SOL    HW128094   3.395   3.956  10.590  1.8100  0.0415 -1.2400
 5544SOL    HW228095   3.390   4.051  10.717 -0.9771 -0.2208 -0.5867
 5545SOL     OW28096   3.774   2.232  16.127 -0.2869 -0.4573 -0.5086
 5545SOL    HW128097   3.789   2.182  16.207  0.9887 -0.4958 -0.7818
 5545SOL    HW228098   3.693   2.280  16.145 -0.4476 -0.2720 -1.7453
 5546SOL     OW28099   4.602   2.754   2.573 -0.1577  0.1946  0.4371
 5546SOL    HW128100   4.695   2.769   2.592 -0.1871  1.1196 -0.2156
 5546SOL    HW228101   4.585   2.807   2.496 -0.9195 -0.7919 -0.0751
 5547SOL     OW28102   0.259   1.716   5.109 -0.0820 -0.4961  0.0110
 5547SOL    HW128103   0.256   1.778   5.037 -0.2492  0.3529  0.7527
 5547SOL    HW228104   0.337   1.665   5.086 -0.5007 -2.1006  2.1652
 5548SOL     OW28105   1.675   2.679   7.709 -0.0114 -0.7180 -0.5040
 5548SOL    HW128106   1.643   2.610   7.766  0.2575 -1.0718 -0.7858
 5548SOL    HW228107   1.692   2.754   7.767 -0.5542 -2.2182  1.5806
 5549SOL     OW28108   1.113   2.831   0.463 -0.4399 -0.2260  0.2955
 5549SOL    HW128109   1.199   2.863   0.436  0.5687 -1.7175  1.7318
 5549SOL    HW228110   1.112   2.877   0.547  1.5261  0.0064  0.1914
 5550SOL     OW28111   3.374   1.337   6.745  0.4031  0.1087 -0.5651
 5550SOL    HW128112   3.454   1.389   6.751 -0.2814  1.2320 -0.9957
 5550SOL    HW228113   3.311   1.408   6.736 -1.2119 -1.2134  0.3184
 5551SOL     OW28114   3.496   2.323   3.422  0.2100  0.0091 -0.1822
 5551SOL    HW128115   3.525   2.232   3.426  1.6207  0.3996 -1.0735
 5551SOL    HW228116   3.580   2.356   3.388  0.5418  1.8531  2.4485
 5552SOL     OW28117   2.407   3.434   3.870 -0.4388  0.0540  0.1867
 5552SOL    HW128118   2.386   3.518   3.828  2.0131 -0.0787 -1.3139
 5552SOL    HW228119   2.476   3.403   3.812  0.2855 -0.6687  1.4426
 5553SOL     OW28120   1.437   2.795   7.565 -0.0015 -0.4190 -0.2546
 5553SOL    HW128121   1.448   2.765   7.475  0.7736  0.0599 -0.3099
 5553SOL    HW228122   1.487   2.741   7.625  1.9425  1.6602 -0.0255
 5554SOL     OW28123   3.339   3.454  10.535  0.1689  0.0898 -0.7845
 5554SOL    HW128124   3.326   3.365  10.569 -3.4222  1.7456  2.1178
 5554SOL    HW228125   3.248   3.484  10.542 -0.4592 -2.3641  1.5168
 5555SOL     OW28126   1.659   1.412   5.617 -0.1674 -0.1003  0.3969
 5555SOL    HW128127   1.572   1.424   5.654  0.3288  0.4200  1.3913
 5555SOL    HW228128   1.638   1.375   5.531  0.8981 -2.5426  1.1886
 5556SOL     OW28129   3.993   0.717   7.651 -0.0202 -0.1084  0.5219
 5556SOL    HW128130   4.016   0.671   7.570 -2.6317 -0.8197  0.1812
 5556SOL    HW228131   3.956   0.792   7.605 -0.7729  0.0281  1.3529
 5557SOL     OW28132   3.307   0.723   1.947 -0.3959  0.1104  0.1521
 5557SOL    HW128133   3.268   0.807   1.924  0.8213  0.1705 -1.7320
 5557SOL    HW228134   3.337   0.682   1.866  0.1310 -0.4302  0.6260
 5558SOL     OW28135   0.236   3.388   6.512 -0.5159  0.0107 -0.2474
 5558SOL    HW128136   0.331   3.396   6.499 -0.7545  1.1094 -1.3500
 5558SOL    HW228137   0.221   3.418   6.601  0.0676 -0.7997  0.1231
 5559SOL     OW28138   2.420   3.937   6.118  0.5010  0.3105  0.5450
 5559SOL    HW128139   2.442   4.017   6.070  2.5829  0.9606  2.6083
 5559SOL    HW228140   2.428   3.960   6.210  0.4736  0.7210  0.4445
 5560SOL     OW28141   2.215   0.530   6.948 -0.6132 -0.4643  0.1218
 5560SOL    HW128142   2.129   0.548   6.984 -0.5859  1.1565 -0.6015
 5560SOL    HW228143   2.252   0.467   7.009  2.7069  1.2076 -0.1573
 5561SOL     OW28144   1.738   1.407  13.561  0.0282 -0.0499  0.5648
 5561SOL    HW128145   1.649   1.427  13.591  0.4006 -1.2903  2.5039
 5561SOL    HW228146   1.801   1.449  13.619 -0.3849 -0.3390  1.2205
 5562SOL     OW28147   1.490   3.675   3.003  0.3744 -0.4817  0.0692
 5562SOL    HW128148   1.558   3.669   2.936  0.4290  0.1149  0.0630
 5562SOL    HW228149   1.535   3.627   3.073  0.4520  0.8137  0.9096
 5563SOL     OW28150   1.263   0.567   0.536  0.4623  0.2336  0.3855
 5563SOL    HW128151   1.297   0.589   0.450  0.0404 -1.1573 -0.1364
 5563SOL    HW228152   1.208   0.491   0.520 -0.6361  1.3955 -1.3560
 5564SOL     OW28153   3.727   4.382  16.056  1.4273 -0.1877  0.1725
 5564SOL    HW128154   3.797   4.336  16.010  1.6442  0.0636  0.2513
 5564SOL    HW228155   3.648   4.374  16.003  1.0997  0.6868  0.5346
 5565SOL     OW28156   2.960   3.039   4.943  0.3168 -1.0089  0.3365
 5565SOL    HW128157   2.936   2.974   4.877  1.4181  1.0665 -2.1178
 5565SOL    HW228158   3.047   3.009   4.970  0.1207  1.5887  3.7910
 5566SOL     OW28159   2.735   4.100   8.696 -0.3273 -0.0288 -0.1623
 5566SOL    HW128160   2.729   4.022   8.641 -2.6442 -0.9300  1.3965
 5566SOL    HW228161   2.731   4.054   8.780 -1.1582  1.5199  0.6350
 5567SOL     OW28162   0.416   3.517  16.561 -0.2046 -0.6126 -0.0788
 5567SOL    HW128163   0.370   3.587  16.609 -2.1167 -1.9921  0.0970
 5567SOL    HW228164   0.468   3.470  16.625 -1.6928 -0.1067  1.4999
 5568SOL     OW28165   2.171   0.747   8.508 -0.3260  0.0819  0.4011
 5568SOL    HW128166   2.085   0.771   8.544 -0.8447  0.4775 -1.1013
 5568SOL    HW228167   2.199   0.682   8.573 -0.9847  0.3118  0.9242
 5569SOL     OW28168   4.367   2.548  16.002  0.4808 -0.1067 -0.4286
 5569SOL    HW128169   4.273   2.563  16.012  0.5277  0.9789 -1.4868
 5569SOL    HW228170   4.397   2.604  15.930  1.5322 -0.8669 -0.5709
 5570SOL     OW28171   2.808   3.775   6.127  0.2854 -0.1776 -0.2241
 5570SOL    HW128172   2.735   3.739   6.076 -0.4812 -0.2156  0.8839
 5570SOL    HW228173   2.788   3.868   6.118 -0.3256 -0.3287 -0.4737
 5571SOL     OW28174   3.268   2.962   9.233  0.0551 -0.7598  0.2641
 5571SOL    HW128175   3.224   3.042   9.261  1.9238  0.0058  1.0620
 5571SOL    HW228176   3.192   2.906   9.248 -1.2790  0.8212 -0.6540
 5572SOL     OW28177   1.125   1.243  13.449  0.4293  0.2675  0.3815
 5572SOL    HW128178   1.193   1.301  13.416 -0.6594  1.3840  0.1296
 5572SOL    HW228179   1.050   1.274  13.399  1.9967 -1.4761 -3.0322
 5573SOL     OW28180   1.666   1.156   2.795 -0.0992 -0.0565  0.2060
 5573SOL    HW128181   1.738   1.105   2.832 -0.8293 -1.8378 -0.8551
 5573SOL    HW228182   1.715   1.210   2.732 -0.7903 -0.5356 -0.7391
 5574SOL     OW28183   0.012   4.688  15.835 -0.0770 -1.0268 -0.4322
 5574SOL    HW128184   4.643   4.706  15.820 -0.0064 -0.5710 -0.3261
 5574SOL    HW228185   0.058   0.046  15.826 -2.2004  0.1639 -0.3883
 5575SOL     OW28186   0.291   3.560   8.868 -0.6117 -0.0194  0.1959
 5575SOL    HW128187   0.368   3.616   8.879 -1.6541  2.0053 -2.8373
 5575SOL    HW228188   0.295   3.511   8.950 -3.1739  0.9503  0.8900
 5576SOL     OW28189   1.326   3.118  14.147 -0.6353 -0.0712  0.3121
 5576SOL    HW128190   1.250   3.172  14.168 -2.0266 -0.8279 -2.7842
 5576SOL    HW228191   1.354   3.091  14.235  0.6515 -0.0875 -0.0952
 5577SOL     OW28192   0.146   1.639   0.353 -0.4719 -0.1577  0.3222
 5577SOL    HW128193   0.204   1.714   0.350 -0.8459  0.1232  0.1604
 5577SOL    HW228194   0.076   1.678   0.406 -0.9277 -0.4683 -0.0517
 5578SOL     OW28195   0.459   1.252   9.381 -0.4912 -0.0648  0.6881
 5578SOL    HW128196   0.430   1.286   9.466  1.3679 -1.2323  1.7976
 5578SOL    HW228197   0.523   1.311   9.341 -0.9527 -0.1128 -0.1245
 5579SOL     OW28198   4.451   0.026  10.033  0.1484  0.1159  0.2434
 5579SOL    HW128199   4.494   0.053  10.114 -1.9318  0.4726  1.2162
 5579SOL    HW228200   4.473   4.657  10.028 -0.0203  0.1769 -1.7890
 5580SOL     OW28201   4.646   0.667  10.200 -0.0954 -0.1567  0.1680
 5580SOL    HW128202   4.680   0.597  10.256  0.6695  1.6811  2.0034
 5580SOL    HW228203   4.592   0.618  10.138  0.2524  0.3298 -0.5212
 5581SOL     OW28204   0.356   2.991   2.634 -0.6455  0.1994 -0.1468
 5581SOL    HW128205   0.285   3.023   2.579 -2.4324  1.8358  3.1230
 5581SOL    HW228206   0.408   3.070   2.648 -0.7590  0.3842 -0.8168
 5582SOL     OW28207   3.991   2.238   5.787  0.0562  0.0284  1.1749
 5582SOL    HW128208   4.006   2.150   5.821 -0.7058 -0.8433 -0.7435
 5582SOL    HW228209   4.048   2.232   5.711 -1.9666  2.7225 -0.5572
 5583SOL     OW28210   0.498   4.702   4.935  0.6824  0.4101  0.0827
 5583SOL    HW128211   0.519   4.617   4.898 -0.3230 -0.4828  1.5979
 5583SOL    HW228212   0.532   0.039   4.869  1.1859 -1.4769 -1.4090
 5584SOL     OW28213   2.522   0.166   4.919  0.2031  0.0629 -0.2042
 5584SOL    HW128214   2.436   0.182   4.881 -0.9082 -2.6657  1.1068
 5584SOL    HW228215   2.521   0.070   4.916 -0.5249  0.0756 -0.3420
 5585SOL     OW28216   0.797   2.360   6.761 -0.3242  0.0410 -0.1593
 5585SOL    HW128217   0.725   2.358   6.824 -0.5017  1.3569 -0.3190
 5585SOL    HW228218   0.776   2.446   6.725 -1.8212 -0.2518  0.0098
 5586SOL     OW28219   0.644   1.912  16.153  0.3006 -0.1914  0.1649
 5586SOL    HW128220   0.551   1.908  16.176 -0.3883 -0.5570 -2.7684
 5586SOL    HW228221   0.656   1.871  16.068 -1.0906  0.3781 -0.3009
 5587SOL     OW28222   0.460   0.250  14.903  0.2929 -0.1568 -0.1227
 5587SOL    HW128223   0.410   0.287  14.830  2.6876  0.5384 -1.4024
 5587SOL    HW228224   0.543   0.290  14.879  0.4338 -0.2275  0.2585
 5588SOL     OW28225   0.881   0.951   1.074  0.3333 -0.4216  0.1491
 5588SOL    HW128226   0.963   0.915   1.106  0.0395  0.9596  2.5073
 5588SOL    HW228227   0.913   1.041   1.065  0.8551 -0.6301 -0.0745
 5589SOL     OW28228   3.596   0.503   4.639 -0.2291  0.0029 -0.3607
 5589SOL    HW128229   3.624   0.490   4.729 -0.3391 -1.8623 -0.5942
 5589SOL    HW228230   3.509   0.542   4.646 -0.4072 -0.4178 -0.2295
 5590SOL     OW28231   3.852   2.578  12.111 -0.9884  0.4110 -0.0697
 5590SOL    HW128232   3.796   2.527  12.169 -1.2366  0.7566  0.0010
 5590SOL    HW228233   3.792   2.626  12.053  0.7704  1.6006 -0.8851
 5591SOL     OW28234   0.485   1.473   4.058 -0.3115 -0.1678 -0.0894
 5591SOL    HW128235   0.498   1.386   4.096  0.5454  0.6476  1.5155
 5591SOL    HW228236   0.532   1.463   3.975  1.4272  0.9557  0.7613
 5592SOL     OW28237   4.399   2.731   8.701  0.2846  0.1980 -0.6086
 5592SOL    HW128238   4.421   2.649   8.657  0.3771  0.3254 -0.8012
 5592SOL    HW228239   4.319   2.707   8.748  0.2708 -1.3712 -1.4206
 5593SOL     OW28240   2.148   0.419   4.493 -0.0339 -0.1844 -0.2909
 5593SOL    HW128241   2.222   0.475   4.467 -0.5805 -0.0189 -1.4856
 5593SOL    HW228242   2.122   0.388   4.406  1.0945  0.4170 -0.8452
 5594SOL     OW28243   3.365   1.089   8.322  0.2327  0.2249  0.0003
 5594SOL    HW128244   3.438   1.052   8.273 -0.1839  1.2025 -1.3481
 5594SOL    HW228245   3.391   1.046   8.403  0.1326 -1.6479 -0.9725
 5595SOL     OW28246   2.451   0.618   7.198 -0.0227 -0.2891 -0.3860
 5595SOL    HW128247   2.400   0.547   7.158  0.7865 -0.9692 -0.2226
 5595SOL    HW228248   2.395   0.694   7.215  0.6936  0.3090 -0.6880
 5596SOL     OW28249   2.477   1.831  10.771 -0.5212  0.4987 -0.1359
 5596SOL    HW128250   2.564   1.804  10.742 -1.7909  0.2231 -3.6848
 5596SOL    HW228251   2.419   1.797  10.703 -1.8262  0.7842  0.8471
 5597SOL     OW28252   2.418   4.190   7.751 -0.3601 -0.6669  0.9173
 5597SOL    HW128253   2.394   4.152   7.666  2.9036  0.9105 -0.7348
 5597SOL    HW228254   2.482   4.124   7.779  1.4513  0.8661  0.4400
 5598SOL     OW28255   0.029   0.956   1.726 -0.1093  0.4509 -0.2020
 5598SOL    HW128256   0.099   1.019   1.715 -0.5058  0.1758 -4.1243
 5598SOL    HW228257   0.059   0.892   1.662  0.9684 -0.5903  1.3366
 5599SOL     OW28258   0.122   0.434   6.434  0.2291  0.5888  0.6014
 5599SOL    HW128259   0.182   0.460   6.504 -0.8188 -0.1075  1.7670
 5599SOL    HW228260   0.186   0.425   6.364 -0.6069  0.9871 -0.2169
 5600SOL     OW28261   0.688   0.678   6.552  0.0536  0.1928 -0.4868
 5600SOL    HW128262   0.637   0.749   6.513  1.4670  0.1639 -2.3365
 5600SOL    HW228263   0.628   0.665   6.626  0.4885 -0.5676 -0.2671
 5601SOL     OW28264   3.570   2.659   2.837 -0.0702 -0.5845 -0.5454
 5601SOL    HW128265   3.556   2.678   2.745  2.3975 -0.4725 -0.9174
 5601SOL    HW228266   3.662   2.631   2.830  0.3607  0.7383 -0.1165
 5602SOL     OW28267   2.911   0.685   0.095  0.1155  0.2075 -0.4587
 5602SOL    HW128268   2.960   0.651   0.171 -1.1202 -0.9977 -0.2059
 5602SOL    HW228269   2.884   0.773   0.122 -0.5580 -0.5239  1.2518
 5603SOL     OW28270   1.224   0.372   7.352 -0.1827  0.2284 -0.4270
 5603SOL    HW128271   1.204   0.282   7.379  0.5525 -0.2453 -1.4252
 5603SOL    HW228272   1.311   0.355   7.317 -0.3995 -0.2952 -0.7232
 5604SOL     OW28273   1.975   3.244   7.672 -0.1743  0.0042  0.2158
 5604SOL    HW128274   1.919   3.182   7.719 -0.4631 -0.7712 -1.1227
 5604SOL    HW228275   1.983   3.194   7.591  1.2225 -0.3321  0.5755
 5605SOL     OW28276   4.684   4.480   4.536 -0.3739  0.6369 -0.5151
 5605SOL    HW128277   4.594   4.507   4.517 -0.5897  1.5158  1.8392
 5605SOL    HW228278   4.688   4.507   4.627  0.1806 -0.0577 -0.3357
 5606SOL     OW28279   4.522   0.993   4.893 -0.4366  0.2723 -0.3535
 5606SOL    HW128280   4.487   0.904   4.883 -1.6432  0.6847  0.2303
 5606SOL    HW228281   4.446   1.048   4.908 -0.6577 -0.7434  2.2636
 5607SOL     OW28282   4.577   3.580  17.421 -0.1088 -0.7751  0.3292
 5607SOL    HW128283   4.648   3.637  17.392 -1.0077 -0.1793 -0.6954
 5607SOL    HW228284   4.615   3.494  17.402 -0.9475 -1.1830  0.5124
 5608SOL     OW28285   4.287   1.173   2.371  0.3191 -0.5716 -0.4944
 5608SOL    HW128286   4.364   1.212   2.329  0.2534 -0.5761 -0.6195
 5608SOL    HW228287   4.281   1.082   2.345 -1.6357 -0.8732  1.0136
 5609SOL     OW28288   1.754   4.118   4.761  0.1572  0.2347 -0.0612
 5609SOL    HW128289   1.729   4.211   4.762 -0.3930  0.0747  0.6648
 5609SOL    HW228290   1.812   4.118   4.837 -0.3828  0.2152  0.3495
 5610SOL     OW28291   2.192   4.433   1.145  0.3739 -0.0146  0.2546
 5610SOL    HW128292   2.207   4.406   1.236  0.3151 -0.7453  0.0437
 5610SOL    HW228293   2.101   4.407   1.132 -0.1616  2.4909 -1.0971
 5611SOL     OW28294   3.809   2.243  16.788 -0.1609  0.6710  0.4010
 5611SOL    HW128295   3.891   2.196  16.774 -0.4555  0.4635 -0.6315
 5611SOL    HW228296   3.853   2.329  16.787  0.7139  0.2029 -1.7695
 5612SOL     OW28297   3.686   0.848   1.194 -0.0742  0.0293 -0.6201
 5612SOL    HW128298   3.622   0.879   1.129 -1.5672  2.9457  2.2626
 5612SOL    HW228299   3.770   0.839   1.148 -1.5146 -1.5031 -2.9804
 5613SOL     OW28300   1.708   2.001   3.451  0.2014  0.1606  0.6555
 5613SOL    HW128301   1.725   2.090   3.419  0.0783 -0.9974 -2.7304
 5613SOL    HW228302   1.613   1.993   3.443  0.3694 -1.8104  0.6231
 5614SOL     OW28303   1.791   3.432   4.404 -0.6781  0.2681  0.0980
 5614SOL    HW128304   1.782   3.486   4.482 -1.8927  2.5028 -1.6037
 5614SOL    HW228305   1.876   3.454   4.366 -1.1724 -0.4104 -1.3731
 5615SOL     OW28306   1.627   1.504  12.752  0.1887 -0.2569  0.2355
 5615SOL    HW128307   1.707   1.543  12.787  0.0962 -0.5332  0.7570
 5615SOL    HW228308   1.568   1.577  12.770  0.0228  0.0578 -1.5697
 5616SOL     OW28309   3.253   2.906   7.734  0.1360  0.0054  0.1241
 5616SOL    HW128310   3.270   2.864   7.818  0.7989  0.7823  0.3726
 5616SOL    HW228311   3.285   2.836   7.677  0.1920  1.4181 -1.5644
 5617SOL     OW28312   3.513   1.861   8.267 -0.4394 -0.5535 -0.5536
 5617SOL    HW128313   3.562   1.901   8.338 -0.6698 -0.5551 -0.3939
 5617SOL    HW228314   3.541   1.924   8.200 -0.4164 -0.6190 -0.6060
 5618SOL     OW28315   2.537   0.211  12.652  0.1578 -1.0026  0.0170
 5618SOL    HW128316   2.478   0.168  12.714  0.4434  0.3152  1.2133
 5618SOL    HW228317   2.475   0.271  12.611 -0.7817 -1.6917  0.4373
 5619SOL     OW28318   4.392   1.531   6.415  0.1686 -0.2852  0.1766
 5619SOL    HW128319   4.402   1.625   6.432 -0.9885 -0.2977  0.9729
 5619SOL    HW228320   4.405   1.523   6.320 -1.0569 -0.5584  0.0253
 5620SOL     OW28321   0.630   4.010   2.284  0.6990  0.2082 -0.3291
 5620SOL    HW128322   0.591   4.040   2.366  2.1191 -0.2384  0.5087
 5620SOL    HW228323   0.651   3.928   2.329  1.5471 -0.1586 -1.3849
 5621SOL     OW28324   0.602   3.695   3.937 -0.4252 -0.2309  1.2689
 5621SOL    HW128325   0.586   3.647   3.856 -0.4113 -0.8068  1.6035
 5621SOL    HW228326   0.516   3.707   3.978  0.9952  0.1790  4.1102
 5622SOL     OW28327   1.711   2.026   2.225 -0.0293 -0.2304  0.0675
 5622SOL    HW128328   1.685   2.026   2.317  0.6604 -1.1738  0.2679
 5622SOL    HW228329   1.681   2.114   2.202 -0.6296 -0.4711 -0.0691
 5623SOL     OW28330   1.733   1.403   7.211 -0.1726  0.3811 -0.3272
 5623SOL    HW128331   1.736   1.439   7.122  0.5335  0.4906 -0.2635
 5623SOL    HW228332   1.825   1.384   7.230 -0.7837 -2.3634 -0.1408
 5624SOL     OW28333   0.774   1.598   6.439  0.0950  0.0899 -0.5352
 5624SOL    HW128334   0.863   1.626   6.460  0.1499  0.8277 -1.7107
 5624SOL    HW228335   0.792   1.533   6.371  1.8606 -1.2955  1.2743
 5625SOL     OW28336   1.991   3.476   4.685  0.2364 -0.1576  0.5286
 5625SOL    HW128337   1.899   3.499   4.695  0.5593  1.0977  0.6483
 5625SOL    HW228338   2.022   3.513   4.767  1.1172  1.8485 -0.7207
 5626SOL     OW28339   0.786   2.839   6.481  0.1618 -0.4566  0.4168
 5626SOL    HW128340   0.826   2.871   6.399 -2.4688  2.1173  0.1541
 5626SOL    HW228341   0.852   2.774   6.503 -1.1467 -2.5776 -1.9143
 5627SOL     OW28342   3.311   0.568   2.729  0.0570  1.1516  0.0983
 5627SOL    HW128343   3.319   0.533   2.640 -0.1048  1.8370 -0.1877
 5627SOL    HW228344   3.326   0.661   2.709 -0.9128  0.6666 -2.8879
 5628SOL     OW28345   2.634   2.935  13.353  0.1358  0.7610 -0.8407
 5628SOL    HW128346   2.657   2.868  13.288 -1.5581  0.7633 -1.4240
 5628SOL    HW228347   2.554   2.895  13.388  2.0010 -0.5438  2.0047
 5629SOL     OW28348   4.648   4.395   9.032  0.3900 -0.2249  0.0394
 5629SOL    HW128349   4.675   4.486   9.023 -1.0299  0.4491  2.7376
 5629SOL    HW228350   0.009   4.359   9.009  0.6976 -0.2862  1.2714
 5630SOL     OW28351   1.781   0.039   6.842 -0.0780  0.1837 -0.5065
 5630SOL    HW128352   1.752   0.002   6.758  1.7084 -2.7275  0.1454
 5630SOL    HW228353   1.703   0.090   6.863 -1.4219 -2.4661  0.9774
 5631SOL     OW28354   4.001   1.943  11.233 -0.7855  0.4245  0.4194
 5631SOL    HW128355   4.025   2.017  11.289  0.3027  1.1982 -1.0675
 5631SOL    HW228356   4.023   1.976  11.146 -1.7960  0.8782  0.3391
 5632SOL     OW28357   0.199   4.135   4.941  0.0380 -0.2255 -0.3654
 5632SOL    HW128358   0.287   4.128   4.903  0.3300  0.5708  0.1634
 5632SOL    HW228359   0.185   4.226   4.916 -0.6174  0.3037  1.8966
 5633SOL     OW28360   0.836   4.135  15.989  0.1237  0.0090  0.5402
 5633SOL    HW128361   0.852   4.123  15.895 -1.2275  1.2513  0.1549
 5633SOL    HW228362   0.897   4.207  16.004  0.6798 -0.3842  0.2151
 5634SOL     OW28363   2.239   1.965   2.766  0.3069  0.2767 -0.5419
 5634SOL    HW128364   2.220   2.056   2.741 -2.5440 -0.5957 -1.5078
 5634SOL    HW228365   2.323   1.966   2.811 -1.2761 -1.9247  2.4498
 5635SOL     OW28366   4.390   0.582   6.952  0.0079 -0.5000  0.1376
 5635SOL    HW128367   4.303   0.549   6.973  0.1157 -0.5885  0.4443
 5635SOL    HW228368   4.418   0.621   7.034 -3.4901  0.6700  0.7561
 5636SOL     OW28369   3.392   3.117  13.722  0.0033  0.7532  0.0873
 5636SOL    HW128370   3.416   3.064  13.646  0.7865  1.6983 -0.3317
 5636SOL    HW228371   3.378   3.204  13.685  1.9479  1.1940  0.4178
 5637SOL     OW28372   4.062   4.218   1.806 -0.0422 -0.3356 -0.5635
 5637SOL    HW128373   3.992   4.263   1.758 -3.4536 -2.1555  2.7450
 5637SOL    HW228374   4.001   4.183   1.870  0.1053  0.9646  0.2840
 5638SOL     OW28375   4.532   1.059  17.192  0.4667  0.0048 -0.0822
 5638SOL    HW128376   4.479   1.136  17.211 -0.4628 -0.6831  0.1188
 5638SOL    HW228377   4.617   1.084  17.226  1.0108  0.9884 -2.1443
 5639SOL     OW28378   2.361   2.317   8.217  0.4333 -0.2748 -0.6281
 5639SOL    HW128379   2.354   2.227   8.252 -0.2022 -0.0949 -0.2861
 5639SOL    HW228380   2.271   2.333   8.188 -0.1573 -2.4310 -0.0185
 5640SOL     OW28381   3.614   0.012   7.458 -0.2831  0.5381  0.7978
 5640SOL    HW128382   3.664   4.660   7.430 -1.0670  0.6355 -0.8570
 5640SOL    HW228383   3.522   4.712   7.446  0.4820 -1.3303 -1.1558
 5641SOL     OW28384   1.895   2.739  15.588  0.1205  0.6300 -0.2713
 5641SOL    HW128385   1.899   2.834  15.599  0.1294  0.7668 -1.5043
 5641SOL    HW228386   1.830   2.716  15.656  1.0541 -1.4416 -0.0759
 5642SOL     OW28387   1.050   4.377  17.322  0.8212 -0.2345  0.4492
 5642SOL    HW128388   1.027   4.459  17.278  1.6714 -0.4947 -0.4823
 5642SOL    HW228389   1.099   4.335  17.251 -1.5407  0.2764 -1.4819
 5643SOL     OW28390   3.669   4.350  15.111  0.0319 -0.0601 -0.7347
 5643SOL    HW128391   3.689   4.331  15.020 -0.0571  2.5117 -1.2836
 5643SOL    HW228392   3.653   4.444  15.099 -0.3383 -0.1187 -0.7180
 5644SOL     OW28393   3.043   1.789   1.734 -0.2634 -0.0885  0.0841
 5644SOL    HW128394   3.009   1.837   1.809 -0.2331  1.7093 -1.0498
 5644SOL    HW228395   2.964   1.800   1.682 -0.7392 -2.0299  0.4367
 5645SOL     OW28396   0.644   4.224   4.982 -0.2802  0.0279 -0.3126
 5645SOL    HW128397   0.685   4.215   4.896 -0.1661  0.9472 -0.3499
 5645SOL    HW228398   0.667   4.314   5.003  0.6507  0.5677 -3.5284
 5646SOL     OW28399   3.822   4.446   5.873 -1.1473  0.0434 -0.3986
 5646SOL    HW128400   3.895   4.412   5.925 -1.3052 -2.7947 -2.0133
 5646SOL    HW228401   3.864   4.475   5.792 -1.6868 -1.7390 -1.3133
 5647SOL     OW28402   3.922   0.195   8.718 -0.1914  0.1476  0.2486
 5647SOL    HW128403   3.873   0.141   8.656 -0.9802 -0.2361  1.2018
 5647SOL    HW228404   3.951   0.129   8.782 -0.4674  1.2860  1.5492
 5648SOL     OW28405   0.196   3.943   2.074 -0.5637 -0.2821 -0.2843
 5648SOL    HW128406   0.193   3.867   2.133  1.1945  0.8862  1.3032
 5648SOL    HW228407   0.250   3.905   2.004 -0.3786 -0.4147 -0.0729
 5649SOL     OW28408   0.385   3.074   4.305 -0.1033 -0.7095 -0.1771
 5649SOL    HW128409   0.375   3.127   4.226  1.8495  0.1941  0.1767
 5649SOL    HW228410   0.385   2.984   4.274  1.4837 -1.6981  2.7468
 5650SOL     OW28411   4.147   2.514   4.401 -0.2592  0.0870  0.5645
 5650SOL    HW128412   4.077   2.469   4.354  0.4675  1.1325 -1.5653
 5650SOL    HW228413   4.134   2.607   4.381 -0.1677 -0.0573 -0.1898
 5651SOL     OW28414   1.655   3.792   8.106  0.1360 -0.2843 -0.1822
 5651SOL    HW128415   1.657   3.886   8.087 -1.1296  0.2229  2.2356
 5651SOL    HW228416   1.587   3.796   8.173 -0.0201  1.7088 -0.4571
 5652SOL     OW28417   0.360   2.685   6.319 -0.2346 -0.4082 -0.4267
 5652SOL    HW128418   0.440   2.723   6.355  0.7961 -0.7323 -2.3425
 5652SOL    HW228419   0.334   2.762   6.269  1.1465 -2.2847 -4.0902
 5653SOL     OW28420   4.571   0.202  13.600  0.0121 -0.1093 -0.0564
 5653SOL    HW128421   4.643   0.141  13.615  0.9950  1.0355 -0.0832
 5653SOL    HW228422   4.623   0.274  13.564  0.1595 -0.2351 -0.0905
 5654SOL     OW28423   4.208   1.160   2.911 -0.2354  0.1552 -0.0813
 5654SOL    HW128424   4.199   1.201   2.825  3.1822 -0.8924 -0.9522
 5654SOL    HW228425   4.198   1.067   2.891  0.0365  0.2040 -0.4457
 5655SOL     OW28426   4.654   2.087  15.637 -0.5360 -0.9121 -0.1370
 5655SOL    HW128427   4.641   2.118  15.727 -0.1348 -0.8108 -0.1183
 5655SOL    HW228428   4.704   2.007  15.652 -4.8888 -3.4300  0.9547
 5656SOL     OW28429   4.339   3.346   8.688  0.4343  0.4747  0.0675
 5656SOL    HW128430   4.303   3.262   8.659 -0.3758  0.7791  0.1949
 5656SOL    HW228431   4.378   3.324   8.773  1.6637  2.9398  0.1327
 5657SOL     OW28432   1.408   0.727   7.143  0.3266  0.0430  0.1537
 5657SOL    HW128433   1.357   0.737   7.224  0.0592  0.1955 -0.0362
 5657SOL    HW228434   1.346   0.734   7.071  1.1289 -1.4213 -0.6652
 5658SOL     OW28435   4.393   0.571   5.392  0.0034 -0.9795 -0.8210
 5658SOL    HW128436   4.303   0.544   5.407  0.2216 -1.1831  0.1409
 5658SOL    HW228437   4.378   0.644   5.333 -3.8864 -0.2175  1.1371
 5659SOL     OW28438   1.085   0.713   5.912  0.3640 -0.1284  0.3157
 5659SOL    HW128439   1.172   0.745   5.891 -0.0522  0.4580 -0.5079
 5659SOL    HW228440   1.047   0.752   5.991 -0.2463 -1.0171  0.4600
 5660SOL     OW28441   1.187   2.290   0.910 -0.2952  0.4259  0.6935
 5660SOL    HW128442   1.219   2.361   0.855  1.9200 -1.8120 -0.9426
 5660SOL    HW228443   1.271   2.279   0.954  0.0708  1.3410  0.2267
 5661SOL     OW28444   0.581   3.523   3.731  0.0398 -0.0292 -0.1322
 5661SOL    HW128445   0.637   3.519   3.653 -1.3475 -1.6171 -1.0625
 5661SOL    HW228446   0.505   3.468   3.711 -0.0646 -0.2545  0.9218
 5662SOL     OW28447   1.616   1.236   1.318 -0.4452  0.0432  0.4109
 5662SOL    HW128448   1.617   1.155   1.268 -2.2448  0.7910 -0.8283
 5662SOL    HW228449   1.634   1.306   1.254  0.5590 -2.3477 -1.9104
 5663SOL     OW28450   1.183   3.303   6.573  0.4997  0.4973  0.1119
 5663SOL    HW128451   1.151   3.391   6.554  2.0467  0.8392 -0.8997
 5663SOL    HW228452   1.137   3.247   6.511  0.5364  1.0355 -0.4037
 5664SOL     OW28453   0.594   0.338   5.540 -0.5131 -0.1799  0.1550
 5664SOL    HW128454   0.588   0.311   5.631 -2.6137  0.0850  0.1085
 5664SOL    HW228455   0.619   0.430   5.547  0.8672 -0.6888  1.8843
 5665SOL     OW28456   2.728   2.670  12.092 -0.5304  0.4191 -0.2242
 5665SOL    HW128457   2.760   2.753  12.056  0.2154  0.6701  1.0250
 5665SOL    HW228458   2.754   2.612  12.020  0.1443  1.2443 -0.6459
 5666SOL     OW28459   0.744   4.464  17.333 -0.2199  0.3177 -0.2778
 5666SOL    HW128460   0.824   4.501  17.296  0.0472  0.5917  0.5731
 5666SOL    HW228461   0.748   4.478  17.428  1.1713  0.4891 -0.3563
 5667SOL     OW28462   2.341   3.903   5.483 -0.0097  0.2794 -0.0448
 5667SOL    HW128463   2.424   3.864   5.455  0.1893  1.5258 -1.1510
 5667SOL    HW228464   2.277   3.856   5.430 -1.2216  1.8536  0.0354
 5668SOL     OW28465   1.264   4.493   3.754 -0.4193 -0.5914 -0.1275
 5668SOL    HW128466   1.301   4.578   3.778  1.1928 -0.8565 -1.6499
 5668SOL    HW228467   1.278   4.501   3.660 -0.8917 -2.1468 -0.3293
 5669SOL     OW28468   3.557   4.038   3.316  1.0105 -0.2408 -0.7883
 5669SOL    HW128469   3.523   4.087   3.240  0.7558  0.9330  0.0887
 5669SOL    HW228470   3.476   3.989   3.329  0.9859 -0.1457 -0.5804
 5670SOL     OW28471   4.262   1.492   7.726  0.1140  0.1829 -0.3001
 5670SOL    HW128472   4.316   1.422   7.761 -2.0636 -1.5437 -0.4195
 5670SOL    HW228473   4.326   1.557   7.697  1.1112 -0.7805 -0.2436
 5671SOL     OW28474   1.106   0.779   1.502  0.1775  0.1114 -0.6086
 5671SOL    HW128475   1.056   0.713   1.551 -0.5158  0.6748 -0.5567
 5671SOL    HW228476   1.040   0.847   1.515 -1.7289 -2.1518  1.7346
 5672SOL     OW28477   4.129   3.156   1.922  0.2051  0.2406 -0.1737
 5672SOL    HW128478   4.162   3.128   2.008 -0.0448  1.5514  0.3430
 5672SOL    HW228479   4.200   3.137   1.860  0.0396 -2.4207  0.4311
 5673SOL     OW28480   1.908   1.019   9.191 -0.4368  0.2119 -0.7944
 5673SOL    HW128481   1.868   0.964   9.258  1.3183  0.2244  0.2410
 5673SOL    HW228482   1.880   1.104   9.225  2.2889  0.3659  0.9961
 5674SOL     OW28483   0.866   0.718  12.521 -0.6620  0.2833  0.3047
 5674SOL    HW128484   0.945   0.699  12.572 -1.1708  2.1381  1.7738
 5674SOL    HW228485   0.823   0.791  12.566 -1.6460 -0.3262  0.3346
 5675SOL     OW28486   1.309   1.414   6.665 -0.4766 -0.0490 -0.0434
 5675SOL    HW128487   1.380   1.355   6.688 -1.5034 -0.5184  1.8362
 5675SOL    HW228488   1.299   1.463   6.746  0.1832  0.9795 -0.5727
 5676SOL     OW28489   0.862   4.629   1.314 -0.2236  0.3935  0.2017
 5676SOL    HW128490   0.922   4.654   1.244  1.0386 -0.9291  0.8267
 5676SOL    HW228491   0.828   4.716   1.337 -2.5212 -0.0213 -1.5579
 5677SOL     OW28492   0.915   0.669   8.528  0.1972  0.6978  0.3803
 5677SOL    HW128493   0.898   0.717   8.608 -2.2001  1.5846 -0.6602
 5677SOL    HW228494   0.846   0.704   8.472  2.4107  2.0265 -1.5653
 5678SOL     OW28495   2.341   1.708  16.676 -0.6586  0.6912  0.1978
 5678SOL    HW128496   2.254   1.673  16.696 -0.2903 -0.4918 -0.2296
 5678SOL    HW228497   2.311   1.794  16.647  3.6735  1.6624 -1.4436
 5679SOL     OW28498   1.078   2.518   4.566  0.2724 -0.5849 -0.0274
 5679SOL    HW128499   1.004   2.562   4.609 -0.6212  0.3868 -2.5761
 5679SOL    HW228500   1.122   2.480   4.642  0.3310 -1.2156 -0.3813
 5680SOL     OW28501   3.745   3.221   7.829  0.2613  0.6151  0.4921
 5680SOL    HW128502   3.801   3.144   7.842 -1.3460 -0.1144  2.9952
 5680SOL    HW228503   3.774   3.279   7.899  0.9958  1.3720 -0.4431
 5681SOL     OW28504   0.373   0.319   5.185 -0.1342 -0.4170 -0.1819
 5681SOL    HW128505   0.396   0.403   5.225  1.9722 -0.5782 -1.0449
 5681SOL    HW228506   0.348   0.339   5.095  1.2102 -0.2125 -0.5199
 5682SOL     OW28507   0.493   4.713   0.158 -0.2559  0.0488  0.6843
 5682SOL    HW128508   0.480   0.006   0.065  0.5522 -2.9295  0.0263
 5682SOL    HW228509   0.407   0.010   0.193 -0.9543  2.1781 -2.3212
 5683SOL     OW28510   3.472   2.088   3.579  0.1169  0.0150 -0.5496
 5683SOL    HW128511   3.417   2.167   3.588  0.7890  0.3431  0.7676
 5683SOL    HW228512   3.410   2.016   3.588 -0.6848  0.8121  0.4145
 5684SOL     OW28513   2.820   0.234   1.330 -0.1163  0.1132 -0.2558
 5684SOL    HW128514   2.858   0.319   1.311  1.1934 -0.5627 -0.6776
 5684SOL    HW228515   2.897   0.179   1.316 -0.4628  0.6317 -4.0509
 5685SOL     OW28516   3.718   1.826  14.316  0.8047  0.2370 -0.3620
 5685SOL    HW128517   3.628   1.809  14.288  0.8907 -0.6710 -0.0668
 5685SOL    HW228518   3.746   1.864  14.233  2.3402 -0.5569 -0.2091
 5686SOL     OW28519   0.038   0.560   8.798  0.4839  0.2029  0.4098
 5686SOL    HW128520   4.689   0.516   8.755  1.5290 -0.4798 -0.6647
 5686SOL    HW228521   0.110   0.501   8.775  0.6200  0.0248  1.2646
 5687SOL     OW28522   1.561   4.147   0.536 -0.6635 -0.2059  0.2773
 5687SOL    HW128523   1.469   4.126   0.550 -0.8758  0.3599 -0.2392
 5687SOL    HW228524   1.588   4.156   0.627 -1.2352  1.8022  0.2584
 5688SOL     OW28525   0.031   1.574   1.038  0.4394  0.1031  0.3258
 5688SOL    HW128526   0.014   1.628   0.960 -0.7693 -1.7991 -0.7275
 5688SOL    HW228527   0.022   1.629   1.116  0.2588 -1.1595  1.1808
 5689SOL     OW28528   2.542   1.040   2.110 -0.0762  0.2959 -0.2257
 5689SOL    HW128529   2.591   0.965   2.077 -0.2530  1.1204 -2.3902
 5689SOL    HW228530   2.459   1.004   2.141 -0.3597 -0.5189 -1.8970
 5690SOL     OW28531   1.091   4.308   7.090  0.2253 -0.2751  0.5191
 5690SOL    HW128532   1.146   4.375   7.129 -0.0586  0.8690 -1.0709
 5690SOL    HW228533   1.076   4.337   7.000  0.5513  3.1740  1.5955
 5691SOL     OW28534   4.147   3.283  12.420 -0.3036 -0.3961  0.4621
 5691SOL    HW128535   4.163   3.337  12.497 -0.6826 -0.3391  0.5020
 5691SOL    HW228536   4.224   3.227  12.432  0.2122  0.0336 -0.8508
 5692SOL     OW28537   4.283   4.619  17.534 -0.7046 -0.3158  0.2746
 5692SOL    HW128538   4.291   4.547  17.596  0.2455  0.4381  1.0215
 5692SOL    HW228539   4.372   4.651  17.517 -0.5083 -1.1554 -0.2827
 5693SOL     OW28540   3.934   1.900   1.483 -0.3443  0.5412 -0.6461
 5693SOL    HW128541   3.987   1.941   1.415  0.6026  2.4835  1.2659
 5693SOL    HW228542   3.944   1.968   1.549 -1.9291  0.6013 -0.4592
 5694SOL     OW28543   3.473   2.817  12.193 -0.6619 -0.0455 -0.2831
 5694SOL    HW128544   3.408   2.809  12.262 -1.5810  1.8541 -0.9421
 5694SOL    HW228545   3.442   2.742  12.142 -1.0133  1.4237 -2.2170
 5695SOL     OW28546   1.488   2.555   7.148 -0.1004  0.5735  0.2397
 5695SOL    HW128547   1.502   2.541   7.241  2.5361 -0.6633 -0.3574
 5695SOL    HW228548   1.552   2.619   7.117 -0.2811  0.2953 -0.7044
 5696SOL     OW28549   0.256   1.807   9.997 -0.3058  0.1076  0.2173
 5696SOL    HW128550   0.320   1.868   9.959 -0.0434 -1.2297 -1.4843
 5696SOL    HW228551   0.310   1.735  10.027 -0.5656  1.3923  3.7121
 5697SOL     OW28552   3.254   3.245  14.093  0.3813  0.1057  0.3538
 5697SOL    HW128553   3.210   3.290  14.021  1.0694 -1.0400 -0.7845
 5697SOL    HW228554   3.304   3.315  14.135  2.5932  0.0567 -2.1705
 5698SOL     OW28555   3.174   1.901  15.663 -0.7213 -0.1361  0.2398
 5698SOL    HW128556   3.217   1.816  15.653 -1.2576 -0.2131 -1.3904
 5698SOL    HW228557   3.204   1.954  15.589 -2.5964 -1.6631 -1.6115
 5699SOL     OW28558   1.672   1.353  10.836 -0.2331  0.0373  0.0166
 5699SOL    HW128559   1.677   1.258  10.849 -2.7364 -0.2765 -1.3305
 5699SOL    HW228560   1.655   1.382  10.926  0.6826  0.7862 -0.0441
 5700SOL     OW28561   2.554   3.148   9.429  0.4039  0.2159  0.1171
 5700SOL    HW128562   2.489   3.081   9.451 -0.7912  0.9161 -1.3614
 5700SOL    HW228563   2.579   3.185   9.514  0.1767  1.5240 -0.3895
 5701SOL     OW28564   3.522   0.853   2.672  0.8235 -0.4400  0.0760
 5701SOL    HW128565   3.482   0.939   2.684  0.7251 -0.5089  0.2499
 5701SOL    HW228566   3.448   0.801   2.643 -0.7223  1.3332  0.8371
 5702SOL     OW28567   1.893   2.877   2.610 -0.3651  0.0791  0.1097
 5702SOL    HW128568   1.961   2.917   2.665  0.9086  0.0735 -1.4274
 5702SOL    HW228569   1.899   2.785   2.637  0.0862  0.5594  1.6191
 5703SOL     OW28570   0.814   1.122   8.434  0.5396  0.7454  0.3451
 5703SOL    HW128571   0.879   1.066   8.477  0.9976  0.0001 -1.3194
 5703SOL    HW228572   0.799   1.182   8.507 -0.6260 -0.9269  1.5051
 5704SOL     OW28573   4.465   3.161   9.442 -0.4227  0.1911  0.1512
 5704SOL    HW128574   4.535   3.223   9.459 -1.4920  1.7628 -1.2574
 5704SOL    HW228575   4.412   3.215   9.383  1.2436 -1.1715 -2.5877
 5705SOL     OW28576   2.943   4.617   6.511  0.0825  0.4899 -0.0753
 5705SOL    HW128577   2.872   4.567   6.551  1.4300 -1.5335 -0.1678
 5705SOL    HW228578   3.003   4.603   6.584 -2.7501 -0.8294  2.0066
 5706SOL     OW28579   1.022   1.173   1.043 -0.2573  0.0451  0.5209
 5706SOL    HW128580   1.103   1.125   1.030 -1.2786 -1.4397 -0.3437
 5706SOL    HW228581   1.057   1.216   1.121 -1.4154 -0.0455  1.0924
 5707SOL     OW28582   2.058   0.410   8.346 -0.1064  0.0650  1.0218
 5707SOL    HW128583   1.999   0.413   8.422 -0.0560  1.9995  0.9997
 5707SOL    HW228584   2.041   0.326   8.305  1.4654  0.1933  0.1180
 5708SOL     OW28585   3.250   0.795   7.477  0.0617  0.3795  0.2700
 5708SOL    HW128586   3.171   0.845   7.499 -0.0596 -0.1676  1.0730
 5708SOL    HW228587   3.289   0.838   7.401  1.2842  1.3105  1.4252
 5709SOL     OW28588   1.309   1.090   5.802 -0.2067 -0.2474  0.2552
 5709SOL    HW128589   1.323   1.075   5.708 -1.7385  2.6395 -0.4090
 5709SOL    HW228590   1.385   1.142   5.828  0.3230 -1.5049  1.2508
 5710SOL     OW28591   2.404   2.759   0.021 -0.0527 -0.1682  0.3464
 5710SOL    HW128592   2.385   2.745  17.627 -0.3009 -0.5986  0.4660
 5710SOL    HW228593   2.345   2.702   0.070  0.0693 -0.5250  0.0821
 5711SOL     OW28594   0.565   4.547   9.055 -0.1756  0.2102  0.3856
 5711SOL    HW128595   0.487   4.602   9.054 -0.2021  0.1679  0.1506
 5711SOL    HW228596   0.528   4.462   9.031 -0.1068  0.1119  0.6366
 5712SOL     OW28597   2.280   2.064   3.965  0.0898  0.4409  0.4955
 5712SOL    HW128598   2.223   2.091   4.037 -1.3629  1.2226 -0.9361
 5712SOL    HW228599   2.352   2.029   4.017 -0.3734 -0.3921  0.5795
 5713SOL     OW28600   0.357   2.462   8.653  0.0552 -0.0969  0.2123
 5713SOL    HW128601   0.366   2.556   8.637 -0.1131 -0.1860 -0.4040
 5713SOL    HW228602   0.268   2.442   8.623  0.5592 -1.7957 -0.1531
 5714SOL     OW28603   1.689   3.007  10.610 -0.2419 -0.1752  0.1940
 5714SOL    HW128604   1.778   2.977  10.632  0.1935 -0.9832 -2.6936
 5714SOL    HW228605   1.690   2.992  10.515 -0.7741  1.0721 -0.0046
 5715SOL     OW28606   1.628   2.807   7.109 -0.1306 -0.0198  0.7168
 5715SOL    HW128607   1.709   2.811   7.159 -0.6508  2.1150  1.4265
 5715SOL    HW228608   1.647   2.775   7.021 -2.2471  0.8347 -0.0685
 5716SOL     OW28609   3.709   3.309   4.800  0.5737 -0.5033  0.1134
 5716SOL    HW128610   3.758   3.331   4.880  1.5434 -0.6058 -0.4555
 5716SOL    HW228611   3.773   3.275   4.738 -0.0351 -1.8956  0.2387
 5717SOL     OW28612   2.348   3.237  10.112  0.3669 -0.1924 -0.9196
 5717SOL    HW128613   2.314   3.201  10.194  0.4293 -1.6654 -1.5394
 5717SOL    HW228614   2.437   3.256  10.143 -0.2202  1.5476 -0.3121
 5718SOL     OW28615   0.896   2.418  17.384 -0.1016 -0.1733 -0.0951
 5718SOL    HW128616   0.955   2.464  17.325  0.8695  0.7016  1.5766
 5718SOL    HW228617   0.820   2.471  17.360  0.2128  1.2205  2.0125
 5719SOL     OW28618   2.513   3.737  12.280 -0.4643  0.3833 -0.0239
 5719SOL    HW128619   2.486   3.802  12.346 -1.8274 -2.2208  1.9906
 5719SOL    HW228620   2.505   3.660  12.337  0.0547  1.2457  1.2370
 5720SOL     OW28621   1.655   4.205  10.607  0.0922  0.5121  0.2920
 5720SOL    HW128622   1.649   4.121  10.651 -1.3699 -0.4483 -1.7354
 5720SOL    HW228623   1.605   4.193  10.527  2.6945 -0.7915 -1.1553
 5721SOL     OW28624   0.128   3.663   1.800 -0.0312  0.3204  0.8526
 5721SOL    HW128625   0.195   3.718   1.841 -1.7355  2.2421  1.0405
 5721SOL    HW228626   0.053   3.721   1.785  0.9327  0.8088 -2.0516
 5722SOL     OW28627   1.894   2.714   8.213 -0.3514 -0.0791 -0.0473
 5722SOL    HW128628   1.877   2.687   8.303 -0.2033 -1.6685 -0.5065
 5722SOL    HW228629   1.967   2.773   8.231 -0.5042  0.0988  0.0008
 5723SOL     OW28630   1.426   2.393   7.602  0.5034  0.6394 -0.1266
 5723SOL    HW128631   1.355   2.328   7.601  1.6676 -0.6621  1.7704
 5723SOL    HW228632   1.474   2.359   7.527 -0.2731 -1.1633  0.1897
 5724SOL     OW28633   3.001   3.299   9.648 -0.2291 -0.0767  0.2818
 5724SOL    HW128634   2.957   3.250   9.579  1.9092 -0.6478 -0.7011
 5724SOL    HW228635   2.974   3.244   9.721 -0.5118 -0.8339 -0.3858
 5725SOL     OW28636   0.784   0.896   4.249  0.1416  0.0532 -0.8167
 5725SOL    HW128637   0.754   0.939   4.329 -0.6174  2.5379 -2.4755
 5725SOL    HW228638   0.866   0.942   4.227  1.3166 -1.3148  0.6898
 5726SOL     OW28639   3.552   1.936  10.375  0.1841 -0.5777  0.0010
 5726SOL    HW128640   3.524   2.003  10.313 -1.0602 -1.2742 -0.1886
 5726SOL    HW228641   3.615   1.891  10.319  1.0949  2.4528 -1.4060
 5727SOL     OW28642   2.651   2.467   1.067  0.8512  0.2645 -0.3956
 5727SOL    HW128643   2.675   2.496   0.980  0.2567  1.1026 -0.2738
 5727SOL    HW228644   2.594   2.537   1.096 -0.5588  0.3256 -3.3149
 5728SOL     OW28645   0.833   3.644  15.727 -0.1413 -0.3528  0.0888
 5728SOL    HW128646   0.808   3.676  15.814  1.1980 -0.9594  0.6899
 5728SOL    HW228647   0.806   3.714  15.667 -0.2357  0.6089  1.2530
 5729SOL     OW28648   3.194   2.010   1.810  0.1134 -0.3422  0.3233
 5729SOL    HW128649   3.176   2.056   1.727  2.1141 -0.0025  0.0862
 5729SOL    HW228650   3.166   1.925   1.776 -1.8314  0.2884  0.3344
 5730SOL     OW28651   4.150   2.210   5.565 -0.4033 -0.0031  0.9717
 5730SOL    HW128652   4.132   2.203   5.472  3.5728  1.5931  0.0729
 5730SOL    HW228653   4.243   2.231   5.568 -0.0431 -1.2640 -1.3841
 5731SOL     OW28654   1.424   0.443  15.140  0.4686  0.3554  0.3147
 5731SOL    HW128655   1.328   0.447  15.143  0.4586 -0.0801  0.5594
 5731SOL    HW228656   1.443   0.403  15.056 -2.2579 -0.4347  0.0897
 5732SOL     OW28657   0.026   1.590  13.162  0.6899  0.3946  0.1573
 5732SOL    HW128658   0.010   1.556  13.250 -3.3907  1.8342 -0.0218
 5732SOL    HW228659   0.109   1.546  13.146  1.5509  0.4729  4.4867
 5733SOL     OW28660   1.902   3.217  10.648 -0.2690  0.5063  0.5146
 5733SOL    HW128661   1.867   3.153  10.709 -0.6056  0.5683  0.3884
 5733SOL    HW228662   1.842   3.292  10.656  1.5811  2.1060 -0.3979
 5734SOL     OW28663   0.361   2.683   4.501  0.5625 -0.1340  0.0359
 5734SOL    HW128664   0.394   2.772   4.511 -1.5991  0.6276  0.3143
 5734SOL    HW228665   0.396   2.632   4.575 -0.2186 -1.0329 -0.2171
 5735SOL     OW28666   3.866   4.048   5.355  0.5860 -0.6014  0.4286
 5735SOL    HW128667   3.794   4.092   5.401  0.5015  0.3311 -0.5940
 5735SOL    HW228668   3.839   4.066   5.265 -2.2039 -2.1264  0.9356
 5736SOL     OW28669   2.392   0.727   3.720  0.1319 -0.1455  1.0349
 5736SOL    HW128670   2.336   0.780   3.664  1.6207 -0.2234 -0.5464
 5736SOL    HW228671   2.419   0.658   3.659 -1.2784  0.4472 -0.2466
 5737SOL     OW28672   3.189   3.435   4.794  0.0425 -0.0531  0.7716
 5737SOL    HW128673   3.235   3.452   4.877 -1.3703  2.1062  1.1324
 5737SOL    HW228674   3.217   3.344   4.785  0.2142  0.0762  0.0113
 5738SOL     OW28675   1.488   2.278   5.109  0.0203 -0.9696  0.3186
 5738SOL    HW128676   1.583   2.269   5.105 -0.0978 -1.2508 -1.6926
 5738SOL    HW228677   1.454   2.189   5.096  0.7396 -1.2613  0.4762
 5739SOL     OW28678   3.052   2.741   3.475 -0.3405  0.4589 -0.2499
 5739SOL    HW128679   3.133   2.690   3.477 -1.2789 -1.1315 -2.1294
 5739SOL    HW228680   3.062   2.803   3.547  1.0619 -1.5159  1.2544
 5740SOL     OW28681   4.706   4.650   0.337 -0.0918  0.1493 -0.6170
 5740SOL    HW128682   4.694   4.603   0.420 -1.2367  1.7957  0.1481
 5740SOL    HW228683   4.644   4.599   0.284 -1.0666  0.5917  0.0886
 5741SOL     OW28684   1.685   0.697   7.136  0.1593  0.3365 -0.6076
 5741SOL    HW128685   1.591   0.714   7.130 -0.3353 -1.3628  1.8993
 5741SOL    HW228686   1.707   0.711   7.228 -0.0477 -0.5200 -0.4238
 5742SOL     OW28687   3.039   3.992  12.552  0.3794  0.6144  0.0032
 5742SOL    HW128688   3.000   3.905  12.540 -5.5411  3.4632 -1.3855
 5742SOL    HW228689   3.125   3.987  12.511  1.2726 -1.4576  2.1393
 5743SOL     OW28690   1.893   4.487  11.538  0.2852 -0.1229 -0.8544
 5743SOL    HW128691   1.804   4.519  11.523  0.4746 -1.1560 -4.1525
 5743SOL    HW228692   1.908   4.431  11.463 -1.6735 -2.7420  0.6979
 5744SOL     OW28693   4.281   2.798   3.253 -0.1032  0.4339  0.0571
 5744SOL    HW128694   4.219   2.837   3.191 -0.2907  0.4264  0.2396
 5744SOL    HW228695   4.259   2.705   3.261 -1.2201  0.5072 -2.3389
 5745SOL     OW28696   4.040   2.267   2.144 -0.4030 -0.0756 -0.4605
 5745SOL    HW128697   4.021   2.250   2.052  0.7069  0.5789 -0.8058
 5745SOL    HW228698   4.084   2.187   2.174 -1.9573  0.0433  2.1368
 5746SOL     OW28699   2.212   1.630  14.612 -0.2519  0.5265  0.2665
 5746SOL    HW128700   2.125   1.591  14.623  0.2031 -1.0149 -1.7101
 5746SOL    HW228701   2.204   1.661  14.522 -3.2127  0.0382  0.3706
 5747SOL     OW28702   2.357   1.709   4.983  0.6237  0.1367  0.2594
 5747SOL    HW128703   2.273   1.716   5.030  0.5735 -2.4430  0.5560
 5747SOL    HW228704   2.342   1.750   4.898  1.4496 -0.1263 -0.0094
 5748SOL     OW28705   0.113   1.780   3.033  0.3966 -0.5910 -0.0493
 5748SOL    HW128706   0.051   1.786   2.961  1.6154  0.1680 -1.0286
 5748SOL    HW228707   0.200   1.772   2.994 -0.2336 -0.9246 -1.3705
 5749SOL     OW28708   0.599   3.730  13.167 -0.1444  0.5508  0.4672
 5749SOL    HW128709   0.685   3.699  13.137  0.3862  1.6329  0.8871
 5749SOL    HW228710   0.587   3.671  13.242  1.3461 -0.2857  0.0493
 5750SOL     OW28711   1.606   4.375   8.552 -0.2904 -0.5085 -0.8305
 5750SOL    HW128712   1.692   4.366   8.513  1.0603 -1.8482  2.4444
 5750SOL    HW228713   1.613   4.463   8.588 -1.5763  0.4384 -2.8653
 5751SOL     OW28714   4.661   4.043  13.073 -0.3789  0.5021  0.3059
 5751SOL    HW128715   0.004   4.092  13.119  1.4507 -0.5809 -1.2313
 5751SOL    HW228716   4.704   4.001  12.999  0.7191  1.8775  0.1725
 5752SOL     OW28717   0.449   3.145   0.736  0.3252  0.2067  0.2723
 5752SOL    HW128718   0.400   3.147   0.818 -1.6764 -0.4446 -0.8842
 5752SOL    HW228719   0.485   3.056   0.739 -0.7872 -0.2855 -0.6597
 5753SOL     OW28720   3.875   0.580  11.238  0.5407 -0.0775 -0.0760
 5753SOL    HW128721   3.901   0.489  11.253  1.4858 -0.0136 -1.3209
 5753SOL    HW228722   3.952   0.634  11.220  0.4019 -0.0644 -0.6374
 5754SOL     OW28723   1.311   1.931   3.724  0.0207 -0.3335  0.3037
 5754SOL    HW128724   1.256   2.004   3.752 -1.1207 -0.4509 -1.6475
 5754SOL    HW228725   1.254   1.853   3.721 -0.8936  0.3410  0.1917
 5755SOL     OW28726   3.334   2.917   6.570 -0.0482  0.4811 -0.1747
 5755SOL    HW128727   3.311   3.004   6.536  0.7274  0.2551 -1.2830
 5755SOL    HW228728   3.342   2.862   6.492 -3.8231  0.6449 -0.6766
 5756SOL     OW28729   0.755   2.888   4.949 -0.5830 -0.1277 -0.7049
 5756SOL    HW128730   0.740   2.799   4.981 -0.5540 -0.4003 -1.4406
 5756SOL    HW228731   0.683   2.940   4.985 -0.2990  0.0924 -0.4643
 5757SOL     OW28732   0.590   0.792   8.169 -0.1235  1.2084 -0.0393
 5757SOL    HW128733   0.627   0.782   8.082  0.1751 -0.8138  0.3205
 5757SOL    HW228734   0.603   0.882   8.197  0.3545  0.6751  1.4662
 5758SOL     OW28735   0.944   0.606   9.310  0.0098 -0.3271  0.0122
 5758SOL    HW128736   0.923   0.698   9.325  0.5821 -0.3761  1.0361
 5758SOL    HW228737   0.947   0.570   9.398  1.5117 -0.9350 -0.2905
 5759SOL     OW28738   1.971   3.166   5.628 -0.2397  0.2324  0.0375
 5759SOL    HW128739   2.038   3.233   5.611 -1.4373  1.3929 -0.1756
 5759SOL    HW228740   1.911   3.165   5.553  2.3722  0.5019 -2.0654
 5760SOL     OW28741   3.732   0.583  11.680 -0.4747  0.5898 -0.1260
 5760SOL    HW128742   3.738   0.554  11.771 -0.9349 -0.1603 -0.3410
 5760SOL    HW228743   3.760   0.675  11.683  0.5427  0.2617  0.3175
 5761SOL     OW28744   2.986   1.509   4.615  0.0154 -0.0932  0.0230
 5761SOL    HW128745   2.932   1.510   4.536 -0.0397  1.1191  0.0648
 5761SOL    HW228746   3.068   1.545   4.579  1.3745 -0.2662  2.9079
 5762SOL     OW28747   0.555   2.581   8.201  0.9229 -0.4951 -0.5614
 5762SOL    HW128748   0.543   2.559   8.293  4.0844 -0.1743 -0.0474
 5762SOL    HW228749   0.509   2.506   8.163  1.5492 -1.0232 -0.2787
 5763SOL     OW28750   0.106   2.930   0.814  0.7340 -0.2798  0.0763
 5763SOL    HW128751   0.075   2.996   0.875  0.1506  1.0563 -1.6739
 5763SOL    HW228752   0.110   2.850   0.866 -1.1272  0.8799  1.9688
 5764SOL     OW28753   2.532   0.463   6.394  0.1528 -0.2853  0.2623
 5764SOL    HW128754   2.624   0.482   6.415  1.0371 -1.5956 -2.3676
 5764SOL    HW228755   2.495   0.549   6.413  1.6430  0.1106  1.3964
 5765SOL     OW28756   0.955   1.639   9.104  0.0710 -0.7825 -0.2893
 5765SOL    HW128757   0.975   1.611   9.193  0.9170 -0.0513 -0.2609
 5765SOL    HW228758   1.045   1.633   9.072  0.5665  1.2248  0.6944
 5766SOL     OW28759   3.207   0.897   1.734  0.0623 -0.0407  0.0201
 5766SOL    HW128760   3.169   0.851   1.660 -2.9098  0.9511  0.9488
 5766SOL    HW228761   3.127   0.930   1.774  0.6034  0.8805  0.3340
 5767SOL     OW28762   4.297   3.364  14.733  0.1071 -0.1618  0.1222
 5767SOL    HW128763   4.342   3.297  14.784 -0.8944 -0.3202  0.7976
 5767SOL    HW228764   4.305   3.326  14.645  1.0841  1.3696 -0.4563
 5768SOL     OW28765   0.732   3.478   3.046  0.0729 -0.5865 -0.5594
 5768SOL    HW128766   0.734   3.567   3.011  1.0654 -0.7866 -1.0144
 5768SOL    HW228767   0.777   3.424   2.981 -0.7283 -2.1509  0.1973
 5769SOL     OW28768   2.913   0.787  14.067 -0.2244 -0.2983 -0.1833
 5769SOL    HW128769   2.863   0.792  14.149  0.3652 -1.6846  0.2510
 5769SOL    HW228770   2.993   0.835  14.088 -1.1403  0.7118  0.9776
 5770SOL     OW28771   4.052   0.931   8.098  0.2140  0.2133  0.3434
 5770SOL    HW128772   4.056   0.863   8.032  0.1376 -0.1347  0.6973
 5770SOL    HW228773   3.989   0.984   8.050  0.1967 -1.4812 -1.4887
 5771SOL     OW28774   0.122   2.122   8.719  0.4643 -0.2402  0.1596
 5771SOL    HW128775   0.111   2.053   8.784 -0.7860 -1.4794 -1.3501
 5771SOL    HW228776   0.205   2.099   8.677  0.9350  0.5730  0.6517
 5772SOL     OW28777   2.662   4.629   4.005  0.7942  0.4530 -0.1962
 5772SOL    HW128778   2.756   4.624   3.986  0.8602  0.6624  0.0679
 5772SOL    HW228779   2.610   4.662   3.932 -1.4136 -1.4312  0.5380
 5773SOL     OW28780   0.212   3.220   2.848  0.5203  0.2082  0.3398
 5773SOL    HW128781   0.292   3.177   2.818 -0.8001 -1.8026 -0.2914
 5773SOL    HW228782   0.242   3.308   2.872  0.0008  0.2037  0.9963
 5774SOL     OW28783   1.464   0.482   4.456 -0.2994 -0.4835  0.0323
 5774SOL    HW128784   1.387   0.472   4.401  0.2330  0.8105 -0.9595
 5774SOL    HW228785   1.492   0.391   4.468 -0.0631 -0.5989 -1.4699
 5775SOL     OW28786   3.198   2.315   5.120  0.1252 -0.1874 -0.5297
 5775SOL    HW128787   3.210   2.293   5.027 -0.3676 -0.3001 -0.5674
 5775SOL    HW228788   3.235   2.403   5.126 -1.1738  0.4738 -2.2564
 5776SOL     OW28789   1.898   1.877   1.487 -0.3846 -0.1947  0.2825
 5776SOL    HW128790   1.967   1.882   1.552 -1.3166 -0.6634  1.3054
 5776SOL    HW228791   1.834   1.818   1.528 -0.1172 -1.5033 -1.1691
 5777SOL     OW28792   1.527   3.083   7.377  0.1442 -0.0849  0.0034
 5777SOL    HW128793   1.451   3.140   7.370 -0.8157 -1.1406  1.7358
 5777SOL    HW228794   1.490   2.995   7.367  0.0658  0.0584 -0.9695
 5778SOL     OW28795   4.035   1.478  11.031 -0.1521 -0.0166  0.3348
 5778SOL    HW128796   4.078   1.558  11.061 -0.3241 -0.5190  1.8944
 5778SOL    HW228797   3.950   1.517  11.008  0.1357 -0.3379 -1.2763
 5779SOL     OW28798   3.302   1.223   3.757  0.0044  0.5629 -0.0762
 5779SOL    HW128799   3.308   1.167   3.680 -2.1818 -0.7479  0.7081
 5779SOL    HW228800   3.216   1.265   3.744  0.3861  0.8760 -1.5099
 5780SOL     OW28801   4.283   2.106   0.719  0.4975  0.9149  0.9277
 5780SOL    HW128802   4.313   2.045   0.651  0.6949  1.7266  0.2748
 5780SOL    HW228803   4.363   2.142   0.757  1.8635 -1.6015  0.4239
 5781SOL     OW28804   3.980   1.065  14.201  0.0699  0.0694 -0.1095
 5781SOL    HW128805   3.904   1.007  14.210  0.5123 -0.4597  0.1810
 5781SOL    HW228806   4.051   1.005  14.222 -0.5318 -0.8319 -0.6838
 5782SOL     OW28807   0.825   2.955   2.440 -0.4664 -0.1253 -0.5608
 5782SOL    HW128808   0.882   3.025   2.408 -2.3683  1.7392  0.1029
 5782SOL    HW228809   0.851   2.944   2.531 -1.7299 -0.0852 -0.1970
 5783SOL     OW28810   3.961   2.956  15.857 -0.0165  0.1393  0.1486
 5783SOL    HW128811   3.974   2.967  15.763 -1.1179  0.0553 -0.0217
 5783SOL    HW228812   3.870   2.925  15.853  0.2404 -0.7212  0.9163
 5784SOL     OW28813   4.058   2.042   0.919  0.2261 -0.0528 -0.0853
 5784SOL    HW128814   4.096   2.094   0.849 -1.1035  0.9973 -0.0233
 5784SOL    HW228815   3.981   2.092   0.946  0.1197  0.4045 -1.2490
 5785SOL     OW28816   0.328   3.339   5.663  0.1451  0.0031 -0.2858
 5785SOL    HW128817   0.345   3.251   5.629  1.9906  0.6460 -1.0555
 5785SOL    HW228818   0.281   3.372   5.587  1.2517  0.9649 -0.5648
 5786SOL     OW28819   2.366   3.391   4.731  0.1097  0.9956  0.1234
 5786SOL    HW128820   2.342   3.346   4.650 -0.0876 -0.1018  0.7917
 5786SOL    HW228821   2.433   3.328   4.754 -0.3584  0.2937 -0.4179
 5787SOL     OW28822   3.061   1.879  11.277  0.5878  0.5676  0.0333
 5787SOL    HW128823   3.109   1.844  11.352 -1.1631 -2.3688 -0.2090
 5787SOL    HW228824   3.130   1.875  11.211  1.7839 -2.1038  1.4378
 5788SOL     OW28825   4.122   4.004   5.284 -0.6076  0.2867  0.0224
 5788SOL    HW128826   4.057   4.029   5.350  0.5297 -1.9746  1.9782
 5788SOL    HW228827   4.089   4.064   5.217  0.8865  1.7567  0.5997
 5789SOL     OW28828   2.798   1.791   7.049  0.1901  0.0925 -0.5085
 5789SOL    HW128829   2.714   1.756   7.020 -1.6227  1.4893  3.0506
 5789SOL    HW228830   2.780   1.884   7.040 -0.9728  0.0839  1.7610
 5790SOL     OW28831   0.452   0.417   4.920 -0.4348 -0.3174 -0.1958
 5790SOL    HW128832   0.529   0.360   4.911  0.8808  1.4360 -0.0130
 5790SOL    HW228833   0.481   0.503   4.889 -0.1227 -0.9017 -1.5079
 5791SOL     OW28834   3.075   1.011  17.326 -0.5398  0.3733  0.2728
 5791SOL    HW128835   3.141   0.942  17.332 -1.4659 -0.7911 -3.0714
 5791SOL    HW228836   3.060   0.998  17.232  2.1257  0.4996 -0.1803
 5792SOL     OW28837   2.033   3.696   1.597 -0.1931  0.4583  0.4493
 5792SOL    HW128838   2.032   3.677   1.691  0.6206 -1.6898  0.0238
 5792SOL    HW228839   2.062   3.612   1.560  1.6751  0.9500  0.8278
 5793SOL     OW28840   0.703   1.768  11.535 -0.5837 -0.2062  0.2493
 5793SOL    HW128841   0.635   1.703  11.549  1.6421 -2.3769  1.0418
 5793SOL    HW228842   0.728   1.803  11.621  1.5978  0.5655 -0.6806
 5794SOL     OW28843   1.264   4.219   3.754 -0.0454 -0.1735 -0.0542
 5794SOL    HW128844   1.354   4.199   3.728 -0.5028  0.6974 -2.3078
 5794SOL    HW228845   1.276   4.307   3.791 -0.9910 -0.6517  1.4023
 5795SOL     OW28846   2.935   0.619  13.768 -0.1396  0.0306  0.3182
 5795SOL    HW128847   2.893   0.670  13.838 -0.1643 -0.1889  0.4631
 5795SOL    HW228848   2.992   0.558  13.815  1.2655  1.2395  0.1855
 5796SOL     OW28849   3.285   3.932   9.548  0.6219  0.1859 -0.0751
 5796SOL    HW128850   3.288   3.976   9.463  1.3369 -2.9222 -1.6519
 5796SOL    HW228851   3.205   3.880   9.542  0.6384  0.0768  0.6448
 5797SOL     OW28852   2.131   3.830   9.474 -0.2989  0.6307 -0.0611
 5797SOL    HW128853   2.169   3.743   9.459  0.4527  0.8495  0.6251
 5797SOL    HW228854   2.050   3.823   9.423 -0.7849 -2.5687  1.1565
 5798SOL     OW28855   1.593   4.421   7.567 -0.1948  0.0247 -0.6961
 5798SOL    HW128856   1.674   4.373   7.549  0.1844 -0.4311  2.3523
 5798SOL    HW228857   1.619   4.513   7.566 -2.3375  0.6309  1.1178
 5799SOL     OW28858   2.291   1.796  14.809 -0.6425 -0.0956 -0.2305
 5799SOL    HW128859   2.339   1.738  14.869 -1.8895 -0.8840  0.0191
 5799SOL    HW228860   2.267   1.735  14.739 -3.7019  0.5026  0.3284
 5800SOL     OW28861   3.829   2.931   6.708  0.0034 -0.5228  0.1773
 5800SOL    HW128862   3.854   3.018   6.739  3.7746 -1.3812 -0.5261
 5800SOL    HW228863   3.761   2.900   6.768  0.6798 -2.4332 -0.0436
 5801SOL     OW28864   0.668   4.195   2.760 -0.1501  0.1194  0.5075
 5801SOL    HW128865   0.710   4.238   2.835  4.7501 -0.8646 -1.6587
 5801SOL    HW228866   0.744   4.188   2.701  1.0911 -0.6236  2.2109
 5802SOL     OW28867   3.193   3.196  11.488  0.4594  0.2270 -0.1759
 5802SOL    HW128868   3.250   3.258  11.532  0.2848  0.0706  0.2706
 5802SOL    HW228869   3.247   3.163  11.417 -2.1021 -0.0173 -2.0141
 5803SOL     OW28870   0.055   3.676   2.158 -0.1681  0.0074  0.6903
 5803SOL    HW128871   4.723   3.630   2.096 -1.7828  1.9559  0.7076
 5803SOL    HW228872   0.027   3.639   2.242 -0.9836 -2.5653 -0.7088
 5804SOL     OW28873   3.965   2.655  17.564  0.7849  0.0063 -0.1435
 5804SOL    HW128874   3.991   2.575  17.519 -0.5590  0.3316 -1.5069
 5804SOL    HW228875   3.996   2.726  17.508 -2.6171 -0.6151 -2.8015
 5805SOL     OW28876   3.128   3.105   3.422 -0.3533  0.2827 -0.3754
 5805SOL    HW128877   3.147   3.103   3.328  1.3599  0.8772 -0.0365
 5805SOL    HW228878   3.135   3.198   3.444  3.0037  0.0405 -0.5589
 5806SOL     OW28879   0.804   2.523   2.473  0.2950 -0.1303 -0.0605
 5806SOL    HW128880   0.841   2.435   2.485 -2.8519 -1.6193 -1.3860
 5806SOL    HW228881   0.717   2.502   2.505 -0.4382 -1.8140 -3.1794
 5807SOL     OW28882   1.150   3.216   5.750 -0.4916  0.2200 -0.2156
 5807SOL    HW128883   1.076   3.228   5.690 -1.7362  0.2515  1.3324
 5807SOL    HW228884   1.182   3.306   5.756 -1.3765  0.6427 -1.8719
 5808SOL     OW28885   2.072   4.002  12.084  0.0373 -0.1848  0.0308
 5808SOL    HW128886   2.069   3.932  12.150 -1.4901 -1.5476 -1.4719
 5808SOL    HW228887   2.130   3.969  12.016  1.0498 -0.7621  1.1719
 5809SOL     OW28888   3.706   4.266   3.713  0.3751 -0.6445 -0.2382
 5809SOL    HW128889   3.642   4.248   3.643  0.7678 -2.2839 -0.1709
 5809SOL    HW228890   3.686   4.191   3.769 -1.0342 -0.3874 -0.3920
 5810SOL     OW28891   2.870   4.673   0.955 -0.7965  0.3042  0.0175
 5810SOL    HW128892   2.777   4.657   0.970 -0.6275 -1.1145 -0.4149
 5810SOL    HW228893   2.863   0.035   0.916  0.3080  1.9707  3.5202
 5811SOL     OW28894   0.554   0.936   8.701 -0.0928 -0.4589  0.0202
 5811SOL    HW128895   0.496   0.930   8.625 -0.2349  1.2792 -0.0200
 5811SOL    HW228896   0.543   1.027   8.728  2.9389  0.2311 -1.0383
 5812SOL     OW28897   0.751   1.105   6.576  0.1873  0.1525 -0.1287
 5812SOL    HW128898   0.790   1.115   6.663  0.7439  2.7313 -0.6952
 5812SOL    HW228899   0.823   1.133   6.520 -0.1399  0.1905 -0.5315
 5813SOL     OW28900   1.835   1.138   6.385 -0.7840  0.2494  0.3137
 5813SOL    HW128901   1.837   1.086   6.466 -0.9712  1.1162  0.8699
 5813SOL    HW228902   1.926   1.136   6.356 -0.4813  1.1409  1.2062
 5814SOL     OW28903   1.332   4.419   7.587  0.8573  0.1875 -0.1574
 5814SOL    HW128904   1.427   4.405   7.580  1.0242  1.0937  0.3032
 5814SOL    HW228905   1.329   4.509   7.620 -0.5518 -0.5891  1.7910
 5815SOL     OW28906   1.334   4.366   6.913  0.0486  0.6200  0.1397
 5815SOL    HW128907   1.404   4.418   6.952  1.4936 -0.9912 -0.3076
 5815SOL    HW228908   1.324   4.294   6.975  0.5685 -0.5275 -1.0935
 5816SOL     OW28909   3.082   3.231   6.277  0.9548 -0.3348  0.2236
 5816SOL    HW128910   3.158   3.200   6.328  0.3777  0.2321  1.4340
 5816SOL    HW228911   3.114   3.319   6.257  1.0163  0.1203  2.2489
 5817SOL     OW28912   4.423   2.271  14.444 -0.5293  0.4057  0.0361
 5817SOL    HW128913   4.330   2.294  14.448 -0.3241  1.3889 -0.7171
 5817SOL    HW228914   4.460   2.359  14.442 -2.3056  1.1201 -1.7188
 5818SOL     OW28915   4.112   0.763   4.782 -0.3556 -0.2177  0.2098
 5818SOL    HW128916   4.051   0.835   4.800 -2.4114 -1.8832 -0.0725
 5818SOL    HW228917   4.186   0.788   4.839 -1.6012 -2.4616  2.8110
 5819SOL     OW28918   2.045   0.775   1.419 -0.7707  0.2585 -0.3315
 5819SOL    HW128919   1.962   0.757   1.462 -0.7769 -1.2704 -0.9871
 5819SOL    HW228920   2.050   0.696   1.366  0.2882 -0.9728  1.6197
 5820SOL     OW28921   0.746   1.786   1.529 -0.2135  1.1301 -0.5484
 5820SOL    HW128922   0.712   1.834   1.453  1.5673  0.5193 -1.7369
 5820SOL    HW228923   0.726   1.840   1.605 -0.6722  1.3588 -0.8251
 5821SOL     OW28924   4.206   0.574   7.995 -0.5217 -0.4267  0.0115
 5821SOL    HW128925   4.240   0.539   8.077 -0.4509 -0.6191 -0.0975
 5821SOL    HW228926   4.197   0.490   7.949 -1.4840 -0.4244  0.2126
 5822SOL     OW28927   2.210   1.281  15.296  0.1039  0.2970  0.9130
 5822SOL    HW128928   2.122   1.280  15.258 -0.3252 -0.9732  1.9319
 5822SOL    HW228929   2.197   1.220  15.369  0.1358 -1.5679 -0.6253
 5823SOL     OW28930   0.031   3.907   2.590 -0.7224  0.4305 -0.5073
 5823SOL    HW128931   0.002   3.998   2.584  1.3911  1.0982 -0.8569
 5823SOL    HW228932   0.113   3.912   2.540 -0.9666  0.5665 -0.8879
 5824SOL     OW28933   3.689   3.648   5.094 -0.3836 -0.1151 -0.3256
 5824SOL    HW128934   3.783   3.659   5.106 -0.4945 -0.0343  0.4707
 5824SOL    HW228935   3.684   3.553   5.085 -0.9774 -0.0638 -0.5238
 5825SOL     OW28936   4.114   2.201   1.619 -0.8832 -0.2851  0.1700
 5825SOL    HW128937   4.027   2.241   1.606  0.7845  3.1264 -0.4266
 5825SOL    HW228938   4.149   2.269   1.676  1.9637 -0.5442 -1.2714
 5826SOL     OW28939   3.107   1.946   8.563  0.3952  0.4054 -0.8169
 5826SOL    HW128940   3.191   1.992   8.571  0.5334  0.0921 -0.4819
 5826SOL    HW228941   3.083   1.986   8.480  0.1147 -0.4563 -1.1461
 5827SOL     OW28942   0.089   3.295   5.866  0.4816  0.2465 -0.0329
 5827SOL    HW128943   0.152   3.359   5.833 -1.2248  1.6569 -0.5672
 5827SOL    HW228944   0.012   3.352   5.866  0.3497  0.0595  1.0380
 5828SOL     OW28945   4.082   0.928   1.739  0.2734  0.0675 -0.7609
 5828SOL    HW128946   4.051   0.948   1.650 -1.1267 -1.1967 -0.5536
 5828SOL    HW228947   4.013   0.871   1.773  0.9075 -0.0153  0.3743
 5829SOL     OW28948   3.223   1.971   4.751  0.2247 -0.8828 -0.3691
 5829SOL    HW128949   3.146   1.918   4.771 -0.5835  0.4491  0.0113
 5829SOL    HW228950   3.250   1.940   4.665 -0.5466 -1.7316 -0.3052
 5830SOL     OW28951   1.774   4.197  12.342  0.0413 -0.1862  0.2515
 5830SOL    HW128952   1.723   4.189  12.423 -1.0578  0.9097 -0.3430
 5830SOL    HW228953   1.761   4.112  12.300  1.7226 -1.1235  1.6271
 5831SOL     OW28954   2.443   0.609   9.892 -0.4431 -0.4079  0.2682
 5831SOL    HW128955   2.526   0.609   9.845 -0.3631  1.1356  0.3941
 5831SOL    HW228956   2.421   0.516   9.901  0.1091 -0.5841 -0.2263
 5832SOL     OW28957   4.362   3.264  14.482  0.9108 -0.4083  0.3825
 5832SOL    HW128958   4.418   3.232  14.411 -1.8271  1.4191 -2.5929
 5832SOL    HW228959   4.323   3.179  14.499 -2.3100  0.7736 -1.1982
 5833SOL     OW28960   2.873   2.582   7.686 -0.0405  0.4589 -0.9265
 5833SOL    HW128961   2.855   2.492   7.658  2.3398 -0.3204  0.0759
 5833SOL    HW228962   2.789   2.613   7.722  0.1197 -0.9633  0.7132
 5834SOL     OW28963   4.567   4.048   0.907  0.1768 -0.2439  0.1069
 5834SOL    HW128964   4.571   4.033   1.002  2.2763 -1.4744 -0.1755
 5834SOL    HW228965   4.615   4.130   0.901  0.2454 -0.3207 -0.3699
 5835SOL     OW28966   1.947   3.183   8.901  0.0161 -0.2896  0.3945
 5835SOL    HW128967   1.933   3.277   8.887  0.9793  0.1037  2.1017
 5835SOL    HW228968   2.030   3.173   8.853  0.5836 -4.4309  2.2702
 5836SOL     OW28969   3.877   1.023  13.284 -0.4764 -0.5356  0.2853
 5836SOL    HW128970   3.876   1.017  13.380 -2.0286 -0.4553  0.2740
 5836SOL    HW228971   3.953   1.081  13.277 -1.9244  1.3019 -0.1815
 5837SOL     OW28972   1.202   4.645   6.855  0.5855 -0.1431 -0.2976
 5837SOL    HW128973   1.120   4.660   6.901  0.9418  0.0868  0.2722
 5837SOL    HW228974   1.249   4.575   6.900 -0.0249  0.1827  0.8461
 5838SOL     OW28975   2.575   2.866   0.183 -0.1111  0.0214 -0.8118
 5838SOL    HW128976   2.507   2.831   0.125 -1.2811 -1.7646  1.6255
 5838SOL    HW228977   2.549   2.957   0.193 -0.4478 -0.2564  0.7754
 5839SOL     OW28978   2.867   4.069   6.970  0.7109 -0.2123  0.2081
 5839SOL    HW128979   2.816   4.057   7.050 -0.9214  2.6795 -0.4075
 5839SOL    HW228980   2.874   3.978   6.940 -0.4044  0.0241 -0.7482
 5840SOL     OW28981   4.638   4.500   4.158  0.5029 -0.2111 -0.2484
 5840SOL    HW128982   4.661   4.572   4.216  1.4474 -1.8692  1.3956
 5840SOL    HW228983   4.551   4.530   4.129  0.3794  1.5818  2.0275
 5841SOL     OW28984   4.291   1.153   6.557 -0.1751  0.0688 -0.1940
 5841SOL    HW128985   4.235   1.087   6.517  1.8014 -1.1060 -1.0369
 5841SOL    HW228986   4.221   1.218   6.552 -0.8650 -0.5413  1.8235
 5842SOL     OW28987   4.405   0.680   7.247 -0.2451  0.2844 -0.6408
 5842SOL    HW128988   4.349   0.748   7.282  1.7175  0.4539  2.1929
 5842SOL    HW228989   4.487   0.729   7.252 -0.6661  0.9847 -0.6219
 5843SOL     OW28990   4.095   3.494  12.626 -0.0522  0.6610  0.3666
 5843SOL    HW128991   4.001   3.478  12.628 -0.1489  1.1021 -0.5295
 5843SOL    HW228992   4.112   3.586  12.649  1.6872  0.3588  0.2466
 5844SOL     OW28993   2.616   3.329   2.053 -0.2922  0.6307 -0.1957
 5844SOL    HW128994   2.666   3.338   1.972 -1.0450 -2.1558 -0.9660
 5844SOL    HW228995   2.532   3.302   2.015  0.5511 -2.7043  0.3092
 5845SOL     OW28996   2.194   4.429   8.669 -0.3941 -0.3192 -0.0849
 5845SOL    HW128997   2.110   4.444   8.712 -0.9419 -2.0934 -0.5304
 5845SOL    HW228998   2.201   4.509   8.616  2.2366 -0.1001  0.5854
 5846SOL     OW28999   1.368   2.795   2.512  0.1617 -0.5088  0.2752
 5846SOL    HW129000   1.361   2.858   2.584  0.1195  0.4453 -0.5565
 5846SOL    HW229001   1.435   2.733   2.540 -0.0832 -0.6907  0.4570
 5847SOL     OW29002   1.116   4.701   4.824 -0.0325 -0.0819  0.1918
 5847SOL    HW129003   1.121   0.068   4.794 -2.4920 -0.1584 -0.4578
 5847SOL    HW229004   1.056   4.662   4.761  1.2796 -0.8132 -0.5980
 5848SOL     OW29005   4.414   2.545   8.308 -0.0095  0.3201  0.3083
 5848SOL    HW129006   4.360   2.528   8.231  0.0708  2.9864 -0.3386
 5848SOL    HW229007   4.397   2.638   8.319  0.9031  0.2770  2.1148
 5849SOL     OW29008   1.595   1.751  13.553  0.1587 -0.2805 -0.5101
 5849SOL    HW129009   1.525   1.815  13.565  0.6054  0.4343 -1.7489
 5849SOL    HW229010   1.660   1.790  13.612 -0.8311  0.1782  0.2873
 5850SOL     OW29011   0.032   1.604  17.116  0.0828 -0.0844 -0.3460
 5850SOL    HW129012   0.064   1.652  17.192 -2.8338 -0.2991  1.0236
 5850SOL    HW229013   4.698   1.540  17.157  2.0178 -2.2744 -0.9754
 5851SOL     OW29014   3.752   1.700   1.460 -0.3860 -0.7472 -0.2107
 5851SOL    HW129015   3.827   1.759   1.469 -1.0328  0.3389 -2.0458
 5851SOL    HW229016   3.788   1.612   1.450 -1.3551 -1.2484  0.7338
 5852SOL     OW29017   2.597   3.512   5.552  0.3241  0.4673 -0.3826
 5852SOL    HW129018   2.617   3.419   5.544 -1.2398 -0.3179  4.7509
 5852SOL    HW229019   2.664   3.532   5.617  2.0604 -1.1820 -1.6901
 5853SOL     OW29020   4.114   2.262   6.119 -0.5566  0.1072 -0.3464
 5853SOL    HW129021   4.062   2.181   6.120 -0.2474 -0.0759  1.1352
 5853SOL    HW229022   4.095   2.293   6.208  0.7508 -0.5203  0.1539
 5854SOL     OW29023   0.959   0.391   5.269  0.6491 -0.6205 -0.0078
 5854SOL    HW129024   1.046   0.373   5.232  0.4951 -1.7174  0.1777
 5854SOL    HW229025   0.899   0.324   5.237 -0.1760  1.0882 -2.0824
 5855SOL     OW29026   4.004   2.408   6.370  0.2153  0.7652 -0.3410
 5855SOL    HW129027   4.003   2.495   6.328 -2.2226  1.0408  0.2765
 5855SOL    HW229028   3.911   2.387   6.364  0.7272 -1.2632 -1.0085
 5856SOL     OW29029   2.136   0.627  11.458  0.1726 -0.0439  0.4527
 5856SOL    HW129030   2.226   0.601  11.475  0.3387 -0.0637 -0.4947
 5856SOL    HW229031   2.136   0.701  11.519  0.6393  0.0310  0.3569
 5857SOL     OW29032   3.272   4.176   3.214 -0.2841  0.3778 -0.1513
 5857SOL    HW129033   3.245   4.267   3.213 -0.7537  0.2679  1.4062
 5857SOL    HW229034   3.337   4.177   3.144  0.8617  3.1015  0.9470
 5858SOL     OW29035   3.026   2.279   5.732  0.2441  0.4277  0.1322
 5858SOL    HW129036   3.048   2.361   5.777 -0.2901 -0.5522  2.1690
 5858SOL    HW229037   3.010   2.224   5.808  2.1388  0.3284  0.4404
 5859SOL     OW29038   2.711   1.670   8.059 -0.1581 -0.1372 -0.5822
 5859SOL    HW129039   2.802   1.699   8.068 -0.4269  1.1607 -2.0315
 5859SOL    HW229040   2.682   1.704   8.144  0.5750  1.3436 -0.9208
 5860SOL     OW29041   3.743   3.206   5.355  0.3392  0.0045  0.1284
 5860SOL    HW129042   3.757   3.116   5.326  0.6039  0.7400 -1.9808
 5860SOL    HW229043   3.648   3.215   5.346  0.6747  0.9490 -2.4301
 5861SOL     OW29044   3.292   2.198   4.879  0.3616 -0.2807  0.6295
 5861SOL    HW129045   3.281   2.256   4.804  1.3705 -1.1609 -0.1926
 5861SOL    HW229046   3.276   2.123   4.822  0.4210  1.0141 -1.0791
 5862SOL     OW29047   3.221   4.055   9.301 -0.3604 -0.2129 -0.6441
 5862SOL    HW129048   3.127   4.047   9.287 -0.8616  1.3839  1.8442
 5862SOL    HW229049   3.228   4.148   9.325 -1.7791 -0.4869  0.8332
 5863SOL     OW29050   4.433   0.949   8.080 -0.5418  0.0588  0.1658
 5863SOL    HW129051   4.450   0.950   7.986 -0.6228  3.8437  0.1775
 5863SOL    HW229052   4.510   0.983   8.125  0.4353 -3.3465  1.0040
 5864SOL     OW29053   1.574   4.152   7.018 -0.0601 -0.6234 -0.2259
 5864SOL    HW129054   1.613   4.212   7.081  0.3735 -2.3200  1.1147
 5864SOL    HW229055   1.609   4.193   6.939 -0.2380 -1.5212 -0.7791
 5865SOL     OW29056   1.613   4.298  11.517  0.3397 -0.5788 -0.3534
 5865SOL    HW129057   1.635   4.383  11.477 -2.3077  0.6085  0.7607
 5865SOL    HW229058   1.568   4.319  11.598 -1.6434 -1.0599 -1.3428
 5866SOL     OW29059   3.037   4.263   5.338 -0.5516 -0.0989 -0.7223
 5866SOL    HW129060   3.017   4.259   5.244 -0.2443  1.2559 -0.8495
 5866SOL    HW229061   2.956   4.302   5.372  0.5479  0.7984  0.8428
 5867SOL     OW29062   3.700   4.556  14.851  0.0590  0.0336 -0.0957
 5867SOL    HW129063   3.711   4.643  14.888  0.4951 -0.5721  1.1850
 5867SOL    HW229064   3.791   4.526  14.850 -0.2272 -0.8394  0.2425
 5868SOL     OW29065   1.626   3.467   6.174 -0.0987 -0.1272 -0.1036
 5868SOL    HW129066   1.555   3.466   6.238 -2.6479 -1.7035 -2.9653
 5868SOL    HW229067   1.567   3.460   6.098  0.5213  0.6465 -0.6597
 5869SOL     OW29068   3.806   4.332  14.633 -0.1071 -0.0423 -0.5235
 5869SOL    HW129069   3.885   4.364  14.677 -0.1026  0.2486 -0.7436
 5869SOL    HW229070   3.750   4.324  14.711  0.8285 -0.8433  0.0645
 5870SOL     OW29071   3.903   0.753  14.472  0.0616  0.1844  0.6126
 5870SOL    HW129072   3.978   0.692  14.471 -1.4718 -1.6630 -1.0645
 5870SOL    HW229073   3.946   0.826  14.428 -0.1815 -0.7415 -1.1389
 5871SOL     OW29074   3.532   3.879  11.537 -0.3268  0.3571 -0.0928
 5871SOL    HW129075   3.501   3.816  11.602 -2.3174  2.1379  0.6971
 5871SOL    HW229076   3.594   3.827  11.486 -0.2776  0.9920 -0.6832
 5872SOL     OW29077   3.089   0.383   3.329  0.3145 -0.1744 -0.3358
 5872SOL    HW129078   3.168   0.437   3.321 -0.7438  1.5176  0.5378
 5872SOL    HW229079   3.121   0.301   3.292 -3.9027 -1.1957 -1.6935
 5873SOL     OW29080   2.234   0.831   9.993 -0.1685  0.1285 -0.7023
 5873SOL    HW129081   2.189   0.828  10.078  1.1705 -1.0596 -0.0347
 5873SOL    HW229082   2.246   0.924   9.975  1.5964 -0.2700 -1.5262
 5874SOL     OW29083   4.182   0.607   8.728 -0.5196 -0.5203  0.0483
 5874SOL    HW129084   4.125   0.603   8.651  1.2213 -2.3300 -1.1303
 5874SOL    HW229085   4.146   0.551   8.797  0.6392 -0.6570  0.5418
 5875SOL     OW29086   3.677   3.511   8.283 -0.2960 -0.0087  0.5057
 5875SOL    HW129087   3.688   3.606   8.291 -2.8081  0.2857  0.5693
 5875SOL    HW229088   3.757   3.490   8.236  0.3333  2.1456  0.5689
 5876SOL     OW29089   2.999   4.722   6.844 -0.3009 -0.2233 -0.8468
 5876SOL    HW129090   2.919   0.027   6.800 -1.5815 -0.9750  0.9640
 5876SOL    HW229091   3.003   0.051   6.923 -0.8092 -0.3046 -0.7654
 5877SOL     OW29092   1.863   3.702  16.247  0.0686 -0.5623 -0.2098
 5877SOL    HW129093   1.795   3.705  16.179  1.8227  0.0338 -1.9369
 5877SOL    HW229094   1.943   3.676  16.202  0.5629 -1.5715  1.2905
 5878SOL     OW29095   1.596   3.094   6.182 -0.1336 -0.4831 -0.0036
 5878SOL    HW129096   1.522   3.055   6.137  1.0018  1.2131 -3.3179
 5878SOL    HW229097   1.615   3.164   6.120 -2.5222 -0.4133 -0.6563
 5879SOL     OW29098   1.509   1.994   6.003  0.1199 -0.0852  0.4111
 5879SOL    HW129099   1.602   1.995   6.027  0.5900 -2.0750 -1.3069
 5879SOL    HW229100   1.485   2.087   6.009  0.1709  0.0270 -0.9852
 5880SOL     OW29101   0.661   0.646   2.803  0.1807 -0.4245  0.5187
 5880SOL    HW129102   0.598   0.630   2.874  1.0968  0.1374  1.4486
 5880SOL    HW229103   0.744   0.622   2.844  1.1332  2.6793  0.4134
 5881SOL     OW29104   0.550   4.325  16.907  0.2068 -0.2247  0.0244
 5881SOL    HW129105   0.483   4.374  16.955  0.6992  0.3673  0.0975
 5881SOL    HW229106   0.608   4.310  16.982 -0.5304  0.2744  0.6952
 5882SOL     OW29107   3.353   3.307   2.961  0.9704 -0.4870  0.1509
 5882SOL    HW129108   3.325   3.220   2.931  0.7756 -0.1626 -0.6116
 5882SOL    HW229109   3.278   3.328   3.018  1.0763 -2.0356  0.8586
 5883SOL     OW29110   0.609   0.899   7.700  0.2811  0.0306  0.4524
 5883SOL    HW129111   0.692   0.919   7.743  0.3624  0.2678  0.1844
 5883SOL    HW229112   0.616   0.944   7.616 -0.7502  0.7506  0.7625
 5884SOL     OW29113   3.802   0.054   4.446 -0.0407  0.0998  0.4340
 5884SOL    HW129114   3.775   0.141   4.475 -0.5891  0.2176 -0.4211
 5884SOL    HW229115   3.823   0.029   4.536  1.4721 -4.3732 -1.1598
 5885SOL     OW29116   3.683   1.586   7.433 -0.3663 -0.9173 -0.2052
 5885SOL    HW129117   3.778   1.584   7.430 -0.4012 -2.1004 -1.0725
 5885SOL    HW229118   3.661   1.563   7.342  0.3063 -0.2018 -0.5381
 5886SOL     OW29119   2.502   3.011   7.182  0.1937 -0.5874  0.1557
 5886SOL    HW129120   2.451   3.007   7.101 -0.7255 -1.1900  0.7567
 5886SOL    HW229121   2.432   2.993   7.244  0.3616 -1.2388  0.1558
 5887SOL     OW29122   4.022   0.423   8.340 -0.0581 -0.5777 -0.2363
 5887SOL    HW129123   3.947   0.475   8.366  0.3719  0.3172 -0.8084
 5887SOL    HW229124   4.090   0.490   8.338  0.2858 -0.8623  1.7197
 5888SOL     OW29125   0.195   1.596   4.539  0.3727 -0.2114  0.1797
 5888SOL    HW129126   0.190   1.665   4.473  1.2869 -0.0085  0.3190
 5888SOL    HW229127   0.270   1.543   4.510  0.0008 -0.1697 -0.8648
 5889SOL     OW29128   1.411   1.459   5.717 -0.1230 -0.0933  0.5670
 5889SOL    HW129129   1.323   1.456   5.753  0.0156 -1.4049  0.8023
 5889SOL    HW229130   1.439   1.531   5.773 -0.0889 -0.0351  0.4760
 5890SOL     OW29131   1.447   4.692  10.793 -0.5229 -0.5889  0.1184
 5890SOL    HW129132   1.393   4.666  10.718  1.4684  1.5515 -2.0398
 5890SOL    HW229133   1.471   4.603  10.820  4.4413  1.0796  1.1000
 5891SOL     OW29134   3.991   0.259   7.761 -0.3403 -0.4759 -0.1739
 5891SOL    HW129135   4.051   0.320   7.803  0.3282 -0.6148 -0.9211
 5891SOL    HW229136   4.050   0.186   7.784 -0.0400  0.6222  2.5745
 5892SOL     OW29137   1.256   2.598   2.868 -0.1174 -0.5445  0.8521
 5892SOL    HW129138   1.296   2.681   2.843 -0.5875 -0.8366 -0.8830
 5892SOL    HW229139   1.333   2.542   2.870  0.2781 -0.0479 -0.4130
 5893SOL     OW29140   0.734   0.206   9.313  0.2165 -0.4975  0.5218
 5893SOL    HW129141   0.769   0.218   9.402  2.0690  0.4550 -0.3466
 5893SOL    HW229142   0.727   0.110   9.313 -1.4599 -0.3633 -2.8610
 5894SOL     OW29143   4.577   4.151  17.526 -0.0518 -0.0622 -0.0185
 5894SOL    HW129144   4.523   4.082  17.487  1.1373 -0.1719 -1.4729
 5894SOL    HW229145   4.664   4.112  17.531 -0.3824 -0.9223 -1.0624
 5895SOL     OW29146   3.788   3.477   6.123  0.1471  0.0054  0.4718
 5895SOL    HW129147   3.804   3.470   6.217 -0.0505 -0.3873  0.4775
 5895SOL    HW229148   3.754   3.391   6.096 -1.4428  0.4643  1.0003
 5896SOL     OW29149   1.999   4.012  12.440  0.2847  0.2474 -0.5252
 5896SOL    HW129150   1.928   3.984  12.381 -0.9358  1.4923  0.3493
 5896SOL    HW229151   1.993   4.106  12.422  1.2037  0.1051 -1.5379
 5897SOL     OW29152   1.193   0.423   3.034 -0.2938 -0.3856  0.1272
 5897SOL    HW129153   1.239   0.457   2.957  0.0029  0.1656  0.5441
 5897SOL    HW229154   1.217   0.497   3.090 -0.6735 -0.9092  0.9828
 5898SOL     OW29155   3.142   4.141   3.736  0.0456  0.0712  0.0928
 5898SOL    HW129156   3.213   4.175   3.790  0.4738  0.4351 -0.6910
 5898SOL    HW229157   3.168   4.138   3.643  0.5145 -0.2576  0.2322
 5899SOL     OW29158   4.656   4.337   2.745  0.2995 -0.1081 -0.1134
 5899SOL    HW129159   4.655   4.274   2.673 -1.2369  1.0753 -1.1036
 5899SOL    HW229160   4.653   4.419   2.696  0.3798  0.2268  0.4324
 5900SOL     OW29161   2.585   1.126   9.717 -0.3205  0.1560 -0.1592
 5900SOL    HW129162   2.642   1.139   9.793  1.6475  0.1494 -1.6188
 5900SOL    HW229163   2.649   1.071   9.671 -1.3652 -0.2630 -1.0950
 5901SOL     OW29164   0.120   2.878   2.481  0.6421  0.3543  0.6764
 5901SOL    HW129165   0.072   2.865   2.399  2.6935 -1.1468 -0.2942
 5901SOL    HW229166   0.135   2.971   2.464 -1.2770  0.4163 -0.6972
 5902SOL     OW29167   1.771   3.265  12.375 -0.2055 -0.4310  0.7725
 5902SOL    HW129168   1.802   3.356  12.366 -0.4453 -0.5052 -0.7501
 5902SOL    HW229169   1.850   3.223  12.409 -0.0390 -1.3480 -0.7212
 5903SOL     OW29170   0.942   1.241   7.802  0.5647  0.3252  0.0462
 5903SOL    HW129171   0.926   1.244   7.708 -0.0672  0.4998  0.1599
 5903SOL    HW229172   1.029   1.280   7.812  0.0561  1.7541 -1.0523
 5904SOL     OW29173   0.851   1.694   6.765 -0.6788  0.3501  0.5960
 5904SOL    HW129174   0.901   1.699   6.684  1.0082 -1.2279  1.5345
 5904SOL    HW229175   0.886   1.775   6.803 -0.9071  1.6660 -2.0141
 5905SOL     OW29176   1.635   2.146   7.583 -0.2104  0.2774  0.1497
 5905SOL    HW129177   1.651   2.212   7.516  1.4232  0.5015  0.7769
 5905SOL    HW229178   1.678   2.182   7.660  0.0262 -1.1954  0.7072
 5906SOL     OW29179   0.374   2.446   4.312  0.4866  0.1638  0.0932
 5906SOL    HW129180   0.373   2.519   4.374  1.3222  0.8718 -0.7141
 5906SOL    HW229181   0.412   2.380   4.371 -0.6600  1.0640  1.8537
 5907SOL     OW29182   2.671   3.648   2.122  0.0931  0.6909  0.1445
 5907SOL    HW129183   2.604   3.582   2.136  1.9643 -0.8908  1.6952
 5907SOL    HW229184   2.753   3.606   2.148 -0.9025 -1.0754  0.4484
 5908SOL     OW29185   2.580   0.732   3.006 -0.2978  0.1106 -0.0490
 5908SOL    HW129186   2.653   0.701   3.061  1.9341  2.3060 -1.7808
 5908SOL    HW229187   2.605   0.824   2.998  0.5174 -0.0641  0.3982
 5909SOL     OW29188   3.742   2.771  14.255 -0.2961  0.1275 -0.2283
 5909SOL    HW129189   3.696   2.835  14.309  3.0923 -0.2043  3.0228
 5909SOL    HW229190   3.671   2.707  14.246 -1.1953  0.9219  1.1105
 5910SOL     OW29191   1.957   2.930   3.320 -0.0073 -0.1560  0.6556
 5910SOL    HW129192   2.007   2.865   3.270  0.3833  0.5231  0.1587
 5910SOL    HW229193   1.914   2.874   3.385 -1.4559  0.0316 -0.1414
 5911SOL     OW29194   2.635   1.138   8.487 -0.3619  0.3913  0.5113
 5911SOL    HW129195   2.568   1.206   8.488 -1.0662 -0.3000 -0.4276
 5911SOL    HW229196   2.682   1.181   8.416 -1.1632  0.4190  0.0067
 5912SOL     OW29197   0.311   4.427   6.561  0.7299  0.2528  0.0414
 5912SOL    HW129198   0.218   4.442   6.543  0.6781  0.0207  0.1179
 5912SOL    HW229199   0.333   4.418   6.468 -2.7087 -0.6874 -0.6672
 5913SOL     OW29200   3.913   1.127  10.320  0.2880 -0.1392 -0.0605
 5913SOL    HW129201   3.958   1.154  10.241 -0.4037 -0.8618 -0.6977
 5913SOL    HW229202   3.980   1.062  10.341  1.6730  1.0283 -0.8919
 5914SOL     OW29203   1.625   0.360   7.797  0.0311  0.5298  0.2251
 5914SOL    HW129204   1.654   0.290   7.856 -0.4189 -1.0427 -1.4373
 5914SOL    HW229205   1.685   0.355   7.722 -0.0928 -0.7943  0.2139
 5915SOL     OW29206   2.941   2.443   3.570 -0.2281 -0.2088  0.5480
 5915SOL    HW129207   2.980   2.422   3.485 -0.0192  1.6273  0.1896
 5915SOL    HW229208   3.010   2.501   3.602  1.0141 -0.7672 -1.1085
 5916SOL     OW29209   4.537   3.058   9.004  0.3814 -0.2349 -0.1959
 5916SOL    HW129210   4.587   3.058   9.085 -1.6130  4.4109  1.0311
 5916SOL    HW229211   4.587   2.992   8.956 -1.6643 -1.4020 -0.7540
 5917SOL     OW29212   2.196   4.454   3.672 -0.0056 -0.3047 -0.3789
 5917SOL    HW129213   2.160   4.543   3.672  0.4855 -0.1081  1.2847
 5917SOL    HW229214   2.251   4.460   3.594 -0.8113 -0.2041 -0.9403
 5918SOL     OW29215   0.476   3.165   6.877 -0.0549 -0.1137  0.5399
 5918SOL    HW129216   0.490   3.197   6.788 -0.5929 -2.3327 -0.3466
 5918SOL    HW229217   0.382   3.145   6.874 -0.5740  1.9993  2.7648
 5919SOL     OW29218   0.044   1.722  16.087 -0.5824  0.6025  0.7254
 5919SOL    HW129219   0.090   1.782  16.028 -0.3313 -0.2086  0.1007
 5919SOL    HW229220   0.015   1.772  16.163 -0.3365 -0.2102  1.3637
 5920SOL     OW29221   2.141   3.690   3.673 -0.2618  0.1140 -0.5394
 5920SOL    HW129222   2.171   3.756   3.735  0.4886 -1.4960  0.8029
 5920SOL    HW229223   2.048   3.693   3.698 -0.3829  0.8444 -1.0674
 5921SOL     OW29224   4.117   1.668   4.980 -0.2066 -0.3774 -0.5831
 5921SOL    HW129225   4.145   1.688   4.891  0.1053  0.8554 -0.2070
 5921SOL    HW229226   4.051   1.737   4.991  0.9351  0.8049 -1.1783
 5922SOL     OW29227   3.903   4.541   1.841 -0.3862 -0.1297 -0.3631
 5922SOL    HW129228   3.900   4.625   1.796 -2.6189  0.2127  0.4507
 5922SOL    HW229229   3.911   4.485   1.764  1.1335  0.8124 -0.9117
 5923SOL     OW29230   3.698   2.396   4.206  0.0100  0.2528 -0.1300
 5923SOL    HW129231   3.654   2.473   4.241 -0.2124  0.0504  0.0404
 5923SOL    HW229232   3.648   2.356   4.135 -0.1704  0.7234 -0.2693
 5924SOL     OW29233   2.559   0.129   7.654 -0.4066  0.5117  0.4768
 5924SOL    HW129234   2.534   0.216   7.686 -1.1451  0.3495  0.3270
 5924SOL    HW229235   2.645   0.141   7.613 -0.5063  1.8651  0.6787
 5925SOL     OW29236   0.551   4.057   2.545 -0.4821  0.3530  0.3769
 5925SOL    HW129237   0.595   4.095   2.621 -1.0099  2.3054 -0.2852
 5925SOL    HW229238   0.460   4.078   2.567 -0.0039  1.3942  1.3807
 5926SOL     OW29239   4.460   3.419   8.449 -0.2514  0.6366 -0.3962
 5926SOL    HW129240   4.469   3.514   8.453  0.7956  0.6032 -1.9340
 5926SOL    HW229241   4.433   3.393   8.537  0.4660 -0.8022 -0.6000
 5927SOL     OW29242   1.455   4.401  12.658 -0.7391 -0.4038 -0.2757
 5927SOL    HW129243   1.495   4.373  12.576  0.1739  1.2880 -0.4245
 5927SOL    HW229244   1.409   4.323  12.688 -0.0737 -0.8429 -0.3880
 5928SOL     OW29245   3.751   0.349   3.138 -0.4448  0.5493  0.7489
 5928SOL    HW129246   3.829   0.299   3.161  0.0367  0.8424 -0.2239
 5928SOL    HW229247   3.755   0.432   3.185 -1.0956  1.5130 -0.8983
 5929SOL     OW29248   3.444   3.820   2.197  0.3356 -0.2730  0.5102
 5929SOL    HW129249   3.528   3.865   2.212 -0.6206  1.3839  0.9196
 5929SOL    HW229250   3.465   3.776   2.115 -1.5673  0.0543 -0.1530
 5930SOL     OW29251   3.894   0.689   7.237 -0.0264 -0.3314  0.0946
 5930SOL    HW129252   3.855   0.677   7.151  3.3527 -1.6089 -1.2588
 5930SOL    HW229253   3.846   0.636   7.300  0.0142 -0.2222  0.2197
 5931SOL     OW29254   1.335   1.382   6.290 -0.3359  0.5651  0.6348
 5931SOL    HW129255   1.327   1.298   6.336  1.3859 -0.4917 -0.9786
 5931SOL    HW229256   1.429   1.401   6.280 -0.7851  2.5504  0.2903
 5932SOL     OW29257   2.544   1.709   7.861 -0.6801  0.8624 -0.1600
 5932SOL    HW129258   2.525   1.803   7.857  1.9660  1.4451  0.7654
 5932SOL    HW229259   2.615   1.713   7.925  0.3419  1.3380 -1.3256
 5933SOL     OW29260   1.811   0.571   2.987  0.0250  0.0927 -0.0835
 5933SOL    HW129261   1.806   0.480   2.956  1.6078  0.2065 -0.6723
 5933SOL    HW229262   1.733   0.603   2.942 -0.2463  0.7288  0.8444
 5934SOL     OW29263   1.151   1.787   2.910 -0.5827 -0.0069 -0.1071
 5934SOL    HW129264   1.089   1.735   2.858  0.8789 -2.1215  0.3036
 5934SOL    HW229265   1.116   1.776   2.998  0.0524  2.4953  0.4546
 5935SOL     OW29266   4.659   1.938   4.431 -0.3782 -0.4819 -0.0951
 5935SOL    HW129267   4.616   1.982   4.358 -0.1052  0.5439  0.3654
 5935SOL    HW229268   0.015   1.989   4.424 -1.0115  0.6375  0.7763
 5936SOL     OW29269   2.865   1.805   1.518  0.5129  0.1807 -0.0620
 5936SOL    HW129270   2.773   1.806   1.495  0.3979  1.3709  0.4390
 5936SOL    HW229271   2.907   1.780   1.436 -3.4158  0.0949 -2.0444
 5937SOL     OW29272   0.814   1.954   5.311  0.6417  0.1559 -0.1818
 5937SOL    HW129273   0.852   1.888   5.369 -0.5402 -1.2163 -0.9801
 5937SOL    HW229274   0.892   2.009   5.301  1.4476 -1.6669 -3.7083
 5938SOL     OW29275   1.640   0.105   0.959 -0.2346  0.3408  0.2829
 5938SOL    HW129276   1.645   0.186   1.010  1.4842 -0.3069  1.1162
 5938SOL    HW229277   1.711   0.059   1.003 -0.0939 -0.8869 -1.2220
 5939SOL     OW29278   3.563   2.488   2.185 -0.2545 -0.0126 -0.1294
 5939SOL    HW129279   3.577   2.581   2.169 -0.7730 -0.0327 -0.6982
 5939SOL    HW229280   3.640   2.473   2.241  1.1137 -0.0682 -2.0239
 5940SOL     OW29281   3.639   2.187   7.650 -0.3028  0.1358 -0.1074
 5940SOL    HW129282   3.718   2.207   7.700  1.5656 -2.3936 -2.0475
 5940SOL    HW229283   3.605   2.274   7.631  0.3083  0.6342  1.1011
 5941SOL     OW29284   4.288   1.695  15.388  0.7368 -0.1940  0.0068
 5941SOL    HW129285   4.230   1.618  15.386  1.9738 -1.1184 -0.3810
 5941SOL    HW229286   4.318   1.680  15.478  1.9055  1.7886 -0.0649
 5942SOL     OW29287   4.279   0.770  11.000  0.0745  0.1722  0.7060
 5942SOL    HW129288   4.352   0.730  10.953 -0.0195 -0.1269  0.8152
 5942SOL    HW229289   4.325   0.827  11.062 -0.2355  1.0932  0.0827
 5943SOL     OW29290   3.690   3.718   4.403  0.3270 -0.1585  0.0189
 5943SOL    HW129291   3.744   3.775   4.458 -1.9588  2.4108 -0.4226
 5943SOL    HW229292   3.701   3.630   4.440 -1.8389 -0.2069  0.5378
 5944SOL     OW29293   0.598   1.272  15.150  0.4202  0.3043  0.3372
 5944SOL    HW129294   0.544   1.292  15.226  0.0478  0.6575 -0.0245
 5944SOL    HW229295   0.581   1.178  15.148  1.2703  0.1792 -0.9186
 5945SOL     OW29296   0.025   2.943   8.233 -0.4915  0.6629 -0.1876
 5945SOL    HW129297   0.088   2.912   8.168 -0.1410 -0.3845  0.6564
 5945SOL    HW229298   0.020   3.034   8.203  1.3961  0.4024 -1.3252
 5946SOL     OW29299   4.389   1.862   3.529 -0.2219 -0.0997  0.0526
 5946SOL    HW129300   4.469   1.848   3.580 -0.3221 -1.1945 -0.0790
 5946SOL    HW229301   4.425   1.838   3.444 -0.8652 -0.9792  0.0280
 5947SOL     OW29302   4.228   4.348   4.146 -0.4847  0.2851 -0.5004
 5947SOL    HW129303   4.276   4.339   4.228 -1.8274  0.0885  0.2655
 5947SOL    HW229304   4.257   4.271   4.097 -1.0554 -0.4854  0.3770
 5948SOL     OW29305   1.987   1.646   3.093 -0.1214  0.5720  0.0889
 5948SOL    HW129306   1.926   1.709   3.133  0.0450 -0.1676  1.5086
 5948SOL    HW229307   1.925   1.577   3.072  0.5255  0.2247 -0.6754
 5949SOL     OW29308   2.909   1.656   7.389 -0.4876 -0.3573  0.1200
 5949SOL    HW129309   2.862   1.699   7.317  0.6764 -0.7922 -0.8980
 5949SOL    HW229310   2.988   1.709   7.397  0.1760 -1.0901 -1.5855
 5950SOL     OW29311   3.739   1.613   7.900 -0.1110 -0.2119 -0.0851
 5950SOL    HW129312   3.798   1.538   7.908  1.1093  0.8856  1.4304
 5950SOL    HW229313   3.652   1.578   7.916  0.3672 -0.2165  2.4956
 5951SOL     OW29314   4.605   3.489   1.528 -0.5070  0.7113  0.0930
 5951SOL    HW129315   4.547   3.537   1.469 -1.2918 -1.4511 -0.9080
 5951SOL    HW229316   4.606   3.406   1.480  2.1775 -1.0152  3.0898
 5952SOL     OW29317   0.910   3.789   3.679  0.3759 -0.0902 -0.1762
 5952SOL    HW129318   0.909   3.751   3.767  0.9143 -2.2360 -1.1049
 5952SOL    HW229319   0.933   3.879   3.702 -0.2784  0.1148 -0.3250
 5953SOL     OW29320   0.943   0.292   3.225 -0.3745  0.2783 -0.2072
 5953SOL    HW129321   0.902   0.240   3.155  0.9059 -0.6886 -0.2387
 5953SOL    HW229322   0.906   0.266   3.309  0.1338  0.3852  0.0498
 5954SOL     OW29323   0.759   3.356   2.328 -0.3859  0.0516  0.1753
 5954SOL    HW129324   0.766   3.298   2.404  0.8066 -0.1499 -0.0954
 5954SOL    HW229325   0.698   3.305   2.273 -0.2112 -1.0515  0.9910
 5955SOL     OW29326   4.501   2.327   6.335  0.1638 -0.6711  0.0132
 5955SOL    HW129327   4.459   2.321   6.249  1.2115 -0.8802 -0.4987
 5955SOL    HW229328   4.588   2.355   6.306  0.8968 -1.4971  1.3972
 5956SOL     OW29329   0.903   0.954   1.525  0.1633  0.7112  0.0958
 5956SOL    HW129330   0.849   0.956   1.604 -0.6909  0.8284 -0.4979
 5956SOL    HW229331   0.835   0.930   1.463 -1.6107  1.6842  1.6723
 5957SOL     OW29332   4.165   0.834  13.182 -0.2502  0.0961 -0.6501
 5957SOL    HW129333   4.124   0.855  13.098  0.6404  0.1160 -1.0734
 5957SOL    HW229334   4.152   0.916  13.230  0.7915 -1.1667  1.7585
 5958SOL     OW29335   1.061   3.417   7.316 -0.1995 -0.3013 -0.2128
 5958SOL    HW129336   1.081   3.489   7.375  0.8501 -0.4294 -0.4113
 5958SOL    HW229337   1.136   3.428   7.257 -1.2146 -0.4283 -1.5393
 5959SOL     OW29338   2.994   0.851   7.616  0.3979 -0.5783 -0.2178
 5959SOL    HW129339   2.914   0.808   7.648 -0.3384  1.0769  0.1702
 5959SOL    HW229340   3.045   0.813   7.688  0.5438  0.0387  0.0015
 5960SOL     OW29341   2.948   1.225   2.858 -0.0720  0.3228 -0.7163
 5960SOL    HW129342   2.943   1.320   2.847  1.6126  0.4052 -0.8297
 5960SOL    HW229343   2.930   1.187   2.772 -1.6480  1.7403 -1.0006
 5961SOL     OW29344   2.519   0.722   0.870  0.0535 -0.0836  0.1069
 5961SOL    HW129345   2.516   0.803   0.920  0.3277  1.1353 -1.8414
 5961SOL    HW229346   2.554   0.756   0.788  1.8669 -0.8434  0.5681
 5962SOL     OW29347   3.997   0.984  15.968  0.4824  0.2956  0.1470
 5962SOL    HW129348   3.990   0.890  15.956 -0.3249  0.4314 -0.4774
 5962SOL    HW229349   3.935   1.018  15.903  0.6842 -2.3100 -1.3847
 5963SOL     OW29350   0.418   1.573  11.056 -0.0532 -0.0955  0.0440
 5963SOL    HW129351   0.412   1.625  11.136 -2.1034  1.3865 -1.0614
 5963SOL    HW229352   0.339   1.604  11.012  0.1739 -0.1018 -0.3673
 5964SOL     OW29353   0.140   2.205  10.387  0.2429 -0.1261  0.2279
 5964SOL    HW129354   0.137   2.172  10.297 -1.9935  1.9302 -0.4467
 5964SOL    HW229355   0.114   2.132  10.443 -3.9687  0.1843 -1.3349
 5965SOL     OW29356   1.955   1.854   2.418  0.2294 -0.2734  0.4558
 5965SOL    HW129357   1.899   1.856   2.495  0.3472  1.8675  0.4880
 5965SOL    HW229358   2.039   1.828   2.457  1.3761  1.2353 -0.9908
 5966SOL     OW29359   2.449   0.167   3.903  0.1869 -0.0789 -0.4132
 5966SOL    HW129360   2.514   0.112   3.859  0.8925  0.1099  0.4095
 5966SOL    HW229361   2.486   0.249   3.872 -0.7142  0.0529 -1.1404
 5967SOL     OW29362   0.306   4.143   2.613 -0.8861 -0.5276 -0.0812
 5967SOL    HW129363   0.244   4.164   2.543 -0.5238 -0.3650 -0.3559
 5967SOL    HW229364   0.293   4.222   2.665  0.1593 -0.3381 -0.0986
 5968SOL     OW29365   1.534   1.323   5.384 -0.7471  0.3737 -0.9625
 5968SOL    HW129366   1.560   1.234   5.363 -1.1043 -0.0922  0.5316
 5968SOL    HW229367   1.445   1.314   5.420 -0.5047 -2.7653 -1.2338
 5969SOL     OW29368   1.632   4.618   3.393  0.0749  0.0000 -0.5257
 5969SOL    HW129369   1.596   4.685   3.335  3.4391  0.3943 -2.2141
 5969SOL    HW229370   1.655   4.555   3.325 -2.4170 -1.9558  0.4625
 5970SOL     OW29371   2.705   2.590   1.460  0.1269 -0.2213 -0.3747
 5970SOL    HW129372   2.623   2.640   1.463  0.2965 -0.1148  2.1389
 5970SOL    HW229373   2.765   2.665   1.472 -2.1545  1.4977  0.2158
 5971SOL     OW29374   2.067   3.626  15.102  0.0414  0.0723 -0.5676
 5971SOL    HW129375   2.122   3.689  15.055  0.3530 -0.3899 -0.8193
 5971SOL    HW229376   1.982   3.657  15.071  0.8551  1.2192 -1.6600
 5972SOL     OW29377   1.802   4.429   8.068  0.6170 -0.0077 -0.0446
 5972SOL    HW129378   1.735   4.387   8.121  0.0983 -0.7288 -1.2697
 5972SOL    HW229379   1.828   4.362   8.004  1.3753  0.5268 -0.3035
 5973SOL     OW29380   3.442   3.603   3.640  0.0236 -0.1777 -0.1569
 5973SOL    HW129381   3.522   3.655   3.653 -0.1512  0.1615 -0.4323
 5973SOL    HW229382   3.375   3.668   3.663 -0.1015  0.3764 -2.0543
 5974SOL     OW29383   1.361   0.414   9.444  0.2213 -0.5683  0.4562
 5974SOL    HW129384   1.316   0.461   9.374  0.9656 -1.1652 -0.4341
 5974SOL    HW229385   1.421   0.357   9.396 -1.0722 -2.0702  0.6487
 5975SOL     OW29386   1.941   2.091   8.914 -0.4558 -0.2448 -0.7210
 5975SOL    HW129387   1.922   2.161   8.976 -0.0491 -0.4751 -0.3338
 5975SOL    HW229388   1.991   2.043   8.981 -0.9170 -1.3238 -1.1500
 5976SOL     OW29389   3.650   1.690   2.050 -0.1231 -0.1544  0.6384
 5976SOL    HW129390   3.565   1.647   2.050 -0.1968 -0.0056 -1.4191
 5976SOL    HW229391   3.704   1.615   2.027 -0.9532 -0.3468 -0.6478
 5977SOL     OW29392   0.979   3.349   1.630  0.4822 -0.3578 -0.1300
 5977SOL    HW129393   1.054   3.392   1.589  0.8466 -0.8498  0.0169
 5977SOL    HW229394   0.944   3.419   1.685  0.3039  0.3428 -1.1167
 5978SOL     OW29395   3.364   0.994   2.350 -0.2460  0.4013  0.2818
 5978SOL    HW129396   3.391   1.081   2.379  0.3127  1.1892 -2.5875
 5978SOL    HW229397   3.422   0.972   2.277 -0.6109 -0.3818  0.2250
 5979SOL     OW29398   4.386   4.161   6.285  0.1376  1.0199  0.1742
 5979SOL    HW129399   4.374   4.253   6.265  1.8013  0.9714 -1.0113
 5979SOL    HW229400   4.482   4.160   6.295  0.0415  1.5349  1.1757
 5980SOL     OW29401   2.821   3.209   8.990 -0.6312  0.0354 -0.3122
 5980SOL    HW129402   2.806   3.295   8.951 -1.4870 -0.3099 -0.7610
 5980SOL    HW229403   2.824   3.233   9.082 -0.3811  1.2766 -0.6440
 5981SOL     OW29404   0.077   2.072  10.132 -0.2711  0.2527 -0.1049
 5981SOL    HW129405   0.046   2.003  10.074  0.5510  0.0914 -0.3487
 5981SOL    HW229406   4.718   2.119  10.129  0.0704  0.8538 -0.3106
 5982SOL     OW29407   3.489   3.228  15.763 -0.1540  0.2741 -0.1027
 5982SOL    HW129408   3.434   3.150  15.750  0.9336 -0.4705 -0.2239
 5982SOL    HW229409   3.424   3.298  15.762  0.2650  0.7040  3.3670
 5983SOL     OW29410   1.344   4.255   4.376  0.3477  0.1636 -0.1813
 5983SOL    HW129411   1.387   4.176   4.345  2.5673  1.4473 -0.3705
 5983SOL    HW229412   1.369   4.251   4.468 -0.4479 -0.0372  0.0289
 5984SOL     OW29413   1.118   3.137  10.202 -0.0925 -0.2816  0.4046
 5984SOL    HW129414   1.091   3.054  10.163 -0.6753  0.5956 -1.0497
 5984SOL    HW229415   1.195   3.103  10.247  1.8624  2.4000 -0.8919
 5985SOL     OW29416   0.224   0.746   5.200  0.1906 -0.2430  0.1243
 5985SOL    HW129417   0.147   0.696   5.226  1.1324 -2.0265 -0.5375
 5985SOL    HW229418   0.169   0.802   5.145 -0.2486 -0.6815  0.1159
 5986SOL     OW29419   4.179   0.581   1.648 -0.5876  0.0980  0.2675
 5986SOL    HW129420   4.206   0.490   1.637 -1.7393 -0.1594 -0.3795
 5986SOL    HW229421   4.258   0.635   1.650 -0.0159 -0.7312  0.2293
 5987SOL     OW29422   4.615   3.850  14.667 -0.0820  0.1185 -0.7717
 5987SOL    HW129423   4.555   3.784  14.634  0.5527 -0.6125 -0.4781
 5987SOL    HW229424   4.691   3.818  14.617 -0.6313 -1.1711 -0.7796
 5988SOL     OW29425   0.706   3.576  13.794 -0.2924  0.3791 -0.6013
 5988SOL    HW129426   0.704   3.616  13.881  2.2774 -0.7523 -0.0114
 5988SOL    HW229427   0.660   3.636  13.735 -0.3116  1.1217  0.1743
 5989SOL     OW29428   3.314   2.681   3.416  0.5079 -0.2012 -0.0347
 5989SOL    HW129429   3.339   2.728   3.336  0.2109 -0.8716 -0.5195
 5989SOL    HW229430   3.391   2.684   3.473 -0.3375 -1.1463  1.1410
 5990SOL     OW29431   2.583   4.456   8.468 -0.0356 -0.6272  0.3350
 5990SOL    HW129432   2.634   4.517   8.521  0.9680  0.9814 -2.5007
 5990SOL    HW229433   2.545   4.396   8.532 -1.0121  2.8097  2.9793
 5991SOL     OW29434   2.718   0.817   1.699  0.0562  0.2480 -0.2181
 5991SOL    HW129435   2.800   0.799   1.652  0.3210 -3.3090  1.6104
 5991SOL    HW229436   2.674   0.883   1.645 -1.4698 -0.2033  0.4888
 5992SOL     OW29437   1.146   2.766   7.210 -1.0647  0.5685  0.0313
 5992SOL    HW129438   1.102   2.798   7.289  1.2223  1.2150  1.0407
 5992SOL    HW229439   1.153   2.840   7.151  2.0226 -1.1363 -1.7434
 5993SOL     OW29440   1.483   2.271   4.473  0.3573 -0.2461 -0.3499
 5993SOL    HW129441   1.544   2.225   4.531  0.1122  0.6775  0.6495
 5993SOL    HW229442   1.433   2.318   4.539 -1.6725  0.7822 -2.6481
 5994SOL     OW29443   1.534   0.456   8.624 -0.3451  0.5945  0.2956
 5994SOL    HW129444   1.536   0.538   8.576 -1.1025 -0.7196 -1.9642
 5994SOL    HW229445   1.442   0.436   8.639 -0.1918  0.4675  1.1079
 5995SOL     OW29446   4.600   0.712   0.171 -0.7660 -0.3490  0.0209
 5995SOL    HW129447   4.665   0.683   0.235  1.1010  0.0177 -1.7195
 5995SOL    HW229448   4.589   0.634   0.117 -1.8473  0.0456 -0.3334
 5996SOL     OW29449   4.549   0.478   5.613 -0.0107  0.0891 -0.0756
 5996SOL    HW129450   4.585   0.557   5.653 -1.1154  0.3087  0.4819
 5996SOL    HW229451   4.511   0.511   5.531  0.8425  0.9740 -0.1218
 5997SOL     OW29452   0.673   1.047   3.085  0.1495  0.3642  0.3092
 5997SOL    HW129453   0.708   0.960   3.066  2.8555  1.1795  1.5901
 5997SOL    HW229454   0.657   1.034   3.179  0.7607 -1.1639  0.2067
 5998SOL     OW29455   1.962   1.144   1.438  0.1306  0.0371 -0.0076
 5998SOL    HW129456   1.910   1.094   1.375  1.1379  0.4344 -1.1581
 5998SOL    HW229457   1.968   1.088   1.515 -1.8841  1.1499  0.9509
 5999SOL     OW29458   0.332   3.175  11.780  0.3044 -0.7460 -0.1221
 5999SOL    HW129459   0.268   3.223  11.727  1.0781 -1.1929 -1.4685
 5999SOL    HW229460   0.399   3.180  11.711  0.1747  2.2554 -0.0360
 6000SOL     OW29461   2.200   0.765   5.218  0.4045 -0.1088  0.0750
 6000SOL    HW129462   2.254   0.796   5.290  1.1103 -1.0308 -0.0505
 6000SOL    HW229463   2.132   0.719   5.267 -0.3041  0.4844 -0.3482
 6001SOL     OW29464   1.400   2.940   4.613  0.5274 -0.0373 -0.4415
 6001SOL    HW129465   1.407   3.032   4.585 -2.0826  0.0371 -0.8822
 6001SOL    HW229466   1.366   2.944   4.703 -1.3764 -0.2719 -1.1395
 6002SOL     OW29467   2.080   3.548   8.803  0.3684  0.3011 -0.4491
 6002SOL    HW129468   2.135   3.473   8.827 -1.4597 -0.0217  2.7223
 6002SOL    HW229469   2.068   3.593   8.887  3.8758  0.2792  0.0777
 6003SOL     OW29470   0.931   4.336  16.911 -0.1932  0.1800 -0.0492
 6003SOL    HW129471   0.854   4.351  16.966 -0.0577 -1.3465  0.5573
 6003SOL    HW229472   0.996   4.375  16.969  0.4587 -1.9510  0.6581
 6004SOL     OW29473   1.780   2.586   5.551  0.9082 -0.3739 -0.5156
 6004SOL    HW129474   1.843   2.654   5.524  1.1808  0.3507  1.9755
 6004SOL    HW229475   1.761   2.542   5.468  2.3194  1.8091 -2.0083
 6005SOL     OW29476   4.576   1.166   6.580  0.2279  0.0984 -0.0022
 6005SOL    HW129477   4.481   1.182   6.585  0.2286  0.6212 -1.7174
 6005SOL    HW229478   4.576   1.132   6.490  1.0774 -0.3187  0.1584
 6006SOL     OW29479   0.976   0.668   4.744  0.2492 -0.2929  0.6880
 6006SOL    HW129480   1.009   0.612   4.674  3.8340  1.0557  1.3210
 6006SOL    HW229481   0.893   0.703   4.710  0.2611  0.1917  1.1668
 6007SOL     OW29482   4.451   3.604   3.940 -0.1190  0.1465  0.0265
 6007SOL    HW129483   4.383   3.671   3.953  1.4402  2.0539 -1.6205
 6007SOL    HW229484   4.398   3.525   3.948  1.0411 -0.7219 -0.9539
 6008SOL     OW29485   0.936   2.626   7.068 -0.0883 -0.2443 -0.7795
 6008SOL    HW129486   0.995   2.669   7.130 -0.8914 -0.1504 -0.0861
 6008SOL    HW229487   0.882   2.571   7.125  1.4971 -1.7250 -0.6917
 6009SOL     OW29488   0.850   4.440   4.284  0.2101  0.6349 -0.4428
 6009SOL    HW129489   0.908   4.365   4.272 -0.9149 -0.3133  0.0858
 6009SOL    HW229490   0.776   4.402   4.331  1.2373 -0.6490  0.1036
 6010SOL     OW29491   2.320   0.909   2.231  0.3507 -0.0174 -0.1129
 6010SOL    HW129492   2.292   0.817   2.233 -0.9626  0.3904  0.6557
 6010SOL    HW229493   2.237   0.945   2.199  0.7872 -0.6554 -1.9246
 6011SOL     OW29494   3.989   3.886  14.381 -0.1316  0.1010 -0.2709
 6011SOL    HW129495   3.938   3.822  14.331  0.4995  0.3252 -1.1991
 6011SOL    HW229496   3.920   3.936  14.425 -0.2625  0.2758 -0.6656
 6012SOL     OW29497   0.460   0.722   6.725  0.2469 -0.2543 -0.2516
 6012SOL    HW129498   0.478   0.732   6.819 -1.6749 -0.0050  0.0751
 6012SOL    HW229499   0.438   0.814   6.711 -0.9595 -0.9021 -2.5014
 6013SOL     OW29500   0.428   3.335   4.864  0.1210 -0.2276 -0.4444
 6013SOL    HW129501   0.399   3.388   4.791 -2.7786 -0.0932  0.8229
 6013SOL    HW229502   0.420   3.249   4.822 -0.0302 -1.2164  1.6132
 6014SOL     OW29503   4.583   0.765  16.837  0.5336 -0.5453  0.8235
 6014SOL    HW129504   4.534   0.773  16.919  1.2315 -0.7394  1.2503
 6014SOL    HW229505   4.595   0.855  16.809  0.4230  0.3629  3.7190
 6015SOL     OW29506   1.658   3.041  16.112  0.4396  0.0170  0.3130
 6015SOL    HW129507   1.677   3.133  16.128  0.0977  0.0382  0.5898
 6015SOL    HW229508   1.577   3.065  16.067  0.0245 -1.9744  0.0049
 6016SOL     OW29509   1.476   0.422   5.384 -0.4481 -0.2124 -0.3970
 6016SOL    HW129510   1.488   0.412   5.479  0.8968 -0.2248 -0.5675
 6016SOL    HW229511   1.405   0.360   5.368 -0.8726  0.1864 -0.0550
 6017SOL     OW29512   2.411   1.026  15.546 -0.2854 -0.0721 -0.3946
 6017SOL    HW129513   2.464   1.088  15.498  0.3841  1.8529  2.8508
 6017SOL    HW229514   2.336   1.081  15.569 -0.6358 -0.8808  0.4034
 6018SOL     OW29515   1.709   1.042   0.208 -0.2895 -0.5314  0.3300
 6018SOL    HW129516   1.771   1.059   0.137 -0.7211  0.3120  0.1587
 6018SOL    HW229517   1.664   1.125   0.196  2.3664  0.8857 -0.0301
 6019SOL     OW29518   2.949   0.806   6.355  0.5581 -0.0360  0.3241
 6019SOL    HW129519   2.974   0.874   6.417 -0.7184  0.0008  0.7929
 6019SOL    HW229520   2.996   0.736   6.401  0.1387  0.6455  1.7673
 6020SOL     OW29521   1.545   1.870   4.627 -0.8360 -0.2249  0.4871
 6020SOL    HW129522   1.510   1.858   4.538 -2.8270  2.8568  0.8600
 6020SOL    HW229523   1.486   1.809   4.672 -1.9371  1.5532  1.4693
 6021SOL     OW29524   2.237   2.280   7.682  0.3590 -0.0695  0.0685
 6021SOL    HW129525   2.267   2.249   7.767 -1.2176  0.2980  0.7665
 6021SOL    HW229526   2.271   2.205   7.633  0.9731  0.1921  0.0991
 6022SOL     OW29527   2.672   4.298   6.919  0.2387 -0.6471  0.0541
 6022SOL    HW129528   2.605   4.341   6.972 -0.1248 -0.1691 -0.8038
 6022SOL    HW229529   2.756   4.341   6.937  0.6871 -1.2872 -0.4879
 6023SOL     OW29530   3.184   2.994  14.823 -0.1441  0.0493  0.8879
 6023SOL    HW129531   3.266   2.963  14.784  0.5128  1.2243  1.3429
 6023SOL    HW229532   3.177   2.921  14.885  0.2413  0.4690  1.4203
 6024SOL     OW29533   0.625   3.918   5.999  0.6644 -0.2106  0.9557
 6024SOL    HW129534   0.606   4.011   6.011 -0.8687 -0.3339 -0.5088
 6024SOL    HW229535   0.546   3.878   6.033  0.0574  0.0872 -0.1185
 6025SOL     OW29536   0.055   3.825   1.236  0.2130 -0.2960 -0.0432
 6025SOL    HW129537   0.126   3.857   1.292 -0.3808  0.8414  0.0635
 6025SOL    HW229538   0.009   3.908   1.222  2.4890  0.8192 -1.0657
 6026SOL     OW29539   4.351   2.503   7.666  1.1341 -0.7985  0.1084
 6026SOL    HW129540   4.394   2.467   7.588  0.3998 -1.5776  0.0624
 6026SOL    HW229541   4.278   2.442   7.680  1.1819 -0.6007  1.2354
 6027SOL     OW29542   0.902   4.219  13.895  0.3040 -0.6104 -0.1320
 6027SOL    HW129543   0.882   4.254  13.807 -1.1521  3.2395  1.7317
 6027SOL    HW229544   0.947   4.290  13.940 -2.0700  1.4784 -1.0077
 6028SOL     OW29545   1.182   1.403   8.255  0.8253 -0.1710  0.0503
 6028SOL    HW129546   1.133   1.485   8.256 -2.0441 -1.8903 -0.6150
 6028SOL    HW229547   1.252   1.434   8.312  0.0199  0.6492  0.5922
 6029SOL     OW29548   2.981   1.121   8.825 -0.0026 -0.6261  0.2573
 6029SOL    HW129549   2.915   1.070   8.778  1.1466 -3.1665  1.3940
 6029SOL    HW229550   3.020   1.161   8.747 -0.5972  1.7905  1.2071
 6030SOL     OW29551   2.835   0.455   5.452 -0.0893 -0.0023  0.2593
 6030SOL    HW129552   2.906   0.496   5.403 -0.0616 -0.8349 -0.3998
 6030SOL    HW229553   2.846   0.502   5.535  0.8598  1.7558 -0.8617
 6031SOL     OW29554   3.667   3.553   8.946 -0.3366  0.1962 -0.1225
 6031SOL    HW129555   3.756   3.578   8.970  0.2732 -1.0188 -1.0794
 6031SOL    HW229556   3.636   3.639   8.917 -0.7983 -0.0660 -0.4034
 6032SOL     OW29557   3.685   2.907   4.879  0.3661  0.4156 -0.0420
 6032SOL    HW129558   3.763   2.924   4.826 -1.1209  0.0619 -2.3758
 6032SOL    HW229559   3.702   2.819   4.913 -0.2060  1.1204  2.0661
 6033SOL     OW29560   0.705   1.190  17.133  0.2877  0.1857 -0.2360
 6033SOL    HW129561   0.633   1.134  17.160  0.8169 -0.2015  0.3733
 6033SOL    HW229562   0.668   1.222  17.050 -0.6675  0.2695  0.2339
 6034SOL     OW29563   4.646   4.139   4.054 -0.0253  0.3660 -0.3519
 6034SOL    HW129564   4.640   4.059   4.002  0.4018  0.0302  0.1253
 6034SOL    HW229565   4.684   4.194   3.985  1.6880 -0.4826 -0.0768
 6035SOL     OW29566   0.900   3.632   3.897 -0.5944 -0.7158  0.7027
 6035SOL    HW129567   0.920   3.634   3.990  2.9860 -0.3766 -0.0483
 6035SOL    HW229568   0.851   3.553   3.875  3.9930 -2.9664 -1.3943
 6036SOL     OW29569   3.025   2.393   8.798  0.6645 -0.1176  0.3445
 6036SOL    HW129570   2.959   2.405   8.866  0.7708 -0.6160  0.5390
 6036SOL    HW229571   3.100   2.379   8.856  2.3090  0.3431 -1.6588
 6037SOL     OW29572   0.157   3.617   7.292  0.1314 -0.3401 -0.6595
 6037SOL    HW129573   0.251   3.606   7.306 -0.6053 -2.4938  2.5595
 6037SOL    HW229574   0.127   3.630   7.382  0.1915  0.7137 -0.7904
 6038SOL     OW29575   1.415   3.371  10.264  0.0023 -0.2749  0.3141
 6038SOL    HW129576   1.465   3.416  10.196  1.6487 -2.2907  0.1706
 6038SOL    HW229577   1.359   3.330  10.199  0.2544  1.5785 -1.0667
 6039SOL     OW29578   3.799   1.138   2.939  0.2653  0.1009 -0.2460
 6039SOL    HW129579   3.743   1.194   2.885  0.8933  0.3561 -0.6319
 6039SOL    HW229580   3.857   1.201   2.981 -0.8763  0.6486  0.4776
 6040SOL     OW29581   3.553   4.671   4.943 -0.1529  0.1871  0.0730
 6040SOL    HW129582   3.535   4.577   4.953  3.6814 -0.6218 -0.4723
 6040SOL    HW229583   3.601   4.686   5.024 -0.7747  0.4593  0.3909
 6041SOL     OW29584   1.383   2.980  17.654  0.4509  0.0261  0.2398
 6041SOL    HW129585   1.477   2.965  17.657  0.6742  1.4009 -0.1444
 6041SOL    HW229586   1.377   3.039   0.029  1.3766  0.1591  0.2007
 6042SOL     OW29587   2.208   4.123  15.024  0.1838 -0.1045 -0.0074
 6042SOL    HW129588   2.248   4.036  15.018 -0.0835 -0.2346  0.1022
 6042SOL    HW229589   2.191   4.145  14.933  0.1258  3.4405  0.8551
 6043SOL     OW29590   0.964   2.019   2.760 -0.1570  0.0265  0.4734
 6043SOL    HW129591   1.005   1.987   2.840 -0.7615 -1.0019  0.3652
 6043SOL    HW229592   1.024   1.988   2.692 -0.9941  2.6451 -1.4937
 6044SOL     OW29593   4.377   1.972   6.917 -0.5522  0.4456 -0.1213
 6044SOL    HW129594   4.287   1.965   6.951 -0.1535 -0.0216  0.8470
 6044SOL    HW229595   4.365   1.933   6.830 -2.7755 -0.1722  0.4564
 6045SOL     OW29596   4.491   2.114   5.854 -0.5761  0.5518 -0.2173
 6045SOL    HW129597   4.537   2.143   5.933 -0.1254  0.5756 -0.4826
 6045SOL    HW229598   4.440   2.045   5.894  1.0697  1.0794  2.7646
 6046SOL     OW29599   0.511   3.550   2.725  0.1907 -0.2992  0.4562
 6046SOL    HW129600   0.549   3.613   2.663  1.5930 -1.4987  0.0776
 6046SOL    HW229601   0.431   3.593   2.753 -0.3362 -0.2291 -1.1387
 6047SOL     OW29602   2.071   2.424  11.520  0.3681  0.0132 -0.7524
 6047SOL    HW129603   2.130   2.379  11.460  1.7396  2.0585 -0.9587
 6047SOL    HW229604   2.069   2.349  11.580 -1.7898  1.7268  1.3241
 6048SOL     OW29605   3.322   2.842   2.430 -0.3594  0.1861  0.2849
 6048SOL    HW129606   3.274   2.773   2.477  1.2423 -1.8345 -1.0709
 6048SOL    HW229607   3.260   2.883   2.370 -0.2108 -2.7683 -1.8478
 6049SOL     OW29608   2.355   4.000   9.441  0.3280  0.2873  0.0205
 6049SOL    HW129609   2.307   4.080   9.463  0.4466  0.5404 -0.6550
 6049SOL    HW229610   2.279   3.945   9.419  1.3035 -1.3737  0.7736
 6050SOL     OW29611   3.447   1.651   0.941  0.2272  0.3966  0.0504
 6050SOL    HW129612   3.475   1.735   0.905  2.0802 -0.2962 -0.1108
 6050SOL    HW229613   3.386   1.621   0.873  2.8572 -0.7553 -1.8297
 6051SOL     OW29614   0.837   1.514  11.687 -0.3178 -0.3023  0.2543
 6051SOL    HW129615   0.817   1.606  11.705 -0.0464 -0.1959  0.0041
 6051SOL    HW229616   0.915   1.492  11.738  0.9181  1.6415 -0.8375
 6052SOL     OW29617   0.373   0.802   1.289  0.2042 -0.2880  0.0157
 6052SOL    HW129618   0.339   0.888   1.267 -0.3355 -0.1696  1.3075
 6052SOL    HW229619   0.369   0.808   1.384  0.5709  1.3506 -0.0775
 6053SOL     OW29620   3.343   2.858   1.248  0.0318  0.5045 -0.4827
 6053SOL    HW129621   3.303   2.889   1.166  1.5146  0.8252 -1.0963
 6053SOL    HW229622   3.410   2.795   1.220 -0.3034 -0.1415  0.1866
 6054SOL     OW29623   1.930   1.152   2.147 -0.1416  0.0217  0.1783
 6054SOL    HW129624   2.026   1.146   2.150 -0.2100  0.1619  2.3666
 6054SOL    HW229625   1.894   1.066   2.165 -0.6940 -0.0309 -1.1667
 6055SOL     OW29626   1.651   3.892   7.099  0.0931 -0.0613  0.2707
 6055SOL    HW129627   1.612   3.978   7.082  0.0895 -0.1652 -0.2616
 6055SOL    HW229628   1.614   3.835   7.031 -1.9562  1.3947  0.1611
 6056SOL     OW29629   2.121   2.194   4.900 -0.2912  0.0425 -0.0908
 6056SOL    HW129630   2.207   2.234   4.892 -0.7814  1.1832  0.3444
 6056SOL    HW229631   2.075   2.235   4.827  1.4639  1.5083 -0.3522
 6057SOL     OW29632   1.470   2.986   6.818  0.1087 -0.3850  0.4312
 6057SOL    HW129633   1.445   3.051   6.753 -2.2048 -0.3988  1.3237
 6057SOL    HW229634   1.566   2.986   6.810  0.1176 -0.4192  0.5268
 6058SOL     OW29635   4.606   1.875   7.035  0.7237  0.2545  0.1209
 6058SOL    HW129636   4.528   1.919   7.001  0.6412 -0.3129 -0.4177
 6058SOL    HW229637   4.637   1.834   6.954 -1.3382 -1.5392  0.2236
 6059SOL     OW29638   0.039   0.118  13.296  0.3428  0.2745  0.1399
 6059SOL    HW129639   0.007   0.043  13.348  3.4252 -0.6452  0.6903
 6059SOL    HW229640   0.113   0.140  13.352  1.0405 -2.2469  0.1994
 6060SOL     OW29641   3.505   0.367   9.028  0.5487 -0.1586 -0.0950
 6060SOL    HW129642   3.536   0.348   8.940  1.8851 -0.4306  0.4323
 6060SOL    HW229643   3.551   0.449   9.046  0.6379  0.0670 -1.4084
 6061SOL     OW29644   4.342   3.808  14.831  0.1515  0.0491 -0.5075
 6061SOL    HW129645   4.375   3.858  14.906 -1.9328  3.0357 -1.6147
 6061SOL    HW229646   4.385   3.724  14.849 -0.5981 -0.4103 -0.8847
 6062SOL     OW29647   4.675   3.321  14.987  0.1133  0.2669  0.5031
 6062SOL    HW129648   4.590   3.348  15.022 -0.8576 -0.0835 -1.6096
 6062SOL    HW229649   4.691   3.390  14.923  1.0564  0.3061  0.7801
 6063SOL     OW29650   4.644   1.816  10.596  0.4777  0.1189 -0.3060
 6063SOL    HW129651   4.560   1.769  10.587 -0.5861  1.6327  1.6840
 6063SOL    HW229652   4.689   1.769  10.666  0.3459 -1.1206 -1.0522
 6064SOL     OW29653   4.231   0.687  17.049 -0.0207 -0.8001  0.5408
 6064SOL    HW129654   4.301   0.748  17.024  1.3623 -1.9936  1.4916
 6064SOL    HW229655   4.238   0.635  16.969 -2.3182 -1.2166  0.6188
 6065SOL     OW29656   0.138   0.319   1.350 -0.4835  0.5780 -0.1268
 6065SOL    HW129657   0.131   0.238   1.298  1.4420  0.0501  0.4228
 6065SOL    HW229658   0.213   0.368   1.315  0.0596  0.9240  1.5237
 6066SOL     OW29659   1.203   1.699   1.635 -0.0897  0.3697  0.3990
 6066SOL    HW129660   1.147   1.624   1.655  2.7932 -1.9662 -0.3541
 6066SOL    HW229661   1.275   1.668   1.582  0.1625  1.3390  0.1716
 6067SOL     OW29662   3.772   0.576   0.752 -0.0303  0.2033  0.1106
 6067SOL    HW129663   3.834   0.625   0.806 -2.4784  2.9177  0.4294
 6067SOL    HW229664   3.780   0.622   0.669 -2.6001  1.0162  0.3109
 6068SOL     OW29665   1.848   3.208   3.221  0.2335  0.2135  0.4063
 6068SOL    HW129666   1.900   3.275   3.177  1.0759 -0.7152 -0.0188
 6068SOL    HW229667   1.909   3.136   3.234  1.3993  0.5904 -2.8552
 6069SOL     OW29668   1.480   2.929   1.791 -0.3707 -0.3967 -0.5469
 6069SOL    HW129669   1.469   2.835   1.776 -0.8060 -0.5961  1.0468
 6069SOL    HW229670   1.567   2.917   1.829 -1.2644  0.7772  1.8451
 6070SOL     OW29671   0.822   1.729   8.731 -1.0541  0.1661  0.5173
 6070SOL    HW129672   0.788   1.737   8.642 -0.4848 -1.8504  0.1203
 6070SOL    HW229673   0.796   1.815   8.765  3.2282  1.4570  0.5116
 6071SOL     OW29674   4.149   2.350  14.511 -0.3272 -0.1269 -0.0518
 6071SOL    HW129675   4.162   2.437  14.547  0.1917 -0.4237  0.4809
 6071SOL    HW229676   4.054   2.343  14.503 -0.2359 -0.7702 -0.6742
 6072SOL     OW29677   2.766   0.793  13.246  0.4134 -0.1842 -0.1545
 6072SOL    HW129678   2.795   0.703  13.233 -0.5161 -0.8001  1.9880
 6072SOL    HW229679   2.713   0.808  13.168  0.4943  1.4551  0.1106
 6073SOL     OW29680   1.115   4.192   8.512  0.0341  0.2822  0.8431
 6073SOL    HW129681   1.158   4.146   8.585 -1.4369 -2.5433 -0.0792
 6073SOL    HW229682   1.024   4.165   8.521  0.4340 -1.5818 -0.6621
 6074SOL     OW29683   0.614   0.969   3.908  0.3867 -0.2121  0.6854
 6074SOL    HW129684   0.543   0.937   3.853  0.9786 -1.5855  0.7200
 6074SOL    HW229685   0.688   0.960   3.848  0.9130 -2.3550  1.6460
 6075SOL     OW29686   0.805   3.289   4.375 -0.0939 -0.2433 -0.3957
 6075SOL    HW129687   0.861   3.264   4.449 -0.5431 -0.6954 -0.2070
 6075SOL    HW229688   0.725   3.279   4.427  0.6479 -1.5235  0.4949
 6076SOL     OW29689   2.501   3.821   9.006  0.7446  0.0255  0.1136
 6076SOL    HW129690   2.483   3.811   9.099 -0.3225 -1.4775 -0.2435
 6076SOL    HW229691   2.434   3.880   8.971  1.5220  1.9307  1.8951
 6077SOL     OW29692   3.522   4.423   7.846 -0.0888  0.4338  0.4922
 6077SOL    HW129693   3.429   4.438   7.828 -0.1777  1.4145  1.8065
 6077SOL    HW229694   3.514   4.433   7.941  0.1622 -1.6131  0.7485
 6078SOL     OW29695   1.186   2.430   3.522 -0.1245  0.6638 -0.0033
 6078SOL    HW129696   1.147   2.518   3.515 -0.1445  0.7057  0.6584
 6078SOL    HW229697   1.269   2.452   3.564  0.1434  0.4379 -0.4172
 6079SOL     OW29698   3.437   4.653   2.557 -0.2954  0.0609 -0.1712
 6079SOL    HW129699   3.399   0.013   2.581  0.0875  0.8008 -2.1277
 6079SOL    HW229700   3.428   4.603   2.638 -0.3687  0.2060 -0.0914
 6080SOL     OW29701   2.204   2.093  14.956 -0.3884 -0.6496  0.3527
 6080SOL    HW129702   2.241   2.024  14.902  1.0844 -0.5694  1.2553
 6080SOL    HW229703   2.114   2.111  14.927  0.4779  0.7943 -1.3842
 6081SOL     OW29704   4.565   2.198   3.214  0.4369  0.4562  0.6052
 6081SOL    HW129705   4.527   2.186   3.127  2.3845 -1.5382  0.0284
 6081SOL    HW229706   4.639   2.255   3.193  0.3220  0.6701  0.7821
 6082SOL     OW29707   3.817   2.072   6.786  1.0979  0.6744 -0.3907
 6082SOL    HW129708   3.793   2.165   6.793 -1.4489 -0.0821  0.8871
 6082SOL    HW229709   3.809   2.037   6.875 -1.6795  3.4781  0.4672
 6083SOL     OW29710   2.614   1.355   0.103 -0.4119  0.3186 -0.6102
 6083SOL    HW129711   2.622   1.345   0.008  1.7333  0.7822 -0.4951
 6083SOL    HW229712   2.576   1.442   0.115  1.6649  0.7182  2.9804
 6084SOL     OW29713   0.649   1.593   7.579  1.0079 -0.1595  0.6611
 6084SOL    HW129714   0.654   1.650   7.502 -2.1146 -0.0651  0.5195
 6084SOL    HW229715   0.615   1.652   7.646  1.9055  0.1351  0.8654
 6085SOL     OW29716   2.887   3.612  12.782  0.0900  0.1786  0.3070
 6085SOL    HW129717   2.822   3.552  12.820  1.1101  0.1404  1.9808
 6085SOL    HW229718   2.952   3.614  12.851  0.8577  0.4257 -0.4203
 6086SOL     OW29719   4.707   4.167   3.381 -0.4631 -0.0497  0.1084
 6086SOL    HW129720   4.666   4.135   3.301  0.8018  0.1533 -0.6336
 6086SOL    HW229721   0.041   4.229   3.337  2.9901 -2.4128  1.3908
 6087SOL     OW29722   0.822   0.171   1.432 -0.0425  0.4593  0.2565
 6087SOL    HW129723   0.737   0.167   1.476  0.3829 -0.0118  1.0266
 6087SOL    HW229724   0.813   0.263   1.406  1.2469  0.6894  0.5925
 6088SOL     OW29725   2.646   1.827  12.554 -0.1643 -0.1836 -0.0098
 6088SOL    HW129726   2.691   1.757  12.507 -1.2202 -1.4186  0.8492
 6088SOL    HW229727   2.575   1.780  12.595 -1.3727  0.6572 -1.1144
 6089SOL     OW29728   1.502   2.345   0.091  0.2091  0.2794 -0.0248
 6089SOL    HW129729   1.482   2.375   0.003 -2.1086  0.9904  0.7383
 6089SOL    HW229730   1.497   2.425   0.144  1.9419 -0.5038  1.3317
 6090SOL     OW29731   2.476   2.073  16.944  0.4467  0.0693  0.5622
 6090SOL    HW129732   2.476   2.158  16.900 -0.1919 -0.6758 -0.8984
 6090SOL    HW229733   2.450   2.100  17.032 -0.6937 -2.2726  0.9470
 6091SOL     OW29734   2.467   3.425   8.790 -0.8943 -0.1875 -0.2174
 6091SOL    HW129735   2.417   3.502   8.763  1.5998  1.5525  0.1230
 6091SOL    HW229736   2.470   3.379   8.706 -0.3211 -2.1269  0.8478
 6092SOL     OW29737   4.706   4.642   5.044  0.6421  0.1346 -0.2869
 6092SOL    HW129738   4.689   4.625   4.951  1.7806 -1.9778 -0.0998
 6092SOL    HW229739   0.064   4.683   5.021 -0.6368  2.2109 -1.2177
 6093SOL     OW29740   3.788   4.006   7.639 -0.6195 -0.2011  0.6596
 6093SOL    HW129741   3.735   4.006   7.559 -0.9408  1.0575  0.8860
 6093SOL    HW229742   3.744   4.071   7.693 -1.3998  0.2557 -0.5333
 6094SOL     OW29743   1.642   2.929   2.754 -0.1746 -0.1622  0.4724
 6094SOL    HW129744   1.720   2.926   2.699  0.6034  0.2610  1.5506
 6094SOL    HW229745   1.611   2.840   2.735 -0.9962  0.1775  0.2333
 6095SOL     OW29746   3.411   2.689   4.070 -0.4251  0.8153 -0.0591
 6095SOL    HW129747   3.408   2.782   4.046 -0.6072  0.8923  0.2458
 6095SOL    HW229748   3.320   2.672   4.097 -0.0415 -1.0626  0.0443
 6096SOL     OW29749   0.274   2.028   2.215 -0.7881  0.5096 -0.0355
 6096SOL    HW129750   0.305   2.065   2.132 -1.0296 -2.8430 -1.5837
 6096SOL    HW229751   0.308   2.095   2.276 -1.3999  0.7611  0.0265
 6097SOL     OW29752   2.768   0.989   6.228 -0.3522 -0.4228  1.0921
 6097SOL    HW129753   2.796   0.947   6.310  2.5669 -1.0477 -0.2341
 6097SOL    HW229754   2.719   0.919   6.185  0.3206 -0.1501 -0.1067
 6098SOL     OW29755   0.024   4.022   7.899  0.3775  0.3141 -0.4196
 6098SOL    HW129756   4.706   3.966   7.835  0.2622  1.3723 -1.2750
 6098SOL    HW229757   4.703   3.993   7.978 -2.2502  1.4857 -1.5093
 6099SOL     OW29758   3.657   1.932   4.773 -0.1136  0.0668 -0.1967
 6099SOL    HW129759   3.626   1.964   4.857 -2.2354  0.7356 -1.2348
 6099SOL    HW229760   3.678   2.015   4.731  2.4083 -0.9693 -0.9853
 6100SOL     OW29761   2.319   4.405  11.858  0.0336  0.1789 -0.1961
 6100SOL    HW129762   2.316   4.381  11.951 -0.4132 -0.4437 -0.3744
 6100SOL    HW229763   2.228   4.407  11.829  0.5241  0.6413 -1.7057
 6101SOL     OW29764   0.262   2.143   4.108  0.2229 -0.2522  0.5612
 6101SOL    HW129765   0.232   2.115   4.022  2.4178  1.8328 -0.8902
 6101SOL    HW229766   0.334   2.197   4.076 -0.4612  0.8540  0.8730
 6102SOL     OW29767   4.595   0.256   8.460  0.3524  0.2515 -0.2628
 6102SOL    HW129768   4.635   0.251   8.547 -1.6014 -0.0439  0.6059
 6102SOL    HW229769   4.635   0.340   8.440 -1.9706  1.1917 -0.9024
 6103SOL     OW29770   1.130   3.086   3.555 -0.2001  0.0917  0.1953
 6103SOL    HW129771   1.197   3.068   3.622 -0.3195  0.5427  0.4335
 6103SOL    HW229772   1.117   3.180   3.569 -4.7932 -0.6235  0.5748
 6104SOL     OW29773   4.391   4.274  16.514  0.4942  0.0254 -0.0181
 6104SOL    HW129774   4.396   4.352  16.459 -1.7100  0.3378  0.2434
 6104SOL    HW229775   4.374   4.299  16.604  2.6473 -1.6630  0.8668
 6105SOL     OW29776   3.690   2.642  17.673  0.4264 -0.4821  0.6291
 6105SOL    HW129777   3.786   2.632  17.671  0.7531  2.8866 -0.2348
 6105SOL    HW229778   3.663   2.563  17.626 -0.8933  0.3130  0.0598
 6106SOL     OW29779   2.567   1.154   7.015 -1.4166 -0.0350 -0.2959
 6106SOL    HW129780   2.514   1.134   7.092 -1.5180 -0.0904 -0.3798
 6106SOL    HW229781   2.634   1.086   7.017  0.4956  1.8505  0.2694
 6107SOL     OW29782   1.842   1.318   5.332  0.1171  0.3072  0.0521
 6107SOL    HW129783   1.771   1.255   5.344  1.4668 -0.8078  2.2287
 6107SOL    HW229784   1.810   1.361   5.253  1.0848  1.8198  0.4798
 6108SOL     OW29785   2.811   1.216  14.644  0.4574  0.1073 -0.1092
 6108SOL    HW129786   2.855   1.158  14.582 -0.5216  1.2126 -1.8556
 6108SOL    HW229787   2.721   1.183  14.641  1.0909 -1.3348 -2.5038
 6109SOL     OW29788   0.270   0.614   7.869  0.4795 -0.2308  0.4188
 6109SOL    HW129789   0.310   0.527   7.878 -0.1116 -0.4026  1.4466
 6109SOL    HW229790   0.213   0.602   7.793 -0.4286  0.0274  1.0552
 6110SOL     OW29791   4.051   2.429   7.984  0.6362  0.3009 -0.3961
 6110SOL    HW129792   4.133   2.422   8.033 -0.1693  0.5503  0.9771
 6110SOL    HW229793   4.004   2.362   8.033  2.1468  0.2958  1.0683
 6111SOL     OW29794   2.523   0.585   2.123 -0.2109 -0.7687 -0.0684
 6111SOL    HW129795   2.439   0.621   2.149  0.0130  0.2557 -0.7543
 6111SOL    HW229796   2.497   0.519   2.058  3.1468 -2.3191  0.1793
 6112SOL     OW29797   1.376   3.579   4.685 -0.3920  0.1319  0.0874
 6112SOL    HW129798   1.435   3.538   4.747 -0.1824  0.1251 -0.1178
 6112SOL    HW229799   1.348   3.661   4.726 -1.8937  0.3959 -1.4122
 6113SOL     OW29800   3.858   1.847  14.986  0.5596 -0.0749  0.0517
 6113SOL    HW129801   3.767   1.878  14.983  0.0004 -1.7698 -0.1650
 6113SOL    HW229802   3.854   1.775  15.049 -2.1028 -1.4797 -1.7180
 6114SOL     OW29803   2.898   3.004   5.677 -0.0292 -0.2397  0.0249
 6114SOL    HW129804   2.923   3.061   5.604  0.5181  1.7892  1.7810
 6114SOL    HW229805   2.978   2.952   5.678  0.6032  0.7307 -0.3763
 6115SOL     OW29806   2.499   0.937  12.578  0.3064 -0.3398  0.6249
 6115SOL    HW129807   2.458   0.959  12.494  0.0186  0.9526  1.1079
 6115SOL    HW229808   2.584   0.978  12.568  1.3898 -2.9812 -1.0225
 6116SOL     OW29809   2.856   1.476   5.872  0.3947  0.6673  0.4876
 6116SOL    HW129810   2.831   1.472   5.780  0.2672  0.9073  0.5131
 6116SOL    HW229811   2.883   1.385   5.887 -0.5166  0.4562  0.8858
 6117SOL     OW29812   3.380   1.580  10.621 -0.0825 -0.3068  0.8464
 6117SOL    HW129813   3.396   1.525  10.698 -2.6002 -1.1556  0.7619
 6117SOL    HW229814   3.285   1.591  10.623 -0.1168 -0.5904  0.6827
 6118SOL     OW29815   3.390   0.287   7.871  0.0317 -0.0537  0.2843
 6118SOL    HW129816   3.441   0.364   7.896 -0.1533  0.0205  0.4259
 6118SOL    HW229817   3.451   0.244   7.811 -0.2028 -1.1886  0.8608
 6119SOL     OW29818   3.961   1.048   6.967  0.0901  0.2262  0.1969
 6119SOL    HW129819   4.055   1.040   6.982  0.0885 -0.2176 -0.0421
 6119SOL    HW229820   3.945   1.125   7.022 -1.2173  0.8478 -1.0320
 6120SOL     OW29821   1.718   1.933  10.973  0.3365  0.2279 -0.5793
 6120SOL    HW129822   1.804   1.944  10.934  0.4974  0.2986 -0.2046
 6120SOL    HW229823   1.727   1.851  11.021  1.9059 -0.2351 -1.6603
 6121SOL     OW29824   3.337   4.658   7.447  0.3418 -0.2401 -0.6511
 6121SOL    HW129825   3.266   4.602   7.479  0.6247  1.9168  3.8637
 6121SOL    HW229826   3.298   0.008   7.403 -0.0594  0.6187  1.1536
 6122SOL     OW29827   3.454   2.970  16.027  0.3488  0.2462 -0.0191
 6122SOL    HW129828   3.372   3.019  16.018  1.4024  1.7950 -1.2073
 6122SOL    HW229829   3.415   2.900  16.080  1.2936  0.6396  1.2100
 6123SOL     OW29830   1.975   3.869  14.836 -0.0809 -0.1849  0.0818
 6123SOL    HW129831   2.045   3.885  14.773  0.4531  0.2636  0.7909
 6123SOL    HW229832   1.911   3.934  14.810  2.3434  2.1970  0.0470
 6124SOL     OW29833   2.433   0.574   5.709 -0.3279 -0.0328 -0.1335
 6124SOL    HW129834   2.463   0.574   5.800  1.7357 -0.8710 -0.7969
 6124SOL    HW229835   2.511   0.603   5.660 -1.0187  1.4130 -0.3616
 6125SOL     OW29836   0.371   2.987   8.749  0.3148 -0.2485 -0.2883
 6125SOL    HW129837   0.313   2.995   8.673  0.0964  0.2589 -0.0642
 6125SOL    HW229838   0.376   3.074   8.788 -1.0120  0.1080 -0.8999
 6126SOL     OW29839   3.437   1.826   7.067  0.3012  0.3629 -0.0367
 6126SOL    HW129840   3.485   1.749   7.040 -0.9011 -0.7845  1.0947
 6126SOL    HW229841   3.363   1.778   7.104  0.7530 -0.5505 -0.3429
 6127SOL     OW29842   3.723   1.357   4.018  1.1891  0.1721  0.1882
 6127SOL    HW129843   3.669   1.434   4.038  1.1761  0.1265  0.3354
 6127SOL    HW229844   3.700   1.313   4.100 -2.0573 -0.6035 -1.1056
 6128SOL     OW29845   0.029   2.526   8.101 -0.3024 -0.4189 -0.1798
 6128SOL    HW129846   0.109   2.486   8.066 -1.1470 -0.5689 -1.9385
 6128SOL    HW229847   0.041   2.620   8.085 -1.5022 -0.0152  1.3170
 6129SOL     OW29848   1.684   4.072   3.063  0.4196 -0.1873 -0.0931
 6129SOL    HW129849   1.621   4.004   3.042  0.0669 -0.0025  0.3671
 6129SOL    HW229850   1.746   4.057   2.990  0.8881 -1.6635  0.6084
 6130SOL     OW29851   1.070   2.971   9.606  0.3134  0.7988  0.9482
 6130SOL    HW129852   1.105   3.038   9.547  3.5249 -1.4435  0.2504
 6130SOL    HW229853   1.007   2.925   9.550  2.1474 -0.7214  0.1035
 6131SOL     OW29854   1.395   2.927  12.122 -0.1355  0.1503 -0.2135
 6131SOL    HW129855   1.308   2.910  12.157  0.4300 -0.6446  0.7911
 6131SOL    HW229856   1.440   2.949  12.204 -0.6025  2.7874 -0.6649
 6132SOL     OW29857   3.985   3.701  17.256  0.1594  0.5348 -0.3614
 6132SOL    HW129858   4.026   3.649  17.326  0.0895  0.1859 -0.5766
 6132SOL    HW229859   3.993   3.787  17.296  0.6886  0.4866 -0.3573
 6133SOL     OW29860   2.822   2.877   0.512 -0.0400 -0.4617 -0.2917
 6133SOL    HW129861   2.840   2.870   0.418  0.4441 -0.3158 -0.2121
 6133SOL    HW229862   2.855   2.966   0.528 -0.0624 -0.6205  0.6316
 6134SOL     OW29863   1.248   1.355  16.334 -0.4220 -0.3762 -0.7553
 6134SOL    HW129864   1.316   1.392  16.390 -0.4311 -0.1387 -0.9036
 6134SOL    HW229865   1.281   1.268  16.313 -0.2087 -0.3313 -0.6025
 6135SOL     OW29866   2.652   4.103   2.532  0.0236  0.0716  0.2425
 6135SOL    HW129867   2.658   4.139   2.443  2.3910 -0.7657  0.0389
 6135SOL    HW229868   2.663   4.009   2.515  0.1445  0.2722 -0.8277
 6136SOL     OW29869   2.463   1.955   3.201 -0.0538 -0.1360 -0.0170
 6136SOL    HW129870   2.525   1.942   3.130 -0.4792 -0.4743 -0.3233
 6136SOL    HW229871   2.478   2.048   3.216  0.0004 -0.1748  0.1795
 6137SOL     OW29872   2.116   3.956   7.909 -0.2820  0.1525 -0.5388
 6137SOL    HW129873   2.056   3.930   7.980  0.4575 -1.3531 -0.4572
 6137SOL    HW229874   2.053   3.944   7.838 -2.6969  0.9967  1.4476
 6138SOL     OW29875   0.120   1.100   4.785  0.1452  0.0284  0.5155
 6138SOL    HW129876   0.110   1.031   4.719 -0.0398  0.4187  0.1357
 6138SOL    HW229877   0.050   1.164   4.768 -1.5785 -1.3839  2.2892
 6139SOL     OW29878   2.157   1.436   9.469 -0.3705 -0.2189 -0.5814
 6139SOL    HW129879   2.079   1.477   9.508  0.3053 -0.7223  1.3069
 6139SOL    HW229880   2.211   1.434   9.548 -0.4737  0.9017 -0.4829
 6140SOL     OW29881   0.847   2.529  16.373 -0.0016 -0.2098 -0.5065
 6140SOL    HW129882   0.859   2.450  16.425  0.0502  0.2256  0.1501
 6140SOL    HW229883   0.937   2.561  16.375 -0.8220  2.1353  0.2626
 6141SOL     OW29884   0.292   1.258   0.657  0.0431 -0.1472  0.4613
 6141SOL    HW129885   0.291   1.344   0.616  0.7982 -0.0539  0.6412
 6141SOL    HW229886   0.286   1.189   0.590  0.4641  0.2510  0.0167
 6142SOL     OW29887   0.923   4.024   4.415 -0.0885 -0.0346  0.6636
 6142SOL    HW129888   1.004   3.997   4.459 -1.7186 -2.9039  1.8768
 6142SOL    HW229889   0.957   4.025   4.326 -1.4586 -0.9204  0.1354
 6143SOL     OW29890   1.691   4.022   8.300  0.2145 -0.1733 -0.0168
 6143SOL    HW129891   1.775   3.992   8.334 -0.3811 -0.3546  1.2859
 6143SOL    HW229892   1.627   4.010   8.370 -0.1825 -1.6024 -0.6294
 6144SOL     OW29893   1.377   4.303   1.959  0.4557  0.2879 -0.1079
 6144SOL    HW129894   1.353   4.234   1.898  2.0100 -0.9654  0.7056
 6144SOL    HW229895   1.406   4.366   1.893 -3.2563 -0.7466 -2.7049
 6145SOL     OW29896   2.978   0.380  15.870 -0.4185 -0.7328 -0.5636
 6145SOL    HW129897   2.914   0.437  15.827 -1.2109 -1.5096 -0.4047
 6145SOL    HW229898   2.917   0.313  15.901 -0.7414 -1.0252 -1.8452
 6146SOL     OW29899   1.431   1.478  16.501  0.1653  0.3399 -0.5210
 6146SOL    HW129900   1.484   1.528  16.562  1.0379 -1.2961  0.0700
 6146SOL    HW229901   1.350   1.474  16.552  0.3050  0.5954 -0.2809
 6147SOL     OW29902   2.553   3.007  10.963 -0.1480  0.0280 -0.1150
 6147SOL    HW129903   2.495   3.080  10.942  0.2843 -0.0071 -1.4385
 6147SOL    HW229904   2.525   2.972  11.047  2.3927 -0.9544  0.3233
 6148SOL     OW29905   0.085   1.215   0.828  0.1787  0.1405  0.4059
 6148SOL    HW129906   0.163   1.235   0.777  0.0908  1.4198  0.7771
 6148SOL    HW229907   0.039   1.299   0.827 -0.0301  0.0212 -0.0760
 6149SOL     OW29908   1.351   0.799   5.868 -0.2444 -0.2965 -0.2369
 6149SOL    HW129909   1.336   0.893   5.864 -0.1924 -0.2091  1.6671
 6149SOL    HW229910   1.437   0.796   5.909  0.1534  1.5941 -0.9364
 6150SOL     OW29911   2.781   1.182   9.449 -0.7356 -0.6474  0.1219
 6150SOL    HW129912   2.751   1.247   9.513 -0.4590 -0.3672 -0.0311
 6150SOL    HW229913   2.764   1.100   9.495  0.6512 -1.1651 -0.2957
 6151SOL     OW29914   3.489   0.573   2.085 -0.0169 -0.0057 -0.3715
 6151SOL    HW129915   3.427   0.519   2.133 -1.6937  3.0772  0.9291
 6151SOL    HW229916   3.424   0.635   2.052  0.1455  0.1426 -0.4130
 6152SOL     OW29917   1.829   2.070   2.938 -0.5205  0.0710 -0.1048
 6152SOL    HW129918   1.884   2.147   2.955 -0.4274  0.3069 -1.5067
 6152SOL    HW229919   1.898   2.013   2.904 -0.5336  0.0843 -0.1532
 6153SOL     OW29920   1.298   2.200   2.879  0.6160 -0.0696  0.1088
 6153SOL    HW129921   1.301   2.171   2.788 -2.8387  0.2228 -0.0938
 6153SOL    HW229922   1.390   2.206   2.907  1.0200 -0.1814 -1.1548
 6154SOL     OW29923   4.223   2.024   3.362 -0.4451 -0.0783 -0.0346
 6154SOL    HW129924   4.250   1.976   3.440  1.4619 -0.5021 -0.9717
 6154SOL    HW229925   4.143   1.974   3.342  2.2740 -3.4425 -2.3917
 6155SOL     OW29926   3.376   0.275   1.531 -0.5497  0.0633 -0.0473
 6155SOL    HW129927   3.301   0.216   1.532 -0.0552 -0.6002 -1.5958
 6155SOL    HW229928   3.443   0.216   1.496 -0.4880 -1.4836  2.7360
 6156SOL     OW29929   2.835   3.118  16.861 -0.1868 -0.9659 -0.3303
 6156SOL    HW129930   2.845   3.055  16.932  1.8858 -0.6843 -0.3651
 6156SOL    HW229931   2.781   3.063  16.803  1.0618 -0.2638 -2.1549
 6157SOL     OW29932   1.232   3.335   9.606 -0.0017 -0.2407  0.6398
 6157SOL    HW129933   1.324   3.317   9.626  0.2525 -0.2286 -0.5237
 6157SOL    HW229934   1.192   3.322   9.691  0.8427  0.8911  1.2187
 6158SOL     OW29935   0.780   4.403   9.181  0.1537  0.0361  0.0210
 6158SOL    HW129936   0.782   4.322   9.130  1.7907  0.9915 -1.4314
 6158SOL    HW229937   0.707   4.456   9.151 -0.4378 -1.5286 -1.2911
 6159SOL     OW29938   0.466   0.339  15.408 -0.2507 -0.3575 -0.4289
 6159SOL    HW129939   0.442   0.305  15.322  0.8347  1.0950 -1.3008
 6159SOL    HW229940   0.400   0.406  15.422  0.6454  0.0384  1.8775
 6160SOL     OW29941   1.341   4.161  12.760 -0.4078  0.2845  0.0351
 6160SOL    HW129942   1.249   4.178  12.741 -0.2280 -1.2556 -2.1825
 6160SOL    HW229943   1.350   4.087  12.700  1.0844  0.4510  0.0516
 6161SOL     OW29944   0.083   0.452   7.306 -0.0264 -0.0104 -0.3569
 6161SOL    HW129945   0.051   0.524   7.252  2.1835  0.6585 -0.7714
 6161SOL    HW229946   0.134   0.498   7.374  1.4382 -0.6895 -0.9933
 6162SOL     OW29947   2.440   4.534   3.005  0.3465 -0.1532 -0.2990
 6162SOL    HW129948   2.390   4.615   3.010  0.2951 -0.3054  1.6150
 6162SOL    HW229949   2.527   4.574   3.006 -0.4118  1.4241  0.9645
 6163SOL     OW29950   0.537   4.711   6.438 -0.4187 -0.4622 -0.4589
 6163SOL    HW129951   0.625   4.706   6.402 -0.8892  0.7787 -1.8210
 6163SOL    HW229952   0.501   4.624   6.419 -0.9644 -0.2025 -0.6201
 6164SOL     OW29953   1.730   3.396   3.585  0.4358 -0.5985  0.6002
 6164SOL    HW129954   1.708   3.328   3.649 -0.4864 -0.0929  0.8203
 6164SOL    HW229955   1.824   3.401   3.598  0.7940  0.2385 -2.2089
 6165SOL     OW29956   1.638   2.236   8.148  0.0392  0.1385 -0.1966
 6165SOL    HW129957   1.560   2.223   8.203  1.0196 -1.6316  0.7887
 6165SOL    HW229958   1.608   2.198   8.066 -0.3138  0.0333 -0.0211
 6166SOL     OW29959   1.060   2.864   5.687  0.6066  0.1831 -0.2352
 6166SOL    HW129960   1.095   2.818   5.764 -0.8340 -0.0575  0.2826
 6166SOL    HW229961   0.980   2.900   5.725  0.7934  1.1525 -0.7634
 6167SOL     OW29962   0.762   3.182   1.455 -0.2287 -0.4659  0.5179
 6167SOL    HW129963   0.794   3.272   1.457 -0.2548 -0.3377 -3.4385
 6167SOL    HW229964   0.672   3.212   1.437 -0.5819 -2.6419 -1.3891
 6168SOL     OW29965   2.032   0.712   6.597  0.3542  0.3908 -0.0233
 6168SOL    HW129966   1.985   0.683   6.675  1.2057 -1.5929 -0.2633
 6168SOL    HW229967   2.098   0.643   6.601  0.4947  0.5631  0.6259
 6169SOL     OW29968   4.446   3.003   3.334 -0.2307  0.1302 -0.0382
 6169SOL    HW129969   4.382   2.942   3.297  1.5811 -1.2853 -0.7852
 6169SOL    HW229970   4.532   2.973   3.306  0.6346  1.4423  1.1847
 6170SOL     OW29971   2.195   1.595   7.414 -0.1897  0.2618 -0.0224
 6170SOL    HW129972   2.249   1.675   7.410  0.4487 -0.1787 -0.2671
 6170SOL    HW229973   2.118   1.625   7.462  0.3334 -1.4773  1.8607
 6171SOL     OW29974   3.377   3.652  10.900  0.6792 -0.0747  0.0045
 6171SOL    HW129975   3.369   3.709  10.976 -1.5293 -2.0411  1.2318
 6171SOL    HW229976   3.285   3.629  10.886  0.8826 -1.8305  1.6732
 6172SOL     OW29977   3.550   4.431   8.129  0.1696 -0.5535 -0.0304
 6172SOL    HW129978   3.575   4.357   8.185  0.7024  0.9710  1.7644
 6172SOL    HW229979   3.598   4.500   8.175 -2.4350  1.9669 -1.0844
 6173SOL     OW29980   2.336   0.898   6.769 -0.1758 -0.4032 -0.1757
 6173SOL    HW129981   2.350   0.958   6.696 -0.8862 -0.0451 -0.0125
 6173SOL    HW229982   2.248   0.927   6.794 -0.6570 -2.5920  0.6661
 6174SOL     OW29983   0.761   0.921   3.519 -0.9125  0.4540 -0.0974
 6174SOL    HW129984   0.666   0.919   3.535 -1.2528  2.0555 -1.9256
 6174SOL    HW229985   0.778   1.003   3.474  1.1496 -1.4325 -2.7860
 6175SOL     OW29986   2.624   0.023   3.754 -0.4088 -0.7254  0.1763
 6175SOL    HW129987   2.599   4.656   3.741 -0.8494 -0.5273 -0.3741
 6175SOL    HW229988   2.717   0.019   3.731 -1.1153 -0.7966 -2.5963
 6176SOL     OW29989   2.448   1.742   3.405  1.0590 -0.9932  0.2198
 6176SOL    HW129990   2.401   1.671   3.361 -1.9076  0.9579  0.2141
 6176SOL    HW229991   2.468   1.800   3.332  1.5024  0.5740  1.5973
 6177SOL     OW29992   0.943   1.217   6.397 -0.2995 -0.1559 -0.0321
 6177SOL    HW129993   0.997   1.182   6.326 -0.0705 -1.2632  0.6960
 6177SOL    HW229994   0.909   1.298   6.358  2.2169 -0.0518 -2.0354
 6178SOL     OW29995   2.589   3.106   3.899  0.1770 -0.1601  0.4541
 6178SOL    HW129996   2.517   3.045   3.917 -1.0147  1.3420  0.8478
 6178SOL    HW229997   2.612   3.137   3.987 -1.3174  0.9146  0.4866
 6179SOL     OW29998   1.913   3.722   6.863 -0.6319  0.6475 -0.2459
 6179SOL    HW129999   1.921   3.815   6.841  1.9059  0.5969  0.4689
 6179SOL    HW230000   1.846   3.686   6.805  2.6340 -1.2825 -2.8319
 6180SOL     OW30001   3.462   3.285   5.332 -0.6124 -0.2492 -0.6429
 6180SOL    HW130002   3.481   3.379   5.331  2.3055 -0.7885  2.1240
 6180SOL    HW230003   3.370   3.290   5.306 -0.1236 -0.2983 -2.3484
 6181SOL     OW30004   3.703   0.961  10.742 -0.1222  0.0834  0.0672
 6181SOL    HW130005   3.658   0.903  10.804  2.0714 -2.0986 -0.3852
 6181SOL    HW230006   3.718   1.034  10.802 -0.1765 -0.6796  0.9996
 6182SOL     OW30007   2.501   3.235   6.412  0.2146  0.2860 -0.3139
 6182SOL    HW130008   2.435   3.304   6.405  1.7717  1.5834 -2.1746
 6182SOL    HW230009   2.446   3.171   6.457 -1.5123  4.0477  2.9150
 6183SOL     OW30010   1.265   1.437   3.440 -0.0051 -0.3731 -0.1727
 6183SOL    HW130011   1.237   1.346   3.446  0.4381 -0.5953 -1.4826
 6183SOL    HW230012   1.299   1.451   3.352  0.9785 -2.4824 -0.1333
 6184SOL     OW30013   2.573   1.548  13.090 -0.4195  0.6670 -0.9900
 6184SOL    HW130014   2.650   1.604  13.084  0.6067 -0.7202 -0.9745
 6184SOL    HW230015   2.606   1.489  13.158 -0.9323  0.8954 -0.5474
 6185SOL     OW30016   3.546   0.931   5.902  0.3486 -0.2702  0.3553
 6185SOL    HW130017   3.619   0.959   5.957  0.4372 -0.7257  0.4737
 6185SOL    HW230018   3.492   1.009   5.910  0.8094  0.0026  0.8351
 6186SOL     OW30019   0.638   1.790   5.892 -0.3343 -0.7891  0.1594
 6186SOL    HW130020   0.674   1.701   5.901  0.2576 -0.6978 -1.2293
 6186SOL    HW230021   0.569   1.791   5.958 -0.0922 -0.5511  0.4111
 6187SOL     OW30022   0.378   2.195   5.838 -0.1760 -0.3512 -0.5640
 6187SOL    HW130023   0.460   2.187   5.887 -1.0854  0.0590  1.0194
 6187SOL    HW230024   0.376   2.106   5.804  4.3014 -0.4276 -0.6374
 6188SOL     OW30025   2.379   2.703  11.088 -0.4517  0.1361 -0.0440
 6188SOL    HW130026   2.469   2.706  11.054 -0.7591  1.4018 -0.7360
 6188SOL    HW230027   2.395   2.730  11.179 -0.3111  1.4038 -0.4331
 6189SOL     OW30028   4.246   2.499   4.069  0.1166  0.3483  0.4709
 6189SOL    HW130029   4.227   2.543   3.986 -3.1318 -2.3531 -0.2201
 6189SOL    HW230030   4.279   2.568   4.126 -0.2595 -0.0618  1.1826
 6190SOL     OW30031   0.938   4.015   2.244 -0.1606 -0.0576 -0.1981
 6190SOL    HW130032   1.027   4.023   2.209 -0.2905  0.1703 -0.4825
 6190SOL    HW230033   0.892   4.073   2.183 -0.4382 -1.0547 -0.9468
 6191SOL     OW30034   4.622   1.052   2.887  0.0390 -0.1097  0.1884
 6191SOL    HW130035   4.544   1.028   2.837 -0.9451  1.1226  1.1405
 6191SOL    HW230036   4.602   1.005   2.968  1.3427 -1.7599 -0.4433
 6192SOL     OW30037   0.602   3.448   5.623 -0.3999 -0.3635 -0.2043
 6192SOL    HW130038   0.560   3.534   5.634 -1.3310 -0.8951  0.4888
 6192SOL    HW230039   0.530   3.402   5.580 -2.0341  0.9972  1.0440
 6193SOL     OW30040   1.438   0.692   8.502  0.1311  0.7413  0.2721
 6193SOL    HW130041   1.470   0.756   8.566 -1.5437  2.5480 -0.7224
 6193SOL    HW230042   1.353   0.728   8.480  0.8905  3.0282  1.0727
 6194SOL     OW30043   0.049   0.668   3.128  0.1341  0.3062 -0.1969
 6194SOL    HW130044   0.131   0.693   3.171 -0.9137  2.5184  0.4970
 6194SOL    HW230045   0.043   0.732   3.058 -1.7460  0.9771  0.5788
 6195SOL     OW30046   1.158   3.001   8.343 -0.6991  0.0195 -0.1228
 6195SOL    HW130047   1.094   3.037   8.404 -1.7432 -0.5707 -0.8809
 6195SOL    HW230048   1.111   3.012   8.260 -2.7068 -1.8374  0.7754
 6196SOL     OW30049   1.075   1.621  10.531 -0.2496  0.1165  0.1971
 6196SOL    HW130050   1.130   1.694  10.559 -0.8629  0.4947  0.4143
 6196SOL    HW230051   1.010   1.641  10.598 -0.7245  0.7560 -0.4510
 6197SOL     OW30052   2.433   3.350   5.261  0.3015 -0.2483  0.1852
 6197SOL    HW130053   2.423   3.395   5.345 -2.5061 -0.9368  0.1923
 6197SOL    HW230054   2.521   3.383   5.241  0.5426 -0.0178  1.6644
 6198SOL     OW30055   2.455   2.474   0.337 -0.5549  0.3895  0.0508
 6198SOL    HW130056   2.471   2.486   0.431 -0.3960 -0.9513  0.2031
 6198SOL    HW230057   2.536   2.512   0.303  0.0893 -0.9178  0.1114
 6199SOL     OW30058   1.144   3.169   2.880  0.7320  0.0688 -0.0725
 6199SOL    HW130059   1.100   3.096   2.924  0.1899 -0.3056 -1.2436
 6199SOL    HW230060   1.216   3.192   2.939  1.4943 -0.5382 -0.7738
 6200SOL     OW30061   4.537   4.002  16.159  0.0940 -0.1925  0.4193
 6200SOL    HW130062   4.455   3.968  16.194 -0.4257 -0.5730 -1.1705
 6200SOL    HW230063   4.564   4.058  16.231 -0.1654 -0.5256  0.7746
 6201SOL     OW30064   2.785   3.312  13.096  0.4082 -0.4074 -0.7485
 6201SOL    HW130065   2.881   3.308  13.090  0.4980 -0.9886  1.1343
 6201SOL    HW230066   2.753   3.364  13.022 -0.6435  1.1266  0.7809
 6202SOL     OW30067   3.109   0.337   5.566 -0.0592  0.1894  0.4559
 6202SOL    HW130068   3.109   0.341   5.470  0.7577 -0.0709  0.4452
 6202SOL    HW230069   3.027   0.380   5.588 -1.4217 -1.5712 -1.1080
 6203SOL     OW30070   3.054   1.090   1.002  0.0805  0.1159  0.2758
 6203SOL    HW130071   3.092   1.167   0.962 -1.4063  0.9382  0.4463
 6203SOL    HW230072   2.979   1.129   1.046  0.8028  0.9445  0.7542
 6204SOL     OW30073   1.404   3.701   5.909  0.8643  0.3024 -0.3724
 6204SOL    HW130074   1.312   3.696   5.882  1.4031 -1.1853 -1.8391
 6204SOL    HW230075   1.408   3.613   5.945  0.4938  0.5522  0.2995
 6205SOL     OW30076   0.095   1.848   4.009 -0.3588  1.1288  0.1336
 6205SOL    HW130077   0.125   1.758   4.019 -3.6085 -0.0582 -0.6470
 6205SOL    HW230078   0.000   1.833   4.009  0.1395 -1.9211  1.4159
 6206SOL     OW30079   3.239   0.376  16.099 -0.0549  0.2850  0.0459
 6206SOL    HW130080   3.327   0.388  16.062 -0.7575  0.8011 -1.4416
 6206SOL    HW230081   3.193   0.337  16.025 -3.2881  1.8557  1.2221
 6207SOL     OW30082   1.029   1.292   0.763 -0.1826  0.1968  0.0447
 6207SOL    HW130083   1.036   1.220   0.825 -1.5084  0.3215  0.3497
 6207SOL    HW230084   1.004   1.249   0.681  0.9331 -0.2713 -0.0448
 6208SOL     OW30085   3.853   1.603  14.360  0.3039  0.3995  0.2260
 6208SOL    HW130086   3.810   1.686  14.341  2.0733  0.8048 -2.0259
 6208SOL    HW230087   3.874   1.576  14.270  1.0988 -2.6911  1.3330
 6209SOL     OW30088   2.674   4.393  11.456 -0.0332 -0.2009 -0.3438
 6209SOL    HW130089   2.621   4.431  11.526  0.3498  1.2495 -0.8252
 6209SOL    HW230090   2.652   4.448  11.380  2.2673  0.2616 -0.6857
 6210SOL     OW30091   3.177   2.300   6.971  0.4666  0.2013 -0.0388
 6210SOL    HW130092   3.223   2.236   7.025  0.2164 -0.2647 -0.3830
 6210SOL    HW230093   3.090   2.298   7.013  0.7530  1.6486  0.6208
 6211SOL     OW30094   2.538   3.751   8.162  0.0299  0.1916  0.1413
 6211SOL    HW130095   2.458   3.804   8.163 -0.5893 -0.7662  1.4809
 6211SOL    HW230096   2.565   3.747   8.070  0.2700  0.7304  0.1882
 6212SOL     OW30097   0.604   1.243   7.221 -0.1843 -0.6367  0.0303
 6212SOL    HW130098   0.620   1.328   7.263 -1.1196 -0.9013  0.9318
 6212SOL    HW230099   0.662   1.243   7.145 -0.0785 -0.1541  0.1091
 6213SOL     OW30100   1.300   0.808  15.255 -0.0822  0.2815 -0.1352
 6213SOL    HW130101   1.377   0.750  15.262 -1.9787 -2.0371  1.7964
 6213SOL    HW230102   1.348   0.889  15.271 -3.0539  1.7934  1.0199
 6214SOL     OW30103   0.168   1.737  14.000 -0.1729  0.0338  0.1398
 6214SOL    HW130104   0.156   1.662  13.940  1.3889  0.6317 -0.9164
 6214SOL    HW230105   0.177   1.814  13.944  3.1435 -2.2756 -2.5156
 6215SOL     OW30106   1.717   0.447   9.509 -0.2113  0.1890 -0.0203
 6215SOL    HW130107   1.751   0.450   9.419  1.7800  0.1158  0.7348
 6215SOL    HW230108   1.754   0.364   9.537  1.5492  0.0639 -2.6843
 6216SOL     OW30109   3.133   2.390   0.934 -0.6340  0.2467  0.2372
 6216SOL    HW130110   3.102   2.319   0.878  1.3847 -0.5100  0.0772
 6216SOL    HW230111   3.062   2.396   0.997  0.5039  0.4279  1.5133
 6217SOL     OW30112   3.482   1.037   9.974  0.4408 -0.5314 -0.1491
 6217SOL    HW130113   3.493   0.947   9.945 -1.8918 -0.5261 -1.0443
 6217SOL    HW230114   3.398   1.067   9.937  1.2329  2.7518  0.6772
 6218SOL     OW30115   1.475   3.002   9.822  0.1984  0.1347 -0.2379
 6218SOL    HW130116   1.564   2.992   9.787  0.0278 -1.0415 -0.3372
 6218SOL    HW230117   1.484   2.943   9.897  0.5832 -0.8316 -1.0410
 6219SOL     OW30118   1.035   2.254   8.066  0.2705  0.2790 -0.0176
 6219SOL    HW130119   0.957   2.297   8.101  0.2067 -0.5612  0.8615
 6219SOL    HW230120   1.094   2.240   8.140 -0.2621  0.8641  0.5175
 6220SOL     OW30121   2.763   4.070   3.041  0.1243 -0.2902  0.2736
 6220SOL    HW130122   2.727   4.055   2.953 -3.0498 -1.9934  1.8479
 6220SOL    HW230123   2.780   3.982   3.074  1.1011 -0.4544 -0.6614
 6221SOL     OW30124   4.142   2.660   8.304  0.0439  0.4235 -0.2516
 6221SOL    HW130125   4.214   2.704   8.348  0.0188 -0.8681  1.0663
 6221SOL    HW230126   4.113   2.722   8.237 -0.1707  2.5771  1.8344
 6222SOL     OW30127   0.732   1.378   0.444  0.3719  0.1203 -0.0015
 6222SOL    HW130128   0.726   1.284   0.463  1.5790  0.1451  0.5407
 6222SOL    HW230129   0.668   1.421   0.499  2.1626 -1.2986  3.1901
 6223SOL     OW30130   2.296   0.589   1.791 -0.1196  0.0500  0.7131
 6223SOL    HW130131   2.351   0.665   1.811 -0.2244  0.3462 -0.0985
 6223SOL    HW230132   2.355   0.514   1.794  1.8244  1.5618  0.0534
 6224SOL     OW30133   0.015   3.521   6.240  0.2648  0.1737 -0.2038
 6224SOL    HW130134   0.108   3.499   6.252  0.1577 -0.5389 -0.6740
 6224SOL    HW230135   4.707   3.514   6.330  1.0345  0.9119  0.1362
 6225SOL     OW30136   0.722   2.616   8.624  0.2940  0.0485  0.4368
 6225SOL    HW130137   0.726   2.712   8.629 -1.4778  0.1382  0.2743
 6225SOL    HW230138   0.759   2.604   8.537 -2.3103  0.2319 -0.7067
 6226SOL     OW30139   3.088   1.366   1.049  0.0661 -0.0585 -0.0855
 6226SOL    HW130140   3.114   1.433   1.112  1.4937  0.7469 -1.5003
 6226SOL    HW230141   3.084   1.414   0.966  2.3040  1.7212  0.8173
 6227SOL     OW30142   1.343   2.711   5.326  0.4041 -0.3049 -0.8333
 6227SOL    HW130143   1.259   2.736   5.365  0.6672  0.8059 -0.9968
 6227SOL    HW230144   1.395   2.786   5.356 -0.4670 -0.2674  0.6173
 6228SOL     OW30145   1.639   0.411   9.040  0.0722  0.3152 -0.3292
 6228SOL    HW130146   1.583   0.365   8.978 -0.3449  0.9795 -0.4534
 6228SOL    HW230147   1.642   0.344   9.108 -3.5445 -1.5016 -1.9728
 6229SOL     OW30148   3.192   2.699   2.858 -0.1938  0.0420 -0.8767
 6229SOL    HW130149   3.229   2.785   2.877 -2.3080  1.3616 -2.6938
 6229SOL    HW230150   3.231   2.645   2.926 -0.3214  1.8716  0.6433
 6230SOL     OW30151   4.240   1.948   7.261 -0.1108  0.2833 -0.2684
 6230SOL    HW130152   4.319   1.967   7.211  0.2324 -0.6126 -0.0634
 6230SOL    HW230153   4.203   2.036   7.276 -1.6752 -0.4402  0.1517
 6231SOL     OW30154   2.206   4.309   7.439 -0.0212  0.1057 -0.5846
 6231SOL    HW130155   2.159   4.292   7.357 -1.3535  2.2401 -0.2516
 6231SOL    HW230156   2.221   4.218   7.466 -1.5411  0.4645  1.4464
 6232SOL     OW30157   0.485   0.720   8.922  0.4621 -0.2949  0.1224
 6232SOL    HW130158   0.544   0.787   8.887 -0.4047  0.8508  0.8466
 6232SOL    HW230159   0.403   0.753   8.885 -1.0536 -1.9014  2.0271
 6233SOL     OW30160   4.713   2.631   1.325 -0.6090  0.1671 -0.5356
 6233SOL    HW130161   0.078   2.597   1.328 -1.0701 -0.9752  0.2939
 6233SOL    HW230162   4.688   2.628   1.418 -0.1503  0.1846 -0.4135
 6234SOL     OW30163   2.705   2.613   0.258 -0.1105 -0.2397 -0.0673
 6234SOL    HW130164   2.739   2.599   0.346 -0.6481 -2.7689 -0.2546
 6234SOL    HW230165   2.653   2.693   0.269 -0.3665 -0.3149 -0.6766
 6235SOL     OW30166   1.050   4.240  10.293  0.0360  0.1142  0.3125
 6235SOL    HW130167   1.022   4.242  10.201  2.2884  1.8793 -0.3560
 6235SOL    HW230168   0.971   4.238  10.346  0.1315  1.6694  0.5361
 6236SOL     OW30169   3.694   3.079  16.110 -0.5379 -0.1236 -0.1667
 6236SOL    HW130170   3.709   3.043  16.197 -1.1185  0.5003  0.1871
 6236SOL    HW230171   3.607   3.046  16.087 -0.2319 -0.3622 -1.0192
 6237SOL     OW30172   2.983   2.483  10.157 -0.2019  0.1067 -0.0421
 6237SOL    HW130173   2.996   2.506  10.249 -3.3541 -0.0931  0.4643
 6237SOL    HW230174   2.908   2.538  10.138  0.0310  0.9324  1.4304
 6238SOL     OW30175   1.391   3.158   4.949  0.4068  0.3751  0.0034
 6238SOL    HW130176   1.329   3.228   4.930 -0.7673  0.0957  2.6988
 6238SOL    HW230177   1.345   3.083   4.912  2.1246 -1.3929  1.4110
 6239SOL     OW30178   0.371   2.237   8.268 -0.1048 -0.2685 -0.1536
 6239SOL    HW130179   0.353   2.327   8.295  0.0239 -0.1482 -0.4635
 6239SOL    HW230180   0.285   2.197   8.282 -0.3484 -0.4272 -2.1155
 6240SOL     OW30181   2.948   0.670   4.561  0.7381 -0.3968  0.9094
 6240SOL    HW130182   2.866   0.648   4.606  0.2647  0.0669  0.2556
 6240SOL    HW230183   3.018   0.648   4.623 -0.8917 -1.9139  2.2331
 6241SOL     OW30184   4.714   4.237   8.362  0.1800  0.0171  0.3235
 6241SOL    HW130185   0.054   4.282   8.307 -0.5806 -0.6846 -1.1330
 6241SOL    HW230186   0.053   4.171   8.391 -0.7139 -1.7223 -1.6714
 6242SOL     OW30187   4.069   2.480   3.479  0.3927 -0.2795  0.1335
 6242SOL    HW130188   4.032   2.465   3.566 -0.7547 -0.6630 -0.4198
 6242SOL    HW230189   3.999   2.535   3.443  0.3634  0.5853  1.4895
 6243SOL     OW30190   2.792   3.733   4.057  0.2093  0.3260  0.2237
 6243SOL    HW130191   2.881   3.698   4.046 -0.3445 -0.7739 -0.8465
 6243SOL    HW230192   2.818   3.821   4.083 -1.2605  1.2584 -1.5478
 6244SOL     OW30193   2.100   4.217   2.928 -0.3043 -0.8025 -0.1605
 6244SOL    HW130194   2.168   4.259   2.980 -2.5538  1.6072  0.8172
 6244SOL    HW230195   2.077   4.279   2.859  0.8090 -1.3968 -1.0669
 6245SOL     OW30196   0.344   0.867  10.189  0.1420  0.3683 -0.3255
 6245SOL    HW130197   0.324   0.959  10.172 -1.0361  0.3768  1.1058
 6245SOL    HW230198   0.439   0.874  10.202 -0.2425  0.1087  2.5139
 6246SOL     OW30199   2.634   1.394   4.361  0.7450  0.0316  0.0647
 6246SOL    HW130200   2.592   1.325   4.412  0.0783 -1.0649 -1.9606
 6246SOL    HW230201   2.604   1.379   4.272  3.0245 -1.7357 -0.4059
 6247SOL     OW30202   2.296   2.663   2.546 -0.2119 -0.1248  0.5607
 6247SOL    HW130203   2.274   2.676   2.454 -2.0875  1.0676  1.1754
 6247SOL    HW230204   2.218   2.630   2.590 -0.2578 -2.0121 -0.9679
 6248SOL     OW30205   1.000   4.058   7.075 -0.8948 -0.1046 -0.3103
 6248SOL    HW130206   0.935   4.126   7.059 -1.8285 -0.8361  0.4032
 6248SOL    HW230207   1.075   4.109   7.105 -2.2773  0.4637  2.1274
 6249SOL     OW30208   3.549   0.056   4.047  0.2673  0.2852 -0.1610
 6249SOL    HW130209   3.594   0.047   3.963  2.2362  1.2130  0.7973
 6249SOL    HW230210   3.604   4.723   4.100  1.6756  0.3479 -1.5368
 6250SOL     OW30211   1.779   0.579   8.156  0.1351  0.1102  0.4907
 6250SOL    HW130212   1.835   0.501   8.153 -1.3244 -0.8920 -0.3827
 6250SOL    HW230213   1.742   0.587   8.069  0.6681 -1.3474  0.1171
 6251SOL     OW30214   4.158   0.403   0.815 -0.2172  0.3560  0.0741
 6251SOL    HW130215   4.236   0.398   0.759 -1.0785 -0.6597 -1.0246
 6251SOL    HW230216   4.130   0.314   0.836  0.7503  0.0971  0.2901
 6252SOL     OW30217   2.961   2.034  14.236  0.3399  0.0668 -0.5379
 6252SOL    HW130218   2.934   1.962  14.180 -2.9896  0.6577  0.3160
 6252SOL    HW230219   3.026   2.087  14.189 -0.6074  0.8368 -0.9717
 6253SOL     OW30220   2.238   0.254   5.309  0.2221  0.0859 -0.4244
 6253SOL    HW130221   2.267   0.300   5.388  0.2638  1.0549 -1.0167
 6253SOL    HW230222   2.156   0.211   5.337  1.0293 -0.8739  0.4708
 6254SOL     OW30223   3.964   0.966   0.392  0.1987 -0.5784 -0.1130
 6254SOL    HW130224   3.906   1.008   0.328  0.2845 -0.9730 -0.4449
 6254SOL    HW230225   3.901   0.932   0.456 -0.9959  2.6901  0.4410
 6255SOL     OW30226   0.265   3.679   7.745  0.2052 -0.1919 -0.4854
 6255SOL    HW130227   0.314   3.761   7.752  1.2094 -0.9218  0.9359
 6255SOL    HW230228   0.204   3.690   7.818  2.5345  1.2551  1.2139
 6256SOL     OW30229   4.103   2.949   8.745 -0.4608  0.4258  0.4096
 6256SOL    HW130230   4.145   2.890   8.808 -1.9893 -0.1113  0.9274
 6256SOL    HW230231   4.019   2.955   8.790  0.4337 -0.0235  2.1499
 6257SOL     OW30232   1.389   4.367   8.158 -0.3153 -0.3514 -0.5876
 6257SOL    HW130233   1.386   4.452   8.114 -0.8736 -0.1750 -0.2071
 6257SOL    HW230234   1.345   4.306   8.098 -0.2092 -2.0494  1.0755
 6258SOL     OW30235   2.169   1.419   4.880 -0.3694 -0.0931  0.4427
 6258SOL    HW130236   2.098   1.482   4.864 -1.3771 -1.3537 -0.1094
 6258SOL    HW230237   2.125   1.354   4.935 -2.2340 -2.2285 -3.5500
 6259SOL     OW30238   3.847   1.610  11.432  0.5325  0.1730 -0.2392
 6259SOL    HW130239   3.914   1.598  11.499  0.5629  0.1833 -0.2676
 6259SOL    HW230240   3.834   1.525  11.392 -1.2516  0.8470 -1.1230
 6260SOL     OW30241   4.583   4.073   7.628 -0.3274 -0.2475  0.0787
 6260SOL    HW130242   4.540   4.063   7.543 -1.5594 -0.5330  0.7362
 6260SOL    HW230243   4.525   4.024   7.685 -0.9822 -0.1926 -0.5408
 6261SOL     OW30244   1.904   1.374   6.145  0.2086  0.3064  0.0581
 6261SOL    HW130245   1.944   1.288   6.132 -2.9085 -0.8616 -1.8909
 6261SOL    HW230246   1.979   1.432   6.131  0.5570 -0.7005 -2.2335
 6262SOL     OW30247   4.215   0.602   8.383 -0.1944  0.0581  0.1995
 6262SOL    HW130248   4.196   0.684   8.429  0.5553  1.0427 -1.2432
 6262SOL    HW230249   4.296   0.622   8.337  0.5483  0.3218  1.6444
 6263SOL     OW30250   1.373   2.749   1.207  0.2647  0.3960 -0.4942
 6263SOL    HW130251   1.389   2.774   1.298  1.2086 -0.2519 -0.4830
 6263SOL    HW230252   1.314   2.817   1.176 -0.7078 -0.8921 -1.4553
 6264SOL     OW30253   3.571   1.866  13.168  0.1288 -0.5101 -0.7539
 6264SOL    HW130254   3.488   1.897  13.205 -0.8856 -2.2801 -1.5460
 6264SOL    HW230255   3.529   1.803  13.110 -2.4350  0.0862  0.4322
 6265SOL     OW30256   3.142   2.450   8.234  0.9571  0.5280 -0.7493
 6265SOL    HW130257   3.225   2.498   8.234  0.6078  1.1687  1.4852
 6265SOL    HW230258   3.093   2.492   8.164  0.0991  0.0220 -0.4582
 6266SOL     OW30259   2.975   2.081  12.537 -0.1252  0.3421 -0.1529
 6266SOL    HW130260   2.880   2.075  12.522  0.2417 -1.7416 -1.5586
 6266SOL    HW230261   3.010   2.108  12.452 -1.4424  0.7837 -0.5669
 6267SOL     OW30262   1.071   4.337  11.891  0.4595  0.0965 -0.3520
 6267SOL    HW130263   1.101   4.291  11.812  1.3532 -1.1195  0.6934
 6267SOL    HW230264   1.146   4.381  11.931 -0.7699  1.8141  0.0728
 6268SOL     OW30265   2.196   2.956   9.961  0.1261 -0.3620  0.1023
 6268SOL    HW130266   2.132   2.920  10.022 -1.8523 -0.2859 -1.9615
 6268SOL    HW230267   2.138   3.014   9.912 -0.7825 -0.4808  1.0465
 6269SOL     OW30268   3.734   2.151   3.757 -0.4773  0.1440  0.0356
 6269SOL    HW130269   3.673   2.084   3.788 -1.7048  1.4596  0.4631
 6269SOL    HW230270   3.709   2.154   3.665 -0.5011 -1.3881 -0.0111
 6270SOL     OW30271   0.002   1.705   9.162 -0.1288  0.4297 -0.0771
 6270SOL    HW130272   4.640   1.693   9.121  0.2116 -3.1618  0.2727
 6270SOL    HW230273   0.062   1.641   9.123 -2.5335 -1.9311  0.1319
 6271SOL     OW30274   3.362   4.576   9.138  0.8174  0.0870 -0.1801
 6271SOL    HW130275   3.346   4.595   9.230  1.5734 -2.1012  0.3918
 6271SOL    HW230276   3.393   4.663   9.113  0.2351  0.7715  1.4575
 6272SOL     OW30277   3.382   0.319   0.663  0.2817  0.2930 -0.3855
 6272SOL    HW130278   3.411   0.410   0.655  1.6294  0.0977  2.3658
 6272SOL    HW230279   3.370   0.307   0.757  2.6679  4.2056  0.4073
 6273SOL     OW30280   0.731   4.015   8.332  0.6003  0.0026 -1.0072
 6273SOL    HW130281   0.648   3.977   8.301  0.7251 -0.9204 -0.2050
 6273SOL    HW230282   0.763   4.055   8.251 -0.1119 -0.9819 -1.7756
 6274SOL     OW30283   1.348   4.012  10.118  0.3811 -0.6738 -0.1964
 6274SOL    HW130284   1.320   4.028  10.028  1.7004 -1.2470 -0.7143
 6274SOL    HW230285   1.326   4.097  10.156  0.4196  0.0207 -1.6924
 6275SOL     OW30286   2.699   4.683   5.104  0.3354 -0.6102  0.5825
 6275SOL    HW130287   2.780   4.647   5.139  0.8563  0.1208  0.1246
 6275SOL    HW230288   2.660   0.010   5.175  0.5647  1.5038 -0.8127
 6276SOL     OW30289   2.682   3.444   3.387  0.2540 -0.6032 -0.2363
 6276SOL    HW130290   2.656   3.352   3.389 -0.2113 -0.4688 -0.1968
 6276SOL    HW230291   2.646   3.477   3.469  1.8884  0.6131 -0.0116
 6277SOL     OW30292   0.921   3.405  15.481 -0.1033  0.3090  0.0951
 6277SOL    HW130293   0.880   3.444  15.558  0.0884 -1.2026  0.9555
 6277SOL    HW230294   0.863   3.455  15.422 -0.3608  1.3298  1.2244
 6278SOL     OW30295   2.414   1.521   6.589  0.1312  0.0106  0.1500
 6278SOL    HW130296   2.488   1.535   6.649  0.0605 -0.2491  0.2942
 6278SOL    HW230297   2.339   1.497   6.643 -0.3726 -1.0201 -1.0345
 6279SOL     OW30298   3.900   0.200  13.889  0.0250  0.4250 -0.0377
 6279SOL    HW130299   3.934   0.164  13.971 -1.0119  3.0122  1.5322
 6279SOL    HW230300   3.807   0.200  13.912 -0.3340 -2.1294 -1.5571
 6280SOL     OW30301   3.183   1.244   6.567 -0.3540 -0.0703 -0.1069
 6280SOL    HW130302   3.253   1.258   6.631 -0.3627  0.0533 -0.1232
 6280SOL    HW230303   3.146   1.332   6.567  1.2117  0.5879 -3.5820
 6281SOL     OW30304   0.677   2.412  14.318 -0.0044 -0.1724  0.2366
 6281SOL    HW130305   0.639   2.459  14.392  2.2928 -0.2774  1.4922
 6281SOL    HW230306   0.630   2.456  14.247 -1.1158  0.9683  1.6918
 6282SOL     OW30307   0.683   4.333   7.617  0.2696 -0.2886  0.3685
 6282SOL    HW130308   0.763   4.293   7.586 -0.5492  0.6651 -3.0070
 6282SOL    HW230309   0.615   4.277   7.580 -1.0022  1.6192 -0.2103
 6283SOL     OW30310   0.665   3.397   9.428  0.5356 -0.5747 -0.4378
 6283SOL    HW130311   0.699   3.323   9.378  0.6234 -0.8129 -0.0265
 6283SOL    HW230312   0.692   3.463   9.364  2.3033  1.3916  2.3219
 6284SOL     OW30313   0.590   3.952   2.851  0.3767 -0.6602  0.4820
 6284SOL    HW130314   0.609   4.041   2.820 -1.1091  0.0938  1.7209
 6284SOL    HW230315   0.513   3.922   2.803 -0.2202  0.0403  1.0004
 6285SOL     OW30316   4.370   0.742  14.309 -0.2899 -0.5165 -0.0329
 6285SOL    HW130317   4.420   0.765  14.387  1.9635 -0.7978 -1.3827
 6285SOL    HW230318   4.362   0.647  14.323  1.4285 -0.4877  1.2260
 6286SOL     OW30319   3.188   2.274   2.522 -0.8908 -0.3968 -0.2516
 6286SOL    HW130320   3.260   2.265   2.584 -3.0302 -1.8632  2.0057
 6286SOL    HW230321   3.240   2.267   2.441 -0.5902 -0.2802 -0.0694
 6287SOL     OW30322   3.517   0.375   8.354 -0.2959 -0.0543  0.1304
 6287SOL    HW130323   3.427   0.405   8.370  0.0275  0.2709  1.3461
 6287SOL    HW230324   3.502   0.304   8.292  1.1287  1.6239 -2.1067
 6288SOL     OW30325   3.925   0.503   8.680  0.0402 -0.1203  0.0188
 6288SOL    HW130326   3.856   0.478   8.619 -0.3514 -0.2978  0.5366
 6288SOL    HW230327   3.933   0.413   8.713 -1.5319  1.2648  4.0945
 6289SOL     OW30328   0.874   4.128   2.000 -0.0610 -0.1229 -0.3763
 6289SOL    HW130329   0.945   4.142   1.938 -0.0183  0.5877 -0.1654
 6289SOL    HW230330   0.821   4.207   1.986 -0.0761  0.4002  2.6307
 6290SOL     OW30331   0.784   0.838   4.575 -0.2075 -0.0326 -0.0994
 6290SOL    HW130332   0.816   0.926   4.596  0.8487 -0.0769 -1.5545
 6290SOL    HW230333   0.697   0.836   4.615  0.2818 -1.9768  0.8567
 6291SOL     OW30334   1.309   3.808   2.145 -0.5789  0.3620  0.9571
 6291SOL    HW130335   1.329   3.812   2.052  0.1878 -1.4059  1.0548
 6291SOL    HW230336   1.278   3.718   2.143 -0.2401  0.2380  1.2792
 6292SOL     OW30337   4.324   3.969   8.411  0.6927 -0.0479  0.3569
 6292SOL    HW130338   4.254   4.027   8.440  0.8408  1.3586 -2.1526
 6292SOL    HW230339   4.387   4.030   8.375  0.3192  1.3750  2.1090
 6293SOL     OW30340   0.511   3.720  12.881  0.2569  0.1246 -0.6822
 6293SOL    HW130341   0.502   3.786  12.949 -0.2765  0.3799 -1.0096
 6293SOL    HW230342   0.586   3.668  12.912  0.7602  1.3622  0.1797
 6294SOL     OW30343   4.603   4.443   9.736  0.5878  0.3585 -0.3878
 6294SOL    HW130344   4.563   4.357   9.740  0.4919  0.4787  1.6447
 6294SOL    HW230345   4.698   4.433   9.747  0.3401 -2.0604 -0.5560
 6295SOL     OW30346   4.225   1.243   6.222 -0.3746 -0.4815  0.7768
 6295SOL    HW130347   4.200   1.274   6.309  0.0976  1.1303  0.3370
 6295SOL    HW230348   4.193   1.317   6.170 -2.2272 -1.8135  0.0163
 6296SOL     OW30349   2.333   0.770   4.730 -0.0264  0.3370 -0.0178
 6296SOL    HW130350   2.384   0.846   4.701  1.7831 -0.6459  0.5560
 6296SOL    HW230351   2.360   0.762   4.822  0.8574  2.9633 -0.0336
 6297SOL     OW30352   1.094   2.187   5.738 -0.3456 -0.4108 -0.0606
 6297SOL    HW130353   1.132   2.104   5.767  0.0794 -0.3958 -0.5601
 6297SOL    HW230354   1.111   2.249   5.809 -1.0699 -0.4323  0.1277
 6298SOL     OW30355   0.737   4.026  15.361  0.0300  0.1733  0.3293
 6298SOL    HW130356   0.808   4.053  15.420  0.7081  1.6641 -1.1738
 6298SOL    HW230357   0.769   4.043  15.272 -1.1692  0.9818  0.0582
 6299SOL     OW30358   2.445   1.069  10.214  0.0853  0.3743  0.4176
 6299SOL    HW130359   2.413   0.981  10.233  2.6326 -0.3449  1.3416
 6299SOL    HW230360   2.523   1.077  10.269  1.9521 -1.7440 -1.9019
 6300SOL     OW30361   1.759   3.554  12.318 -0.6469  0.4061 -0.4473
 6300SOL    HW130362   1.709   3.635  12.314  0.7660  1.2405 -1.5458
 6300SOL    HW230363   1.739   3.519  12.231  2.1039  1.1295 -1.3866
 6301SOL     OW30364   0.154   0.132   4.306  0.1941 -0.0790 -0.0310
 6301SOL    HW130365   0.237   0.088   4.324  0.6303  0.8529  0.2012
 6301SOL    HW230366   0.092   0.066   4.338 -0.5968 -0.6233 -2.6869
 6302SOL     OW30367   3.959   4.373   4.468  0.1621  1.0172 -0.1014
 6302SOL    HW130368   3.932   4.419   4.389 -3.5778  0.5688  0.9423
 6302SOL    HW230369   4.048   4.406   4.483 -0.2012  1.5853  0.8118
 6303SOL     OW30370   2.605   4.263   8.898  0.2352 -0.1967  0.2220
 6303SOL    HW130371   2.594   4.357   8.913  2.8315  0.1778 -0.1091
 6303SOL    HW230372   2.605   4.243   8.805  0.7772  0.8207  0.0020
 6304SOL     OW30373   1.499   4.303   2.780  0.3444  0.4463  0.0902
 6304SOL    HW130374   1.565   4.342   2.837 -0.6195  0.9777  0.8359
 6304SOL    HW230375   1.472   4.233   2.839 -2.6155 -0.1738 -2.0320
 6305SOL     OW30376   1.151   3.487  15.335  0.1349 -0.1567  0.1138
 6305SOL    HW130377   1.091   3.447  15.399  0.8886 -1.4536  0.0123
 6305SOL    HW230378   1.106   3.472  15.252 -1.6072  0.5889  0.9235
 6306SOL     OW30379   4.270   1.062  15.846  0.0107  0.2550  0.0229
 6306SOL    HW130380   4.249   1.026  15.760  1.9914  0.8361 -0.7040
 6306SOL    HW230381   4.197   1.024  15.896 -0.0636 -0.1326 -0.3766
 6307SOL     OW30382   4.116   1.652  11.908  0.2653  0.7589 -0.1410
 6307SOL    HW130383   4.166   1.585  11.862  0.8927 -0.5921  2.4951
 6307SOL    HW230384   4.160   1.683  11.988 -0.7003 -1.4308  1.2410
 6308SOL     OW30385   2.649   1.966   1.220 -0.0941  0.2105  0.2327
 6308SOL    HW130386   2.652   1.974   1.125  0.6651  3.6934  0.5345
 6308SOL    HW230387   2.610   2.052   1.238 -0.6676 -0.1662  0.8169
 6309SOL     OW30388   3.391   2.847   5.160 -0.3033  0.3515 -0.1257
 6309SOL    HW130389   3.296   2.849   5.176 -0.1867  0.7656  0.5092
 6309SOL    HW230390   3.387   2.801   5.076  1.2897 -0.9614  0.5130
 6310SOL     OW30391   1.326   1.846   0.340 -0.2550  0.1384 -0.6159
 6310SOL    HW130392   1.292   1.853   0.429  1.8683 -1.1498  0.2810
 6310SOL    HW230393   1.419   1.853   0.361 -1.4049  0.0847  4.5546
 6311SOL     OW30394   2.720   2.760   4.541  0.3932 -0.2397  0.6197
 6311SOL    HW130395   2.684   2.841   4.505 -0.8619 -1.2191 -0.3113
 6311SOL    HW230396   2.693   2.694   4.477  1.5100  0.8274 -0.9713
 6312SOL     OW30397   4.593   4.441  14.728 -0.9150 -0.1295  0.4230
 6312SOL    HW130398   4.607   4.386  14.650  1.7300 -0.5468  1.1852
 6312SOL    HW230399   4.516   4.493  14.704 -0.6563 -0.4277 -1.1049
 6313SOL     OW30400   4.158   1.333  16.976 -0.2021 -0.4857  0.0131
 6313SOL    HW130401   4.239   1.305  16.933  0.9502 -0.9901  2.5507
 6313SOL    HW230402   4.114   1.248  16.973 -0.7753 -0.2792  2.9613
 6314SOL     OW30403   0.929   0.670   6.907  0.2594 -0.3676 -0.6059
 6314SOL    HW130404   0.884   0.628   6.980 -2.4705  3.2056 -0.1996
 6314SOL    HW230405   0.891   0.758   6.918  0.7357 -0.2108 -0.2288
 6315SOL     OW30406   2.382   1.075   9.068  0.5614  0.2702  0.0813
 6315SOL    HW130407   2.456   1.131   9.092  1.4872 -1.4561  1.2161
 6315SOL    HW230408   2.319   1.145   9.052 -0.5139 -0.5079  0.9370
 6316SOL     OW30409   4.052   4.220  17.662  0.3022 -0.5867  0.4176
 6316SOL    HW130410   4.096   4.270  17.593 -1.2090 -0.4469 -0.4360
 6316SOL    HW230411   4.000   4.153  17.617 -1.8161 -0.1015  2.1675
 6317SOL     OW30412   2.029   3.691   9.050  0.3032  0.1318 -0.7033
 6317SOL    HW130413   2.024   3.640   9.131 -0.6176 -0.0067 -0.8552
 6317SOL    HW230414   2.078   3.768   9.078 -0.4144 -0.0308  1.0173
 6318SOL     OW30415   0.065   3.370  14.209 -0.0207 -0.0757 -0.7326
 6318SOL    HW130416   4.709   3.321  14.193 -1.0087  1.3504 -0.1693
 6318SOL    HW230417   0.041   3.459  14.184  0.3979  0.1336 -0.3969
 6319SOL     OW30418   0.672   3.522   3.466 -0.8273  0.5588  0.2958
 6319SOL    HW130419   0.631   3.456   3.410  1.4753 -0.6175  0.0018
 6319SOL    HW230420   0.690   3.584   3.395  0.4898 -1.5647 -1.2201
 6320SOL     OW30421   1.074   3.067   1.802  0.0736  0.5094  0.0915
 6320SOL    HW130422   1.049   2.983   1.839  2.2219 -0.4685 -0.6896
 6320SOL    HW230423   1.143   3.088   1.864 -1.6139  1.3501  1.6952
 6321SOL     OW30424   2.480   1.341   8.552  0.3587 -0.8452 -0.0299
 6321SOL    HW130425   2.415   1.336   8.621 -0.0407  0.8056 -0.2697
 6321SOL    HW230426   2.459   1.424   8.509  1.9501  0.5202  1.8536
 6322SOL     OW30427   0.317   1.366   7.316 -0.1573 -0.5782 -0.3227
 6322SOL    HW130428   0.403   1.361   7.358 -0.3866 -1.4728  0.0365
 6322SOL    HW230429   0.334   1.372   7.222 -0.7283  0.5255 -0.3669
 6323SOL     OW30430   4.601   3.265   3.785  0.0929 -0.6596  0.0053
 6323SOL    HW130431   4.550   3.272   3.705  0.6854 -1.7478 -0.4652
 6323SOL    HW230432   4.686   3.283   3.745  0.7756 -0.0403  1.7062
 6324SOL     OW30433   0.122   2.308   6.341 -0.0507  0.3055 -0.1723
 6324SOL    HW130434   0.182   2.352   6.280  1.3650  1.2639  1.9202
 6324SOL    HW230435   0.167   2.224   6.349 -2.3167 -1.0643 -1.8345
 6325SOL     OW30436   0.310   1.438   4.935 -0.2731  0.1662  0.1586
 6325SOL    HW130437   0.324   1.344   4.919  0.1451  0.3855 -0.7038
 6325SOL    HW230438   0.226   1.426   4.981 -1.4745 -2.7053 -2.7738
 6326SOL     OW30439   2.834   0.363   0.040  0.3515  0.1173 -0.0599
 6326SOL    HW130440   2.886   0.390   0.116  0.2686  0.9977 -0.3198
 6326SOL    HW230441   2.756   0.340   0.090  0.4138  2.7948  1.2682
 6327SOL     OW30442   0.499   0.678   9.876  0.3396  0.0128 -0.7372
 6327SOL    HW130443   0.538   0.631   9.949 -1.4695 -1.7283 -0.8871
 6327SOL    HW230444   0.549   0.755   9.901  0.1655  0.5432 -2.0047
 6328SOL     OW30445   2.045   2.102  16.648  0.1909 -0.0061  0.3281
 6328SOL    HW130446   1.974   2.137  16.702 -0.6298  0.6584 -1.1670
 6328SOL    HW230447   1.993   2.091  16.569 -0.7742 -2.0310  1.2600
 6329SOL     OW30448   4.183   2.535   3.217 -0.0641 -0.2355  0.2483
 6329SOL    HW130449   4.131   2.480   3.276 -2.4079  1.9050  0.1848
 6329SOL    HW230450   4.172   2.501   3.129  0.4751  1.1474 -0.3594
 6330SOL     OW30451   3.431   1.788   2.331 -0.4336  0.2413 -0.3885
 6330SOL    HW130452   3.466   1.855   2.389 -2.9459 -0.3407  1.7842
 6330SOL    HW230453   3.516   1.745   2.316 -0.6411 -0.2225 -0.2145
 6331SOL     OW30454   3.634   0.988  11.903  0.1322 -0.1162 -0.5115
 6331SOL    HW130455   3.657   1.058  11.842  0.9957 -0.4265 -0.5387
 6331SOL    HW230456   3.723   0.968  11.932 -0.4355 -0.8444  0.7220
 6332SOL     OW30457   4.336   0.650  13.574  0.9273  0.6809 -0.8021
 6332SOL    HW130458   4.343   0.642  13.669 -0.8714  0.3973 -0.6894
 6332SOL    HW230459   4.255   0.699  13.555 -0.5996 -0.7876  2.0205
 6333SOL     OW30460   2.620   0.699  11.801  0.1344  0.7455  0.2056
 6333SOL    HW130461   2.642   0.681  11.710 -0.7383  1.6240 -0.1746
 6333SOL    HW230462   2.669   0.637  11.856  0.3359 -0.2558 -1.1277
 6334SOL     OW30463   2.858   3.268  10.276 -0.5431 -0.2476 -0.4185
 6334SOL    HW130464   2.935   3.314  10.309  0.2221 -2.0629  0.3655
 6334SOL    HW230465   2.877   3.288  10.185 -1.2669 -1.5496 -0.8516
 6335SOL     OW30466   1.455   4.525   1.818  0.2453  0.6815  0.6307
 6335SOL    HW130467   1.501   4.535   1.734  0.3001 -2.4818  0.2943
 6335SOL    HW230468   1.520   4.554   1.881  0.7052 -0.5546  0.7214
 6336SOL     OW30469   1.706   2.354   4.308 -0.4009  0.1584 -0.4805
 6336SOL    HW130470   1.696   2.388   4.219  1.8466 -2.4589 -1.7645
 6336SOL    HW230471   1.615   2.352   4.336 -0.0254 -0.4781  0.6660
 6337SOL     OW30472   0.096   2.913   3.920 -0.5890 -0.1054 -0.3923
 6337SOL    HW130473   0.055   2.857   3.985 -0.2737 -1.6291 -1.4999
 6337SOL    HW230474   0.188   2.885   3.923  0.3844  2.8444 -2.2079
 6338SOL     OW30475   2.283   3.576  12.607  0.6519  0.1192 -0.2644
 6338SOL    HW130476   2.247   3.519  12.676 -0.8481  1.8851  0.3935
 6338SOL    HW230477   2.207   3.579  12.548 -1.4003 -0.9911  2.3212
 6339SOL     OW30478   0.265   3.088   8.157 -0.4467  0.1189 -0.2105
 6339SOL    HW130479   0.274   3.174   8.116 -2.6448  1.2789  1.6635
 6339SOL    HW230480   0.249   3.107   8.250 -0.5217  0.2838 -0.2558
 6340SOL     OW30481   1.035   2.108  17.679  0.1972  0.0732 -0.1857
 6340SOL    HW130482   0.987   2.053   0.042 -0.4351 -0.7330 -1.3882
 6340SOL    HW230483   1.100   2.156   0.031 -0.8629  0.0230  1.2289
 6341SOL     OW30484   0.453   1.774   3.501  0.4938 -0.0570  0.3908
 6341SOL    HW130485   0.385   1.735   3.447  2.0661 -1.6569 -0.4361
 6341SOL    HW230486   0.521   1.801   3.439 -0.9142  0.7307 -0.8153
 6342SOL     OW30487   0.024   2.601  12.984  0.0761  0.3009  0.1630
 6342SOL    HW130488   4.674   2.563  12.937 -0.4209  0.9169  0.4439
 6342SOL    HW230489   4.710   2.677  13.029  1.2552  0.7560  0.4105
 6343SOL     OW30490   2.252   4.675   8.525  0.8359  0.0802  0.2305
 6343SOL    HW130491   2.244   0.036   8.483 -0.1091 -0.3803 -0.5582
 6343SOL    HW230492   2.268   4.692   8.617  1.8475  0.9781 -0.1194
 6344SOL     OW30493   3.064   1.217   1.452 -0.5438  0.3112 -0.9722
 6344SOL    HW130494   3.061   1.298   1.401  0.5974 -0.4122 -2.1706
 6344SOL    HW230495   3.056   1.253   1.541  1.0219  2.0048 -1.5237
 6345SOL     OW30496   4.012   2.934   3.164 -0.5145 -0.1858  0.1155
 6345SOL    HW130497   3.935   2.946   3.108 -0.1347 -0.4910 -0.4686
 6345SOL    HW230498   4.066   2.997   3.118 -1.1576  0.1350 -0.2080
 6346SOL     OW30499   0.763   2.135  16.464 -0.3977 -0.6745  0.6521
 6346SOL    HW130500   0.795   2.215  16.505 -4.0713  1.6281 -0.9787
 6346SOL    HW230501   0.819   2.125  16.387  0.3755 -0.1006  1.1353
 6347SOL     OW30502   3.849   2.795   3.746 -0.0550  0.7465  0.2662
 6347SOL    HW130503   3.809   2.745   3.817  1.6419 -0.1614  0.5838
 6347SOL    HW230504   3.769   2.815   3.697 -0.8894 -0.5541  1.1046
 6348SOL     OW30505   1.837   0.971   3.888  0.4703 -0.2635  0.6890
 6348SOL    HW130506   1.817   1.026   3.964  1.5699 -1.7614  2.0837
 6348SOL    HW230507   1.772   0.995   3.822  1.0905 -0.6233 -0.0565
 6349SOL     OW30508   3.997   1.493   5.737 -0.1389  0.0589  0.0643
 6349SOL    HW130509   3.952   1.577   5.727  1.5244  0.7537 -1.4406
 6349SOL    HW230510   4.086   1.528   5.736  0.0672 -0.6480 -3.4865
 6350SOL     OW30511   0.365   0.882   2.768  0.2436  0.0468 -0.0247
 6350SOL    HW130512   0.349   0.821   2.840  0.4416 -0.5676 -0.4922
 6350SOL    HW230513   0.305   0.844   2.703  0.3793 -0.5427  0.1968
 6351SOL     OW30514   1.366   4.383   8.422 -0.2667 -0.0477 -0.2770
 6351SOL    HW130515   1.371   4.383   8.326  0.0514  0.3282 -0.2586
 6351SOL    HW230516   1.458   4.383   8.449  0.1183  0.1550 -1.5774
 6352SOL     OW30517   4.295   1.859  14.371  0.0572  0.5959 -0.0133
 6352SOL    HW130518   4.297   1.764  14.357 -0.6428  0.9130 -2.2028
 6352SOL    HW230519   4.210   1.864  14.416  0.4729 -1.2101  0.9811
 6353SOL     OW30520   2.106   1.714   6.556 -0.0817 -0.4300 -0.1882
 6353SOL    HW130521   2.176   1.779   6.566  1.7653 -2.3032 -0.9989
 6353SOL    HW230522   2.025   1.766   6.559  0.4248  0.3211  0.5585
 6354SOL     OW30523   4.111   0.292   7.508  0.0072  0.0547 -0.2083
 6354SOL    HW130524   4.087   0.297   7.601  0.2889 -1.2172 -0.0742
 6354SOL    HW230525   4.097   0.386   7.493  2.4547  0.7377  1.8027
 6355SOL     OW30526   1.064   1.906   3.993 -0.3738 -0.0595  0.4142
 6355SOL    HW130527   1.082   1.935   4.082  1.5553  0.3090 -0.0981
 6355SOL    HW230528   1.003   1.835   4.013 -1.4807  0.5516 -0.7192
 6356SOL     OW30529   1.741   2.497   3.083 -0.1340  0.4250 -0.2904
 6356SOL    HW130530   1.764   2.566   3.020  0.7781 -0.7315 -1.2261
 6356SOL    HW230531   1.787   2.512   3.165  1.6696  0.1994 -1.2611
 6357SOL     OW30532   0.069   3.608   7.527 -0.4861  0.3812  0.1020
 6357SOL    HW130533   0.141   3.635   7.584  1.7205 -0.2517 -2.4034
 6357SOL    HW230534   0.049   3.523   7.568  0.3930 -0.5983 -1.5226
 6358SOL     OW30535   2.925   2.320   7.123 -0.0016  0.4906 -0.2920
 6358SOL    HW130536   2.942   2.386   7.190 -0.2445 -1.4939  1.7028
 6358SOL    HW230537   2.837   2.337   7.089  0.6917  2.5050 -1.1331
 6359SOL     OW30538   2.056   0.642   4.024 -0.2872 -0.3384 -0.1609
 6359SOL    HW130539   2.050   0.547   4.030 -2.8937 -0.2052 -0.3535
 6359SOL    HW230540   2.149   0.651   4.007 -0.0953 -1.6879  0.2065
 6360SOL     OW30541   0.366   4.319   9.559  0.6177  0.4517 -0.0176
 6360SOL    HW130542   0.443   4.263   9.566  1.6096  1.9493  0.8328
 6360SOL    HW230543   0.399   4.379   9.626  1.6822 -3.0998  2.6342
 6361SOL     OW30544   0.315   2.354  15.281 -0.1967  0.3742 -0.1637
 6361SOL    HW130545   0.237   2.327  15.330 -1.0274  2.1418 -0.4940
 6361SOL    HW230546   0.318   2.276  15.226 -0.3003 -1.1863  2.0534
 6362SOL     OW30547   1.820   4.546   4.226 -0.1995 -0.2666 -0.2420
 6362SOL    HW130548   1.734   4.505   4.233  0.3899 -1.5640 -0.5992
 6362SOL    HW230549   1.803   4.624   4.174  0.6467  0.0433 -0.0513
 6363SOL     OW30550   1.076   1.015   2.030 -0.1757  0.1565 -0.3107
 6363SOL    HW130551   1.093   1.089   1.971 -0.7088  3.3531  3.5570
 6363SOL    HW230552   1.094   0.937   1.976 -1.4441 -1.2385  1.3007
 6364SOL     OW30553   4.081   1.916  14.512  0.4624  0.2528  0.1370
 6364SOL    HW130554   4.014   1.979  14.486  0.2716 -0.2113 -0.4983
 6364SOL    HW230555   4.072   1.914  14.608  2.1586 -2.1481  0.2369
 6365SOL     OW30556   0.483   0.696   1.791  0.3488  0.1502 -0.8527
 6365SOL    HW130557   0.507   0.756   1.861  1.5368  0.0088 -1.1533
 6365SOL    HW230558   0.551   0.629   1.796  1.1286  1.1404  1.9779
 6366SOL     OW30559   0.471   1.369   3.359 -0.2532  0.8151 -0.6817
 6366SOL    HW130560   0.560   1.369   3.324 -0.4454 -2.6086 -1.1708
 6366SOL    HW230561   0.432   1.396   3.276  1.1506 -0.7737 -1.8562
 6367SOL     OW30562   3.987   1.369   1.070 -0.2784  0.2361 -0.5294
 6367SOL    HW130563   3.976   1.335   0.981  2.7140  2.0873 -1.6063
 6367SOL    HW230564   3.900   1.402   1.093  0.5020  2.2019 -0.3227
 6368SOL     OW30565   4.240   3.711   7.806  0.3146 -0.3222 -0.3372
 6368SOL    HW130566   4.222   3.689   7.898 -1.3476  2.2543 -0.0518
 6368SOL    HW230567   4.206   3.631   7.766  1.5502 -0.7566 -0.5348
 6369SOL     OW30568   0.331   4.110  16.881 -0.0301 -0.3197  0.3625
 6369SOL    HW130569   0.394   4.183  16.883 -2.1909  1.5862 -1.7582
 6369SOL    HW230570   0.370   4.047  16.821 -1.5791 -0.9281  0.0122
 6370SOL     OW30571   1.183   3.799   6.811  0.1183  0.0924 -0.4715
 6370SOL    HW130572   1.192   3.740   6.886 -0.5146  0.6877  0.0782
 6370SOL    HW230573   1.089   3.799   6.795  0.5413 -0.0886 -2.9692
 6371SOL     OW30574   4.156   1.671   1.635 -0.1691  0.1574  0.6548
 6371SOL    HW130575   4.220   1.647   1.702 -0.8957  0.5821  1.5081
 6371SOL    HW230576   4.130   1.755   1.673 -2.2822 -0.0011 -0.4546
 6372SOL     OW30577   1.245   1.605  10.996  0.2895 -0.1256  0.1554
 6372SOL    HW130578   1.290   1.522  11.012  1.4238  0.5221  0.3417
 6372SOL    HW230579   1.198   1.611  11.080  1.9616 -0.5665  1.1319
 6373SOL     OW30580   3.851   2.041   6.513 -0.1817  0.1844 -0.1520
 6373SOL    HW130581   3.834   2.051   6.607 -0.0284  3.2034 -0.4373
 6373SOL    HW230582   3.821   1.951   6.502  3.3730 -1.0377  0.1880
 6374SOL     OW30583   3.620   2.975   2.329 -0.3390  0.0672 -0.1940
 6374SOL    HW130584   3.629   3.009   2.418  2.3687 -1.5687  0.1588
 6374SOL    HW230585   3.606   3.061   2.288 -1.3348 -0.9320 -1.9589
 6375SOL     OW30586   1.195   0.789   7.363  0.0117  0.2311  0.4100
 6375SOL    HW130587   1.132   0.794   7.435  0.5767 -2.0794  1.0811
 6375SOL    HW230588   1.239   0.712   7.399  0.8801  0.5264 -0.0270
 6376SOL     OW30589   1.903   1.311   4.970 -0.0701 -0.7263 -0.3682
 6376SOL    HW130590   1.840   1.335   5.038  1.3297  1.3415  0.2166
 6376SOL    HW230591   1.898   1.391   4.918 -2.6462 -0.2521  0.6311
 6377SOL     OW30592   0.816   0.934   6.943  0.1505 -0.3800  0.1265
 6377SOL    HW130593   0.838   1.026   6.929 -0.2207 -0.1400  1.1297
 6377SOL    HW230594   0.748   0.934   7.011 -1.2262  3.6171 -1.2748
 6378SOL     OW30595   0.784   0.083   7.342 -0.3252 -0.0398  0.0049
 6378SOL    HW130596   0.839   0.013   7.306  1.7587  1.4108  0.3615
 6378SOL    HW230597   0.705   0.029   7.347 -1.0576  1.1230  0.9051
 6379SOL     OW30598   2.614   4.297   2.006  1.0908 -0.2214  0.5573
 6379SOL    HW130599   2.625   4.295   1.911 -0.1994  0.5641  0.3829
 6379SOL    HW230600   2.526   4.335   2.013  0.5244 -1.8617  2.4286
 6380SOL     OW30601   0.845   0.840   5.789 -0.1312  0.4609 -0.4067
 6380SOL    HW130602   0.919   0.796   5.831 -0.6168 -0.5840 -0.6400
 6380SOL    HW230603   0.878   0.857   5.701  0.1200  0.3861 -0.3283
 6381SOL     OW30604   1.742   4.538   6.625 -0.7591 -0.7078 -0.4971
 6381SOL    HW130605   1.711   4.536   6.534 -1.4519 -0.8064 -0.2584
 6381SOL    HW230606   1.669   4.581   6.669  0.2777 -0.6996  1.2201
 6382SOL     OW30607   0.126   2.464  12.531  0.0055  0.2027 -0.0041
 6382SOL    HW130608   0.166   2.526  12.592  1.0171 -0.5682  0.1175
 6382SOL    HW230609   0.056   2.425  12.584 -0.2510  0.3772 -0.2162
 6383SOL     OW30610   1.035   3.786   3.424  0.0689 -0.1999 -0.9530
 6383SOL    HW130611   0.976   3.746   3.360  0.5226  2.5540 -3.1086
 6383SOL    HW230612   0.983   3.793   3.504  2.3604  0.8396  0.4397
 6384SOL     OW30613   1.022   3.425   8.823 -0.0569 -0.8533  0.2367
 6384SOL    HW130614   1.106   3.466   8.845 -0.1703 -1.6703  2.2160
 6384SOL    HW230615   1.044   3.385   8.739 -3.8629 -0.4243 -0.9350
 6385SOL     OW30616   3.857   0.380   4.064 -0.0674 -0.3335 -0.3402
 6385SOL    HW130617   3.827   0.405   4.151  1.3222 -0.9041  0.3166
 6385SOL    HW230618   3.873   0.289   4.091 -1.4725 -0.4739  0.0089
 6386SOL     OW30619   0.514   3.713   5.623 -0.5059  0.3880 -0.0843
 6386SOL    HW130620   0.542   3.736   5.535  0.5056  1.4751  0.5169
 6386SOL    HW230621   0.421   3.702   5.602 -0.9479 -0.3442  2.2574
 6387SOL     OW30622   1.654   3.984  12.641  0.3454  0.1726 -0.1328
 6387SOL    HW130623   1.678   3.898  12.675 -0.8889 -0.2176 -0.2352
 6387SOL    HW230624   1.572   3.950  12.606 -1.2364  2.0240  1.8018
 6388SOL     OW30625   3.957   1.801   0.948  0.2846 -0.2988  0.5871
 6388SOL    HW130626   3.936   1.807   1.041  1.1696  1.3113  0.7020
 6388SOL    HW230627   3.989   1.890   0.934  0.6287 -0.5768 -0.3411
 6389SOL     OW30628   2.501   3.352   1.609 -0.2858 -0.1458 -0.7393
 6389SOL    HW130629   2.468   3.422   1.664 -0.0155  1.1908 -2.2650
 6389SOL    HW230630   2.592   3.380   1.617 -0.3515 -0.2338  0.2630
 6390SOL     OW30631   2.093   0.883   5.813 -0.5277  0.1349  0.1742
 6390SOL    HW130632   2.161   0.951   5.811 -0.7150  0.3707  2.0928
 6390SOL    HW230633   2.034   0.925   5.751 -0.0611  0.2161 -0.2148
 6391SOL     OW30634   3.530   4.101   2.808 -0.4616  0.2230 -0.2461
 6391SOL    HW130635   3.584   4.164   2.760 -1.4161 -0.0073 -1.6461
 6391SOL    HW230636   3.470   4.066   2.742  0.5708  0.6198 -1.4005
 6392SOL     OW30637   3.957   2.194   3.943  1.2134  0.3351  0.4204
 6392SOL    HW130638   3.951   2.114   3.995  0.5612 -0.7697 -1.3667
 6392SOL    HW230639   3.908   2.161   3.867 -0.6084 -0.1847  1.8231
 6393SOL     OW30640   3.355   3.860   7.010  0.0316  0.2201  0.1188
 6393SOL    HW130641   3.398   3.882   6.927  0.4163  1.0728  0.5440
 6393SOL    HW230642   3.418   3.895   7.073 -0.7681 -1.2630  1.7452
 6394SOL     OW30643   1.332   4.608   5.560 -0.4218 -0.6074  0.0885
 6394SOL    HW130644   1.265   4.675   5.560  0.9218  0.7326  1.3371
 6394SOL    HW230645   1.278   4.531   5.541 -0.2621 -0.2125 -1.9741
 6395SOL     OW30646   4.267   0.174   3.198 -0.0082 -0.0553  0.3886
 6395SOL    HW130647   4.183   0.206   3.230  0.0163  0.6012 -0.2040
 6395SOL    HW230648   4.288   0.229   3.122 -1.2280  1.0390  0.8475
 6396SOL     OW30649   2.677   1.318  15.280  1.0020 -0.3983  0.2307
 6396SOL    HW130650   2.591   1.325  15.237  0.4402 -0.7942  1.3022
 6396SOL    HW230651   2.665   1.284  15.368 -0.3817 -0.7842 -0.1069
 6397SOL     OW30652   0.759   0.323   7.208  0.3182  0.3280  0.0114
 6397SOL    HW130653   0.815   0.277   7.146 -0.3843  1.5263 -1.5032
 6397SOL    HW230654   0.743   0.253   7.271  0.7425 -0.6132 -0.9387
 6398SOL     OW30655   3.033   1.708  10.410 -0.1904 -0.3869 -0.4105
 6398SOL    HW130656   2.974   1.701  10.485 -0.4031  1.7221 -0.3831
 6398SOL    HW230657   3.051   1.618  10.382 -0.5890 -0.4886 -0.3435
 6399SOL     OW30658   1.291   1.632   7.243  0.4267 -0.2124  0.3462
 6399SOL    HW130659   1.241   1.592   7.314 -3.8576  0.4465 -2.3408
 6399SOL    HW230660   1.214   1.665   7.198  0.0950 -1.8434 -0.2903
 6400SOL     OW30661   2.013   3.596   8.543 -0.2648 -0.1735 -0.2008
 6400SOL    HW130662   1.975   3.666   8.597 -1.6385 -0.2510 -1.0957
 6400SOL    HW230663   2.080   3.559   8.601 -1.7096 -1.8776  0.3708
 6401SOL     OW30664   1.766   3.838   3.330  0.6250 -0.0012 -0.6805
 6401SOL    HW130665   1.699   3.904   3.312  1.4155  1.6055  2.3004
 6401SOL    HW230666   1.719   3.773   3.382  0.1102 -1.5269 -3.0447
 6402SOL     OW30667   0.227   0.544  16.687 -0.0372 -0.2145 -0.0553
 6402SOL    HW130668   0.205   0.539  16.780 -0.3063 -1.9749 -0.2216
 6402SOL    HW230669   0.204   0.634  16.663 -2.7328 -0.3509  1.9245
 6403SOL     OW30670   3.903   1.826   6.163  0.4478  0.1915 -0.3661
 6403SOL    HW130671   3.952   1.752   6.200 -1.1054 -2.0980 -2.8824
 6403SOL    HW230672   3.838   1.843   6.231  0.1413  1.8532 -1.0665
 6404SOL     OW30673   1.858   2.204   6.901 -0.0254 -0.2059  0.4325
 6404SOL    HW130674   1.782   2.262   6.904 -1.1116 -1.7313  3.2990
 6404SOL    HW230675   1.923   2.270   6.876  0.2571 -0.6662 -0.0397
 6405SOL     OW30676   4.007   0.409   4.432 -0.0367  0.4816  0.4047
 6405SOL    HW130677   3.920   0.375   4.451  0.1600  0.0287  0.4757
 6405SOL    HW230678   3.997   0.501   4.456 -1.9609  0.5869 -0.7915
 6406SOL     OW30679   1.100   3.338   3.658 -0.4606  0.6763 -0.2643
 6406SOL    HW130680   1.171   3.399   3.674  0.5750 -0.5925 -0.0101
 6406SOL    HW230681   1.030   3.403   3.654  0.8956  2.2024  1.3264
 6407SOL     OW30682   3.668   1.031   4.560  0.5617  0.1396  0.1122
 6407SOL    HW130683   3.720   0.953   4.581  0.4392 -0.0428 -0.2619
 6407SOL    HW230684   3.582   0.989   4.560  0.5990  0.0580  1.1451
 6408SOL     OW30685   3.257   3.459   6.537  0.5619  0.1459 -0.0058
 6408SOL    HW130686   3.321   3.464   6.466  0.5541  1.9183  0.0984
 6408SOL    HW230687   3.208   3.537   6.511 -0.7368 -1.1192 -1.3383
 6409SOL     OW30688   2.592   1.755   2.725  0.0590 -0.0010 -0.2348
 6409SOL    HW130689   2.549   1.730   2.643 -1.9530  1.3036  0.4329
 6409SOL    HW230690   2.658   1.818   2.697 -1.8978  2.5370  0.8159
 6410SOL     OW30691   1.069   3.497  15.720 -0.0259  0.0007 -0.3631
 6410SOL    HW130692   1.022   3.429  15.767 -0.9786  0.3270 -0.8354
 6410SOL    HW230693   1.006   3.569  15.724 -0.2248 -0.3890  3.1654
 6411SOL     OW30694   4.421   1.102   4.265  0.0630  0.2941  0.1484
 6411SOL    HW130695   4.483   1.037   4.298 -0.4982  0.2010  1.0080
 6411SOL    HW230696   4.483   1.132   4.199  1.8300 -0.2247  1.5906
 6412SOL     OW30697   2.040   2.034   7.480 -0.6399 -0.0979 -0.2826
 6412SOL    HW130698   2.002   2.102   7.534 -0.5103 -1.0012  0.9464
 6412SOL    HW230699   2.128   2.054   7.448  0.0315 -0.5455  1.3112
 6413SOL     OW30700   4.048   3.329  10.391  0.3903  0.5285 -0.7529
 6413SOL    HW130701   3.970   3.379  10.366 -0.1733 -0.1043 -0.2617
 6413SOL    HW230702   4.059   3.286  10.306 -0.2602  0.1693 -0.6587
 6414SOL     OW30703   4.649   3.647   3.343  0.3537 -0.2589  0.5488
 6414SOL    HW130704   4.658   3.553   3.355  0.5153 -0.2437  0.5491
 6414SOL    HW230705   4.719   3.660   3.279 -0.0385  1.9499  0.5450
 6415SOL     OW30706   3.072   2.378   3.361  0.0620  0.0608  0.4878
 6415SOL    HW130707   3.105   2.445   3.302  0.5186 -1.1388 -0.6086
 6415SOL    HW230708   3.060   2.306   3.300  0.5748 -1.5843  2.3087
 6416SOL     OW30709   3.288   4.507   3.606  0.3464  0.4948  0.0668
 6416SOL    HW130710   3.293   4.440   3.675 -0.2504 -0.0622 -0.4332
 6416SOL    HW230711   3.333   4.461   3.535 -2.4104 -1.4421 -0.4224
 6417SOL     OW30712   4.098   0.745  11.193 -0.1547  0.5027  0.8146
 6417SOL    HW130713   4.175   0.733  11.249  0.1773 -1.2085 -0.0085
 6417SOL    HW230714   4.142   0.771  11.111  1.6051  0.3459  1.6979
 6418SOL     OW30715   2.829   2.825   1.555 -0.0220 -0.1484 -0.2121
 6418SOL    HW130716   2.774   2.828   1.633 -0.0686  0.2223 -0.2586
 6418SOL    HW230717   2.905   2.783   1.596  1.8876  0.3551 -3.2084
 6419SOL     OW30718   1.380   0.997   6.886 -0.0287 -0.1694 -0.3712
 6419SOL    HW130719   1.306   0.959   6.839  0.7681  0.4494 -2.1233
 6419SOL    HW230720   1.372   0.967   6.977  1.7680  1.6914  0.4105
 6420SOL     OW30721   3.364   3.304   0.156 -0.0414  0.5622 -0.7035
 6420SOL    HW130722   3.346   3.300   0.062  0.4880 -1.6525 -0.7122
 6420SOL    HW230723   3.431   3.238   0.174 -1.7705 -0.3354  2.5251
 6421SOL     OW30724   2.816   1.466   3.832 -0.0324 -0.5583  0.2101
 6421SOL    HW130725   2.764   1.544   3.854  1.1475  0.3795 -0.3117
 6421SOL    HW230726   2.776   1.452   3.747  2.5865 -1.6685 -0.8435
 6422SOL     OW30727   3.058   2.084  10.502  0.0407  0.7632 -0.3488
 6422SOL    HW130728   3.047   2.154  10.566  1.5684  0.1264  0.5932
 6422SOL    HW230729   3.118   2.024  10.545  1.0848  1.0111 -1.4299
 6423SOL     OW30730   0.438   3.531  16.055  0.0116 -0.1975 -0.1834
 6423SOL    HW130731   0.431   3.496  16.143 -0.7034  0.6155  0.0791
 6423SOL    HW230732   0.505   3.597  16.074 -1.7787  2.7512 -3.9512
 6424SOL     OW30733   4.545   0.050   9.106  0.2431  0.3111  0.2347
 6424SOL    HW130734   4.488   0.103   9.162 -0.3695 -0.5683  0.4400
 6424SOL    HW230735   4.545   4.691   9.154  2.4687  0.2536  0.1600
 6425SOL     OW30736   2.750   3.601  15.151 -0.3046 -0.1699  0.0990
 6425SOL    HW130737   2.658   3.615  15.129 -0.3408 -0.0920  0.3028
 6425SOL    HW230738   2.794   3.586  15.067  1.1390 -1.9028  1.1687
 6426SOL     OW30739   3.925   0.897  10.593  0.4126 -1.0441 -0.0359
 6426SOL    HW130740   3.851   0.920  10.649  2.1493  4.2824  0.1007
 6426SOL    HW230741   3.900   0.891  10.501 -0.8509  2.1533  0.0643
 6427SOL     OW30742   2.394   0.910   2.521 -0.0601 -0.2652  0.3052
 6427SOL    HW130743   2.383   1.004   2.506  2.2823  0.3992  2.8999
 6427SOL    HW230744   2.367   0.881   2.433  1.6323  1.4075 -0.7728
 6428SOL     OW30745   0.544   1.782   7.750  0.3329 -0.6749 -0.9818
 6428SOL    HW130746   0.482   1.845   7.712  0.7390  0.4133  0.1644
 6428SOL    HW230747   0.488   1.735   7.812 -0.1859 -0.3047 -1.1716
 6429SOL     OW30748   0.020   0.510   2.416 -0.0936 -0.3379 -0.8776
 6429SOL    HW130749   0.042   0.550   2.332  1.4468  0.3718 -0.1496
 6429SOL    HW230750   0.093   0.449   2.432  0.0030 -0.6995 -2.6705
 6430SOL     OW30751   3.910   1.919  17.534 -0.2954  0.0621 -0.7671
 6430SOL    HW130752   3.965   1.890  17.461  2.1512  1.8619  0.3206
 6430SOL    HW230753   3.897   2.013  17.523 -3.9907 -0.5866 -1.7967
 6431SOL     OW30754   0.061   1.043   7.920  0.1647  0.3080 -0.0627
 6431SOL    HW130755   0.056   0.966   7.977  1.2180  0.7704  0.6609
 6431SOL    HW230756   0.150   1.036   7.888 -0.1495  0.5693 -0.9885
 6432SOL     OW30757   2.021   0.717   7.964  0.2186 -0.2074 -0.4391
 6432SOL    HW130758   2.006   0.704   8.057 -3.4694 -0.3923 -1.0819
 6432SOL    HW230759   1.985   0.805   7.954  1.8510  0.5612  0.3788
 6433SOL     OW30760   3.796   4.060  14.510  0.0117  0.6811 -0.4260
 6433SOL    HW130761   3.702   4.061  14.495  0.0319  1.6494 -0.5014
 6433SOL    HW230762   3.812   4.147  14.548  2.3739 -0.0614  0.2867
 6434SOL     OW30763   4.425   3.157  11.723 -0.5719 -0.3797  0.6762
 6434SOL    HW130764   4.435   3.083  11.783  2.8846  0.3686  1.0336
 6434SOL    HW230765   4.421   3.109  11.640  1.2227 -0.3712  0.5786
 6435SOL     OW30766   4.096   3.849  16.570  0.0206  0.1443 -0.3012
 6435SOL    HW130767   4.010   3.852  16.612 -0.0567 -0.6135 -0.4073
 6435SOL    HW230768   4.104   3.938  16.537 -2.3932  0.6300  0.4129
 6436SOL     OW30769   1.405   0.361   2.312  0.0953  0.5614 -0.0415
 6436SOL    HW130770   1.383   0.433   2.254 -1.1425 -0.4077 -0.7679
 6436SOL    HW230771   1.492   0.335   2.282  0.2438  1.7800 -0.6596
 6437SOL     OW30772   4.548   0.215   1.496 -0.6198  0.3777 -0.2085
 6437SOL    HW130773   4.549   0.126   1.461 -1.0383  0.4456 -0.3989
 6437SOL    HW230774   4.475   0.253   1.447  0.5535  0.5375 -1.8554
 6438SOL     OW30775   2.518   1.943  12.281  0.5531 -0.2328  0.2231
 6438SOL    HW130776   2.458   2.018  12.285  3.4695  2.0516  0.8197
 6438SOL    HW230777   2.459   1.889  12.229  0.8319  3.3106 -3.7231
 6439SOL     OW30778   1.420   3.610   1.430 -0.0136 -0.1476  0.4479
 6439SOL    HW130779   1.513   3.593   1.417 -0.1837 -0.0583 -0.8595
 6439SOL    HW230780   1.404   3.679   1.365  3.9206 -1.4544 -1.8500
 6440SOL     OW30781   1.499   3.110   2.248  0.0521  0.3148  0.8796
 6440SOL    HW130782   1.517   3.071   2.334  0.7191  3.3990  2.1504
 6440SOL    HW230783   1.464   3.198   2.266  0.4041  0.2365  1.9437
 6441SOL     OW30784   3.544   3.957   6.826  0.6208  0.0275  0.1463
 6441SOL    HW130785   3.638   3.970   6.812  0.4824  1.0384  0.1016
 6441SOL    HW230786   3.520   4.036   6.876 -0.3679 -1.8280  2.5940
 6442SOL     OW30787   1.869   2.202  14.445 -0.0486  0.2680 -0.2003
 6442SOL    HW130788   1.778   2.175  14.461  0.0327  1.0155  1.5131
 6442SOL    HW230789   1.860   2.221  14.352 -0.6029 -0.3634 -0.2753
 6443SOL     OW30790   2.626   0.871   3.819 -0.0315  0.2922 -0.2845
 6443SOL    HW130791   2.639   0.953   3.773  2.8239  0.1798  0.2989
 6443SOL    HW230792   2.550   0.831   3.777  0.3099 -2.6805  1.9201
 6444SOL     OW30793   4.109   4.106  16.498 -0.0248  0.3040 -0.0486
 6444SOL    HW130794   4.051   4.128  16.425  0.1825 -1.5666 -0.7752
 6444SOL    HW230795   4.120   4.192  16.538  0.4882  0.5883 -0.8039
 6445SOL     OW30796   2.104   3.406   5.618  0.3332  0.0883 -0.2999
 6445SOL    HW130797   2.113   3.488   5.568  1.2649  0.9141  1.2143
 6445SOL    HW230798   2.184   3.397   5.671  0.3307  0.3899 -0.2423
 6446SOL     OW30799   3.959   1.906  10.218  0.4738 -0.2211 -0.1703
 6446SOL    HW130800   3.949   1.842  10.148  1.4029  0.0167 -0.5145
 6446SOL    HW230801   3.903   1.872  10.289 -0.8417  0.8095 -0.7221
 6447SOL     OW30802   3.868   3.569   6.613 -0.3875 -0.4049 -0.4734
 6447SOL    HW130803   3.952   3.525   6.628 -1.0756 -0.6659  2.6582
 6447SOL    HW230804   3.869   3.584   6.518  1.9456 -0.7620 -0.5001
 6448SOL     OW30805   1.869   2.772   7.253 -0.1796 -0.6801 -0.3584
 6448SOL    HW130806   1.896   2.769   7.345  2.0515  0.0607 -1.0076
 6448SOL    HW230807   1.942   2.803   7.200  1.8876  1.3083  3.5978
 6449SOL     OW30808   2.900   2.322   8.311 -0.6049  0.3356 -0.3883
 6449SOL    HW130809   2.968   2.359   8.254  1.8314  0.0730  2.3545
 6449SOL    HW230810   2.865   2.398   8.357 -4.3330 -2.9513  2.2141
 6450SOL     OW30811   4.713   4.666   8.621 -0.4972  0.0726 -0.3759
 6450SOL    HW130812   4.671   4.680   8.537  0.4820  4.6727 -0.0833
 6450SOL    HW230813   4.661   4.591   8.648 -0.2859 -0.4874 -1.4974
 6451SOL     OW30814   1.819   1.229   6.690 -0.3296  0.1794 -0.0594
 6451SOL    HW130815   1.836   1.243   6.783 -0.6661 -0.9836  0.1846
 6451SOL    HW230816   1.824   1.319   6.657 -1.8330  0.1329 -0.4135
 6452SOL     OW30817   0.093   1.383   8.344 -0.5884  0.3838 -0.1055
 6452SOL    HW130818   0.155   1.355   8.276  1.7944 -0.0709  2.2654
 6452SOL    HW230819   0.094   1.310   8.406  0.3862 -1.2715 -2.0468
 6453SOL     OW30820   1.387   4.347  16.994  0.3864  0.6721 -0.5187
 6453SOL    HW130821   1.432   4.336  17.078 -0.7900 -3.1992 -0.3882
 6453SOL    HW230822   1.457   4.326  16.932 -0.7591 -1.5655 -1.0563
 6454SOL     OW30823   0.608   2.028   6.655  0.2266 -0.5606 -0.8537
 6454SOL    HW130824   0.591   1.934   6.647 -1.8995 -0.4453  2.5126
 6454SOL    HW230825   0.530   2.049   6.707 -0.4039  0.5019 -2.2450
 6455SOL     OW30826   0.374   3.768   5.987  0.2231 -0.4045  0.3815
 6455SOL    HW130827   0.286   3.769   6.025 -0.6849 -1.3633 -1.6880
 6455SOL    HW230828   0.401   3.676   5.978 -0.5291 -0.3902 -1.9046
 6456SOL     OW30829   3.927   0.309   5.496  0.8300  0.1418  0.5259
 6456SOL    HW130830   3.916   0.214   5.499  0.8218  0.0340 -2.5861
 6456SOL    HW230831   3.995   0.315   5.563 -1.1476 -2.5330  2.7807
 6457SOL     OW30832   0.484   3.864   8.310  0.2967 -0.2440 -0.4999
 6457SOL    HW130833   0.397   3.890   8.281  0.7588 -0.6454 -2.2470
 6457SOL    HW230834   0.460   3.831   8.397 -1.2529 -0.2408 -0.9310
 6458SOL     OW30835   3.694   4.709   5.178 -0.6594  0.1277 -0.0412
 6458SOL    HW130836   3.635   0.022   5.243  0.6530  1.5246  0.3402
 6458SOL    HW230837   3.778   4.717   5.224 -0.4302 -0.6849 -0.3136
 6459SOL     OW30838   0.122   0.924   7.563  0.8138  0.9651 -0.6740
 6459SOL    HW130839   0.155   1.014   7.574  1.4754  0.6411 -0.0430
 6459SOL    HW230840   0.202   0.875   7.580  0.6175 -0.1601 -3.0945
 6460SOL     OW30841   0.037   0.979  17.312 -0.0281 -0.0783  0.5948
 6460SOL    HW130842   0.076   0.945  17.392 -0.5741  1.8741  1.6988
 6460SOL    HW230843   0.065   1.070  17.319  1.2200 -0.3092 -1.6549
 6461SOL     OW30844   1.207   4.030   8.734 -0.4373  0.9825 -0.0927
 6461SOL    HW130845   1.114   4.004   8.732 -0.5694  1.5147 -1.1167
 6461SOL    HW230846   1.241   3.973   8.664 -0.3379  0.9879 -0.0486
 6462SOL     OW30847   0.547   3.342   7.070  0.0219 -0.2529  0.7857
 6462SOL    HW130848   0.595   3.295   7.139 -1.2732 -0.8297  1.3003
 6462SOL    HW230849   0.513   3.271   7.016 -0.3781  0.6037 -0.0885
 6463SOL     OW30850   2.904   3.523  10.048  0.1742 -0.6764 -0.5424
 6463SOL    HW130851   2.979   3.467  10.027  0.9044  0.4879 -1.0538
 6463SOL    HW230852   2.936   3.581  10.117  0.2218 -0.9131 -0.3630
 6464SOL     OW30853   1.314   0.669   9.853  0.4311 -0.0760 -0.2800
 6464SOL    HW130854   1.315   0.586   9.806 -0.5023 -0.0525 -0.3415
 6464SOL    HW230855   1.311   0.733   9.782 -0.5421 -0.9361 -1.0148
 6465SOL     OW30856   1.978   3.234   4.429 -0.1586  0.0046  0.2359
 6465SOL    HW130857   1.909   3.301   4.429 -0.2997 -0.1412  2.1696
 6465SOL    HW230858   1.957   3.174   4.357 -0.3505 -1.1090  1.2205
 6466SOL     OW30859   3.416   0.343   5.401 -0.8412 -0.4594  0.2234
 6466SOL    HW130860   3.388   0.428   5.437  1.2453  0.8363 -1.1893
 6466SOL    HW230861   3.437   0.369   5.312  1.4219 -1.4691  0.4559
 6467SOL     OW30862   3.383   1.037   7.596  0.2941  0.6259 -0.8197
 6467SOL    HW130863   3.375   0.997   7.682  1.6482  1.1743 -0.4401
 6467SOL    HW230864   3.293   1.056   7.569 -0.0496 -0.4819 -0.4612
 6468SOL     OW30865   2.034   3.798   7.432  0.2943 -0.3352 -0.9539
 6468SOL    HW130866   1.975   3.794   7.508  1.8903 -2.0112  0.1889
 6468SOL    HW230867   1.983   3.837   7.362 -1.8376 -0.7758  0.3345
 6469SOL     OW30868   4.446   3.029   2.834  0.0396 -0.2269 -0.1619
 6469SOL    HW130869   4.528   2.983   2.850  0.7584  1.8786  2.3650
 6469SOL    HW230870   4.462   3.063   2.746 -0.2388 -3.5335 -1.4622
 6470SOL     OW30871   2.734   4.193   4.657 -0.1815  0.2753  0.4843
 6470SOL    HW130872   2.698   4.105   4.644  0.9094 -0.0521 -0.3009
 6470SOL    HW230873   2.823   4.162   4.644  0.3979  1.5863  1.3578
 6471SOL     OW30874   1.376   1.364   4.553  0.8308  0.1759 -0.1271
 6471SOL    HW130875   1.367   1.446   4.505 -0.9299  2.3187  3.8448
 6471SOL    HW230876   1.293   1.318   4.542  0.9017  0.1227 -0.4461
 6472SOL     OW30877   0.630   2.122   2.511 -0.7538  0.4457 -0.4884
 6472SOL    HW130878   0.622   2.212   2.542  0.3983  0.6022 -0.6246
 6472SOL    HW230879   0.641   2.138   2.417  2.1179 -0.4990 -0.3162
 6473SOL     OW30880   4.387   1.246   4.933 -0.1789 -0.2207  0.0499
 6473SOL    HW130881   4.461   1.275   4.881 -0.3822  0.7651  0.3035
 6473SOL    HW230882   4.381   1.324   4.988  1.5895 -0.3999  0.4829
 6474SOL     OW30883   3.346   0.538  16.977  0.1934 -0.3317  0.3606
 6474SOL    HW130884   3.386   0.542  17.065  0.6330 -1.6427  0.2254
 6474SOL    HW230885   3.253   0.553  16.994  0.1426 -0.3488  0.0908
 6475SOL     OW30886   1.071   2.850   5.426 -0.2276  0.1089 -0.0956
 6475SOL    HW130887   1.082   2.872   5.518  2.6619 -0.2781 -0.3432
 6475SOL    HW230888   1.039   2.930   5.383  0.8375  0.9125  0.6094
 6476SOL     OW30889   1.612   3.761   0.309 -0.1754 -0.1434  0.5845
 6476SOL    HW130890   1.545   3.759   0.242  0.8593  0.5632 -0.4763
 6476SOL    HW230891   1.605   3.668   0.333 -1.3320 -0.5059 -1.2302
 6477SOL     OW30892   0.624   4.724   6.691  0.7974 -0.0622 -0.1552
 6477SOL    HW130893   0.699   0.053   6.666  1.6990 -2.2109 -2.0885
 6477SOL    HW230894   0.568   4.718   6.614 -0.6157  1.3188  0.7736
 6478SOL     OW30895   2.931   2.505  14.174  0.0972  0.1573  0.0289
 6478SOL    HW130896   3.009   2.450  14.171 -1.2339 -1.7207  0.3459
 6478SOL    HW230897   2.962   2.593  14.150  0.0556 -0.1104 -0.9927
 6479SOL     OW30898   1.586   0.284  10.267 -0.3198 -0.0919  0.0821
 6479SOL    HW130899   1.556   0.296  10.177  3.4998 -1.0338 -1.3061
 6479SOL    HW230900   1.589   0.375  10.296 -1.6273  0.6474 -2.1676
 6480SOL     OW30901   3.697   3.464   4.475 -0.1632 -0.1215 -0.1508
 6480SOL    HW130902   3.737   3.378   4.485  0.1831  0.0532 -0.0163
 6480SOL    HW230903   3.615   3.454   4.523  0.5680 -3.5714  0.4026
 6481SOL     OW30904   4.252   4.090   5.995  0.5217 -0.1793  0.3476
 6481SOL    HW130905   4.331   4.122   5.953  0.0325  1.3361  0.5669
 6481SOL    HW230906   4.296   4.076   6.079 -0.2269 -0.8074  0.6343
 6482SOL     OW30907   4.170   1.402   8.081 -0.2054 -0.4267  0.6289
 6482SOL    HW130908   4.250   1.439   8.043 -0.9884 -0.6000 -1.2174
 6482SOL    HW230909   4.205   1.321   8.119 -1.8050 -1.0444  0.8012
 6483SOL     OW30910   4.021   2.098  15.055  0.1560  0.8120 -0.0091
 6483SOL    HW130911   3.930   2.129  15.048  0.1655  1.2694  1.8219
 6483SOL    HW230912   4.011   2.012  15.096  0.4411 -0.0438 -1.7532
 6484SOL     OW30913   2.320   2.666  12.355  0.0855 -0.1135  0.3793
 6484SOL    HW130914   2.247   2.668  12.294  1.1575  1.4222 -0.8577
 6484SOL    HW230915   2.379   2.611  12.303 -0.0194 -0.6730  0.8538
 6485SOL     OW30916   3.286   2.422   8.974 -0.2854 -0.4705  0.0339
 6485SOL    HW130917   3.354   2.391   8.915  0.9592  1.0421  0.6872
 6485SOL    HW230918   3.316   2.508   9.002  1.0616 -1.5766  1.9563
 6486SOL     OW30919   4.019   0.022   6.842 -0.9579  0.0977  0.3667
 6486SOL    HW130920   4.091   0.068   6.799 -0.3421 -0.8317  0.3893
 6486SOL    HW230921   3.989   4.683   6.777  1.9425 -1.0232  0.1064
 6487SOL     OW30922   0.261   1.042  14.783  0.8254  0.7037  0.1537
 6487SOL    HW130923   0.286   1.078  14.698 -0.0734  1.2205  0.1194
 6487SOL    HW230924   0.210   0.963  14.763  1.4032  0.4251 -0.2355
 6488SOL     OW30925   4.169   2.871   6.086  0.6900  1.0062  0.3884
 6488SOL    HW130926   4.172   2.883   5.991 -0.7912 -0.3785  0.1558
 6488SOL    HW230927   4.259   2.855   6.115 -0.5357 -1.0742  3.0150
 6489SOL     OW30928   3.873   3.948   4.034  0.6316 -0.8362  0.4772
 6489SOL    HW130929   3.890   3.871   3.980  0.1706 -0.7432  0.2033
 6489SOL    HW230930   3.885   3.915   4.123 -0.5388 -0.8527  0.6192
 6490SOL     OW30931   0.836   2.973  12.280 -0.2524  0.6851  0.3202
 6490SOL    HW130932   0.843   2.969  12.375  0.5277  1.1679  0.2820
 6490SOL    HW230933   0.922   2.939  12.257 -0.2266  1.5495 -0.8389
 6491SOL     OW30934   2.248   0.141   0.086  0.3095  0.1266 -0.0645
 6491SOL    HW130935   2.169   0.164   0.135  0.9319 -1.3652  1.6573
 6491SOL    HW230936   2.261   0.226   0.045 -0.1287  0.3010  0.1597
 6492SOL     OW30937   2.733   1.931   3.879  0.3161 -0.9558 -0.0624
 6492SOL    HW130938   2.703   2.013   3.917  0.3243 -1.7043  1.5817
 6492SOL    HW230939   2.825   1.947   3.901  0.5555  1.5426 -2.8319
 6493SOL     OW30940   2.323   2.831   5.060  0.0924  0.1587 -0.2401
 6493SOL    HW130941   2.351   2.765   5.123 -1.1305 -0.1265  0.0001
 6493SOL    HW230942   2.258   2.866   5.121 -1.2851 -0.2993 -1.4448
 6494SOL     OW30943   3.517   2.460   5.701  0.5380  0.0016 -0.0655
 6494SOL    HW130944   3.564   2.379   5.722 -1.9136 -1.1355  1.0559
 6494SOL    HW230945   3.454   2.422   5.640  1.2655 -1.5514  0.1517
 6495SOL     OW30946   1.778   0.580  15.069 -0.2491 -0.2968 -0.5858
 6495SOL    HW130947   1.861   0.596  15.024  1.2267 -0.7320  2.0557
 6495SOL    HW230948   1.726   0.543  14.997 -0.1538  0.0164 -0.8154
 6496SOL     OW30949   1.001   4.169   4.687 -0.3687 -0.0837 -0.5404
 6496SOL    HW130950   1.055   4.104   4.642  1.4423  2.0618 -1.4864
 6496SOL    HW230951   0.998   4.248   4.633  0.6366 -0.2912 -0.8906
 6497SOL     OW30952   1.083   2.694   3.336  0.2057  0.8688 -0.3487
 6497SOL    HW130953   1.023   2.708   3.262 -0.4393  1.7152  0.3435
 6497SOL    HW230954   1.167   2.692   3.290  0.9445 -2.7082  1.1691
 6498SOL     OW30955   4.639   2.328   5.355 -0.1846 -0.1775 -0.2197
 6498SOL    HW130956   4.711   2.337   5.293 -0.9178 -2.3498 -1.3407
 6498SOL    HW230957   4.677   2.356   5.439 -2.2126  2.1189 -0.0418
 6499SOL     OW30958   2.337   0.433   4.219  0.1096  0.8763  0.4416
 6499SOL    HW130959   2.371   0.523   4.214  0.6231  0.6825  0.4928
 6499SOL    HW230960   2.421   0.392   4.201  0.2977  1.8991 -1.0304
 6500SOL     OW30961   0.865   1.103  12.996  0.4690  0.0766  0.3832
 6500SOL    HW130962   0.833   1.102  13.086  2.7137 -0.0934  1.1760
 6500SOL    HW230963   0.958   1.102  13.021  0.4839 -1.6621  0.2164
 6501SOL     OW30964   1.083   0.832   1.223 -0.1072  0.6287  0.0130
 6501SOL    HW130965   1.095   0.791   1.309  0.9814 -1.4056 -1.1124
 6501SOL    HW230966   1.045   0.762   1.170  0.4959  0.6139 -0.3944
 6502SOL     OW30967   1.140   3.656  13.717 -0.6334 -0.5727  0.1406
 6502SOL    HW130968   1.099   3.569  13.720  0.5644 -1.1183  0.6977
 6502SOL    HW230969   1.126   3.688  13.806 -1.5308  1.1634 -0.6311
 6503SOL     OW30970   3.450   0.110  11.286  0.4483  0.2635 -0.2176
 6503SOL    HW130971   3.441   0.170  11.211 -0.5950  1.3638  0.7856
 6503SOL    HW230972   3.385   0.151  11.343  0.0499 -1.9052  0.8881
 6504SOL     OW30973   2.863   2.375   1.380  0.3649 -0.7735  0.1673
 6504SOL    HW130974   2.810   2.453   1.397  1.2636 -0.1851  0.2427
 6504SOL    HW230975   2.867   2.337   1.467 -0.1464 -1.6286 -0.1781
 6505SOL     OW30976   4.622   1.628  16.854  0.2663 -0.4583 -0.5356
 6505SOL    HW130977   4.677   1.649  16.779 -1.9314 -0.9120 -2.2668
 6505SOL    HW230978   4.690   1.605  16.918 -1.7556  1.3322  2.2258
 6506SOL     OW30979   1.494   1.155   6.656 -0.2934  0.7628 -0.3170
 6506SOL    HW130980   1.524   1.213   6.726  1.2763  1.7824 -1.8215
 6506SOL    HW230981   1.447   1.090   6.707 -1.3863 -0.0480 -2.3653
 6507SOL     OW30982   3.425   1.509  10.097 -0.2809 -0.3125 -0.2009
 6507SOL    HW130983   3.413   1.415  10.111 -0.3785 -0.1718  0.6587
 6507SOL    HW230984   3.333   1.524  10.075 -0.2653 -1.2258 -0.9063
 6508SOL     OW30985   0.369   1.004   6.706 -0.1879 -0.0796  0.7907
 6508SOL    HW130986   0.284   1.014   6.664  0.3404  0.1928 -0.2315
 6508SOL    HW230987   0.403   1.076   6.653 -3.1927  0.3390 -0.5326
 6509SOL     OW30988   4.161   1.780  12.510  0.1862  0.3842 -0.5755
 6509SOL    HW130989   4.248   1.799  12.476  0.7319  1.8529  1.6406
 6509SOL    HW230990   4.129   1.863  12.545  2.7468  1.0125  0.2859
 6510SOL     OW30991   3.479   0.192   6.421 -0.2459 -0.0647 -0.1119
 6510SOL    HW130992   3.553   0.243   6.455  0.1381 -1.6277  1.3887
 6510SOL    HW230993   3.412   0.252   6.389 -0.0504 -1.3999 -3.0142
 6511SOL     OW30994   2.796   1.903   4.586  0.0311  0.1988  0.1132
 6511SOL    HW130995   2.877   1.923   4.538 -0.1185  0.1219 -0.1741
 6511SOL    HW230996   2.820   1.816   4.619 -1.1453 -0.0882  0.1994
 6512SOL     OW30997   3.403   1.290   9.302 -0.2956  0.8220 -0.5474
 6512SOL    HW130998   3.312   1.301   9.276 -0.6172  1.6061  0.9159
 6512SOL    HW230999   3.385   1.279   9.395  0.6050  1.2905 -0.3112
 6513SOL     OW31000   4.533   3.447   0.185  0.3364  0.5362 -0.2568
 6513SOL    HW131001   4.452   3.459   0.134 -1.6912 -1.9361  2.3994
 6513SOL    HW231002   4.522   3.485   0.272 -1.6005  0.3653 -0.4127
 6514SOL     OW31003   3.331   0.834   2.979  0.1177  0.3309  0.0234
 6514SOL    HW131004   3.258   0.861   3.036 -0.7085  0.4105 -1.0678
 6514SOL    HW231005   3.341   0.902   2.912  1.4866  0.8221  0.7242
 6515SOL     OW31006   4.313   4.455  11.077 -0.0545 -0.2684 -0.0943
 6515SOL    HW131007   4.400   4.423  11.055  0.5842  1.9394 -0.7795
 6515SOL    HW231008   4.255   4.382  11.054  0.6387 -2.3717  4.7656
 6516SOL     OW31009   3.727   0.564   7.724 -0.0446  0.2577 -0.0267
 6516SOL    HW131010   3.672   0.634   7.760 -0.3906  0.0202 -0.0986
 6516SOL    HW231011   3.816   0.595   7.743 -0.5208  1.2662  0.5987
 6517SOL     OW31012   2.030   1.054   8.198 -0.6955  0.1457  0.5841
 6517SOL    HW131013   2.100   1.006   8.152 -0.5874  0.4851  0.3944
 6517SOL    HW231014   1.981   1.080   8.120  0.7183 -0.2724 -0.4378
 6518SOL     OW31015   2.745   0.307   3.175 -0.3511  0.1919  0.1077
 6518SOL    HW131016   2.768   0.380   3.118 -0.1905  1.6787  2.0923
 6518SOL    HW231017   2.766   0.348   3.259 -0.4984  1.2352 -0.3682
 6519SOL     OW31018   0.249   3.196   0.905  0.9640 -0.5154 -0.3140
 6519SOL    HW131019   0.232   3.285   0.873 -0.5073 -0.8144 -0.3301
 6519SOL    HW231020   0.163   3.174   0.941  0.2431  0.6575 -1.3043
 6520SOL     OW31021   0.482   1.790   8.474 -0.1717 -0.5478  0.3467
 6520SOL    HW131022   0.419   1.753   8.412  1.0965 -1.2469 -0.5263
 6520SOL    HW231023   0.417   1.788   8.544 -0.5100 -1.9444 -0.0097
 6521SOL     OW31024   1.317   2.301  17.415  0.2217  0.2541  0.3702
 6521SOL    HW131025   1.244   2.348  17.455 -0.8082 -2.6706  1.9262
 6521SOL    HW231026   1.384   2.329  17.478 -0.9057 -1.6038  2.4016
 6522SOL     OW31027   3.793   0.607   8.017  0.3635 -0.0498  0.0145
 6522SOL    HW131028   3.805   0.640   8.106  2.0508  0.9724 -0.5969
 6522SOL    HW231029   3.874   0.644   7.982  0.9945 -1.8652 -0.4260
 6523SOL     OW31030   0.300   3.636   9.301  0.0185  0.1101 -0.4532
 6523SOL    HW131031   0.368   3.616   9.237  0.9573 -0.7292  0.8079
 6523SOL    HW231032   0.360   3.658   9.372 -0.1723  1.4572 -0.7119
 6524SOL     OW31033   1.133   3.235  15.503  0.9895 -0.2299  0.8127
 6524SOL    HW131034   1.060   3.296  15.501 -0.1120 -1.6502 -2.9602
 6524SOL    HW231035   1.112   3.180  15.578 -3.9853  0.1468 -0.2955
 6525SOL     OW31036   1.423   4.177   7.245 -0.1402  0.3483  0.4642
 6525SOL    HW131037   1.441   4.179   7.151 -1.2996 -0.8937  0.2271
 6525SOL    HW231038   1.449   4.089   7.271 -2.6449 -0.3234  0.6895
 6526SOL     OW31039   1.356   0.018   3.904 -0.7762  0.4706 -0.5827
 6526SOL    HW131040   1.377   0.110   3.924  1.5597  0.2250 -1.8026
 6526SOL    HW231041   1.435   4.702   3.940 -1.1597 -2.1112 -2.6788
 6527SOL     OW31042   3.143   2.277   7.705 -0.0658 -0.1507 -0.3580
 6527SOL    HW131043   3.194   2.341   7.755 -0.3222  0.2029 -0.5433
 6527SOL    HW231044   3.121   2.202   7.760 -0.6507 -0.6246 -1.2222
 6528SOL     OW31045   1.635   4.716   8.791  0.0325 -0.5353  0.2503
 6528SOL    HW131046   1.576   4.640   8.784  1.7598 -1.8074 -0.3157
 6528SOL    HW231047   1.668   4.724   8.702 -0.7837  2.0700  0.1832
 6529SOL     OW31048   3.511   2.482  12.519  0.6198  0.4225  0.3329
 6529SOL    HW131049   3.442   2.417  12.535 -0.2639  1.5266  0.9936
 6529SOL    HW231050   3.465   2.519  12.444 -2.2257  0.3847  2.0786
 6530SOL     OW31051   2.062   0.563  14.986  0.2588 -0.2607 -0.5322
 6530SOL    HW131052   2.148   0.604  14.978  0.6418 -0.8130  0.7981
 6530SOL    HW231053   2.077   0.479  14.942  0.7102 -0.0258 -0.8341
 6531SOL     OW31054   0.849   4.094   3.662 -0.0735 -0.4929 -0.1770
 6531SOL    HW131055   0.934   4.072   3.699  1.4597  2.2145 -2.1113
 6531SOL    HW231056   0.784   4.048   3.716  0.6585 -0.9665  0.3099
 6532SOL     OW31057   3.524   0.808  15.693 -0.2913  0.5238  0.5531
 6532SOL    HW131058   3.531   0.897  15.659  0.4350  1.4079  2.9735
 6532SOL    HW231059   3.555   0.819  15.783  1.7883  0.4234 -0.1449
 6533SOL     OW31060   3.802   3.992   5.775 -0.1275  0.0875 -0.4866
 6533SOL    HW131061   3.850   3.909   5.774  2.0868  1.3986 -1.8547
 6533SOL    HW231062   3.869   4.052   5.808 -1.0272 -0.2263  1.9184
 6534SOL     OW31063   1.458   2.693   9.071  0.2730 -0.2039 -0.0690
 6534SOL    HW131064   1.525   2.653   9.127  0.3086  0.2591  0.2221
 6534SOL    HW231065   1.470   2.788   9.081 -0.4567  0.0574 -1.6511
 6535SOL     OW31066   3.351   3.767   8.197  0.3944  0.1669  0.2220
 6535SOL    HW131067   3.433   3.752   8.243  1.7022  1.0153 -1.8678
 6535SOL    HW231068   3.320   3.678   8.181 -2.4271  0.8319  1.9627
 6536SOL     OW31069   1.794   1.274   4.326 -0.5295 -0.2102 -0.1293
 6536SOL    HW131070   1.853   1.205   4.357  1.0284  0.2259 -2.1166
 6536SOL    HW231071   1.800   1.323   4.408 -1.0336  0.7340 -0.6565
 6537SOL     OW31072   1.468   1.114   7.154 -0.0882 -0.0895 -0.1126
 6537SOL    HW131073   1.477   1.202   7.191 -3.2397 -1.3534  3.5285
 6537SOL    HW231074   1.390   1.089   7.203  0.5091 -0.4319  0.6683
 6538SOL     OW31075   0.907   4.303   6.479 -0.2924  0.2711  0.0672
 6538SOL    HW131076   0.920   4.290   6.385 -1.7401 -1.0370  0.0423
 6538SOL    HW231077   0.811   4.299   6.487 -0.3495  2.7550  0.8531
 6539SOL     OW31078   3.702   3.107   2.554  0.0675 -0.2341  0.1081
 6539SOL    HW131079   3.674   3.105   2.646  1.7479  1.2507  0.6603
 6539SOL    HW231080   3.796   3.103   2.574  0.1175  1.2844  0.1410
 6540SOL     OW31081   0.492   0.234   5.796  0.2741  0.1864  0.0190
 6540SOL    HW131082   0.407   0.260   5.833 -1.3052 -1.2699 -2.6263
 6540SOL    HW231083   0.528   0.200   5.878 -0.0497  0.2554  0.1916
 6541SOL     OW31084   4.494   0.048  17.431  0.0951 -0.6697  0.1208
 6541SOL    HW131085   4.460   4.711  17.366 -2.4631  0.4797  0.3798
 6541SOL    HW231086   4.428   0.117  17.434  1.3470  0.5689 -0.7667
 6542SOL     OW31087   0.561   4.323   5.486 -0.3203 -0.1180 -0.0626
 6542SOL    HW131088   0.597   4.239   5.514  2.0684  0.0607 -2.5347
 6542SOL    HW231089   0.600   4.326   5.398  0.5594 -0.1887  0.3160
 6543SOL     OW31090   2.365   0.472  15.180  0.5858 -0.1645  0.0876
 6543SOL    HW131091   2.454   0.465  15.216  0.4263  0.1475  0.5325
 6543SOL    HW231092   2.312   0.504  15.253 -0.9574 -0.1313 -1.0574
 6544SOL     OW31093   1.635   0.338   2.138 -0.1849 -0.0912 -0.4281
 6544SOL    HW131094   1.576   0.280   2.090  2.0275 -1.2345 -1.7459
 6544SOL    HW231095   1.632   0.418   2.085 -0.6882  0.9053  1.0891
 6545SOL     OW31096   4.381   2.749   6.228 -0.2155  0.4778 -0.4843
 6545SOL    HW131097   4.426   2.710   6.153 -0.9377 -1.2353 -0.0045
 6545SOL    HW231098   4.402   2.694   6.303 -1.7585 -1.0600 -1.1753
 6546SOL     OW31099   0.858   1.948  11.988 -0.0473 -0.4953  0.1428
 6546SOL    HW131100   0.838   2.022  12.045  0.9840 -1.5041  1.8306
 6546SOL    HW231101   0.928   1.912  12.043 -1.9964 -0.9066  2.3213
 6547SOL     OW31102   3.719   0.460  11.938 -0.1244 -0.0386 -0.1182
 6547SOL    HW131103   3.635   0.431  11.974  0.6076 -3.2985 -1.0511
 6547SOL    HW231104   3.775   0.431  12.009  1.3335  0.6914 -0.9677
 6548SOL     OW31105   4.229   0.886   7.361  0.1318  0.4218 -0.8650
 6548SOL    HW131106   4.244   0.928   7.445 -2.2436 -0.6221  0.0639
 6548SOL    HW231107   4.165   0.936   7.310 -0.1953 -0.1540 -1.0180
 6549SOL     OW31108   1.744   3.490   3.942 -0.8318  0.6587  0.5145
 6549SOL    HW131109   1.736   3.430   4.016  0.1029  1.5841  1.3545
 6549SOL    HW231110   1.667   3.462   3.892  0.6424 -0.3740 -1.1363
 6550SOL     OW31111   4.401   2.044   8.112  0.3064 -0.6918  0.0220
 6550SOL    HW131112   4.484   2.086   8.136 -0.0912  0.1574 -0.0745
 6550SOL    HW231113   4.376   1.993   8.189 -1.4636  0.2734  0.0930
 6551SOL     OW31114   1.091   1.247   9.143  0.0946 -0.3045  0.3448
 6551SOL    HW131115   1.005   1.278   9.116  0.2361 -1.2703 -1.2202
 6551SOL    HW231116   1.142   1.247   9.061 -0.1252 -1.2367  0.2146
 6552SOL     OW31117   0.333   1.533   9.353  0.5286  0.3155  0.3802
 6552SOL    HW131118   0.375   1.514   9.437 -0.5228 -0.4659  0.7351
 6552SOL    HW231119   0.409   1.528   9.296  0.7364  2.0286  0.5061
 6553SOL     OW31120   1.744   1.970   8.800 -0.4865 -0.0018  0.1659
 6553SOL    HW131121   1.814   2.022   8.839  1.3159 -0.3730 -2.5067
 6553SOL    HW231122   1.788   1.886   8.786  1.5876  1.4827 -2.1982
 6554SOL     OW31123   2.419   3.935   2.160 -0.4079  0.0855 -0.4545
 6554SOL    HW131124   2.495   3.934   2.102 -0.3440 -1.3127 -0.3336
 6554SOL    HW231125   2.397   4.028   2.165  0.3709  0.2986 -0.9391
 6555SOL     OW31126   2.628   3.365   3.718  1.2821  0.6559 -0.4933
 6555SOL    HW131127   2.722   3.349   3.710  1.6502  2.1860  0.7549
 6555SOL    HW231128   2.603   3.277   3.745  0.8845  0.6491 -0.8736
 6556SOL     OW31129   4.497   3.553   7.224 -0.1372  0.5320  0.2791
 6556SOL    HW131130   4.452   3.562   7.308  0.7099  0.7202  0.7184
 6556SOL    HW231131   4.580   3.515   7.254 -1.5569 -1.2573  1.9264
 6557SOL     OW31132   1.627   3.303   6.531 -0.7860 -0.6282  0.6736
 6557SOL    HW131133   1.676   3.248   6.471 -2.4834 -1.7222  0.2930
 6557SOL    HW231134   1.659   3.388   6.503 -2.6069  0.2891  1.3518
 6558SOL     OW31135   2.685   0.748   4.456 -0.2273 -0.2344 -0.1029
 6558SOL    HW131136   2.594   0.718   4.464  0.3853 -2.1605 -0.1944
 6558SOL    HW231137   2.730   0.688   4.516 -1.2121 -0.8396  0.0532
 6559SOL     OW31138   4.413   4.576   3.022  0.3708  0.3019 -0.1953
 6559SOL    HW131139   4.422   4.482   3.009  0.3777  0.5550 -2.0801
 6559SOL    HW231140   4.320   4.582   3.041 -0.3597  0.6198 -3.9172
 6560SOL     OW31141   2.111   3.935  16.314  0.2274  0.1779 -0.1595
 6560SOL    HW131142   2.110   3.839  16.309 -0.8843  0.1252  0.9444
 6560SOL    HW231143   2.035   3.959  16.260 -1.0618 -1.8251  0.7589
 6561SOL     OW31144   4.488   2.807   8.180 -0.1782  0.1795 -0.2214
 6561SOL    HW131145   4.568   2.853   8.205  1.0763 -2.7923  1.1951
 6561SOL    HW231146   4.511   2.745   8.111 -0.3782  0.3423 -0.4353
 6562SOL     OW31147   4.179   0.775  10.683 -0.2626 -0.2030 -0.0891
 6562SOL    HW131148   4.100   0.804  10.639 -1.1496 -1.3577  0.7423
 6562SOL    HW231149   4.152   0.790  10.774  0.6716 -0.2177  0.1934
 6563SOL     OW31150   2.196   2.146   4.201 -0.2694  0.3458 -0.0399
 6563SOL    HW131151   2.269   2.191   4.243  1.5862 -2.0117 -0.7125
 6563SOL    HW231152   2.123   2.166   4.259  0.6124  2.1587  0.4500
 6564SOL     OW31153   1.903   0.098   0.663  0.0911  0.7063 -0.2067
 6564SOL    HW131154   1.886   0.130   0.751 -0.8078  0.7011 -0.3818
 6564SOL    HW231155   1.891   0.004   0.676 -0.0456  0.9196  1.1873
 6565SOL     OW31156   4.565   3.812   8.927  0.3627 -0.1372  0.1273
 6565SOL    HW131157   4.642   3.765   8.894  0.5337  0.9351 -0.9757
 6565SOL    HW231158   4.499   3.751   8.894  0.1730 -1.3500  2.6987
 6566SOL     OW31159   0.910   4.217   7.459 -0.3703 -0.0568 -0.0859
 6566SOL    HW131160   0.878   4.155   7.393  0.0001 -1.7150  1.2812
 6566SOL    HW231161   1.003   4.198   7.468 -0.2069  1.6221  1.8136
 6567SOL     OW31162   1.021   2.242  16.773 -0.1503  0.3192 -0.1562
 6567SOL    HW131163   1.089   2.176  16.759 -2.1404 -1.8093  0.3882
 6567SOL    HW231164   1.000   2.227  16.865 -2.9772  0.3713 -0.7765
 6568SOL     OW31165   4.381   1.957  15.627  0.5010 -0.2280 -0.6054
 6568SOL    HW131166   4.328   1.966  15.548  0.9726  2.4736 -0.6044
 6568SOL    HW231167   4.471   1.981  15.606  1.0889 -0.3254  1.8070
 6569SOL     OW31168   1.825   4.512   9.440  0.2770 -0.0847 -0.0673
 6569SOL    HW131169   1.839   4.519   9.534 -1.4543  0.5321  0.1334
 6569SOL    HW231170   1.776   4.594   9.431  2.0561  1.0672  0.6443
 6570SOL     OW31171   4.390   1.490   5.818  0.2943 -0.2758 -0.5142
 6570SOL    HW131172   4.459   1.456   5.761  0.5169 -1.8476  0.6806
 6570SOL    HW231173   4.399   1.585   5.806 -0.8086 -0.1664 -0.4539
 6571SOL     OW31174   0.132   4.348   9.715  0.2274  0.4238  0.2616
 6571SOL    HW131175   0.187   4.313   9.786 -1.3949 -0.2954  1.1775
 6571SOL    HW231176   0.188   4.334   9.639 -2.6389 -0.5939 -1.6289
 6572SOL     OW31177   2.876   1.107   3.645 -0.1778 -0.3818 -0.0905
 6572SOL    HW131178   2.889   1.012   3.651 -0.0424 -0.4206 -0.9471
 6572SOL    HW231179   2.781   1.107   3.658 -0.2645  1.1785 -0.6941
 6573SOL     OW31180   4.051   0.627   5.137  0.3570 -0.7945  0.1380
 6573SOL    HW131181   3.962   0.595   5.122  0.4973 -1.1176  0.0106
 6573SOL    HW231182   4.043   0.722   5.125 -1.6228 -0.8129  1.2881
 6574SOL     OW31183   2.634   0.087   1.856  0.1272 -0.1815 -0.1297
 6574SOL    HW131184   2.639   0.166   1.911  0.6782 -0.1203 -0.2654
 6574SOL    HW231185   2.667   0.028   1.924  0.5151 -0.1878 -0.3186
 6575SOL     OW31186   3.079   1.636   1.152  0.0292 -0.4229  0.8764
 6575SOL    HW131187   3.008   1.603   1.097  0.1391 -0.4792  0.7697
 6575SOL    HW231188   3.045   1.718   1.187  1.1621  0.1909  0.5313
 6576SOL     OW31189   0.043   2.460   5.569  0.4613  0.3879  0.3946
 6576SOL    HW131190   0.001   2.505   5.642  1.7593  1.6266  0.3936
 6576SOL    HW231191   0.100   2.394   5.608 -0.3642 -1.5517 -1.7125
 6577SOL     OW31192   2.202   2.856   4.131 -0.2132 -0.5133 -0.0748
 6577SOL    HW131193   2.119   2.833   4.174  0.2147  0.5339  1.2996
 6577SOL    HW231194   2.251   2.909   4.193 -1.0589 -1.7768  1.6648
 6578SOL     OW31195   1.015   3.199   3.305 -0.3136 -0.2978  0.0073
 6578SOL    HW131196   0.984   3.251   3.379  1.5255 -0.7905  1.1270
 6578SOL    HW231197   1.080   3.143   3.346 -1.2181 -1.7032 -0.4922
 6579SOL     OW31198   2.914   4.290   2.269 -0.8978  0.1514 -0.2262
 6579SOL    HW131199   2.896   4.197   2.254 -1.6988 -0.0140  1.6728
 6579SOL    HW231200   2.831   4.319   2.230 -1.3053  1.7635  1.8045
 6580SOL     OW31201   2.972   3.252   2.115 -0.4234  0.6186 -0.0805
 6580SOL    HW131202   3.040   3.204   2.068 -1.5898  0.5485 -1.6944
 6580SOL    HW231203   2.900   3.189   2.109  1.8714 -1.6976 -2.9224
 6581SOL     OW31204   4.388   4.617   7.916  0.4497 -0.1329  0.3656
 6581SOL    HW131205   4.429   4.656   7.839 -0.7487  0.9711  0.2882
 6581SOL    HW231206   4.455   4.608   7.984  0.3071 -0.7476  0.4252
 6582SOL     OW31207   3.439   2.783  10.485 -0.1979  0.4755  0.3118
 6582SOL    HW131208   3.471   2.871  10.466 -0.3777  0.0885 -1.7538
 6582SOL    HW231209   3.347   2.807  10.486  0.2500  2.1554  1.5139
 6583SOL     OW31210   1.517   2.012   5.192 -0.3533  0.0646  0.3720
 6583SOL    HW131211   1.569   2.034   5.270 -0.5071 -0.5685  0.6589
 6583SOL    HW231212   1.462   1.943   5.229  1.1081 -1.9469 -1.2012
 6584SOL     OW31213   1.227   2.057   7.895  0.0630 -0.2537 -0.7116
 6584SOL    HW131214   1.202   2.080   7.805 -0.0156  0.6152 -0.4600
 6584SOL    HW231215   1.321   2.077   7.888 -0.2274  1.4138  0.2710
 6585SOL     OW31216   0.235   2.424   2.856  0.4235 -0.5978 -0.1074
 6585SOL    HW131217   0.216   2.416   2.763 -1.5656 -1.6829  0.4019
 6585SOL    HW231218   0.253   2.518   2.860 -0.7541 -0.3359 -1.1049
 6586SOL     OW31219   4.682   1.175  16.006 -0.6350 -0.1627  0.2454
 6586SOL    HW131220   4.631   1.149  15.929 -0.7696  0.2386  0.2032
 6586SOL    HW231221   4.693   1.269  15.994 -0.5043 -0.3119 -0.8412
 6587SOL     OW31222   2.013   4.490   3.117  0.0525  0.5262 -0.0349
 6587SOL    HW131223   2.085   4.428   3.123 -1.4711 -1.3470 -1.0225
 6587SOL    HW231224   2.033   4.527   3.031 -2.6247  2.2850  0.0741
 6588SOL     OW31225   2.891   4.204   7.765 -0.2929 -0.1775 -0.4851
 6588SOL    HW131226   2.829   4.269   7.798  0.3165  1.0909 -1.8607
 6588SOL    HW231227   2.951   4.210   7.840  0.9231 -0.2798 -1.4584
 6589SOL     OW31228   0.575   1.808  12.058  0.7709 -0.3740  0.1402
 6589SOL    HW131229   0.520   1.739  12.022 -0.3224 -0.3108  1.7189
 6589SOL    HW231230   0.527   1.887  12.032  1.7105  0.6399  1.4891
 6590SOL     OW31231   2.053   0.875   2.636  0.6947 -0.1712  0.4792
 6590SOL    HW131232   2.087   0.945   2.580  1.0464  0.0952  1.0321
 6590SOL    HW231233   1.976   0.847   2.586  0.4228  0.5089  0.5105
 6591SOL     OW31234   1.768   0.827   1.966  0.0475  0.1516  0.5429
 6591SOL    HW131235   1.716   0.892   2.014  0.4467 -0.7147  2.1373
 6591SOL    HW231236   1.806   0.874   1.892  0.0106  2.4447  1.9919
 6592SOL     OW31237   4.448   1.662  10.479 -0.0517  0.1923  0.0213
 6592SOL    HW131238   4.425   1.573  10.506  1.3394 -0.8285 -2.1905
 6592SOL    HW231239   4.358   1.694  10.487  0.5399  2.1764 -1.3281
 6593SOL     OW31240   2.818   2.069   8.429 -0.8325 -0.6154  0.2190
 6593SOL    HW131241   2.833   2.163   8.420  1.8636 -1.0794 -0.0053
 6593SOL    HW231242   2.889   2.034   8.376  0.4217  1.3519  0.6239
 6594SOL     OW31243   2.176   1.748   8.705 -0.0685  0.8574 -0.1794
 6594SOL    HW131244   2.143   1.800   8.779  1.1166  2.0077 -0.4500
 6594SOL    HW231245   2.258   1.796   8.690  1.4893 -1.9266 -0.5050
 6595SOL     OW31246   0.114   1.200   7.407 -0.0766  0.2529  0.0295
 6595SOL    HW131247   0.174   1.260   7.363  0.3591  1.4517  2.2764
 6595SOL    HW231248   0.113   1.235   7.496 -1.1751 -0.0795  0.1546
 6596SOL     OW31249   4.714   0.996   8.647  0.3438 -0.0266  0.4883
 6596SOL    HW131250   4.628   0.956   8.633  0.5731 -0.8365  1.4102
 6596SOL    HW231251   0.037   0.953   8.575 -0.1788 -0.9241  0.6790
 6597SOL     OW31252   2.230   3.028  11.255 -0.1965  0.1182  0.6698
 6597SOL    HW131253   2.136   3.024  11.272 -0.2821 -0.8004  0.0172
 6597SOL    HW231254   2.245   3.122  11.248 -1.0797  0.3224  1.5046
 6598SOL     OW31255   2.731   3.594   1.270  0.1906 -0.5915  0.2903
 6598SOL    HW131256   2.707   3.523   1.330  1.7699  0.7429  2.4693
 6598SOL    HW231257   2.807   3.631   1.314 -1.5286  1.0734  1.8620
 6599SOL     OW31258   0.396   2.767   7.570 -0.0561  0.6651  0.0583
 6599SOL    HW131259   0.342   2.817   7.509 -1.2223  0.8847  1.2554
 6599SOL    HW231260   0.482   2.774   7.529 -0.2954  0.1046 -0.5380
 6600SOL     OW31261   0.840   1.701   6.168 -0.1228 -0.4523 -0.4395
 6600SOL    HW131262   0.754   1.732   6.194 -1.5299 -3.9130 -0.9378
 6600SOL    HW231263   0.889   1.766   6.218 -1.3699  0.3608 -0.2902
 6601SOL     OW31264   0.373   3.515   8.320 -0.1632  0.2933  0.4889
 6601SOL    HW131265   0.413   3.501   8.235  1.5232  0.7469  1.2012
 6601SOL    HW231266   0.400   3.604   8.342 -0.2803  1.1129 -2.7581
 6602SOL     OW31267   3.696   0.560   9.060  0.7439  0.1790  0.1623
 6602SOL    HW131268   3.732   0.597   9.140  1.2135  2.6152 -1.1981
 6602SOL    HW231269   3.624   0.623   9.050  0.2150 -0.5476 -0.6432
 6603SOL     OW31270   4.347   2.817  16.662 -0.6782 -0.5375 -0.5637
 6603SOL    HW131271   4.421   2.875  16.682  0.2472 -1.9119 -0.0443
 6603SOL    HW231272   4.369   2.746  16.722  0.3822  0.7928  0.6392
 6604SOL     OW31273   0.196   2.810   8.032  0.9924  0.4421  0.0544
 6604SOL    HW131274   0.223   2.752   7.961  0.0313  1.0991 -0.8532
 6604SOL    HW231275   0.221   2.895   7.995  0.2680  1.0903  1.0541
 6605SOL     OW31276   1.603   1.801   7.830  0.3485 -0.2619 -0.4439
 6605SOL    HW131277   1.516   1.794   7.868  1.8767 -0.5287  3.0257
 6605SOL    HW231278   1.658   1.804   7.908 -0.9081 -0.5616  0.4372
 6606SOL     OW31279   3.065   1.905   0.858  0.1037  0.4552 -0.2680
 6606SOL    HW131280   3.121   1.869   0.927 -0.8418  0.8784  0.7282
 6606SOL    HW231281   2.976   1.895   0.890 -0.4375  1.4927 -1.4343
 6607SOL     OW31282   3.677   4.563  17.013 -0.3373  0.1682 -1.0627
 6607SOL    HW131283   3.586   4.582  17.035  0.0177  1.2389 -0.5161
 6607SOL    HW231284   3.710   4.577  17.102 -2.0460  0.0344 -0.4153
 6608SOL     OW31285   0.359   1.373   7.035 -0.5755  0.2149 -0.0505
 6608SOL    HW131286   0.448   1.337   7.037 -1.3490 -1.5678  1.3052
 6608SOL    HW231287   0.331   1.340   6.949  1.8256 -0.8905 -0.4212
 6609SOL     OW31288   3.798   0.539   2.438  0.1731  0.4016 -0.5476
 6609SOL    HW131289   3.867   0.553   2.503 -0.0161  1.6219 -0.6201
 6609SOL    HW231290   3.812   0.446   2.419  0.7612  0.7948 -2.0251
 6610SOL     OW31291   4.238   3.014   3.665  1.0281  0.2227  0.0212
 6610SOL    HW131292   4.174   2.944   3.649  1.9794 -0.2816 -1.5663
 6610SOL    HW231293   4.201   3.064   3.738 -0.2976  0.2074 -0.6221
 6611SOL     OW31294   2.307   0.500   2.392 -0.4551  0.0976  0.1328
 6611SOL    HW131295   2.394   0.461   2.390 -0.2626  0.6237 -1.4109
 6611SOL    HW231296   2.290   0.491   2.486  1.3106 -1.0112  0.3593
 6612SOL     OW31297   1.495   0.219   7.268 -0.5654 -0.4494  0.1379
 6612SOL    HW131298   1.510   0.313   7.281 -1.6387 -0.2640  0.0283
 6612SOL    HW231299   1.584   0.187   7.283 -0.1169 -0.4735 -2.6160
 6613SOL     OW31300   4.347   3.854   5.618 -0.4968 -1.0417  0.0356
 6613SOL    HW131301   4.301   3.803   5.551 -1.3448  0.7263 -0.7218
 6613SOL    HW231302   4.277   3.919   5.628  1.9083  1.4428  0.7714
 6614SOL     OW31303   3.646   1.089  10.509 -0.0890 -0.4549 -0.7388
 6614SOL    HW131304   3.593   1.021  10.468 -0.4632 -1.3345  1.2162
 6614SOL    HW231305   3.664   1.045  10.591 -0.1244 -0.0357 -0.5048
 6615SOL     OW31306   2.345   4.082  15.286 -0.4585 -0.1048  0.6475
 6615SOL    HW131307   2.344   4.068  15.191  1.0157 -0.1755  0.6523
 6615SOL    HW231308   2.431   4.112  15.314 -0.5078  1.5159 -0.9121
 6616SOL     OW31309   4.396   3.794   8.067 -0.3529 -0.3183  0.6571
 6616SOL    HW131310   4.303   3.818   8.071 -0.0460  0.9319  0.0695
 6616SOL    HW231311   4.385   3.701   8.088  1.9730 -0.9941 -1.0552
 6617SOL     OW31312   3.208   3.123   6.841 -0.1157  0.1673  0.9749
 6617SOL    HW131313   3.203   3.137   6.935 -1.3212 -0.3881  0.9892
 6617SOL    HW231314   3.165   3.202   6.809 -1.0655 -0.4134  0.8296
 6618SOL     OW31315   2.878   3.490  14.928 -0.7768 -0.3748  0.4953
 6618SOL    HW131316   2.892   3.400  14.959 -0.6328  0.2270  2.1555
 6618SOL    HW231317   2.943   3.505  14.859 -0.0203  1.5208  1.6244
 6619SOL     OW31318   1.591   3.974   5.044 -0.5288  0.6268 -0.0157
 6619SOL    HW131319   1.566   4.060   5.078 -0.5874  1.2152 -1.5455
 6619SOL    HW231320   1.686   3.987   5.033 -0.5824  0.4692 -0.6262
 6620SOL     OW31321   3.444   0.310  10.346 -0.5754  0.1626 -0.2645
 6620SOL    HW131322   3.538   0.301  10.360 -0.9583 -4.0612 -0.4695
 6620SOL    HW231323   3.434   0.405  10.342 -3.8834 -0.2448 -1.6006
 6621SOL     OW31324   0.184   3.187   4.098  0.4080 -0.3685 -0.1806
 6621SOL    HW131325   0.200   3.139   4.017  2.9111  0.7426 -0.3170
 6621SOL    HW231326   0.138   3.118   4.146  0.1985 -0.4505 -0.4963
 6622SOL     OW31327   3.465   3.459   8.458 -0.2302 -0.6233  0.0907
 6622SOL    HW131328   3.534   3.503   8.407  0.0931 -1.5672 -0.2915
 6622SOL    HW231329   3.457   3.509   8.539 -0.0489  0.2222 -0.4140
 6623SOL     OW31330   0.447   4.022   3.420  0.5360 -0.3278 -0.1810
 6623SOL    HW131331   0.390   3.957   3.379 -1.3365  1.2514 -0.1218
 6623SOL    HW231332   0.531   3.979   3.408  1.9311  1.8553  1.8436
 6624SOL     OW31333   2.758   4.040   7.211  0.4205  0.2227 -0.1102
 6624SOL    HW131334   2.697   3.981   7.255  0.3872 -0.1946 -0.7106
 6624SOL    HW231335   2.738   4.123   7.254 -1.6491 -1.6867  2.5720
 6625SOL     OW31336   1.919   1.542  15.819  0.4061 -0.4088 -0.7129
 6625SOL    HW131337   1.895   1.480  15.750  1.8446 -1.7994  0.0408
 6625SOL    HW231338   1.932   1.486  15.896  0.6728 -2.2196 -2.0722
 6626SOL     OW31339   4.262   1.197  11.226  0.3896  0.1906  0.1690
 6626SOL    HW131340   4.191   1.221  11.285 -1.3160  1.6348 -2.5141
 6626SOL    HW231341   4.206   1.168  11.154  1.1908  1.3101 -0.8991
 6627SOL     OW31342   3.532   1.682  16.632  0.2352 -0.9356  0.0861
 6627SOL    HW131343   3.455   1.734  16.656  0.8654  0.0110  0.0883
 6627SOL    HW231344   3.595   1.754  16.628 -0.6376 -0.1314  0.6918
 6628SOL     OW31345   3.024   3.154   7.221 -0.2926  0.4383 -1.0174
 6628SOL    HW131346   3.086   3.107   7.277 -1.9530 -3.6651 -2.6520
 6628SOL    HW231347   3.090   3.210   7.180  0.3412 -0.6366 -1.4542
 6629SOL     OW31348   1.772   4.213  12.726  0.4081 -0.3095  0.1755
 6629SOL    HW131349   1.842   4.156  12.755  1.5280  0.6917 -0.5330
 6629SOL    HW231350   1.711   4.145  12.699 -0.4006  0.2335  0.6229
 6630SOL     OW31351   1.474   4.027   8.516  0.0278  0.6726  0.2651
 6630SOL    HW131352   1.392   3.977   8.511  0.5516 -0.1144 -0.2752
 6630SOL    HW231353   1.496   4.015   8.609  1.0081  0.6749  0.0291
 6631SOL     OW31354   2.063   3.119   6.387  0.1302  0.5196  1.0573
 6631SOL    HW131355   2.049   3.090   6.296  0.3625  1.6859  0.6529
 6631SOL    HW231356   2.052   3.214   6.377  1.9841  0.2548 -3.5335
 6632SOL     OW31357   1.360   2.811   5.585 -0.0702  0.3389  0.1879
 6632SOL    HW131358   1.323   2.756   5.655 -0.5329  0.2402 -0.1326
 6632SOL    HW231359   1.454   2.796   5.597  0.4650  1.0390 -3.2127
 6633SOL     OW31360   2.029   0.197   0.248  0.2798  0.0225  0.1973
 6633SOL    HW131361   1.939   0.206   0.281  0.3308  1.6609 -0.1360
 6633SOL    HW231362   2.076   0.274   0.280  1.7908 -0.5381 -0.6686
 6634SOL     OW31363   2.808   2.323   4.080  0.0186 -0.0968  0.3803
 6634SOL    HW131364   2.767   2.316   4.166 -1.3398  1.8526 -0.1151
 6634SOL    HW231365   2.891   2.363   4.108  0.7946 -0.1212 -1.9211
 6635SOL     OW31366   3.572   0.527  12.233 -0.5798 -0.4039 -0.0309
 6635SOL    HW131367   3.578   0.539  12.328 -0.4251 -0.0153 -0.0893
 6635SOL    HW231368   3.631   0.599  12.210 -0.5706 -1.1826 -2.4527
 6636SOL     OW31369   0.775   0.134   5.416 -0.4443  0.6175  0.2663
 6636SOL    HW131370   0.737   0.144   5.329  0.3508 -0.6948 -0.2204
 6636SOL    HW231371   0.719   0.203   5.453  0.1210  1.8954 -1.2671
 6637SOL     OW31372   1.143   0.338  17.083  0.8164 -0.0430 -0.2206
 6637SOL    HW131373   1.140   0.386  17.000  0.2964 -0.2580 -0.3280
 6637SOL    HW231374   1.224   0.381  17.112  1.0719 -0.1186 -0.8069
 6638SOL     OW31375   4.336   4.668   3.328  0.2571  0.1401 -0.4148
 6638SOL    HW131376   4.301   0.027   3.296  0.9709  1.3061  1.8574
 6638SOL    HW231377   4.255   4.617   3.321 -0.5493  1.4264 -0.4497
 6639SOL     OW31378   1.361   3.187  17.449  0.6576 -0.6281 -0.3973
 6639SOL    HW131379   1.346   3.115  17.510  1.4310 -1.8999 -1.6888
 6639SOL    HW231380   1.303   3.252  17.488 -0.7148 -0.9700 -1.8448
 6640SOL     OW31381   1.023   0.864   3.231 -0.5478  0.9678 -0.3087
 6640SOL    HW131382   0.955   0.878   3.165 -0.6911  0.0398 -0.3640
 6640SOL    HW231383   1.045   0.952   3.261  0.7278  1.1479 -1.7924
 6641SOL     OW31384   0.808   2.053   4.215 -0.5844 -0.3868  0.4581
 6641SOL    HW131385   0.817   1.995   4.290  0.4468 -1.8923 -0.8332
 6641SOL    HW231386   0.779   2.137   4.252 -0.8949 -0.6131  0.7245
 6642SOL     OW31387   2.408   2.995   2.347 -0.5835 -0.2331  0.1945
 6642SOL    HW131388   2.469   2.921   2.349  3.5977  3.1994 -0.5024
 6642SOL    HW231389   2.328   2.943   2.342  0.0209 -1.1526  0.0616
 6643SOL     OW31390   1.476   1.700  10.849  0.3438  0.4174 -0.4415
 6643SOL    HW131391   1.463   1.795  10.850  1.7819  0.6289 -2.2389
 6643SOL    HW231392   1.393   1.668  10.885  0.2468 -0.2781 -1.2834
 6644SOL     OW31393   2.355   2.484   6.770 -0.4347  0.1084  0.1530
 6644SOL    HW131394   2.398   2.549   6.825  0.2902 -1.4753  1.4669
 6644SOL    HW231395   2.371   2.519   6.682 -1.8384 -0.1861 -0.2213
 6645SOL     OW31396   3.951   0.770   0.925  0.1077  0.0865 -0.0597
 6645SOL    HW131397   3.983   0.779   1.014 -1.6640  2.0387  0.3909
 6645SOL    HW231398   3.955   0.861   0.898  0.8482  0.3403  0.9185
 6646SOL     OW31399   1.354   3.669  15.190  0.1267  0.1783 -0.4047
 6646SOL    HW131400   1.439   3.636  15.218 -1.2296 -3.4347 -0.5087
 6646SOL    HW231401   1.291   3.610  15.233  2.1650 -1.5032  0.2560
 6647SOL     OW31402   2.417   2.562   9.112  0.3649  0.2018  0.6427
 6647SOL    HW131403   2.400   2.516   9.194  0.0528  0.9347  0.9903
 6647SOL    HW231404   2.436   2.647   9.152 -2.7207  2.0979 -1.9760
 6648SOL     OW31405   2.199   1.390   8.127  0.2209  0.3044  0.6086
 6648SOL    HW131406   2.281   1.418   8.087 -0.8624  2.4974 -0.0371
 6648SOL    HW231407   2.160   1.476   8.143 -0.0655  0.3996 -0.5634
 6649SOL     OW31408   4.262   0.905   2.330  0.2599 -0.6545  0.1727
 6649SOL    HW131409   4.175   0.875   2.305  0.1708  1.1684 -1.6822
 6649SOL    HW231410   4.282   0.838   2.396  0.7384  0.2855  0.9816
 6650SOL     OW31411   4.561   0.922   7.249  0.0685 -0.5625 -0.5953
 6650SOL    HW131412   4.519   0.926   7.163 -1.0565  1.4692  0.0444
 6650SOL    HW231413   4.652   0.893   7.243  0.7214  0.7638  2.7955
 6651SOL     OW31414   2.285   4.453   0.102 -0.0711  0.4430 -0.4889
 6651SOL    HW131415   2.219   4.396   0.142  0.2957  0.3893  0.0264
 6651SOL    HW231416   2.303   4.521   0.167 -1.2070  0.4702 -0.2053
 6652SOL     OW31417   3.612   3.401   2.958  0.5997 -0.7240 -0.6786
 6652SOL    HW131418   3.518   3.387   2.963  0.5070  0.2398  0.4680
 6652SOL    HW231419   3.614   3.483   2.910 -3.9834 -1.8319 -2.7744
 6653SOL     OW31420   1.247   2.574   7.034 -0.0287  0.4273  0.4027
 6653SOL    HW131421   1.321   2.551   7.091 -0.4159  1.3303  1.2501
 6653SOL    HW231422   1.209   2.636   7.095 -0.0736 -1.2390  2.0590
 6654SOL     OW31423   3.978   3.260   5.873  0.0063 -0.2236  0.4891
 6654SOL    HW131424   3.899   3.255   5.819  0.1476  0.2370  0.2369
 6654SOL    HW231425   4.046   3.216   5.822  2.2336  1.1778  2.2360
 6655SOL     OW31426   1.134   3.696   5.835  0.5117 -0.1623  0.4704
 6655SOL    HW131427   1.161   3.635   5.767 -3.6692 -0.0373 -1.2827
 6655SOL    HW231428   1.064   3.640   5.867  1.6162 -2.9139 -2.0109
 6656SOL     OW31429   2.201   2.486   8.988 -0.5058  0.1645 -0.1331
 6656SOL    HW131430   2.213   2.399   9.026  0.4607  0.9278  1.3156
 6656SOL    HW231431   2.280   2.525   9.023 -1.3109  0.3465  1.4902
 6657SOL     OW31432   2.155   4.426  11.600  0.1250  0.1257 -0.1058
 6657SOL    HW131433   2.065   4.459  11.593  0.2162  0.6227  1.0489
 6657SOL    HW231434   2.149   4.336  11.569  2.1103 -0.5426  1.4448
 6658SOL     OW31435   2.661   0.581   8.430 -0.2442  0.1156 -0.0960
 6658SOL    HW131436   2.601   0.651   8.459 -1.2028  0.1699 -2.2237
 6658SOL    HW231437   2.654   0.520   8.504 -0.9241  2.0577  1.4664
 6659SOL     OW31438   2.234   0.392   0.798  0.3472 -0.6917 -0.9262
 6659SOL    HW131439   2.222   0.300   0.822 -2.4132  0.3034  1.4999
 6659SOL    HW231440   2.329   0.377   0.794  0.7635  1.7692 -0.0548
 6660SOL     OW31441   0.639   2.442   5.827 -0.6392  0.6527 -0.3027
 6660SOL    HW131442   0.643   2.366   5.886 -2.5427  1.6493  1.0939
 6660SOL    HW231443   0.733   2.456   5.815 -0.4414  0.5086  1.0031
 6661SOL     OW31444   2.290   0.792   6.291 -0.4476 -0.7144 -0.4462
 6661SOL    HW131445   2.339   0.734   6.350 -0.1941 -2.0307 -1.9581
 6661SOL    HW231446   2.327   0.880   6.296 -0.4692 -0.7762  0.8106
 6662SOL     OW31447   0.030   0.037   1.240 -0.4199  0.5293 -0.3676
 6662SOL    HW131448   4.696   0.007   1.310  2.9800 -2.0378  1.3822
 6662SOL    HW231449   4.715   0.006   1.158  0.6938  1.5954 -1.3022
 6663SOL     OW31450   0.431   2.335   4.017 -0.0213 -0.1773  0.2667
 6663SOL    HW131451   0.438   2.370   4.106  1.1522 -1.6908  0.7628
 6663SOL    HW231452   0.426   2.417   3.968  0.8225 -1.4546 -1.9565
 6664SOL     OW31453   1.518   1.789   4.371 -0.5162 -0.3412  0.3278
 6664SOL    HW131454   1.610   1.793   4.347 -0.4996  0.8767  0.6025
 6664SOL    HW231455   1.477   1.837   4.299  2.0123 -0.3403 -1.0923
 6665SOL     OW31456   2.206   1.107  17.294 -0.4660 -0.1936  0.3698
 6665SOL    HW131457   2.246   1.035  17.343  2.4704  1.1397 -0.0569
 6665SOL    HW231458   2.191   1.070  17.207  1.4267  0.0716 -0.0826
 6666SOL     OW31459   2.135   3.869  10.050 -0.3193 -0.4747 -0.0777
 6666SOL    HW131460   2.190   3.901  10.121 -0.8848  0.8036 -0.2124
 6666SOL    HW231461   2.060   3.835  10.097 -0.2814  0.1636  0.4425
 6667SOL     OW31462   1.242   0.149   2.654  0.0179 -0.1613 -0.4384
 6667SOL    HW131463   1.183   0.141   2.729  0.3266 -2.3476 -0.4393
 6667SOL    HW231464   1.280   0.236   2.665 -0.3943  0.1011 -1.1117
 6668SOL     OW31465   0.449   3.555  10.719  0.0314 -0.0814  0.5216
 6668SOL    HW131466   0.461   3.470  10.677 -0.9507  0.5337 -1.0041
 6668SOL    HW231467   0.517   3.608  10.677 -1.9776  1.2976 -0.9839
 6669SOL     OW31468   0.694   3.646   8.632 -0.1122  0.1034 -0.3135
 6669SOL    HW131469   0.671   3.653   8.724 -0.7717 -1.2885 -0.3621
 6669SOL    HW231470   0.788   3.653   8.620 -0.1304  0.6909 -0.0951
 6670SOL     OW31471   0.522   4.425   4.014  0.3769 -0.7420  0.2794
 6670SOL    HW131472   0.459   4.357   3.991  0.7251 -0.3562 -1.8945
 6670SOL    HW231473   0.517   4.472   3.930 -1.6740 -0.4370  0.5629
 6671SOL     OW31474   3.150   2.558  16.991 -0.6430 -0.8014  0.6119
 6671SOL    HW131475   3.144   2.653  16.993  1.8665 -0.6229 -0.3557
 6671SOL    HW231476   3.147   2.538  16.897 -0.9328 -0.3138  0.5185
 6672SOL     OW31477   3.848   3.818   8.446 -0.1760 -0.5994 -0.9560
 6672SOL    HW131478   3.853   3.768   8.528 -1.2667  0.1621 -0.4153
 6672SOL    HW231479   3.937   3.812   8.412  1.5430  3.7890  2.7637
 6673SOL     OW31480   0.249   1.768   2.210 -0.3040 -0.2385  0.7104
 6673SOL    HW131481   0.274   1.859   2.224  0.1685 -0.2988  0.2589
 6673SOL    HW231482   0.336   1.733   2.227  0.2375  1.3398  1.1916
 6674SOL     OW31483   4.415   0.806   0.370  0.3153  0.5921 -0.0622
 6674SOL    HW131484   4.457   0.748   0.307  0.5173 -0.6567  1.2058
 6674SOL    HW231485   4.486   0.816   0.434 -0.2713 -1.7117  0.9488
 6675SOL     OW31486   2.787   0.053   2.613 -0.1240  0.3285  0.1269
 6675SOL    HW131487   2.837   4.709   2.657  0.4656  0.0398 -1.0213
 6675SOL    HW231488   2.751   4.724   2.542 -0.9206  1.9542 -0.7029
 6676SOL     OW31489   0.664   4.487   6.849 -0.3915 -0.2332 -0.3793
 6676SOL    HW131490   0.633   4.526   6.931 -3.3184 -3.1373 -0.0971
 6676SOL    HW231491   0.656   4.560   6.787  0.5602 -0.8347 -1.2101
 6677SOL     OW31492   3.579   1.506   9.891 -0.4418  0.4332  0.1362
 6677SOL    HW131493   3.534   1.496   9.975 -0.5346 -0.8520 -0.0693
 6677SOL    HW231494   3.517   1.465   9.830  0.3587 -1.8574  0.8672
 6678SOL     OW31495   2.310   3.308   9.432  0.2435 -1.0729 -1.0531
 6678SOL    HW131496   2.339   3.219   9.413  0.4849 -1.4734  1.2367
 6678SOL    HW231497   2.236   3.280   9.486  0.5282 -0.4944 -0.3661
 6679SOL     OW31498   3.133   3.392   3.372  0.2449  0.0823 -0.3723
 6679SOL    HW131499   3.056   3.442   3.399 -1.3308 -2.5666  0.1213
 6679SOL    HW231500   3.115   3.378   3.279 -0.1932  0.9829 -0.4197
 6680SOL     OW31501   2.010   3.452   0.486 -0.5552  0.0829 -0.0020
 6680SOL    HW131502   1.947   3.446   0.415 -0.6490 -2.8155  0.3099
 6680SOL    HW231503   2.089   3.447   0.434 -0.2355  0.2455  0.4681
 6681SOL     OW31504   3.005   3.453   4.236 -0.0659  0.1831  0.0739
 6681SOL    HW131505   2.994   3.407   4.319  1.5709 -2.2563 -1.0602
 6681SOL    HW231506   2.922   3.452   4.187  0.4983  0.8229 -0.9093
 6682SOL     OW31507   2.592   0.458   8.985  0.2238 -0.2252  0.1479
 6682SOL    HW131508   2.541   0.517   9.040 -0.5654 -0.1507 -0.6695
 6682SOL    HW231509   2.646   0.420   9.056  2.4013  2.0964 -0.2569
 6683SOL     OW31510   2.289   0.319  10.610 -0.5298 -0.1067  0.0790
 6683SOL    HW131511   2.324   0.270  10.685  0.3947 -1.3214 -1.1607
 6683SOL    HW231512   2.198   0.330  10.639 -0.2489 -2.5955  1.9417
 6684SOL     OW31513   3.524   1.487   3.231 -0.4810  0.4382  0.4508
 6684SOL    HW131514   3.440   1.505   3.272 -0.3916  0.6915  0.5196
 6684SOL    HW231515   3.505   1.450   3.145  0.5404  1.2335 -0.1197
 6685SOL     OW31516   3.853   2.135  14.740 -0.7895 -0.2843 -0.2413
 6685SOL    HW131517   3.787   2.172  14.682  0.4822  0.2200 -1.3423
 6685SOL    HW231518   3.880   2.052  14.702 -0.3844  0.2559 -1.1137
 6686SOL     OW31519   4.626   2.877   5.161 -0.3419  0.1999  0.6892
 6686SOL    HW131520   4.592   2.824   5.089 -1.4024  1.1599  0.4769
 6686SOL    HW231521   4.595   2.965   5.137 -1.7212  0.0252  1.8209
 6687SOL     OW31522   1.054   0.282   4.304 -0.5323  0.4979  0.1845
 6687SOL    HW131523   1.054   0.204   4.360 -0.0055  0.8888  0.7256
 6687SOL    HW231524   0.996   0.254   4.233  2.5519 -2.7239 -1.0620
 6688SOL     OW31525   3.197   0.233   8.058 -0.1759  0.2909  0.0735
 6688SOL    HW131526   3.151   0.317   8.052  1.2498  1.2545  2.4565
 6688SOL    HW231527   3.265   0.268   8.000 -0.1425  1.1265  0.6202
 6689SOL     OW31528   4.120   0.025   7.864 -0.3933  0.0331 -0.3057
 6689SOL    HW131529   4.185   4.680   7.874 -0.5249  0.1023  1.0709
 6689SOL    HW231530   4.101   0.048   7.955  0.6665  2.4343 -0.6812
 6690SOL     OW31531   2.412   0.663   4.460 -0.0603 -0.0453 -0.2011
 6690SOL    HW131532   2.355   0.686   4.387 -1.7489 -1.3182  0.7200
 6690SOL    HW231533   2.360   0.693   4.534 -0.8412  1.6704 -1.4520
 6691SOL     OW31534   0.416   3.619   7.297  0.1569 -0.8435 -0.1792
 6691SOL    HW131535   0.497   3.631   7.348 -1.4535 -0.5365  2.3017
 6691SOL    HW231536   0.411   3.706   7.257  0.4807 -0.7244  0.0352
 6692SOL     OW31537   0.361   4.007  16.382  0.0649 -0.0176  0.1569
 6692SOL    HW131538   0.293   4.074  16.396 -0.8482 -0.7779 -0.6832
 6692SOL    HW231539   0.439   4.063  16.383  0.1826 -0.1917  0.5164
 6693SOL     OW31540   2.498   2.109   0.689 -0.1369 -0.0453  0.3559
 6693SOL    HW131541   2.410   2.099   0.724 -0.6866  0.2003 -0.9649
 6693SOL    HW231542   2.540   2.152   0.764 -3.2425  3.2541  0.1678
 6694SOL     OW31543   0.975   3.916   6.547  0.0451  0.6005  0.3274
 6694SOL    HW131544   0.963   3.991   6.605 -1.3464  0.6220 -0.0038
 6694SOL    HW231545   0.986   3.851   6.616 -0.3386  0.0111 -0.1654
 6695SOL     OW31546   0.612   4.571   8.376  0.3056 -0.5392 -0.1460
 6695SOL    HW131547   0.657   4.628   8.313  0.5046  0.8446  1.2588
 6695SOL    HW231548   0.524   4.607   8.386  0.7333  0.0839  1.3293
 6696SOL     OW31549   0.096   2.400   7.193  0.4470  0.3463 -0.0166
 6696SOL    HW131550   0.054   2.330   7.242  1.5299 -2.3956 -3.0424
 6696SOL    HW231551   0.061   2.480   7.234 -1.1339 -0.7160  0.6949
 6697SOL     OW31552   4.619   2.465   2.844  0.1753 -0.4226  0.2286
 6697SOL    HW131553   4.571   2.386   2.820  0.6900 -0.6194 -0.1287
 6697SOL    HW231554   4.663   2.448   2.927 -0.4442  0.6435  0.7791
 6698SOL     OW31555   3.597   2.809   8.020  0.3417  0.0610 -0.0806
 6698SOL    HW131556   3.690   2.815   7.997 -0.7007  0.7363 -4.1048
 6698SOL    HW231557   3.588   2.897   8.056 -0.7465 -0.3153  0.5614
 6699SOL     OW31558   2.328   0.420   3.246  0.0769  0.3200 -0.6068
 6699SOL    HW131559   2.385   0.357   3.291 -1.2397  0.7072  1.5832
 6699SOL    HW231560   2.244   0.408   3.290  0.4752 -0.3709 -0.0408
 6700SOL     OW31561   0.043   4.616   6.714  0.3589 -0.8528  0.2786
 6700SOL    HW131562   0.033   4.524   6.739 -0.2954 -0.6350  0.8143
 6700SOL    HW231563   4.679   4.650   6.727  1.2794  1.3369  0.7300
 6701SOL     OW31564   3.473   3.396   6.791 -0.2741  0.0762 -0.1811
 6701SOL    HW131565   3.425   3.402   6.708  0.9228 -1.3947 -0.9574
 6701SOL    HW231566   3.543   3.458   6.770  1.0015 -0.0625  3.5699
 6702SOL     OW31567   0.335   2.489   2.559  0.3793  0.0233  0.5510
 6702SOL    HW131568   0.419   2.534   2.559  2.0759 -3.1278 -0.6949
 6702SOL    HW231569   0.280   2.543   2.616 -0.4835 -0.7676  0.4619
 6703SOL     OW31570   2.781   3.730  13.814  0.5707  0.4958  0.2845
 6703SOL    HW131571   2.738   3.646  13.831 -0.8360  1.1565 -0.0543
 6703SOL    HW231572   2.713   3.789  13.847  0.2915 -0.9400  2.3400
 6704SOL     OW31573   2.928   1.004   9.178 -0.2953  0.0559 -0.2256
 6704SOL    HW131574   3.022   1.011   9.160 -0.3311  2.5492  0.5652
 6704SOL    HW231575   2.915   0.910   9.162 -0.5291  0.3669 -1.9166
 6705SOL     OW31576   0.664   3.669   0.493  0.1448 -0.2039  0.1596
 6705SOL    HW131577   0.617   3.625   0.564  1.1824 -2.3507 -0.4974
 6705SOL    HW231578   0.638   3.760   0.506  0.5531  0.1192 -1.3096
 6706SOL     OW31579   1.159   0.678   2.043  0.5951 -0.0506 -0.2697
 6706SOL    HW131580   1.168   0.659   1.950  0.1850 -0.2390 -0.2674
 6706SOL    HW231581   1.104   0.602   2.062  0.9913 -0.7847 -2.1074
 6707SOL     OW31582   1.416   3.065   6.413 -0.3347 -0.0199 -0.1266
 6707SOL    HW131583   1.495   3.040   6.365 -0.3739 -1.3746  0.5090
 6707SOL    HW231584   1.436   3.152   6.449  1.4189 -1.0141  1.2974
 6708SOL     OW31585   0.959   4.054   7.682 -0.2680 -0.0341 -0.6538
 6708SOL    HW131586   0.941   4.123   7.618  1.0490  0.0052 -1.0020
 6708SOL    HW231587   0.985   4.107   7.757  2.2197  0.2609 -1.7103
 6709SOL     OW31588   4.661   2.387   4.318 -0.3299  0.1849  0.1946
 6709SOL    HW131589   4.722   2.442   4.367  0.6762  0.1015 -0.9971
 6709SOL    HW231590   4.668   2.405   4.225 -3.2293  0.1569 -0.0373
 6710SOL     OW31591   2.756   3.026   6.998  0.1721  0.5673 -0.5622
 6710SOL    HW131592   2.691   3.038   7.068  0.5359 -1.6755  0.1625
 6710SOL    HW231593   2.713   3.053   6.916 -0.3890  0.2585 -0.3749
 6711SOL     OW31594   1.528   0.958  15.551  0.1968 -0.6140 -0.4703
 6711SOL    HW131595   1.480   0.980  15.471  1.5484  0.4633 -0.9840
 6711SOL    HW231596   1.586   0.889  15.518  0.5258 -0.8782  0.6596
 6712SOL     OW31597   4.417   2.133   3.738 -0.3199  0.1974 -0.1915
 6712SOL    HW131598   4.433   2.152   3.645  0.2160 -0.7186 -0.2893
 6712SOL    HW231599   4.323   2.115   3.737 -0.3307  0.2614 -0.8731
 6713SOL     OW31600   1.568   2.202   5.608  0.5295 -0.1162 -0.1472
 6713SOL    HW131601   1.615   2.254   5.673 -1.8913  1.8113  0.0836
 6713SOL    HW231602   1.479   2.237   5.616  0.1141 -1.1252 -0.3255
 6714SOL     OW31603   3.806   1.217   3.615 -0.2418 -0.4340  0.4380
 6714SOL    HW131604   3.788   1.308   3.638  0.2259 -0.0310 -0.7665
 6714SOL    HW231605   3.764   1.171   3.687 -0.5790  1.2616  1.3181
 6715SOL     OW31606   0.019   2.040   6.632 -0.0080 -0.5621 -0.5737
 6715SOL    HW131607   4.663   2.072   6.672 -0.7995 -1.4993 -1.4111
 6715SOL    HW231608   0.033   1.961   6.685 -0.7114 -1.0701 -1.1501
 6716SOL     OW31609   3.557   0.092   2.899 -0.1641 -0.3524 -0.5953
 6716SOL    HW131610   3.511   0.008   2.893 -1.6174  0.3635  0.5150
 6716SOL    HW231611   3.647   0.062   2.914 -0.9829 -1.4814  1.9451
 6717SOL     OW31612   0.749   1.063  17.572  0.6316  0.6699  0.1502
 6717SOL    HW131613   0.672   1.067  17.515 -2.7354 -2.1209  4.5323
 6717SOL    HW231614   0.702   1.043  17.653 -0.6566 -1.0234 -1.0109
 6718SOL     OW31615   3.114   3.951   2.008 -0.6723  0.3558 -0.8225
 6718SOL    HW131616   3.104   3.982   1.918 -1.9785 -2.1358 -1.5519
 6718SOL    HW231617   3.118   3.857   1.989 -0.0786  0.4244 -1.0525
 6719SOL     OW31618   4.245   1.960   4.359  0.0869 -0.2794 -0.9204
 6719SOL    HW131619   4.309   1.982   4.291  1.2322  1.1332  0.6007
 6719SOL    HW231620   4.235   1.865   4.350 -1.5103 -0.1231 -0.8532
 6720SOL     OW31621   1.232   0.572   6.580 -0.2457  0.0071  0.1697
 6720SOL    HW131622   1.140   0.585   6.602 -0.6988  0.3658 -1.9617
 6720SOL    HW231623   1.263   0.555   6.669 -2.1332  0.5186  0.9298
 6721SOL     OW31624   2.851   3.648   7.184 -0.0112 -0.1796  0.1806
 6721SOL    HW131625   2.852   3.558   7.152  3.8234 -0.6407  1.6416
 6721SOL    HW231626   2.775   3.682   7.135  0.4054  3.1583  1.8500
 6722SOL     OW31627   4.202   4.293   0.238  0.0846  0.0017 -0.5726
 6722SOL    HW131628   4.165   4.266   0.154  0.0709 -0.1417 -0.5203
 6722SOL    HW231629   4.211   4.210   0.285  0.8636 -0.0329 -0.7746
 6723SOL     OW31630   3.168   3.614  17.679 -1.0576 -0.3205  0.3656
 6723SOL    HW131631   3.182   3.592   0.072 -2.2376  3.2541  1.4065
 6723SOL    HW231632   3.258   3.615  17.647 -1.6720  1.8175 -1.3200
 6724SOL     OW31633   3.486   0.334   4.069 -0.6907 -0.0805  0.1630
 6724SOL    HW131634   3.511   0.259   4.015 -2.1285 -2.7151  3.1352
 6724SOL    HW231635   3.391   0.329   4.080 -1.0176  2.0152 -1.7306
 6725SOL     OW31636   3.261   2.707  10.105 -0.3261  0.2759  0.1485
 6725SOL    HW131637   3.271   2.800  10.085  0.2160  0.0310 -0.7335
 6725SOL    HW231638   3.190   2.693  10.043  0.3089  1.1314 -0.7666
 6726SOL     OW31639   0.555   1.694  10.617 -0.2436  0.0682  0.1726
 6726SOL    HW131640   0.501   1.764  10.654 -1.7813 -0.6697 -0.6638
 6726SOL    HW231641   0.633   1.689  10.671 -0.4846 -2.2030  0.3110
 6727SOL     OW31642   4.514   0.065   9.723  0.0086  0.5461 -0.0956
 6727SOL    HW131643   4.575   0.024   9.784 -1.1807  0.5878  1.1221
 6727SOL    HW231644   4.441   0.093   9.778 -0.3734  1.4475 -1.0604
 6728SOL     OW31645   4.045   0.900   5.030 -0.1260  0.9516 -0.4908
 6728SOL    HW131646   3.952   0.907   5.054 -0.6831 -1.5799 -1.9163
 6728SOL    HW231647   4.094   0.937   5.103  0.1849 -2.5165  1.0460
 6729SOL     OW31648   1.563   3.796   6.409  0.2638  0.1192  0.1696
 6729SOL    HW131649   1.505   3.848   6.353  1.9441 -0.2126 -1.8986
 6729SOL    HW231650   1.649   3.805   6.367 -0.6366  2.0883 -1.2504
 6730SOL     OW31651   1.523   1.668  11.408  0.1736  0.3285 -0.2618
 6730SOL    HW131652   1.437   1.664  11.450 -0.9894  1.0152 -2.5648
 6730SOL    HW231653   1.502   1.684  11.316 -2.8752 -0.5023  0.2926
 6731SOL     OW31654   1.123   4.202   2.524  0.7820 -0.8678 -0.2359
 6731SOL    HW131655   1.098   4.169   2.610 -1.2748  1.5514  0.1008
 6731SOL    HW231656   1.040   4.195   2.477  0.8007 -0.6412 -0.3025
 6732SOL     OW31657   4.068   1.583   3.405 -1.0888 -0.1391 -0.4042
 6732SOL    HW131658   3.994   1.548   3.454  1.0602  0.9915  3.6910
 6732SOL    HW231659   4.140   1.522   3.423  1.7091  3.2491  0.0387
 6733SOL     OW31660   1.369   1.488   8.423 -0.5511 -0.0168 -0.9584
 6733SOL    HW131661   1.318   1.511   8.501  0.1587  0.0773 -0.5252
 6733SOL    HW231662   1.432   1.428   8.462 -2.4791 -0.7336  1.0676
 6734SOL     OW31663   2.638   0.452   7.309  0.1709 -0.0602 -0.1117
 6734SOL    HW131664   2.641   0.495   7.394  1.7874  0.7373 -0.5619
 6734SOL    HW231665   2.579   0.511   7.262 -0.2236 -0.7186 -0.4453
 6735SOL     OW31666   2.337   4.118  12.219 -0.5299  0.0827  0.1615
 6735SOL    HW131667   2.247   4.090  12.201 -1.1062  0.7501  2.0266
 6735SOL    HW231668   2.339   4.210  12.190  1.8342 -0.2060 -0.6116
 6736SOL     OW31669   1.827   4.122  12.027  0.1804  0.0607  0.7851
 6736SOL    HW131670   1.912   4.089  12.058  1.2037  1.8037 -0.0976
 6736SOL    HW231671   1.805   4.061  11.957  2.1763 -0.2548  0.4225
 6737SOL     OW31672   4.642   3.395   3.383  0.0826  0.4701 -0.0005
 6737SOL    HW131673   4.563   3.342   3.388  0.3875 -0.0877 -1.0356
 6737SOL    HW231674   4.689   3.363   3.460 -0.2201  2.6417  1.1094
 6738SOL     OW31675   0.956   4.257  10.048  0.3386 -0.2933  0.8239
 6738SOL    HW131676   0.962   4.177   9.997  0.3006  1.1268 -1.4442
 6738SOL    HW231677   1.013   4.311   9.994 -0.0628 -0.8122 -0.1143
 6739SOL     OW31678   2.930   1.849   6.241 -0.7305  0.6272  0.1086
 6739SOL    HW131679   2.944   1.912   6.312  0.2640 -1.0291  1.3628
 6739SOL    HW231680   2.894   1.901   6.168 -0.8413 -1.1402 -1.0929
 6740SOL     OW31681   4.408   2.544   6.481 -0.2720 -0.3691 -0.4861
 6740SOL    HW131682   4.445   2.480   6.420  0.1893  0.4365 -1.0463
 6740SOL    HW231683   4.482   2.603   6.494  0.9980 -2.2036  0.6609
 6741SOL     OW31684   2.348   2.515   1.946  0.2237  0.3242 -0.1921
 6741SOL    HW131685   2.311   2.587   1.997  0.8329  0.1596  0.4792
 6741SOL    HW231686   2.393   2.477   2.021 -1.6763 -0.0003  0.7745
 6742SOL     OW31687   1.310   1.501   7.739 -0.1416  0.1113  0.0242
 6742SOL    HW131688   1.325   1.447   7.661  1.7779  2.0685 -0.9637
 6742SOL    HW231689   1.280   1.427   7.792 -0.9473  0.3941 -0.0450
 6743SOL     OW31690   4.168   2.676   6.531  0.1181 -0.3090  0.1028
 6743SOL    HW131691   4.235   2.611   6.510  0.1771 -0.3504  0.4211
 6743SOL    HW231692   4.105   2.678   6.459 -1.2246 -2.8536  1.2130
 6744SOL     OW31693   1.719   1.772   2.995 -0.3369  0.0012  0.3182
 6744SOL    HW131694   1.799   1.824   2.988 -0.5695  0.5092  1.3744
 6744SOL    HW231695   1.722   1.714   2.920 -2.9494  0.3726 -0.0776
 6745SOL     OW31696   4.081   3.311   8.473  0.1082  0.2301  0.3039
 6745SOL    HW131697   4.108   3.219   8.467 -0.1754  0.2983 -2.1517
 6745SOL    HW231698   3.990   3.315   8.503 -0.2611  1.3136 -0.9653
 6746SOL     OW31699   3.895   2.383   6.797  0.1035 -0.1037  0.2586
 6746SOL    HW131700   3.972   2.353   6.748 -0.3306  1.7740 -1.5773
 6746SOL    HW231701   3.928   2.463   6.838 -2.4980  1.4446 -0.6882
 6747SOL     OW31702   0.898   0.573   2.901 -0.0067 -0.2697  0.0095
 6747SOL    HW131703   0.931   0.581   2.990  0.8509 -3.6301 -0.0188
 6747SOL    HW231704   0.897   0.479   2.885  2.1614 -0.2340 -0.2851
 6748SOL     OW31705   1.779   4.573   1.041  0.2567  0.2491 -0.1541
 6748SOL    HW131706   1.839   4.511   1.083 -0.6127  0.4219  1.3413
 6748SOL    HW231707   1.707   4.567   1.104  0.4037  1.6833  0.1380
 6749SOL     OW31708   2.392   0.145   5.847 -0.0382 -0.1833 -0.3437
 6749SOL    HW131709   2.339   0.074   5.809  2.7670 -2.4394 -0.0216
 6749SOL    HW231710   2.329   0.216   5.860 -1.3307 -1.6820  1.6348
 6750SOL     OW31711   4.577   1.569   5.074 -0.1154  0.3128  0.8311
 6750SOL    HW131712   4.556   1.661   5.091  0.0199  0.8384 -1.7515
 6750SOL    HW231713   4.490   1.527   5.077 -0.0761  0.0166 -1.8752
 6751SOL     OW31714   1.771   3.196   5.957 -0.4089 -0.1355 -0.1667
 6751SOL    HW131715   1.736   3.181   5.869 -1.6570 -0.0451  0.3166
 6751SOL    HW231716   1.844   3.254   5.936 -0.5481 -0.5712 -1.8610
 6752SOL     OW31717   0.372   1.373  13.581 -0.0733  0.1175 -0.2516
 6752SOL    HW131718   0.329   1.455  13.558 -0.9816 -0.5018 -0.7593
 6752SOL    HW231719   0.400   1.397  13.669 -2.7687 -1.0916  0.9233
 6753SOL     OW31720   3.096   1.467  11.458  0.1956  0.7707  0.0171
 6753SOL    HW131721   3.190   1.479  11.467  0.3512 -0.7345  0.3978
 6753SOL    HW231722   3.079   1.531  11.390  0.8674  3.2389  2.1758
 6754SOL     OW31723   1.752   1.999   4.956  0.3722  0.8139  0.2311
 6754SOL    HW131724   1.668   2.025   4.992 -0.1541 -1.5263  0.6576
 6754SOL    HW231725   1.815   2.053   5.004  0.9454 -2.0552  2.6973
 6755SOL     OW31726   0.611   3.055   5.519  0.2525  0.1300 -0.3109
 6755SOL    HW131727   0.572   3.025   5.437 -0.0051 -2.5079  0.7719
 6755SOL    HW231728   0.663   3.130   5.490 -2.0957  1.4280 -1.0980
 6756SOL     OW31729   1.467   0.178  10.506 -0.0110 -0.9210 -0.1774
 6756SOL    HW131730   1.516   0.197  10.426 -1.2099  0.9572 -0.4548
 6756SOL    HW231731   1.427   0.093  10.489 -3.3984  1.0004 -1.7209
 6757SOL     OW31732   0.429   0.922   3.275 -0.2585  0.2904 -0.3128
 6757SOL    HW131733   0.445   0.843   3.327 -2.3821 -0.1617 -0.3469
 6757SOL    HW231734   0.384   0.983   3.334 -0.5502  1.0343 -1.3050
 6758SOL     OW31735   2.566   2.688   3.076  0.4428 -0.2484 -0.1141
 6758SOL    HW131736   2.540   2.743   3.150  0.9886  0.7858 -0.6757
 6758SOL    HW231737   2.614   2.747   3.017  0.6763  1.6944  2.0193
 6759SOL     OW31738   2.977   4.715   3.041 -0.1212  0.5405 -0.0955
 6759SOL    HW131739   2.915   0.056   3.009  1.0982 -0.1765 -3.8700
 6759SOL    HW231740   2.926   4.672   3.109  1.0367 -0.0526  0.3996
 6760SOL     OW31741   4.597   1.730  10.274 -0.0915 -0.0880 -0.3323
 6760SOL    HW131742   4.543   1.680  10.335  1.0791  0.3863  1.0940
 6760SOL    HW231743   4.558   1.817  10.287 -1.6518 -0.4827 -2.2279
 6761SOL     OW31744   3.096   4.154   6.675  0.0310 -0.8080  0.0336
 6761SOL    HW131745   3.164   4.129   6.738  0.9609 -1.1190 -1.0944
 6761SOL    HW231746   3.028   4.089   6.692 -1.2848  0.2983 -1.0167
 6762SOL     OW31747   3.855   1.315   7.363  0.5919  0.1361  0.0246
 6762SOL    HW131748   3.915   1.381   7.398  2.7637 -1.5076 -0.6555
 6762SOL    HW231749   3.795   1.308   7.437 -0.2117 -0.8100 -0.7116
 6763SOL     OW31750   2.129   0.450  16.273 -0.4286 -0.5397 -0.1245
 6763SOL    HW131751   2.111   0.366  16.316 -1.2463 -0.8137 -1.0189
 6763SOL    HW231752   2.119   0.510  16.348  0.9414 -3.1654  2.1595
 6764SOL     OW31753   1.472   0.823   4.916 -0.3900  0.1002 -0.0026
 6764SOL    HW131754   1.489   0.732   4.891 -1.2885  0.0831 -0.5885
 6764SOL    HW231755   1.534   0.872   4.863  0.0147  0.9706  1.3023
 6765SOL     OW31756   4.177   0.592   9.886 -0.2062  0.0591  0.6758
 6765SOL    HW131757   4.189   0.515   9.941 -0.3080  0.2505  0.9676
 6765SOL    HW231758   4.137   0.559   9.805  0.9044 -1.1955  0.6434
 6766SOL     OW31759   4.313   1.221  17.281  0.2156 -0.1279 -0.2216
 6766SOL    HW131760   4.232   1.181  17.250  1.6225 -1.0125 -2.7923
 6766SOL    HW231761   4.297   1.222  17.375  2.9287 -0.0346  0.2340
 6767SOL     OW31762   0.266   0.365  14.413 -0.5919 -0.5107  0.0599
 6767SOL    HW131763   0.179   0.327  14.406 -1.4597  1.4831 -0.0417
 6767SOL    HW231764   0.253   0.418  14.334  1.8677  1.4850  0.9653
 6768SOL     OW31765   0.569   1.795   3.965  0.1361  0.3666 -0.2174
 6768SOL    HW131766   0.488   1.804   3.915  0.4879  0.1009 -0.8419
 6768SOL    HW231767   0.620   1.869   3.931  0.2647 -0.1143 -1.0625
 6769SOL     OW31768   1.177   0.133  16.898 -0.3992 -0.2433  0.1416
 6769SOL    HW131769   1.198   0.209  16.953 -1.7426  1.6072 -1.9275
 6769SOL    HW231770   1.210   0.060  16.951  1.0477  1.4797  1.6419
 6770SOL     OW31771   2.153   2.699   7.392  1.0793  0.1903 -0.0232
 6770SOL    HW131772   2.065   2.668   7.411  1.1006  0.8237  1.0833
 6770SOL    HW231773   2.202   2.636   7.444  1.6652 -0.7172 -1.6621
 6771SOL     OW31774   4.406   1.768   2.826 -0.7702  0.5025  1.2620
 6771SOL    HW131775   4.435   1.680   2.848  0.8199 -0.0796 -3.1416
 6771SOL    HW231776   4.482   1.816   2.859  0.9016 -1.5790  0.4332
 6772SOL     OW31777   2.156   0.178   2.408  0.1376 -0.1253  0.6593
 6772SOL    HW131778   2.119   0.093   2.433  0.5721 -0.1139  1.3243
 6772SOL    HW231779   2.250   0.161   2.403 -0.4288 -3.2188  0.6271
 6773SOL     OW31780   2.771   2.947  11.584  0.2594 -0.0252 -0.6984
 6773SOL    HW131781   2.769   3.034  11.545 -2.0641 -0.0996 -0.7306
 6773SOL    HW231782   2.686   2.909  11.564 -0.7244  0.9055  1.6522
 6774SOL     OW31783   1.455   4.483  13.766  0.1645  0.5367  0.0463
 6774SOL    HW131784   1.539   4.527  13.781  0.2715  0.8608 -1.5461
 6774SOL    HW231785   1.388   4.538  13.808  0.6768  1.8505 -0.8503
 6775SOL     OW31786   2.755   0.395   2.268 -0.1354 -0.1477 -0.3779
 6775SOL    HW131787   2.830   0.336   2.276 -0.9564 -0.8617  2.2065
 6775SOL    HW231788   2.802   0.473   2.295 -1.5694  1.2862 -2.0656
 6776SOL     OW31789   0.827   1.628  10.679  0.6191 -0.1885 -0.0954
 6776SOL    HW131790   0.869   1.678  10.749 -1.3845 -0.4154  1.2582
 6776SOL    HW231791   0.793   1.559  10.736 -2.5896 -2.1016 -4.3612
 6777SOL     OW31792   2.973   1.384   5.015 -0.2525 -0.1649  0.5173
 6777SOL    HW131793   2.932   1.311   4.968  0.4139  0.1848 -0.6125
 6777SOL    HW231794   2.991   1.354   5.104 -1.0288  1.3559  1.1783
 6778SOL     OW31795   3.696   4.392   9.944  0.1590 -0.0977 -0.1653
 6778SOL    HW131796   3.611   4.348   9.938 -0.1698  0.4824  0.1789
 6778SOL    HW231797   3.689   4.451  10.019  0.5062  0.8564 -0.8760
 6779SOL     OW31798   4.302   0.931   9.404 -0.0657 -0.4777  0.3486
 6779SOL    HW131799   4.247   1.006   9.426 -1.1457 -1.2249  0.1744
 6779SOL    HW231800   4.321   0.889   9.488 -1.4270  2.1460  1.9605
 6780SOL     OW31801   0.814   2.287   4.612  0.3536 -0.1836 -0.6234
 6780SOL    HW131802   0.764   2.219   4.659 -0.7970  0.5603 -0.7694
 6780SOL    HW231803   0.843   2.243   4.532  0.9295 -0.3885 -0.2985
 6781SOL     OW31804   4.243   1.381   3.466 -0.0558  0.4426  0.1572
 6781SOL    HW131805   4.316   1.423   3.513  1.0067  0.8991 -1.8784
 6781SOL    HW231806   4.214   1.312   3.526 -1.3261  0.5907 -0.2956
 6782SOL     OW31807   0.981   0.584   3.969 -0.0050 -0.0805 -0.0959
 6782SOL    HW131808   1.011   0.510   3.917 -1.9048 -1.5861  0.9190
 6782SOL    HW231809   0.969   0.657   3.908 -2.0025  1.1266  1.7132
 6783SOL     OW31810   2.563   3.152   7.994  0.2827  0.0104 -0.5455
 6783SOL    HW131811   2.503   3.178   8.065  0.9445  1.1281 -0.3872
 6783SOL    HW231812   2.627   3.221   8.013 -0.9933  0.3242  2.5925
 6784SOL     OW31813   1.790   2.434  14.256  0.8006 -0.8154 -0.4128
 6784SOL    HW131814   1.697   2.423  14.275  0.6571  1.1894  0.1040
 6784SOL    HW231815   1.783   2.517  14.208  0.0247  0.2460  1.5702
 6785SOL     OW31816   2.802   1.893  16.133  0.0192 -0.4780  0.4950
 6785SOL    HW131817   2.862   1.851  16.196  1.7168  1.4578  0.1741
 6785SOL    HW231818   2.842   1.980  16.137  1.3388 -1.0822  0.5737
 6786SOL     OW31819   3.345   1.154   1.130 -0.3736 -0.2449  0.2547
 6786SOL    HW131820   3.371   1.233   1.179 -2.9991  1.4587 -1.0957
 6786SOL    HW231821   3.271   1.121   1.180  0.1384 -0.7880  0.6595
 6787SOL     OW31822   3.967   4.480  14.844 -0.0801  0.3775 -0.3264
 6787SOL    HW131823   4.048   4.470  14.793  0.3375 -0.7368  0.5402
 6787SOL    HW231824   4.004   4.481  14.932  1.7792  3.9757 -1.1596
 6788SOL     OW31825   3.932   0.947  11.901 -0.1706  0.0378  0.5165
 6788SOL    HW131826   3.998   0.932  11.969  0.2330  1.3266  0.4061
 6788SOL    HW231827   3.952   1.037  11.875 -0.4981  0.1047  0.4943
 6789SOL     OW31828   4.099   3.958   4.851  0.2502  0.1910  0.1656
 6789SOL    HW131829   4.095   3.964   4.755  2.7246  2.3155  0.2129
 6789SOL    HW231830   4.014   3.927   4.883  1.0376 -0.1182  1.9409
 6790SOL     OW31831   0.541   4.335  13.067  0.0121  0.3263 -0.4425
 6790SOL    HW131832   0.516   4.367  12.980  0.2676 -1.7550 -1.2866
 6790SOL    HW231833   0.465   4.281  13.091  0.2483 -0.2742 -1.0582
 6791SOL     OW31834   0.221   3.219   7.330 -0.5260  0.2374  0.0613
 6791SOL    HW131835   0.146   3.167   7.358 -1.0606  0.1645 -1.4959
 6791SOL    HW231836   0.196   3.243   7.241 -0.0868 -0.4234 -0.2466
 6792SOL     OW31837   2.200   1.160  15.594 -0.1145  0.6608 -0.1085
 6792SOL    HW131838   2.160   1.245  15.579 -0.7450 -0.2734 -3.8060
 6792SOL    HW231839   2.143   1.123  15.661 -0.8800  0.2478 -0.9977
 6793SOL     OW31840   2.876   2.899  17.028  0.1114 -0.1956 -0.9376
 6793SOL    HW131841   2.834   2.814  17.036 -1.2269  0.4954 -0.5475
 6793SOL    HW231842   2.897   2.926  17.118  0.2588 -0.0053 -1.0299
 6794SOL     OW31843   3.953   1.656  15.240  0.4004 -0.2984  0.2471
 6794SOL    HW131844   3.898   1.628  15.312 -1.8846 -2.2551 -2.2682
 6794SOL    HW231845   4.006   1.577  15.227  0.4907 -0.1584 -0.2450
 6795SOL     OW31846   3.338   2.277  15.313  0.1179 -0.0462 -0.2443
 6795SOL    HW131847   3.431   2.289  15.296  0.1630 -0.7015 -0.4591
 6795SOL    HW231848   3.290   2.356  15.289 -0.5861 -0.7690 -1.2325
 6796SOL     OW31849   1.320   3.015   3.735 -0.8780 -0.2793  0.3119
 6796SOL    HW131850   1.305   2.925   3.765  1.1898 -1.6154 -2.6808
 6796SOL    HW231851   1.403   3.015   3.686 -1.6077  0.7425 -0.9285
 6797SOL     OW31852   4.562   4.251   3.585 -0.3734  0.4010 -0.1699
 6797SOL    HW131853   4.491   4.266   3.522 -0.2479  0.5346 -0.2815
 6797SOL    HW231854   4.626   4.239   3.515 -1.2693 -1.4989 -0.6684
 6798SOL     OW31855   3.911   3.329   4.991  0.6842 -0.3705 -0.3704
 6798SOL    HW131856   3.968   3.367   5.058  2.7330  0.1320 -2.4078
 6798SOL    HW231857   3.968   3.254   4.973  1.2014 -0.1141  0.1795
 6799SOL     OW31858   1.793   4.587  15.319  0.2224 -0.4503  0.1524
 6799SOL    HW131859   1.874   4.536  15.312  0.6663  0.3514 -0.5623
 6799SOL    HW231860   1.831   4.672  15.296 -1.2289 -0.4980 -2.4287
 6800SOL     OW31861   0.128   1.208   3.325 -0.2348 -0.1619 -0.0202
 6800SOL    HW131862   0.162   1.173   3.243 -0.6050  1.4156 -0.8336
 6800SOL    HW231863   0.213   1.204   3.369 -0.7950  2.3339  1.2611
 6801SOL     OW31864   3.426   4.378   1.670  0.1284  0.1289 -0.2547
 6801SOL    HW131865   3.432   4.464   1.629 -0.5721  0.1114 -0.3970
 6801SOL    HW231866   3.520   4.373   1.685 -0.1655 -3.2140  0.5502
 6802SOL     OW31867   4.372   4.495  14.919 -0.3469 -0.2188 -0.4444
 6802SOL    HW131868   4.328   4.470  14.838  1.2104 -1.8972 -0.7784
 6802SOL    HW231869   4.424   4.415  14.931 -1.4367 -1.1711 -2.1680
 6803SOL     OW31870   2.666   2.243   5.585  0.3960  0.1251  0.2973
 6803SOL    HW131871   2.639   2.335   5.587 -0.3356 -0.1169  1.3913
 6803SOL    HW231872   2.662   2.221   5.492 -0.8726 -0.4508  0.4950
 6804SOL     OW31873   2.547   4.456   7.101  0.2022  0.0952  0.4509
 6804SOL    HW131874   2.498   4.452   7.183 -0.0891  2.6834  0.4041
 6804SOL    HW231875   2.543   4.552   7.094 -0.7717  0.1700  1.9105
 6805SOL     OW31876   2.300   2.490   0.852  0.2505 -0.2149 -0.1820
 6805SOL    HW131877   2.223   2.452   0.893  0.2939  1.7816  1.7744
 6805SOL    HW231878   2.329   2.549   0.921  0.8263 -0.4721 -0.2099
 6806SOL     OW31879   2.502   1.412   8.855  0.8591  0.0475  0.1617
 6806SOL    HW131880   2.465   1.397   8.943  0.6317 -1.8504 -0.2492
 6806SOL    HW231881   2.538   1.324   8.849 -1.1432 -0.8162  0.7069
 6807SOL     OW31882   0.587   2.304  10.139 -0.0063 -0.0072 -0.2061
 6807SOL    HW131883   0.544   2.389  10.149  1.0198  0.6341 -1.3496
 6807SOL    HW231884   0.517   2.240  10.132 -0.4743  0.3400  1.2962
 6808SOL     OW31885   0.753   1.203   8.727 -0.1136  0.1727 -0.4694
 6808SOL    HW131886   0.782   1.122   8.769 -1.8976  0.1108  0.6529
 6808SOL    HW231887   0.787   1.269   8.787  3.3997  1.0699 -3.4585
 6809SOL     OW31888   3.320   4.064   7.479  0.0935  0.2837 -0.5379
 6809SOL    HW131889   3.348   4.111   7.558  0.2193 -0.0542 -0.3789
 6809SOL    HW231890   3.260   3.997   7.510  2.7803 -2.0789 -0.4098
 6810SOL     OW31891   4.169   0.274   2.752 -0.4752 -0.4050  0.0079
 6810SOL    HW131892   4.210   0.307   2.672  0.9346  0.0067  0.8958
 6810SOL    HW231893   4.224   0.201   2.780 -1.1373 -0.6075  0.7799
 6811SOL     OW31894   2.778   1.330   8.324  0.5951 -0.7914 -0.7790
 6811SOL    HW131895   2.729   1.400   8.280 -1.0249 -2.6728 -1.9322
 6811SOL    HW231896   2.834   1.381   8.382  3.4170 -1.0020 -3.3346
 6812SOL     OW31897   3.247   2.000  11.113 -0.2541 -0.0663 -0.0572
 6812SOL    HW131898   3.253   1.987  11.019  1.3004 -2.6344  0.4193
 6812SOL    HW231899   3.329   2.039  11.143  0.0699 -1.2637  0.6105
 6813SOL     OW31900   3.208   2.144   0.566  0.4801  0.3597 -0.2958
 6813SOL    HW131901   3.144   2.213   0.552 -0.3028  0.1560  2.2770
 6813SOL    HW231902   3.287   2.195   0.550 -1.1432  2.9623 -0.0531
 6814SOL     OW31903   1.441   1.681   5.217  0.0339  0.6693 -0.4002
 6814SOL    HW131904   1.440   1.748   5.149  2.2031  1.6174  0.5226
 6814SOL    HW231905   1.429   1.602   5.164 -0.4772  0.9372 -0.6872
 6815SOL     OW31906   3.796   2.887   8.819 -0.2322  0.4278  0.2746
 6815SOL    HW131907   3.817   2.818   8.881 -0.7449 -1.2366 -1.3948
 6815SOL    HW231908   3.713   2.915   8.857 -0.2530  0.6663  0.0615
 6816SOL     OW31909   2.546   2.051   4.935  0.1563 -0.2382  0.0725
 6816SOL    HW131910   2.598   1.978   4.969 -0.3587 -1.0246 -0.8417
 6816SOL    HW231911   2.494   1.993   4.880 -2.5161 -0.4665  2.8730
 6817SOL     OW31912   3.761   0.234  11.599 -0.2623  0.0014  0.0806
 6817SOL    HW131913   3.829   0.284  11.554  1.0124 -0.9657  0.9650
 6817SOL    HW231914   3.719   0.299  11.655  0.8896 -0.8871  1.9538
 6818SOL     OW31915   3.100   3.722   7.765  0.3172  0.1844 -0.2065
 6818SOL    HW131916   3.084   3.628   7.772  0.5997  0.2503  1.3535
 6818SOL    HW231917   3.023   3.769   7.797 -0.9797 -2.0341 -0.0401
 6819SOL     OW31918   2.112   2.714  11.096  0.4440  0.2591 -0.2270
 6819SOL    HW131919   2.084   2.623  11.097 -0.4743  0.5486 -0.1295
 6819SOL    HW231920   2.206   2.705  11.110  0.1702 -0.0797  1.3929
 6820SOL     OW31921   2.346   3.939  16.649  0.0595  0.8214  0.1478
 6820SOL    HW131922   2.321   3.850  16.624  0.1302 -0.3333  4.2130
 6820SOL    HW231923   2.265   3.988  16.661 -0.4875  0.3880 -1.7300
 6821SOL     OW31924   4.101   1.121   9.487 -0.1748 -0.1132 -0.0867
 6821SOL    HW131925   4.083   1.207   9.525 -2.1132  0.4060 -2.2404
 6821SOL    HW231926   4.047   1.121   9.408 -2.0091  0.6266  1.1688
 6822SOL     OW31927   4.106   0.815  14.296  0.2544 -0.5347 -0.3069
 6822SOL    HW131928   4.197   0.787  14.307  0.9239  1.6213 -0.3040
 6822SOL    HW231929   4.085   0.758  14.222 -1.0657  0.8390 -1.0017
 6823SOL     OW31930   2.891   3.535  14.250  0.0878 -0.0119 -0.1724
 6823SOL    HW131931   2.848   3.553  14.334 -0.6828 -0.1776 -0.5341
 6823SOL    HW231932   2.944   3.461  14.279 -1.2224 -1.0438 -0.4444
 6824SOL     OW31933   3.003   1.898   3.423 -0.2124  0.3045  0.5000
 6824SOL    HW131934   3.040   1.849   3.350  1.5772  0.5264  1.2519
 6824SOL    HW231935   2.933   1.836   3.444 -1.6504  1.5253 -0.6892
 6825SOL     OW31936   0.621   1.362  14.741 -0.3135  0.1186 -1.0212
 6825SOL    HW131937   0.712   1.388  14.730 -0.3084  0.7849  0.7202
 6825SOL    HW231938   0.587   1.348  14.652 -2.2499  0.9642 -0.4152
 6826SOL     OW31939   2.724   3.950   3.436  0.3841  0.2039 -0.6655
 6826SOL    HW131940   2.711   3.911   3.522  2.1416 -1.5206 -1.1910
 6826SOL    HW231941   2.809   3.912   3.414  0.7335  0.9122 -0.5326
 6827SOL     OW31942   2.012   0.081   5.821 -0.2208 -0.3920 -0.3806
 6827SOL    HW131943   2.081   0.015   5.819 -0.2466 -0.4213 -0.3042
 6827SOL    HW231944   1.936   0.034   5.855  1.9088 -3.0260  0.7751
 6828SOL     OW31945   1.621   0.643   2.806 -0.1906  0.5457 -0.2381
 6828SOL    HW131946   1.681   0.619   2.735  2.0198  2.2752  1.0475
 6828SOL    HW231947   1.536   0.609   2.778 -0.1317 -1.8090  2.3752
 6829SOL     OW31948   0.452   2.005  11.202 -0.0511 -0.1054 -0.0688
 6829SOL    HW131949   0.534   1.962  11.227  0.8230  0.8852 -1.1808
 6829SOL    HW231950   0.441   1.981  11.110 -1.9583 -3.1696  0.9952
 6830SOL     OW31951   1.637   0.963   2.485  0.1555  1.0829 -0.3092
 6830SOL    HW131952   1.564   1.017   2.457  0.3657  1.4234 -0.1947
 6830SOL    HW231953   1.651   0.918   2.401  3.3415 -0.7703  1.2002
 6831SOL     OW31954   3.377   1.186   5.885 -0.0520  0.1835  0.1914
 6831SOL    HW131955   3.302   1.130   5.866 -0.2539  0.6414 -0.3618
 6831SOL    HW231956   3.368   1.262   5.828 -0.2872  0.1299  0.1562
 6832SOL     OW31957   3.440   1.606   1.198 -0.2178  0.1542 -0.0087
 6832SOL    HW131958   3.357   1.650   1.214 -1.7075 -2.1808 -1.3605
 6832SOL    HW231959   3.446   1.608   1.102  0.7000 -0.2408  0.0414
 6833SOL     OW31960   2.744   2.341   0.731  0.4528  0.3860  0.5515
 6833SOL    HW131961   2.740   2.427   0.772  0.3357  1.4997 -1.7673
 6833SOL    HW231962   2.831   2.310   0.757  0.3346  0.0546  0.5592
 6834SOL     OW31963   3.464   1.787   0.444  0.1908  0.8071 -0.5116
 6834SOL    HW131964   3.461   1.699   0.406 -0.5215  0.2748  0.7731
 6834SOL    HW231965   3.428   1.833   0.368 -0.0062 -1.7941 -1.9862
 6835SOL     OW31966   2.170   3.920  17.087  0.3675  0.4085  0.4643
 6835SOL    HW131967   2.109   3.990  17.109  0.9368  1.1048 -0.2157
 6835SOL    HW231968   2.110   3.862  17.040 -0.3009  1.3075  0.2285
 6836SOL     OW31969   2.956   3.743   5.860  0.3812 -0.2297 -0.0810
 6836SOL    HW131970   2.980   3.747   5.952 -0.5619 -2.2709  0.2374
 6836SOL    HW231971   3.032   3.784   5.818  0.5777  0.7164  1.1942
 6837SOL     OW31972   3.727   1.868   7.862  0.4607 -0.2313  0.6893
 6837SOL    HW131973   3.718   1.773   7.864  0.8493 -0.2883 -0.0580
 6837SOL    HW231974   3.693   1.877   7.772  0.4880 -4.2397  0.2681
 6838SOL     OW31975   0.044   4.076   5.152 -0.4142 -0.1495 -0.4840
 6838SOL    HW131976   0.113   4.098   5.089 -0.6490 -0.2306 -0.7672
 6838SOL    HW231977   0.065   4.122   5.233  1.8713 -0.8448 -0.6808
 6839SOL     OW31978   1.778   1.869   4.456  0.3389  0.4066 -0.6924
 6839SOL    HW131979   1.719   1.884   4.530  0.6581  1.8050 -0.7192
 6839SOL    HW231980   1.862   1.889   4.496 -0.3020  1.1337  0.2754
 6840SOL     OW31981   0.509   2.162   9.014 -0.0686 -0.0562  0.2307
 6840SOL    HW131982   0.589   2.170   8.962 -2.0633 -0.6655 -2.9114
 6840SOL    HW231983   0.509   2.246   9.060 -0.5002  0.1125 -0.0826
 6841SOL     OW31984   3.930   4.232   3.172 -0.2950 -0.2093  0.2981
 6841SOL    HW131985   3.867   4.193   3.112  0.8738 -0.1744 -0.9597
 6841SOL    HW231986   3.914   4.325   3.154  0.9374 -0.2080 -0.8145
 6842SOL     OW31987   4.021   1.859   3.294 -0.0369 -0.1636 -0.4003
 6842SOL    HW131988   4.006   1.770   3.325 -0.3760  0.8233  2.2758
 6842SOL    HW231989   4.034   1.845   3.200 -2.2006 -0.5797 -0.6330
 6843SOL     OW31990   1.014   2.300  12.327  0.0682  0.0761 -0.2052
 6843SOL    HW131991   0.931   2.262  12.300 -0.7030  1.6664 -0.0853
 6843SOL    HW231992   1.025   2.363  12.256  1.6554 -1.1890 -1.0682
 6844SOL     OW31993   4.300   0.589   3.766 -0.0669  0.6205  0.6291
 6844SOL    HW131994   4.259   0.634   3.839 -0.7078 -0.5700  0.9971
 6844SOL    HW231995   4.391   0.576   3.795  0.6388  1.1848 -1.2868
 6845SOL     OW31996   3.868   2.785  14.006 -0.3241  0.4478 -0.4831
 6845SOL    HW131997   3.840   2.760  14.094  0.3563  0.2725 -0.3143
 6845SOL    HW231998   3.799   2.840  13.971 -0.9555  0.1359  0.2744
 6846SOL     OW31999   3.698   4.097   5.134 -0.4174 -0.4085  0.2078
 6846SOL    HW132000   3.641   4.165   5.171 -0.5918 -1.3387  1.6351
 6846SOL    HW232001   3.636   4.023   5.130  0.5209 -1.1544 -0.5409
 6847SOL     OW32002   2.749   4.289  11.853 -0.3938  0.0694 -0.2743
 6847SOL    HW132003   2.715   4.294  11.942 -1.0121  0.1010 -0.5113
 6847SOL    HW232004   2.808   4.365  11.855  1.9443 -1.7826  0.0997
 6848SOL     OW32005   1.937   2.972   5.865  1.0024  0.4262  0.0252
 6848SOL    HW132006   1.920   3.046   5.807  0.3939 -0.0802 -0.4345
 6848SOL    HW232007   1.977   2.918   5.797  1.7906 -0.4998  1.2125
 6849SOL     OW32008   0.569   0.462   0.947 -0.3808  0.0894  0.3605
 6849SOL    HW132009   0.517   0.538   0.972 -2.0775 -0.9567  0.0346
 6849SOL    HW232010   0.629   0.442   1.019  0.4881 -0.4111 -0.5113
 6850SOL     OW32011   3.843   3.422   8.688  0.7057  0.5869 -0.4609
 6850SOL    HW132012   3.850   3.517   8.675 -0.1819  0.6531 -0.4329
 6850SOL    HW232013   3.752   3.411   8.661  0.6788 -0.4321  0.0744
 6851SOL     OW32014   1.494   3.225   0.547  0.0926  0.1842 -0.4606
 6851SOL    HW132015   1.513   3.152   0.487  0.9730  0.3722 -0.4162
 6851SOL    HW232016   1.413   3.186   0.580  0.4613 -0.0033  0.2298
 6852SOL     OW32017   3.326   1.518   6.307 -0.3104  0.3834  0.2859
 6852SOL    HW132018   3.244   1.470   6.316  0.7695 -1.4253  0.4949
 6852SOL    HW232019   3.310   1.612   6.317 -1.4867  0.2102 -0.0110
 6853SOL     OW32020   1.989   1.291  17.022  0.8490  0.8990 -0.3241
 6853SOL    HW132021   1.952   1.209  17.054  0.4071  0.9446 -0.7132
 6853SOL    HW232022   1.993   1.330  17.109 -1.1692 -1.9751  1.0531
 6854SOL     OW32023   2.474   0.636   6.818  0.4470 -0.0051  0.4505
 6854SOL    HW132024   2.394   0.626   6.869  1.0272 -1.1638  1.1381
 6854SOL    HW232025   2.461   0.727   6.792  2.2269  1.1294  3.5542
 6855SOL     OW32026   3.564   4.627   5.844 -0.2922 -0.3488 -0.1765
 6855SOL    HW132027   3.600   4.587   5.765 -1.8388 -1.5454 -0.2824
 6855SOL    HW232028   3.638   4.678   5.876  1.5941 -1.3257 -3.0044
 6856SOL     OW32029   0.018   3.293   9.413 -0.4846  0.3578  0.6545
 6856SOL    HW132030   0.046   3.210   9.451  0.0942 -0.3097 -1.2341
 6856SOL    HW232031   0.036   3.274   9.321 -0.9389 -0.8253  0.8117
 6857SOL     OW32032   1.933   3.140   3.958  0.2668 -0.2779 -0.5385
 6857SOL    HW132033   1.945   3.235   3.959 -3.2116  0.1520 -1.5531
 6857SOL    HW232034   1.987   3.125   3.880 -1.7878 -0.3420 -1.9683
 6858SOL     OW32035   0.917   3.790   7.743  0.5302 -0.1248 -0.1223
 6858SOL    HW132036   0.847   3.827   7.798  0.1833 -0.3987 -0.3857
 6858SOL    HW232037   0.952   3.869   7.701  0.9683  0.5809  1.5597
 6859SOL     OW32038   0.346   4.422   9.254 -0.2332  0.5804  0.5216
 6859SOL    HW132039   0.374   4.514   9.247  2.0294 -0.1979 -0.7152
 6859SOL    HW232040   0.262   4.435   9.296  0.0077  2.6253  0.4028
 6860SOL     OW32041   2.793   3.226   2.742 -0.1494 -0.0980 -0.4152
 6860SOL    HW132042   2.759   3.251   2.828  0.9177 -3.2346  0.9153
 6860SOL    HW232043   2.882   3.261   2.749 -0.1942 -0.3039  1.0975
 6861SOL     OW32044   0.105   3.998   7.085  0.3640 -0.0733 -0.5836
 6861SOL    HW132045   0.059   3.922   7.049 -1.7568  0.4119  1.1330
 6861SOL    HW232046   0.174   4.008   7.019  1.9851 -2.0417  0.8043
 6862SOL     OW32047   4.215   1.401   3.921  0.1421  0.1452  0.0543
 6862SOL    HW132048   4.252   1.441   3.843 -0.2230 -1.6277 -1.0377
 6862SOL    HW232049   4.215   1.307   3.901 -0.6320  0.2070 -0.2514
 6863SOL     OW32050   3.108   2.590   3.171 -0.3307  0.0144  0.1914
 6863SOL    HW132051   3.083   2.682   3.178 -1.5379 -0.3196  0.3473
 6863SOL    HW232052   3.202   2.607   3.170 -0.1159 -1.1846 -0.7969
 6864SOL     OW32053   3.758   1.277   4.535 -0.3998  0.0658  0.1879
 6864SOL    HW132054   3.843   1.235   4.551 -0.8909 -1.3924 -1.0733
 6864SOL    HW232055   3.701   1.201   4.540  0.5080 -0.5269  1.6989
 6865SOL     OW32056   3.772   1.694   4.705 -0.4026  0.5385 -0.4331
 6865SOL    HW132057   3.721   1.774   4.721  1.5280  1.1668  2.6674
 6865SOL    HW232058   3.719   1.619   4.730 -1.1219  1.0281 -0.4903
 6866SOL     OW32059   3.216   2.936  10.451 -0.3147  0.7433 -0.5312
 6866SOL    HW132060   3.130   2.906  10.421 -1.3554 -0.0523  3.1475
 6866SOL    HW232061   3.187   2.961  10.539  0.9748 -0.2926  0.1903
 6867SOL     OW32062   4.231   3.497   2.738 -0.6737 -0.1585 -0.6093
 6867SOL    HW132063   4.211   3.451   2.819 -0.4082  1.7995  0.5683
 6867SOL    HW232064   4.148   3.521   2.695 -0.5986  0.5388 -0.3693
 6868SOL     OW32065   3.335   1.238  10.577 -0.2364 -0.0445  0.7630
 6868SOL    HW132066   3.253   1.257  10.623 -1.7506 -1.2801 -1.4355
 6868SOL    HW232067   3.294   1.234  10.491  0.0222  0.4878  0.6120
 6869SOL     OW32068   2.637   3.227   4.401 -0.6143  0.3976 -0.1514
 6869SOL    HW132069   2.663   3.266   4.485  0.7186  0.9367 -0.8210
 6869SOL    HW232070   2.593   3.302   4.360  0.5482  0.3153 -1.5488
 6870SOL     OW32071   3.925   2.863   3.407 -0.0895 -0.0088 -0.1594
 6870SOL    HW132072   3.837   2.900   3.405  0.2353  0.8520  1.7551
 6870SOL    HW232073   3.964   2.882   3.321  0.6387  0.3699  0.2506
 6871SOL     OW32074   1.533   0.840  16.471 -0.3988 -0.0600  0.0030
 6871SOL    HW132075   1.623   0.846  16.439 -0.1844 -0.0171  0.6114
 6871SOL    HW232076   1.510   0.932  16.478  5.4375  1.2875  1.3346
 6872SOL     OW32077   0.310   0.591  10.197 -0.2767 -0.0254 -0.1420
 6872SOL    HW132078   0.316   0.675  10.151  0.0398  0.6733  1.1616
 6872SOL    HW232079   0.312   0.524  10.129 -1.7256  0.1217 -0.3268
 6873SOL     OW32080   1.704   0.608   1.351  0.1416  0.6898  0.1503
 6873SOL    HW132081   1.788   0.567   1.372  1.1230  3.3411  1.4233
 6873SOL    HW232082   1.687   0.650   1.435  0.0113  0.8585  0.0378
 6874SOL     OW32083   2.438   1.166   1.814 -0.4918 -0.2895 -0.6342
 6874SOL    HW132084   2.481   1.122   1.741 -0.2865  0.5939 -1.0444
 6874SOL    HW232085   2.457   1.257   1.792 -1.8001  0.6662  2.1232
 6875SOL     OW32086   2.022   3.808  13.037  0.0833 -0.0031 -0.3844
 6875SOL    HW132087   1.971   3.736  13.000 -0.5198  1.3427 -2.1901
 6875SOL    HW232088   1.997   3.800  13.129  1.0874 -1.0837 -0.2018
 6876SOL     OW32089   2.788   4.626   7.917  0.0131  0.6208  0.0041
 6876SOL    HW132090   2.703   4.669   7.915 -0.6931 -0.8781 -2.7222
 6876SOL    HW232091   2.849   4.699   7.927  0.6604  0.6011 -3.7289
 6877SOL     OW32092   0.922   3.764   6.754 -0.0235  0.3298  0.8775
 6877SOL    HW132093   0.847   3.813   6.789 -1.1171 -1.1350  0.5386
 6877SOL    HW232094   0.875   3.681   6.757  1.1787 -0.4981 -3.7073
 6878SOL     OW32095   3.471   0.093   9.053  0.3473 -0.4348  0.4623
 6878SOL    HW132096   3.564   0.104   9.073 -0.2375 -0.6923  3.2404
 6878SOL    HW232097   3.441   0.182   9.038 -0.8898 -0.8132  0.7142
 6879SOL     OW32098   2.714   3.185   4.127  0.2252 -0.0812  0.6203
 6879SOL    HW132099   2.675   3.149   4.207 -1.7168 -0.7563 -0.6326
 6879SOL    HW232100   2.715   3.277   4.152 -0.1985 -0.6743  2.8744
 6880SOL     OW32101   3.217   4.100   5.169 -0.4229 -0.5399  0.5207
 6880SOL    HW132102   3.140   4.147   5.200 -0.9514  0.2758 -2.0762
 6880SOL    HW232103   3.190   4.059   5.087  0.6063 -0.1408 -0.0123
 6881SOL     OW32104   4.307   0.887   6.752 -0.2983  0.3689  0.1586
 6881SOL    HW132105   4.363   0.908   6.677 -0.2382 -0.2539  0.0259
 6881SOL    HW232106   4.231   0.843   6.714  1.3085 -0.7869 -1.7636
 6882SOL     OW32107   3.884   3.095   8.495 -0.2209  0.5675  0.0432
 6882SOL    HW132108   3.888   3.089   8.590 -1.1830 -0.0522  0.0427
 6882SOL    HW232109   3.865   3.005   8.468 -0.0223  0.8492 -1.0336
 6883SOL     OW32110   2.314   3.779   7.925 -0.3865 -0.1051  0.3241
 6883SOL    HW132111   2.251   3.850   7.911 -1.0467 -0.3630  2.0268
 6883SOL    HW232112   2.270   3.715   7.980 -1.9804 -0.3490 -1.2171
 6884SOL     OW32113   3.126   2.179  12.316 -0.2973 -0.1218  0.0167
 6884SOL    HW132114   3.059   2.243  12.337 -0.1461  0.7013 -1.9730
 6884SOL    HW232115   3.121   2.164  12.221 -2.8466  0.2729  0.0871
 6885SOL     OW32116   0.889   4.621   1.903  0.0068  0.5302 -0.4783
 6885SOL    HW132117   0.813   4.675   1.923 -1.9347 -2.2300 -0.4983
 6885SOL    HW232118   0.911   4.591   1.991 -2.0759 -0.8303 -0.4162
 6886SOL     OW32119   2.014   2.095   3.492  0.4877 -0.4058  0.4151
 6886SOL    HW132120   2.085   2.082   3.430  0.4154 -0.0352  0.2529
 6886SOL    HW232121   2.008   2.013   3.541 -0.2232 -0.9549 -0.5917
 6887SOL     OW32122   0.868   0.151   6.106  0.0188  0.8673 -0.1598
 6887SOL    HW132123   0.938   0.177   6.047  0.2305 -1.5826 -0.9709
 6887SOL    HW232124   0.884   0.212   6.177  1.9829 -0.2091  0.3042
 6888SOL     OW32125   1.796   4.238   2.745  0.3422  0.2077 -0.3497
 6888SOL    HW132126   1.863   4.296   2.708  0.1866  0.7272  0.1890
 6888SOL    HW232127   1.734   4.250   2.674 -2.4499  0.7665  2.1827
 6889SOL     OW32128   3.071   4.667   1.779 -0.4959 -0.1053  0.1330
 6889SOL    HW132129   3.153   4.618   1.788  0.8229  1.5421 -2.8593
 6889SOL    HW232130   3.066   4.712   1.863  0.0895 -0.1338  0.1800
 6890SOL     OW32131   0.061   2.202  15.108  0.4068  0.1014  0.9553
 6890SOL    HW132132   0.090   2.177  15.196  0.2996  0.2492  1.0331
 6890SOL    HW232133   0.135   2.158  15.066  1.4870  2.3143  0.5149
 6891SOL     OW32134   2.828   0.826   3.293 -0.4541  0.2240 -0.4668
 6891SOL    HW132135   2.877   0.902   3.261  0.4327 -0.0380  0.2671
 6891SOL    HW232136   2.771   0.868   3.359 -1.4966 -0.0968 -1.1694
 6892SOL     OW32137   3.606   0.454   2.898 -0.3355  0.2796 -0.1600
 6892SOL    HW132138   3.653   0.409   2.967 -1.3785  2.2784  1.8414
 6892SOL    HW232139   3.669   0.446   2.827 -0.6827 -1.3021 -0.2933
 6893SOL     OW32140   0.751   1.070   2.041 -0.3954  0.3293 -0.2484
 6893SOL    HW132141   0.791   1.035   2.120 -1.7151 -0.9227 -0.1302
 6893SOL    HW232142   0.671   1.101   2.082 -1.1125 -1.1992 -0.4943
 6894SOL     OW32143   4.720   3.872   3.934 -0.1399 -0.2778  0.7452
 6894SOL    HW132144   0.018   3.783   3.906  1.6521  0.9453 -1.6345
 6894SOL    HW232145   4.633   3.879   3.895 -0.2514 -3.4812  0.4211
 6895SOL     OW32146   0.423   1.266  11.830  0.3228 -0.0751 -0.4670
 6895SOL    HW132147   0.364   1.325  11.783  0.3533  0.7602  0.5416
 6895SOL    HW232148   0.418   1.287  11.923  0.0662 -1.4674 -0.1535
 6896SOL     OW32149   2.491   0.019   7.129 -0.3938  0.4072 -0.1887
 6896SOL    HW132150   2.558   0.051   7.190 -0.5115  0.6709 -0.1960
 6896SOL    HW232151   2.412   0.051   7.174 -2.1322 -2.0685 -1.5090
 6897SOL     OW32152   4.616   2.581  12.340 -0.0977 -0.3940  0.5393
 6897SOL    HW132153   4.610   2.506  12.280 -0.3579 -0.4061  0.5792
 6897SOL    HW232154   4.615   2.530  12.421  0.6794 -0.7255  0.3391
 6898SOL     OW32155   4.024   4.505   4.100 -0.1909  0.3159 -0.2211
 6898SOL    HW132156   4.100   4.447   4.094 -0.4086 -0.1898  1.8503
 6898SOL    HW232157   4.047   4.563   4.173  1.3321 -0.4434 -0.0900
 6899SOL     OW32158   0.870   0.877   2.711 -0.2691 -0.3734  0.2821
 6899SOL    HW132159   0.776   0.886   2.728  0.1801  2.3964  1.3378
 6899SOL    HW232160   0.862   0.856   2.618 -2.2676 -1.5923  0.7224
 6900SOL     OW32161   1.163   1.076   8.551 -0.1649 -0.4812  0.9506
 6900SOL    HW132162   1.117   1.160   8.548 -0.9513 -0.9332  0.5884
 6900SOL    HW232163   1.246   1.100   8.594  0.0602  1.6267 -0.6581
 6901SOL     OW32164   3.753   1.213  14.281 -0.1890 -0.0265  0.6468
 6901SOL    HW132165   3.696   1.147  14.321 -0.9586  1.2677  1.6944
 6901SOL    HW232166   3.716   1.229  14.194 -0.7713 -0.9416  0.7247
 6902SOL     OW32167   4.338   2.037   6.286 -0.2865  0.2343 -0.3245
 6902SOL    HW132168   4.290   2.084   6.218  0.1614  2.1690  0.6972
 6902SOL    HW232169   4.414   2.092   6.304 -0.1326  0.5984 -2.0737
 6903SOL     OW32170   0.188   1.482   9.109  0.2313  0.1229 -0.3900
 6903SOL    HW132171   0.232   1.508   9.190 -1.4319  1.8592 -0.0415
 6903SOL    HW232172   0.171   1.390   9.131 -0.0884  0.2043 -0.2897
 6904SOL     OW32173   0.443   4.633   5.448  0.2615 -0.4019  0.0429
 6904SOL    HW132174   0.446   4.556   5.392 -0.1283  0.3972 -1.0721
 6904SOL    HW232175   0.433   4.695   5.375  0.6469 -0.0524  0.2852
 6905SOL     OW32176   1.439   0.472   2.568 -0.2496  0.4265  0.0108
 6905SOL    HW132177   1.381   0.473   2.492 -2.9525 -2.0464  2.0638
 6905SOL    HW232178   1.497   0.400   2.540 -1.0886 -0.5023  0.6675
 6906SOL     OW32179   0.180   3.091   3.372  0.0487 -0.5659 -0.0547
 6906SOL    HW132180   0.174   3.049   3.286  1.6816  0.8635 -0.8697
 6906SOL    HW232181   0.196   3.182   3.347  2.8840 -0.8294  0.8258
 6907SOL     OW32182   3.483   4.722   7.047 -0.0891 -0.1471 -0.5041
 6907SOL    HW132183   3.490   4.652   7.111  0.1192 -2.1881 -2.7627
 6907SOL    HW232184   3.577   0.012   7.038 -0.0260  0.1416  0.6971
 6908SOL     OW32185   0.347   3.085   6.324 -0.3526 -0.5692 -0.5719
 6908SOL    HW132186   0.274   3.144   6.305 -0.5114  0.3070  2.7626
 6908SOL    HW232187   0.389   3.127   6.400 -1.2760 -2.5130  0.9792
 6909SOL     OW32188   1.589   4.000  11.513  0.0527  0.7171 -0.0546
 6909SOL    HW132189   1.676   3.985  11.551  0.1136  0.0752 -0.4549
 6909SOL    HW232190   1.577   4.095  11.523  1.6161  0.7598  1.4535
 6910SOL     OW32191   1.156   2.302   3.922 -0.2213  0.2099 -0.0068
 6910SOL    HW132192   1.163   2.378   3.980 -0.4797 -1.1550  1.8153
 6910SOL    HW232193   1.066   2.276   3.942 -0.3752 -0.8772 -2.1544
 6911SOL     OW32194   0.008   1.657   2.257  0.2718  0.1557  0.1125
 6911SOL    HW132195   0.042   1.685   2.342 -2.1537  0.6432  0.9334
 6911SOL    HW232196   0.078   1.693   2.203  0.4943 -1.4614 -0.6864
 6912SOL     OW32197   2.082   3.710   0.713  0.5932  0.3216  0.3205
 6912SOL    HW132198   2.108   3.627   0.755 -3.5785 -0.1169  2.0030
 6912SOL    HW232199   2.037   3.750   0.787 -2.0969 -1.2695 -0.4696
 6913SOL     OW32200   3.720   1.359  13.686 -0.1440 -0.0406  0.2734
 6913SOL    HW132201   3.778   1.312  13.626 -0.3829  1.5908 -1.2290
 6913SOL    HW232202   3.634   1.350  13.644  0.8321  0.6207 -1.8754
 6914SOL     OW32203   2.522   2.647   8.715 -0.4929  0.6254 -0.1069
 6914SOL    HW132204   2.608   2.649   8.757  0.3147  0.2061 -1.7394
 6914SOL    HW232205   2.486   2.573   8.764 -0.9106  0.7566 -0.2236
 6915SOL     OW32206   1.824   0.863   4.856 -0.7973 -0.3486  0.2036
 6915SOL    HW132207   1.833   0.809   4.935  0.9723  1.8058  1.4497
 6915SOL    HW232208   1.899   0.922   4.856  0.6234 -2.1561  0.1630
 6916SOL     OW32209   3.691   4.525   5.537 -0.0012 -0.2522 -0.3714
 6916SOL    HW132210   3.605   4.497   5.568 -1.1607  2.9758 -0.7163
 6916SOL    HW232211   3.677   4.587   5.466 -0.3952 -0.1531 -0.2041
 6917SOL     OW32212   1.237   3.322  15.927 -0.3871 -0.0964  0.1447
 6917SOL    HW132213   1.262   3.387  15.861  0.4059  1.6391  2.1312
 6917SOL    HW232214   1.180   3.374  15.984  0.5736  0.4295  0.6331
 6918SOL     OW32215   1.811   4.535   4.542  0.1360  0.4526 -0.2278
 6918SOL    HW132216   1.865   4.521   4.465 -0.1792 -3.3749  0.2514
 6918SOL    HW232217   1.750   4.605   4.520  0.3206  0.0663 -1.9449
 6919SOL     OW32218   3.620   1.928   6.334 -0.1747  0.1481 -0.0545
 6919SOL    HW132219   3.556   1.914   6.264 -1.1410 -0.5796  0.9825
 6919SOL    HW232220   3.571   1.901   6.412 -0.2869  2.8000  0.7970
 6920SOL     OW32221   3.471   0.499   8.696  0.2060  0.6895 -0.4526
 6920SOL    HW132222   3.498   0.443   8.623  1.0004  0.2440  0.1912
 6920SOL    HW232223   3.531   0.479   8.767 -0.2518 -0.3395 -0.3613
 6921SOL     OW32224   3.733   3.529  13.316  0.3663 -0.7883  0.3455
 6921SOL    HW132225   3.715   3.445  13.274 -0.0941 -0.4453 -0.1457
 6921SOL    HW232226   3.639   3.547  13.329  0.3731 -0.8424  0.4686
 6922SOL     OW32227   2.330   0.123  14.465  0.2189  0.2887 -0.3379
 6922SOL    HW132228   2.402   0.177  14.498  0.7420 -0.5695 -0.0768
 6922SOL    HW232229   2.265   0.140  14.535 -2.6109  1.7131 -3.2977
 6923SOL     OW32230   2.930   3.297  11.768  0.4554  0.0854  0.7327
 6923SOL    HW132231   2.988   3.371  11.753  2.0052 -0.9879  1.4835
 6923SOL    HW232232   2.868   3.337  11.829 -0.0910  0.3378  0.0258
 6924SOL     OW32233   1.221   2.662  17.588 -0.2024  0.3626  0.0720
 6924SOL    HW132234   1.175   2.700  17.513 -1.2452 -0.0584  0.5115
 6924SOL    HW232235   1.189   2.573  17.581  0.3670  0.2922 -1.8709
 6925SOL     OW32236   3.766   3.695   8.679  0.6252 -0.0073  0.7160
 6925SOL    HW132237   3.778   3.739   8.763  0.6376 -0.5298  0.9903
 6925SOL    HW232238   3.688   3.742   8.651 -0.4186 -1.4524  1.1635
 6926SOL     OW32239   2.876   1.955   1.894  0.0337 -0.0923  0.1414
 6926SOL    HW132240   2.838   2.035   1.931  1.0348  0.4867 -0.0857
 6926SOL    HW232241   2.801   1.922   1.844 -0.0381  2.0173 -1.1368
 6927SOL     OW32242   3.316   1.082  11.377 -0.3165 -0.6611  0.3238
 6927SOL    HW132243   3.257   1.014  11.348 -1.0152  0.5926 -1.1718
 6927SOL    HW232244   3.275   1.158  11.335  3.1786  0.7106 -0.7087
 6928SOL     OW32245   1.990   2.268  14.904  0.4392 -0.1263 -0.3271
 6928SOL    HW132246   2.069   2.316  14.927  1.2513 -1.3512 -0.5329
 6928SOL    HW232247   1.997   2.279  14.809  1.5682 -0.4454 -0.2876
 6929SOL     OW32248   0.487   2.510   9.322 -0.0742  0.0311 -0.0889
 6929SOL    HW132249   0.463   2.501   9.414 -1.0423 -1.7175 -0.5132
 6929SOL    HW232250   0.416   2.466   9.276 -1.0095  0.9938  0.4372
 6930SOL     OW32251   0.686   2.742  17.594  0.0217 -0.1795  0.1041
 6930SOL    HW132252   0.663   2.834  17.609  0.3868 -0.1154  0.2518
 6930SOL    HW232253   0.699   2.713  17.685 -0.2874  1.3752  0.6399
 6931SOL     OW32254   4.428   4.035   2.568  0.1332 -0.3071  0.1677
 6931SOL    HW132255   4.442   3.957   2.514 -4.6634 -0.4542 -0.9123
 6931SOL    HW232256   4.504   4.086   2.539 -0.0518 -0.0886  0.0627
 6932SOL     OW32257   1.829   2.992   8.108 -0.0611 -0.1887 -0.0220
 6932SOL    HW132258   1.895   3.054   8.138 -0.6368 -0.2743  1.4344
 6932SOL    HW232259   1.869   2.915   8.147  0.4075 -0.2193 -0.5729
 6933SOL     OW32260   3.345   4.160   4.910 -0.9183  0.0263  0.0571
 6933SOL    HW132261   3.343   4.138   4.816  3.6636 -0.8967  0.1514
 6933SOL    HW232262   3.343   4.255   4.918 -0.9899 -0.0720  1.1850
 6934SOL     OW32263   1.095   0.236  13.052  0.0254 -0.0027  0.2794
 6934SOL    HW132264   1.005   0.256  13.078 -0.0534  0.1364 -0.1066
 6934SOL    HW232265   1.124   0.316  13.007  1.0706 -0.4934  0.0643
 6935SOL     OW32266   1.701   1.767  16.156 -0.5080 -0.0144 -0.2657
 6935SOL    HW132267   1.658   1.682  16.159 -0.2811 -0.1358 -0.4825
 6935SOL    HW232268   1.689   1.776  16.062  2.4347  0.6747 -0.5651
 6936SOL     OW32269   0.899   1.910  16.292 -0.0318 -0.1677 -0.3408
 6936SOL    HW132270   0.916   1.817  16.303 -1.0030 -0.3047  0.0390
 6936SOL    HW232271   0.805   1.905  16.310 -0.1915 -0.8462 -1.3378
 6937SOL     OW32272   3.622   2.079   4.204 -0.1420  0.2278  0.2314
 6937SOL    HW132273   3.608   1.985   4.204 -0.1146  0.2232  0.6032
 6937SOL    HW232274   3.657   2.097   4.291  1.1499  0.4590 -0.3322
 6938SOL     OW32275   4.670   2.275  14.035  0.0196 -0.4468  0.4916
 6938SOL    HW132276   4.588   2.226  14.022  1.3568 -2.2616 -1.2043
 6938SOL    HW232277   4.649   2.330  14.110  1.2849 -0.0207  0.5264
 6939SOL     OW32278   1.912   3.703   6.008  0.0355  0.3142  0.7235
 6939SOL    HW132279   1.855   3.760   5.956 -0.2497  0.9761  1.7417
 6939SOL    HW232280   1.991   3.757   6.003  0.4820 -0.6492 -2.2860
 6940SOL     OW32281   0.773   0.315   2.827  0.1281  0.7568 -0.1683
 6940SOL    HW132282   0.690   0.345   2.790  0.2167  1.7083  0.4058
 6940SOL    HW232283   0.806   0.250   2.765 -0.2214  1.8103 -1.4529
 6941SOL     OW32284   3.727   2.695  12.401  0.1883  0.0373 -0.3848
 6941SOL    HW132285   3.674   2.634  12.350 -1.9104  1.3108  0.2640
 6941SOL    HW232286   3.694   2.775  12.361  1.5028  0.7626 -0.0104
 6942SOL     OW32287   4.345   2.262   7.175  0.3610  0.0540  0.6589
 6942SOL    HW132288   4.386   2.246   7.090  0.4265 -1.1367  0.9130
 6942SOL    HW232289   4.252   2.256   7.157  0.5930 -1.1143 -0.1285
 6943SOL     OW32290   1.679   1.718   1.532  0.4836  0.7815  0.6151
 6943SOL    HW132291   1.587   1.695   1.518  1.3666 -1.2648 -2.0790
 6943SOL    HW232292   1.677   1.736   1.626  2.2840 -1.4962  1.0990
 6944SOL     OW32293   1.128   3.631   9.038 -0.9724  0.3472  0.0399
 6944SOL    HW132294   1.123   3.714   9.086 -0.7803 -0.7956  2.0718
 6944SOL    HW232295   1.053   3.589   9.079 -0.6588 -0.2940 -0.0419
 6945SOL     OW32296   1.933   2.065   8.161  0.4446 -0.2936  0.0667
 6945SOL    HW132297   1.860   2.112   8.120  0.6231 -0.7474 -0.7641
 6945SOL    HW232298   1.882   2.033   8.236 -3.6924  0.3706 -2.4272
 6946SOL     OW32299   1.337   1.031  11.172 -0.3709 -0.1066  0.8236
 6946SOL    HW132300   1.334   0.939  11.196  0.4323 -0.7504 -1.5600
 6946SOL    HW232301   1.321   1.073  11.257  1.1635  0.3399  0.8881
 6947SOL     OW32302   0.149   2.844   0.057  0.4217  0.1335  0.2283
 6947SOL    HW132303   0.133   2.861   0.150 -2.3822  1.1372 -0.4235
 6947SOL    HW232304   0.242   2.860   0.045  0.2918 -0.4202 -1.5534
 6948SOL     OW32305   3.555   1.930   2.535 -0.3858  0.0779  0.2431
 6948SOL    HW132306   3.585   2.021   2.532 -0.3115  0.0295 -0.3767
 6948SOL    HW232307   3.631   1.878   2.564  0.6065  0.5806 -1.4515
 6949SOL     OW32308   1.189   1.378   3.118  0.2017 -0.5842  0.3324
 6949SOL    HW132309   1.205   1.338   3.033 -1.3626 -1.1656  0.3098
 6949SOL    HW232310   1.281   1.396   3.137  0.6304 -1.6205 -0.7678
 6950SOL     OW32311   1.631   1.800   5.568  0.1318 -0.7226  0.1551
 6950SOL    HW132312   1.708   1.846   5.601  0.0652  0.7127 -1.6713
 6950SOL    HW232313   1.604   1.762   5.652 -1.4531  0.4964  0.1947
 6951SOL     OW32314   1.268   0.416   2.770 -0.5689 -0.1939  0.1502
 6951SOL    HW132315   1.359   0.428   2.742 -0.9384  0.9337 -0.5785
 6951SOL    HW232316   1.227   0.481   2.713 -0.4479  2.3008  2.8762
 6952SOL     OW32317   3.166   0.672  12.146 -0.4053  0.0256 -0.7197
 6952SOL    HW132318   3.160   0.686  12.051 -0.0714 -0.1846 -0.7707
 6952SOL    HW232319   3.184   0.763  12.170  1.3379 -0.3659 -0.6025
 6953SOL     OW32320   3.200   2.978   8.488  0.2585 -0.0559  0.0181
 6953SOL    HW132321   3.218   2.887   8.512 -1.7138 -0.3135  0.5873
 6953SOL    HW232322   3.282   3.014   8.455  0.0411  0.9773  0.6019
 6954SOL     OW32323   4.543   3.375   4.419  0.8048 -0.4063  0.3814
 6954SOL    HW132324   4.501   3.290   4.431  1.8274 -0.8139  1.1030
 6954SOL    HW232325   4.542   3.367   4.323  0.3414 -2.6696  0.5691
 6955SOL     OW32326   0.812   4.429  13.656 -0.1438  0.0680  0.5336
 6955SOL    HW132327   0.839   4.410  13.567  2.7644 -1.8753  1.8468
 6955SOL    HW232328   0.744   4.363  13.674  0.1099 -0.8764 -1.9984
 6956SOL     OW32329   1.168   1.672   5.351 -0.0115  0.1930 -1.3469
 6956SOL    HW132330   1.173   1.739   5.419 -3.6265  0.3152 -1.1811
 6956SOL    HW232331   1.218   1.716   5.283  0.0120  0.9947 -0.8076
 6957SOL     OW32332   0.329   2.653  14.728 -0.0080  0.2037 -0.1318
 6957SOL    HW132333   0.262   2.595  14.691  0.1229 -0.2592  0.3526
 6957SOL    HW232334   0.346   2.597  14.804  0.2649 -0.4714 -0.6863
 6958SOL     OW32335   4.151   1.407   6.450 -0.1042  0.5785 -0.2927
 6958SOL    HW132336   4.112   1.452   6.525 -0.7998  0.0413 -0.3373
 6958SOL    HW232337   4.245   1.422   6.463 -0.5384  3.8301 -0.7911
 6959SOL     OW32338   0.180   1.878  11.884 -0.3636 -0.4142  0.2194
 6959SOL    HW132339   0.224   1.958  11.914  2.9493 -2.0659 -0.2596
 6959SOL    HW232340   0.196   1.883  11.790  0.1261  0.2615  0.3400
 6960SOL     OW32341   1.575   4.052   1.675 -0.1972 -0.2068 -0.1032
 6960SOL    HW132342   1.664   4.017   1.677  0.3028  1.0890  0.4278
 6960SOL    HW232343   1.581   4.119   1.742  1.1344  0.1002 -0.5316
 6961SOL     OW32344   0.180   3.570   1.421  0.2249  0.1177  0.1542
 6961SOL    HW132345   0.140   3.645   1.376 -2.6142 -1.3470  0.2269
 6961SOL    HW232346   0.112   3.541   1.481  1.9087  0.0978  2.0585
 6962SOL     OW32347   1.533   1.516   1.806 -0.4751 -1.1832  0.7075
 6962SOL    HW132348   1.578   1.444   1.762  0.1777 -0.3880  0.0836
 6962SOL    HW232349   1.603   1.581   1.808 -0.6384 -1.0124  0.8171
 6963SOL     OW32350   3.170   2.193  11.589 -0.5535  0.0442 -0.1446
 6963SOL    HW132351   3.233   2.230  11.527  0.1388  0.8415  1.0364
 6963SOL    HW232352   3.206   2.105  11.601  0.6306  0.6878  0.9669
 6964SOL     OW32353   0.062   0.295   9.847  0.9431  0.1102 -0.5093
 6964SOL    HW132354   0.054   0.313   9.753 -0.6434  1.7082 -0.0793
 6964SOL    HW232355   0.038   0.203   9.847 -0.4132  0.4659 -0.0010
 6965SOL     OW32356   2.572   1.296   1.236  0.3825  0.0651  0.0762
 6965SOL    HW132357   2.534   1.234   1.174  1.5738 -0.1810 -0.4011
 6965SOL    HW232358   2.521   1.272   1.314  0.6107 -1.8853 -0.3613
 6966SOL     OW32359   1.435   2.112  13.017  0.0384  0.4506 -0.5642
 6966SOL    HW132360   1.356   2.154  12.983 -0.7990 -0.6804 -0.0110
 6966SOL    HW232361   1.465   2.064  12.940 -0.8523 -0.5501 -0.2799
 6967SOL     OW32362   2.428   3.141   2.621 -0.0349 -0.0204 -0.4449
 6967SOL    HW132363   2.509   3.092   2.608  0.3760  0.3245  0.8177
 6967SOL    HW232364   2.365   3.082   2.579  1.7252 -0.3022 -2.7052
 6968SOL     OW32365   2.933   3.283  12.222 -0.1262  0.0821  0.0294
 6968SOL    HW132366   2.847   3.311  12.189 -0.2481 -0.1120  0.1890
 6968SOL    HW232367   2.991   3.357  12.204 -0.0102  0.1842  0.8246
 6969SOL     OW32368   4.452   1.513   6.145  0.1339  0.4094  0.1900
 6969SOL    HW132369   4.468   1.607   6.135  1.6985  0.2715  1.4754
 6969SOL    HW232370   4.365   1.503   6.106  0.9278  0.7951 -1.6956
 6970SOL     OW32371   3.027   2.132   3.273 -0.4770 -0.0393 -0.2066
 6970SOL    HW132372   3.032   2.050   3.323  1.5175  0.4914  0.4732
 6970SOL    HW232373   3.001   2.114   3.183 -0.6167 -3.9006  0.5908
 6971SOL     OW32374   0.190   2.155   8.024 -0.1485 -0.3288 -0.8016
 6971SOL    HW132375   0.190   2.224   7.959  0.9424  1.4199  1.0408
 6971SOL    HW232376   0.281   2.129   8.033  0.3325  1.2619 -1.0701
 6972SOL     OW32377   0.935   1.124  12.313  0.4610 -0.0727 -0.6588
 6972SOL    HW132378   0.991   1.081  12.378  2.0658 -2.0253 -3.3310
 6972SOL    HW232379   0.862   1.148  12.371 -0.1748 -1.2947 -0.9435
 6973SOL     OW32380   3.370   2.553   4.650 -0.4976 -0.0292  0.5029
 6973SOL    HW132381   3.300   2.554   4.715  1.7195  1.2035  2.8533
 6973SOL    HW232382   3.447   2.548   4.705 -1.2081  1.4687  1.6542
 6974SOL     OW32383   1.211   0.520   9.240  0.9163  0.3670  0.5303
 6974SOL    HW132384   1.224   0.474   9.157  0.9959  0.1077  0.6858
 6974SOL    HW232385   1.115   0.527   9.240  0.9324  0.4879  1.3471
 6975SOL     OW32386   1.964   2.499  11.177  0.3098 -0.1764 -0.2408
 6975SOL    HW132387   1.881   2.497  11.130  0.3453 -3.7275 -0.1664
 6975SOL    HW232388   1.997   2.411  11.159 -1.6479 -0.7393 -1.1054
 6976SOL     OW32389   2.341   3.094   4.260  1.0206  0.0730  0.0666
 6976SOL    HW132390   2.344   3.145   4.179 -0.4464  1.8174  1.1006
 6976SOL    HW232391   2.331   3.157   4.332  1.4699 -1.1069  1.1530
 6977SOL     OW32392   1.217   1.011   7.949  0.1266 -0.9103  0.2671
 6977SOL    HW132393   1.161   0.982   8.022 -1.3159  3.7090  1.0225
 6977SOL    HW232394   1.183   0.946   7.889 -1.8180 -1.7047  2.2251
 6978SOL     OW32395   4.393   0.042   5.175 -0.4405  0.3903 -0.2152
 6978SOL    HW132396   4.418   0.134   5.169 -0.0293  0.2845 -0.0729
 6978SOL    HW232397   4.413   0.013   5.264  0.1275 -0.4352 -0.6052
 6979SOL     OW32398   3.158   4.024   6.916  0.8847 -0.5840 -0.2501
 6979SOL    HW132399   3.205   3.972   6.982  1.6506  1.0094  0.4586
 6979SOL    HW232400   3.072   4.032   6.958  0.8453  0.5181 -0.5469
 6980SOL     OW32401   1.054   2.917   6.970 -0.3330 -0.0396 -0.1957
 6980SOL    HW132402   1.068   2.894   6.878 -0.0095  1.8272 -0.6029
 6980SOL    HW232403   0.995   2.992   6.964  1.7400  1.6674  0.9104
 6981SOL     OW32404   1.175   2.587   0.347  0.3188  0.3678  0.2754
 6981SOL    HW132405   1.152   2.564   0.437  1.9649 -0.6753  0.4416
 6981SOL    HW232406   1.127   2.666   0.324 -1.4565 -1.3071 -1.7904
 6982SOL     OW32407   2.745   3.275   6.660  0.0075  0.2868  0.6554
 6982SOL    HW132408   2.796   3.332   6.718 -0.5131  1.0114  0.4112
 6982SOL    HW232409   2.689   3.226   6.720 -0.3062 -0.8219 -0.5354
 6983SOL     OW32410   0.245   1.645   7.182 -0.3562  0.2806 -0.5956
 6983SOL    HW132411   0.279   1.638   7.271  0.9248  0.7529 -1.0407
 6983SOL    HW232412   0.322   1.615   7.133  1.1820 -1.7206  3.0777
 6984SOL     OW32413   2.342   3.183  10.930 -0.3878  0.5731  0.2109
 6984SOL    HW132414   2.283   3.210  11.000  1.3733  0.5284  1.7039
 6984SOL    HW232415   2.316   3.243  10.861 -1.0644  0.3033  0.2337
 6985SOL     OW32416   3.503   0.324  12.445 -0.1249  0.8445  0.1530
 6985SOL    HW132417   3.569   0.300  12.510 -1.2323 -1.2824  0.4805
 6985SOL    HW232418   3.456   0.387  12.501  0.5129  1.7384 -0.3096
 6986SOL     OW32419   1.112   0.348   0.400  0.0897 -0.3480  0.1289
 6986SOL    HW132420   1.078   0.270   0.357  0.8736 -0.6740  0.1087
 6986SOL    HW232421   1.031   0.399   0.402  0.5882  0.4048  1.1614
 6987SOL     OW32422   2.292   2.662   0.498 -0.0926  0.2424  1.1647
 6987SOL    HW132423   2.372   2.697   0.538 -0.1444 -0.9207  2.2861
 6987SOL    HW232424   2.269   2.578   0.537  0.5250 -0.5216 -0.1082
 6988SOL     OW32425   2.991   0.865   5.535  0.3847  0.2958 -0.2512
 6988SOL    HW132426   3.042   0.893   5.459 -0.3579 -0.8246 -1.1837
 6988SOL    HW232427   2.906   0.902   5.511 -0.2678 -1.1602 -0.1999
 6989SOL     OW32428   2.119   0.240   3.111  0.1961 -0.0867  0.1230
 6989SOL    HW132429   2.164   0.324   3.102 -2.8339  1.6756  1.6659
 6989SOL    HW232430   2.048   0.258   3.173  1.8756 -0.9570  2.3135
 6990SOL     OW32431   0.886   2.681   7.451 -0.6849  0.2031 -0.3235
 6990SOL    HW132432   0.935   2.599   7.451 -0.0453  0.5828 -1.6331
 6990SOL    HW232433   0.964   2.734   7.468  0.3421 -0.9137 -1.5538
 6991SOL     OW32434   1.609   1.570   7.462  0.0874 -0.3166  0.2129
 6991SOL    HW132435   1.655   1.534   7.538  0.0048 -0.0889  0.3692
 6991SOL    HW232436   1.680   1.561   7.398 -2.4734  0.3610 -2.7199
 6992SOL     OW32437   3.122   2.556   4.818 -0.3350 -0.5042 -0.0475
 6992SOL    HW132438   3.060   2.494   4.857 -1.4471 -0.5702 -1.9350
 6992SOL    HW232439   3.060   2.620   4.784  0.8284  0.7646  0.2312
 6993SOL     OW32440   3.872   3.124   6.103  0.2456 -0.3114 -0.3454
 6993SOL    HW132441   3.948   3.120   6.160  0.4687 -0.6709 -0.6701
 6993SOL    HW232442   3.908   3.170   6.026 -0.9591  0.2721 -0.5697
 6994SOL     OW32443   3.615   4.265   7.308  0.1558  0.0187 -0.0124
 6994SOL    HW132444   3.608   4.205   7.382  3.5220  1.2336  1.3052
 6994SOL    HW232445   3.606   4.205   7.235  0.3445 -0.5412  0.4205
 6995SOL     OW32446   0.454   3.243  12.274 -0.5310  0.3361  0.1679
 6995SOL    HW132447   0.382   3.186  12.300  0.5664 -0.6471  0.9715
 6995SOL    HW232448   0.474   3.223  12.182 -2.7886  1.0497 -0.5089
 6996SOL     OW32449   3.587   0.461   4.896  0.4556  0.1152 -0.2385
 6996SOL    HW132450   3.574   0.381   4.948 -0.7177  0.2948 -0.2428
 6996SOL    HW232451   3.516   0.515   4.931 -0.8995 -1.5986 -0.2939
 6997SOL     OW32452   0.209   0.033   4.999 -0.2995  0.1817  0.1426
 6997SOL    HW132453   0.285   4.702   5.015  0.3581  0.3690 -2.3199
 6997SOL    HW232454   0.231   0.058   4.909 -1.4027  0.5843 -0.0178
 6998SOL     OW32455   2.758   1.033  12.493  0.3569 -0.0870  0.0491
 6998SOL    HW132456   2.818   0.986  12.550  0.8540 -1.3379 -1.5228
 6998SOL    HW232457   2.812   1.101  12.453 -0.9315  1.4997  0.9849
 6999SOL     OW32458   3.212   4.424   7.794  0.1465  0.3266 -0.3510
 6999SOL    HW132459   3.194   4.502   7.846  0.0041  0.6151 -0.8366
 6999SOL    HW232460   3.157   4.442   7.718  1.0881  0.7238 -0.9346
 7000SOL     OW32461   0.718   3.702  10.297 -0.2558  0.6803  0.3747
 7000SOL    HW132462   0.801   3.693  10.251 -1.0255  2.1646 -1.3056
 7000SOL    HW232463   0.735   3.654  10.379 -1.1120 -4.3943 -2.4271
 7001SOL     OW32464   1.864   4.075   7.542 -0.7727 -0.3173 -0.0201
 7001SOL    HW132465   1.908   4.027   7.472 -0.3314 -0.1676  0.1560
 7001SOL    HW232466   1.846   4.014   7.613  0.4508  0.4014  0.9165
 7002SOL     OW32467   0.386   3.498   5.921 -0.4724  0.4161  0.1658
 7002SOL    HW132468   0.295   3.523   5.906 -0.4805  0.5853  0.4797
 7002SOL    HW232469   0.392   3.458   5.835  0.9238  1.1372 -0.0733
 7003SOL     OW32470   4.281   2.241   4.147 -0.8316  0.0412  0.4462
 7003SOL    HW132471   4.253   2.323   4.105  2.1351  0.8066 -0.0629
 7003SOL    HW232472   4.204   2.190   4.124 -1.5357  2.2837 -2.2329
 7004SOL     OW32473   0.097   1.130   7.020 -0.9877  0.0675  0.1997
 7004SOL    HW132474   0.140   1.215   7.022  2.0094 -1.4870  1.3621
 7004SOL    HW232475   0.023   1.151   6.963  1.3687  2.1547 -2.0964
 7005SOL     OW32476   0.851   4.126  15.107  0.2430  0.0738 -0.1099
 7005SOL    HW132477   0.888   4.170  15.183 -0.2043  0.8949 -0.3690
 7005SOL    HW232478   0.804   4.198  15.065  1.4406  2.4426  2.6521
 7006SOL     OW32479   2.722   1.148   1.560 -0.5407 -0.1195 -0.2333
 7006SOL    HW132480   2.632   1.148   1.526 -1.2983  0.0667  1.7618
 7006SOL    HW232481   2.770   1.115   1.484  0.0033  0.9514 -0.3474
 7007SOL     OW32482   4.245   3.880   3.810  0.3822 -0.5563 -0.1953
 7007SOL    HW132483   4.211   3.831   3.885  0.8163  1.6153  1.4096
 7007SOL    HW232484   4.246   3.810   3.745 -2.2279 -0.7075 -0.0622
 7008SOL     OW32485   2.627   2.009  14.040  0.7721  0.4618  0.2748
 7008SOL    HW132486   2.697   1.944  14.042  0.6621  0.3411  0.1837
 7008SOL    HW232487   2.666   2.080  14.092  0.9867  0.8220 -0.3712
 7009SOL     OW32488   2.969   1.076   3.308  0.0757  0.1078  0.0042
 7009SOL    HW132489   3.044   1.116   3.263  0.4222  4.0174  4.0450
 7009SOL    HW232490   3.018   1.022   3.370  1.6310  0.5893 -0.8015
 7010SOL     OW32491   0.685   3.312  14.725  0.3621  0.3051  0.0471
 7010SOL    HW132492   0.602   3.269  14.705 -0.6832  1.6713  1.4568
 7010SOL    HW232493   0.695   3.370  14.649 -1.1404 -1.7587 -1.7168
 7011SOL     OW32494   2.446   3.153   8.579  0.1150  0.7722 -0.0286
 7011SOL    HW132495   2.490   3.149   8.495  0.3086 -1.1133  0.1687
 7011SOL    HW232496   2.514   3.154   8.647  1.7126  0.4504 -1.6413
 7012SOL     OW32497   1.654   2.830   5.641  0.2533 -0.2389 -0.2687
 7012SOL    HW132498   1.697   2.753   5.604 -1.6604 -1.2624 -0.3722
 7012SOL    HW232499   1.658   2.808   5.734  0.0112 -1.2802 -0.5112
 7013SOL     OW32500   0.658   4.557  16.772 -0.3949  0.3479  0.2438
 7013SOL    HW132501   0.670   4.464  16.788 -1.7459  0.4118  1.6515
 7013SOL    HW232502   0.684   4.593  16.857 -0.4186 -0.6148  0.6543
 7014SOL     OW32503   0.001   4.298   0.911 -0.5340  0.8136  0.4359
 7014SOL    HW132504   0.067   4.346   0.861 -0.4005 -1.2796 -1.4264
 7014SOL    HW232505   4.652   4.359   0.906 -0.7766  0.3076 -2.3887
 7015SOL     OW32506   3.451   1.000  10.282  0.2645 -0.2533  0.1480
 7015SOL    HW132507   3.433   0.939  10.210  0.3329 -1.9596  1.5961
 7015SOL    HW232508   3.367   1.003  10.327  0.4702  2.9446  0.2958
 7016SOL     OW32509   2.906   2.584   5.878 -0.7564  0.4208 -0.3292
 7016SOL    HW132510   2.859   2.655   5.834  1.1283  0.7436 -1.8485
 7016SOL    HW232511   2.970   2.548   5.816 -1.1385 -1.5411  0.4221
 7017SOL     OW32512   0.682   2.189  13.532 -0.6460  0.3824  0.8431
 7017SOL    HW132513   0.612   2.197  13.467 -0.3179  0.8956  0.5518
 7017SOL    HW232514   0.754   2.182  13.470 -0.9988 -1.8077  0.6511
 7018SOL     OW32515   2.764   3.861   9.332  0.5024  0.0023 -0.7239
 7018SOL    HW132516   2.776   3.770   9.304 -1.9345 -0.5315  0.0187
 7018SOL    HW232517   2.670   3.875   9.334  0.6988  0.9388  1.7918
 7019SOL     OW32518   1.608   0.000   6.320  0.2061  0.2010 -0.1035
 7019SOL    HW132519   1.670   0.042   6.260  0.0535 -1.4332 -1.3881
 7019SOL    HW232520   1.536   0.062   6.336 -1.3613 -1.4173 -0.9969
 7020SOL     OW32521   3.068   2.533   0.025  0.1374  0.4080  0.5603
 7020SOL    HW132522   3.079   2.628   0.019  0.6360  0.2285 -1.1135
 7020SOL    HW232523   3.157   2.502   0.007 -0.3657  0.4187 -1.9009
 7021SOL     OW32524   1.202   1.434   0.370  0.2834 -0.4742 -0.6556
 7021SOL    HW132525   1.111   1.464   0.367  0.6277  0.5281 -1.1031
 7021SOL    HW232526   1.213   1.439   0.465 -1.5658 -2.3824 -0.3467
 7022SOL     OW32527   3.763   3.987  13.180 -0.5406  0.2285  0.0635
 7022SOL    HW132528   3.683   3.934  13.179  0.4586 -1.2816 -0.6690
 7022SOL    HW232529   3.757   4.057  13.245  2.0628  0.8651 -0.3523
 7023SOL     OW32530   2.961   3.998  13.522 -0.0000  0.3652 -0.6889
 7023SOL    HW132531   2.898   4.037  13.582 -0.0740  0.0685 -0.5768
 7023SOL    HW232532   2.929   4.024  13.435 -2.5387 -3.4738 -0.9261
 7024SOL     OW32533   4.483   4.340  15.501  0.4696 -0.3939 -0.1083
 7024SOL    HW132534   4.460   4.373  15.588 -2.2191  1.5549 -1.5454
 7024SOL    HW232535   4.535   4.262  15.520 -0.5948 -1.2522 -0.6852
 7025SOL     OW32536   1.378   3.057  10.318  0.5975 -0.0153  0.1561
 7025SOL    HW132537   1.392   3.109  10.398  1.2639 -1.5113  1.0151
 7025SOL    HW232538   1.433   3.098  10.251  0.8297  1.1436  1.0424
 7026SOL     OW32539   3.233   1.444   5.450 -0.5394  0.1826  0.1696
 7026SOL    HW132540   3.220   1.403   5.535 -0.8064 -1.6463 -0.7358
 7026SOL    HW232541   3.264   1.530   5.478 -1.6070  0.9888 -1.0670
 7027SOL     OW32542   0.649   0.307   8.748 -0.9386 -0.5526 -0.2490
 7027SOL    HW132543   0.672   0.373   8.683  1.0922 -0.5421  0.4530
 7027SOL    HW232544   0.590   0.361   8.800 -0.0116 -1.2364  1.5182
 7028SOL     OW32545   1.498   4.573   7.030 -0.3584 -0.6584  0.2098
 7028SOL    HW132546   1.446   4.617   7.097 -0.3117 -0.6962  0.2705
 7028SOL    HW232547   1.552   4.517   7.086 -4.5141 -2.5377  2.2762
 7029SOL     OW32548   0.644   4.269   8.566 -0.2686  0.8851  0.2982
 7029SOL    HW132549   0.694   4.270   8.647  1.1141 -3.5061 -0.4967
 7029SOL    HW232550   0.584   4.343   8.573 -0.5649  0.9062 -2.5283
 7030SOL     OW32551   2.552   1.779   6.948  0.8553  0.3076  0.4880
 7030SOL    HW132552   2.477   1.763   7.006  1.4489 -2.6175  0.4185
 7030SOL    HW232553   2.517   1.854   6.899  0.6552 -1.7764 -2.5146
 7031SOL     OW32554   3.971   4.585   6.605  0.6428  0.2628  0.0865
 7031SOL    HW132555   4.025   4.519   6.561 -1.3611 -1.1002 -0.3613
 7031SOL    HW232556   3.980   4.668   6.557 -0.0902  0.5738  0.4870
 7032SOL     OW32557   2.179   0.485  17.608 -0.0444 -0.2755 -0.5264
 7032SOL    HW132558   2.255   0.536  17.579  2.3218 -2.7261  1.3550
 7032SOL    HW232559   2.122   0.559  17.630  0.1129  0.0206 -1.1178
 7033SOL     OW32560   3.887   0.248   2.397  0.0746 -0.2393 -0.2297
 7033SOL    HW132561   3.891   0.153   2.398  1.6874 -0.1713 -0.7071
 7033SOL    HW232562   3.810   0.247   2.454  0.7562 -2.4963  0.6377
 7034SOL     OW32563   2.776   1.623  16.431  0.3017  0.4221 -0.5570
 7034SOL    HW132564   2.803   1.591  16.516 -0.9162  0.0034 -0.3277
 7034SOL    HW232565   2.757   1.538  16.391 -1.8893  1.2767 -1.3241
 7035SOL     OW32566   3.986   3.063   2.578 -0.2367  0.1470 -0.5198
 7035SOL    HW132567   4.019   3.110   2.502 -0.4110 -2.9546 -2.4689
 7035SOL    HW232568   4.056   3.074   2.643 -0.7628 -2.6792  0.4859
 7036SOL     OW32569   0.725   1.552  11.364  0.2032  0.1303 -0.2057
 7036SOL    HW132570   0.799   1.497  11.388  1.2039  0.6656 -2.0398
 7036SOL    HW232571   0.754   1.635  11.401 -1.5842 -1.5079  4.8261
 7037SOL     OW32572   4.102   1.647  14.436  0.2691 -0.0229 -0.1142
 7037SOL    HW132573   4.058   1.729  14.458 -0.6049 -0.1236 -1.4626
 7037SOL    HW232574   4.037   1.608  14.378  0.6880 -2.7068  1.2261
 7038SOL     OW32575   3.943   1.444   6.961  0.2015  0.8478  0.5668
 7038SOL    HW132576   4.000   1.468   7.034  1.3603 -1.0072  0.2605
 7038SOL    HW232577   3.871   1.396   7.002  0.5227 -0.2663 -0.1896
 7039SOL     OW32578   1.056   4.606   6.159 -0.3810 -0.1282  0.5026
 7039SOL    HW132579   0.983   4.627   6.101  0.8122  0.7342 -0.6918
 7039SOL    HW232580   1.089   4.695   6.169 -0.3479 -0.3258  2.1021
 7040SOL     OW32581   0.309   2.793   5.675 -0.5051  0.4398 -0.1451
 7040SOL    HW132582   0.227   2.823   5.715 -1.5294 -1.7389 -0.5965
 7040SOL    HW232583   0.280   2.728   5.611 -2.0393 -1.7321  2.7420
 7041SOL     OW32584   1.907   4.643  12.050 -0.6220 -0.2777 -0.2135
 7041SOL    HW132585   1.927   4.573  12.112  2.2414  0.1540 -0.6543
 7041SOL    HW232586   1.876   4.589  11.977  0.0459  0.8714 -1.3438
 7042SOL     OW32587   3.149   2.384   2.077  0.4375 -0.0939  0.2216
 7042SOL    HW132588   3.198   2.450   2.125 -2.4044  2.4919 -0.4541
 7042SOL    HW232589   3.073   2.438   2.056  0.3512  0.2227  1.3076
 7043SOL     OW32590   1.658   0.692   9.062  0.2742  0.5031  0.7218
 7043SOL    HW132591   1.645   0.715   9.154  0.9578 -0.0514  0.9630
 7043SOL    HW232592   1.669   0.596   9.064  2.4389  0.7115 -0.8391
 7044SOL     OW32593   0.329   2.486   1.121  0.0456  0.4132  0.0154
 7044SOL    HW132594   0.301   2.428   1.193  1.6384  0.6337  0.8038
 7044SOL    HW232595   0.364   2.430   1.052 -1.8579 -0.7780  0.0052
 7045SOL     OW32596   0.282   1.111   3.746  0.1380  0.2895  0.6064
 7045SOL    HW132597   0.285   1.187   3.803 -3.2629  0.5447  0.4179
 7045SOL    HW232598   0.195   1.072   3.752  0.0259  0.5339  0.5640
 7046SOL     OW32599   1.109   0.792   8.091  0.0385 -0.2321  0.2020
 7046SOL    HW132600   1.063   0.740   8.025 -4.2318  2.8129  0.7752
 7046SOL    HW232601   1.059   0.772   8.171 -0.5313  0.7010  0.0826
 7047SOL     OW32602   3.115   0.367  11.175 -0.4437  0.4217  0.0194
 7047SOL    HW132603   3.119   0.462  11.161 -0.2278  0.4503  0.2796
 7047SOL    HW232604   3.105   0.356  11.269  1.2626  1.1787  0.2771
 7048SOL     OW32605   2.340   2.676  14.999 -0.1288 -0.4696  0.1380
 7048SOL    HW132606   2.394   2.751  15.024  1.6195 -1.3476 -1.0326
 7048SOL    HW232607   2.278   2.677  15.072  0.9331  0.4413  1.0161
 7049SOL     OW32608   4.553   1.306   1.960 -0.1496  0.2569 -0.2187
 7049SOL    HW132609   4.523   1.226   1.916 -1.4516  1.1296 -0.9217
 7049SOL    HW232610   4.473   1.359   1.958 -0.7907 -0.7832 -2.5876
 7050SOL     OW32611   4.315   3.975  17.637 -0.6365  0.7024 -0.3030
 7050SOL    HW132612   4.229   3.978  17.679 -0.2182  0.3930  0.5635
 7050SOL    HW232613   4.289   4.020  17.556 -2.2148 -0.9561 -0.7377
 7051SOL     OW32614   1.710   1.106  10.877  0.2266 -0.1607 -0.3052
 7051SOL    HW132615   1.714   1.070  10.966  1.7351  0.1905 -0.2432
 7051SOL    HW232616   1.795   1.091  10.835 -0.2516  2.2923 -2.1188
 7052SOL     OW32617   1.915   3.825   8.098  0.5138 -0.2395 -0.1886
 7052SOL    HW132618   1.823   3.813   8.119 -0.1662  2.1577 -1.7367
 7052SOL    HW232619   1.956   3.830   8.184 -0.6801  1.9961  0.2451
 7053SOL     OW32620   2.238   3.252   3.998 -0.1887  0.3330 -0.1333
 7053SOL    HW132621   2.281   3.328   3.958 -2.1446  1.2467 -0.4811
 7053SOL    HW232622   2.147   3.280   3.997 -0.0402  0.8456  1.0662
 7054SOL     OW32623   4.418   0.790   3.951  0.1657  0.0246 -0.2189
 7054SOL    HW132624   4.365   0.814   4.027 -0.0692  0.1810 -0.4321
 7054SOL    HW232625   4.504   0.832   3.956  0.1541 -0.0628  0.6123
 7055SOL     OW32626   1.433   1.356   7.280  0.3740 -0.1817 -0.7482
 7055SOL    HW132627   1.390   1.439   7.262 -0.4961 -0.8763 -1.9456
 7055SOL    HW232628   1.522   1.372   7.250  1.4047 -2.5045  1.0244
 7056SOL     OW32629   3.959   1.554   7.474  0.0775  0.0556  0.5792
 7056SOL    HW132630   4.015   1.632   7.474  2.3789 -1.5720  1.9827
 7056SOL    HW232631   3.978   1.517   7.560  0.3205  0.7417  0.8198
 7057SOL     OW32632   0.864   0.342   5.795 -0.3767  0.4776 -0.1006
 7057SOL    HW132633   0.873   0.409   5.727 -1.6764  2.0345  1.2595
 7057SOL    HW232634   0.833   0.272   5.738  0.3458  0.0018  0.0891
 7058SOL     OW32635   3.200   1.491   8.577 -0.0884  0.3295  0.3666
 7058SOL    HW132636   3.239   1.472   8.662  1.1595  1.2676  0.0030
 7058SOL    HW232637   3.248   1.572   8.559 -0.2010  0.4823  0.7370
 7059SOL     OW32638   2.960   3.831   3.362  0.1027 -0.0117 -0.2741
 7059SOL    HW132639   3.054   3.840   3.380 -0.0340  0.3442  0.2467
 7059SOL    HW232640   2.949   3.738   3.382  0.0326  0.4129  1.6770
 7060SOL     OW32641   2.257   4.623   3.294  0.3293 -0.1650  0.0235
 7060SOL    HW132642   2.294   4.654   3.212 -0.5942 -0.1511 -0.3860
 7060SOL    HW232643   2.252   4.704   3.345  0.3417  1.1794 -2.1548
 7061SOL     OW32644   1.001   3.673   8.552  0.1193  0.2362  0.1156
 7061SOL    HW132645   1.084   3.641   8.588  0.8105  1.1787 -0.6499
 7061SOL    HW232646   0.982   3.608   8.484  0.6254  0.0016  0.1970
 7062SOL     OW32647   3.915   0.058   0.677 -0.5110  0.2315  0.3918
 7062SOL    HW132648   3.875   0.143   0.692 -2.0708 -0.1070 -1.7868
 7062SOL    HW232649   3.994   0.066   0.730  1.3205  3.3315 -2.8024
 7063SOL     OW32650   1.024   1.330   6.627  0.2563  0.5993  0.1633
 7063SOL    HW132651   1.007   1.296   6.539 -3.8190  1.2470  0.6870
 7063SOL    HW232652   1.101   1.381   6.602  0.1703 -0.0097 -1.3296
 7064SOL     OW32653   0.510   0.965   3.655  0.7593  0.3409  0.1212
 7064SOL    HW132654   0.455   1.010   3.719 -1.0830 -1.5657 -0.1020
 7064SOL    HW232655   0.443   0.930   3.595  0.6995  1.7986 -0.6717
 7065SOL     OW32656   2.112   2.863   4.859  0.0883  0.9008  0.3970
 7065SOL    HW132657   2.034   2.917   4.871 -0.6899  0.1381 -1.2177
 7065SOL    HW232658   2.182   2.921   4.886  1.2855  1.5676 -4.1635
 7066SOL     OW32659   3.167   1.333  17.280  0.0418  0.2104 -0.1736
 7066SOL    HW132660   3.148   1.357  17.190  1.9001  2.5667  0.0304
 7066SOL    HW232661   3.135   1.418  17.310 -1.7906 -0.8261  0.7546
 7067SOL     OW32662   4.339   4.178   5.422  0.0417 -0.4473  0.5158
 7067SOL    HW132663   4.254   4.145   5.392  0.9459 -1.5195 -0.8696
 7067SOL    HW232664   4.308   4.262   5.456 -0.9710 -0.1631 -1.1013
 7068SOL     OW32665   4.626   2.820  13.090  0.0002 -0.0138  0.1740
 7068SOL    HW132666   4.625   2.882  13.163 -1.3840 -2.6722  2.4394
 7068SOL    HW232667   4.549   2.854  13.043  0.2234  1.5780  0.9551
 7069SOL     OW32668   1.981   4.680   3.316 -0.0432 -0.0401 -0.0815
 7069SOL    HW132669   2.074   4.696   3.333  0.2249 -2.4316  0.6364
 7069SOL    HW232670   1.983   4.603   3.259  1.1981  0.3919 -0.6052
 7070SOL     OW32671   4.123   3.198   3.107  0.2006  0.2640  0.2352
 7070SOL    HW132672   4.214   3.195   3.137  0.2483 -0.8715 -0.0234
 7070SOL    HW232673   4.069   3.207   3.186  1.8228  0.7141  1.3010
 7071SOL     OW32674   3.178   3.880   5.793  0.3801  0.5494  0.5579
 7071SOL    HW132675   3.262   3.908   5.830 -0.2246  2.4060  0.4747
 7071SOL    HW232676   3.148   3.965   5.763  0.7382  0.7762  0.8387
 7072SOL     OW32677   0.378   4.669   2.417 -0.3299  0.3525 -0.1191
 7072SOL    HW132678   0.300   4.715   2.448 -1.4101 -1.4285 -0.1890
 7072SOL    HW232679   0.377   4.583   2.460  0.3640  0.5880  0.3705
 7073SOL     OW32680   4.194   2.277  17.020  0.4130  0.3306 -0.3429
 7073SOL    HW132681   4.238   2.304  16.939  0.2405  3.6564  0.6637
 7073SOL    HW232682   4.112   2.327  17.025 -0.8232 -1.7746  0.1999
 7074SOL     OW32683   2.953   3.603  13.994 -0.0580  0.2892  0.3508
 7074SOL    HW132684   2.863   3.619  13.966  0.2306  0.1557 -0.6266
 7074SOL    HW232685   2.941   3.579  14.086 -0.8190  0.8258  0.3942
 7075SOL     OW32686   0.049   1.753   6.233  0.0678 -0.0238 -0.1457
 7075SOL    HW132687   0.019   1.838   6.263  1.7722 -0.4797  2.8587
 7075SOL    HW232688   0.001   1.749   6.150 -1.4341 -1.7021  0.7965
 7076SOL     OW32689   1.077   3.689   4.217  0.1900  0.0155 -0.1028
 7076SOL    HW132690   0.988   3.698   4.182 -0.0650  0.9683  0.7837
 7076SOL    HW232691   1.080   3.593   4.216  1.6720  0.0817 -2.0968
 7077SOL     OW32692   4.223   2.249  17.311 -0.0752 -0.0108  0.0053
 7077SOL    HW132693   4.224   2.248  17.216 -0.1744 -4.1893  0.0356
 7077SOL    HW232694   4.262   2.333  17.332 -0.4695 -0.2018  1.5482
 7078SOL     OW32695   3.177   2.162  14.142  0.3530  0.7179  0.0425
 7078SOL    HW132696   3.194   2.178  14.234  0.6691 -3.4724  0.7021
 7078SOL    HW232697   3.219   2.081  14.114 -0.1363  0.6763 -0.5722
 7079SOL     OW32698   4.629   4.406   7.041  0.0534 -0.3555 -0.0461
 7079SOL    HW132699   4.694   4.475   7.051 -0.3020  0.1433 -1.1305
 7079SOL    HW232700   4.560   4.432   7.101  0.8835 -0.8939  1.1251
 7080SOL     OW32701   2.975   2.971   6.422  0.1182  0.0953 -0.0962
 7080SOL    HW132702   2.901   3.020   6.385  0.7725  0.3841 -1.0272
 7080SOL    HW232703   3.037   2.994   6.353  1.3430 -2.9276 -0.0076
 7081SOL     OW32704   3.685   3.044   7.375  0.5958 -0.1144 -0.4468
 7081SOL    HW132705   3.675   2.971   7.313  2.1089 -1.8000  1.2858
 7081SOL    HW232706   3.597   3.051   7.413  1.2478  0.4811  0.9374
 7082SOL     OW32707   4.176   1.480   4.535 -0.3750  0.3256 -0.3823
 7082SOL    HW132708   4.084   1.463   4.513 -0.5788  0.4639  0.3406
 7082SOL    HW232709   4.201   1.400   4.582 -1.3433 -1.0133 -2.1339
 7083SOL     OW32710   3.514   2.068   6.061 -0.0774  0.3422  0.5987
 7083SOL    HW132711   3.511   2.161   6.040 -0.5305  0.4569  1.1779
 7083SOL    HW232712   3.602   2.048   6.029  0.2589  0.8732  1.1917
 7084SOL     OW32713   2.891   1.359   4.103  0.5642  0.4729 -0.4910
 7084SOL    HW132714   2.855   1.382   4.018  2.3493  0.2793 -1.3092
 7084SOL    HW232715   2.825   1.297   4.136  0.9521  0.4774  0.3029
 7085SOL     OW32716   3.304   0.083  13.842 -0.4732 -0.3342 -0.3297
 7085SOL    HW132717   3.283   0.107  13.932  2.5051 -0.4100  0.3765
 7085SOL    HW232718   3.332   4.718  13.864  1.1588 -0.0737 -1.3049
 7086SOL     OW32719   3.633   3.419   9.220 -0.1154 -0.1889 -0.6050
 7086SOL    HW132720   3.561   3.357   9.206 -0.2686  0.0385 -0.8247
 7086SOL    HW232721   3.660   3.443   9.131  0.2630  1.0591 -0.1568
 7087SOL     OW32722   1.956   4.670   2.173  0.1076  0.0126  0.1057
 7087SOL    HW132723   1.895   0.007   2.133 -0.0703 -0.0427  0.2982
 7087SOL    HW232724   2.005   4.641   2.096 -0.5935 -0.7934 -0.0346
 7088SOL     OW32725   0.607   1.169   2.324 -0.0110  0.2141 -0.0564
 7088SOL    HW132726   0.599   1.209   2.411  3.2325  0.6265  0.0356
 7088SOL    HW232727   0.556   1.088   2.331  0.2720 -0.0249 -0.7983
 7089SOL     OW32728   2.782   0.621   2.583 -0.0132 -0.1175 -0.0942
 7089SOL    HW132729   2.790   0.538   2.630  2.1280 -0.0438 -0.3352
 7089SOL    HW232730   2.733   0.679   2.642 -0.0057  1.8027 -1.9558
 7090SOL     OW32731   1.452   0.566   3.144  0.2484  0.1155 -0.1188
 7090SOL    HW132732   1.430   0.647   3.098 -0.9908 -0.1714 -0.0417
 7090SOL    HW232733   1.474   0.510   3.070  1.5231 -0.5897  0.7856
 7091SOL     OW32734   4.012   3.809   4.241 -0.5294  0.3017  0.2888
 7091SOL    HW132735   4.041   3.733   4.292  1.4604  0.2862 -0.8346
 7091SOL    HW232736   3.955   3.839   4.311 -0.1371 -0.3052  0.8709
 7092SOL     OW32737   1.575   4.145   1.424  0.2746 -0.0080  0.0743
 7092SOL    HW132738   1.499   4.104   1.382 -2.0078  2.1908  2.0488
 7092SOL    HW232739   1.566   4.118   1.515 -1.0773  1.5754  0.4036
 7093SOL     OW32740   0.645   3.636  15.058 -0.5032  0.1447  0.0855
 7093SOL    HW132741   0.552   3.619  15.043  0.3677 -1.6124 -3.2587
 7093SOL    HW232742   0.659   3.696  14.985  1.8495  0.4825  0.8199
 7094SOL     OW32743   2.466   3.786  12.646 -0.2143 -0.5073  0.7138
 7094SOL    HW132744   2.437   3.818  12.561  1.0675  0.6813  0.7276
 7094SOL    HW232745   2.429   3.698  12.653  1.4684 -1.2944 -0.4213
 7095SOL     OW32746   4.061   1.462   7.191 -0.1920 -0.3850 -0.1171
 7095SOL    HW132747   4.084   1.550   7.220  0.1996  0.1404 -2.0380
 7095SOL    HW232748   4.097   1.408   7.261  0.0063 -0.2530 -0.1159
 7096SOL     OW32749   3.299   3.656  13.986  0.1811 -0.0579  0.3828
 7096SOL    HW132750   3.277   3.574  13.942  0.4546 -1.0312  2.0581
 7096SOL    HW232751   3.358   3.625  14.054 -0.2539 -1.5273  0.0824
 7097SOL     OW32752   3.442   3.566   2.369 -0.1357 -0.4393 -0.6535
 7097SOL    HW132753   3.418   3.477   2.346 -1.5618 -0.3514  0.5251
 7097SOL    HW232754   3.502   3.590   2.298 -0.0710  0.2809 -0.3521
 7098SOL     OW32755   3.467   3.920   0.361 -0.0351 -0.7264 -0.4600
 7098SOL    HW132756   3.531   3.865   0.406 -0.1574  0.0085  0.6197
 7098SOL    HW232757   3.486   4.005   0.401  2.2057 -0.8358 -1.3063
 7099SOL     OW32758   0.118   3.946   1.600  0.2788 -0.2978  0.2953
 7099SOL    HW132759   0.046   3.886   1.583  0.3159  0.1588 -1.5059
 7099SOL    HW232760   0.169   3.934   1.520  0.6537 -0.7029  0.5946
 7100SOL     OW32761   2.467   4.409   7.352 -0.4085  0.0004 -0.1493
 7100SOL    HW132762   2.462   4.485   7.409  0.8948  0.3722 -0.5211
 7100SOL    HW232763   2.399   4.359   7.397  0.2038 -1.7641 -1.1687
 7101SOL     OW32764   1.702   3.207   9.588  0.1261  0.1203  0.3002
 7101SOL    HW132765   1.623   3.247   9.625 -0.6310  0.0189 -1.2164
 7101SOL    HW232766   1.742   3.170   9.668  2.0087  0.2137 -0.5952
 7102SOL     OW32767   0.810   3.696   4.817 -0.1397  0.4320 -0.3314
 7102SOL    HW132768   0.714   3.702   4.815 -0.2321 -1.0830 -0.1249
 7102SOL    HW232769   0.821   3.741   4.900  2.6763 -2.8872  1.1004
 7103SOL     OW32770   2.053   0.937   6.233  0.4165 -0.4673  0.2879
 7103SOL    HW132771   2.141   0.905   6.251  0.7957  0.2706 -0.2882
 7103SOL    HW232772   2.002   0.865   6.271 -1.0891  0.2677 -0.3307
 7104SOL     OW32773   2.183   0.008   6.578 -0.0238  0.0017  0.0533
 7104SOL    HW132774   2.122   4.675   6.624  0.0401  1.5001  2.0102
 7104SOL    HW232775   2.149   0.017   6.489 -1.3293 -0.1332  0.5479
 7105SOL     OW32776   0.112   4.017   3.560 -0.2080  0.5881  0.6209
 7105SOL    HW132777   0.049   4.057   3.500 -0.5121  0.5174  0.8975
 7105SOL    HW232778   0.061   3.956   3.613 -0.8008  2.5270  2.2613
 7106SOL     OW32779   2.776   3.781   4.423 -0.1172 -0.0835 -0.0596
 7106SOL    HW132780   2.750   3.715   4.359 -1.8158 -1.3033  1.8785
 7106SOL    HW232781   2.870   3.769   4.411  0.3472  1.0411  2.4360
 7107SOL     OW32782   1.422   2.810   7.292 -0.3127 -0.4050  0.0758
 7107SOL    HW132783   1.338   2.789   7.251 -0.3631 -0.0148 -0.0231
 7107SOL    HW232784   1.490   2.795   7.227  0.7051  0.3504  0.9660
 7108SOL     OW32785   0.285   0.193  16.848 -0.2262 -0.0586  0.7634
 7108SOL    HW132786   0.215   0.258  16.857 -0.4140  0.3732 -3.7027
 7108SOL    HW232787   0.252   0.121  16.902 -0.5947 -1.2508 -1.0204
 7109SOL     OW32788   3.445   2.189  10.684  0.0279 -0.2181 -0.3884
 7109SOL    HW132789   3.539   2.199  10.673  0.0949 -1.6312 -1.1109
 7109SOL    HW232790   3.416   2.247  10.613  0.8905 -0.1395 -0.6746
 7110SOL     OW32791   2.009   4.480  15.592  0.3416  0.4351  0.5123
 7110SOL    HW132792   2.057   4.438  15.663 -0.9452 -1.6890  0.1256
 7110SOL    HW232793   1.915   4.464  15.604  0.3065  0.7930  0.7542
 7111SOL     OW32794   4.435   2.898  14.705  0.1510  0.3409  0.2715
 7111SOL    HW132795   4.519   2.882  14.663 -0.1156 -0.8913  0.2099
 7111SOL    HW232796   4.439   2.831  14.773  1.1715  0.6564  0.5274
 7112SOL     OW32797   1.318   2.688   3.206  0.6689  0.0382 -0.3567
 7112SOL    HW132798   1.375   2.691   3.130 -0.0674 -0.2069 -0.9241
 7112SOL    HW232799   1.371   2.649   3.275  0.4636 -0.5242 -0.5105
 7113SOL     OW32800   2.637   2.999   7.504  0.0846 -0.3312  0.1233
 7113SOL    HW132801   2.613   3.032   7.590 -1.5517  2.3178 -1.3263
 7113SOL    HW232802   2.675   3.074   7.459 -1.3183  0.4532  0.2370
 7114SOL     OW32803   0.796   0.087   4.509  0.7367  0.0577 -0.5129
 7114SOL    HW132804   0.777   0.170   4.467 -0.0870  0.4281  0.6023
 7114SOL    HW232805   0.755   0.022   4.451 -1.9349  0.6559  0.7320
 7115SOL     OW32806   1.319   2.325   6.628 -0.0721  0.7966 -0.2318
 7115SOL    HW132807   1.315   2.250   6.569 -0.4023  2.1482 -1.9254
 7115SOL    HW232808   1.348   2.281   6.708  1.9570 -0.7700 -1.8435
 7116SOL     OW32809   2.559   2.855   8.205 -0.1610  0.3997  0.0390
 7116SOL    HW132810   2.515   2.800   8.270  1.6851  0.1184  1.0625
 7116SOL    HW232811   2.492   2.876   8.140  0.6906  0.5447 -0.7952
 7117SOL     OW32812   0.090   2.666   5.038 -0.7518 -0.3945  0.2183
 7117SOL    HW132813   0.028   2.595   5.025  0.7480 -1.4294 -1.1313
 7117SOL    HW232814   0.070   2.691   5.129 -1.4087 -1.7246  0.4329
 7118SOL     OW32815   1.317   1.021   6.116 -0.7859 -0.0057 -0.1072
 7118SOL    HW132816   1.371   0.982   6.184  1.1824  3.0940  0.1109
 7118SOL    HW232817   1.371   1.096   6.089  0.3134 -0.0856  1.8800
 7119SOL     OW32818   1.282   1.884   5.889  0.8638 -0.4374 -0.2427
 7119SOL    HW132819   1.373   1.905   5.911  0.3620  0.5978  0.8629
 7119SOL    HW232820   1.244   1.862   5.974 -1.9456  0.7518 -1.1928
 7120SOL     OW32821   4.137   0.634   4.037  0.1543  0.1929 -0.1799
 7120SOL    HW132822   4.054   0.641   4.085  0.0306  0.5008 -0.4370
 7120SOL    HW232823   4.187   0.706   4.075 -1.9168  1.1694  0.6996
 7121SOL     OW32824   2.394   1.672  11.338  0.2424 -0.3586 -0.0533
 7121SOL    HW132825   2.335   1.679  11.412  1.6777 -1.9437  1.2376
 7121SOL    HW232826   2.413   1.579  11.352 -0.4276 -0.6166 -0.8453
 7122SOL     OW32827   2.421   0.451   5.120 -0.0199  0.6425  0.1201
 7122SOL    HW132828   2.364   0.414   5.052 -1.5599  1.7872  0.8006
 7122SOL    HW232829   2.379   0.425   5.202  0.3874  2.2007  0.8119
 7123SOL     OW32830   3.438   0.664   7.067 -0.3333  0.1217  0.2635
 7123SOL    HW132831   3.471   0.650   6.978  3.3597  1.4013  1.4365
 7123SOL    HW232832   3.345   0.677   7.050 -0.3173  0.8263  0.7261
 7124SOL     OW32833   1.574   4.332   7.820  0.3125  0.5360  0.7766
 7124SOL    HW132834   1.667   4.312   7.832  0.0694 -0.1222  1.5482
 7124SOL    HW232835   1.569   4.381   7.738 -1.5638 -2.5615 -0.9893
 7125SOL     OW32836   1.348   3.325  15.301 -0.4954  0.6968 -0.6218
 7125SOL    HW132837   1.403   3.394  15.337 -1.4500 -0.6390  3.4255
 7125SOL    HW232838   1.259   3.354  15.322 -0.3781  0.8445 -0.3195
 7126SOL     OW32839   2.873   2.050   2.977 -0.0274 -0.1026  0.0135
 7126SOL    HW132840   2.908   2.018   2.894 -0.2212 -0.5361  0.0981
 7126SOL    HW232841   2.881   2.146   2.975 -2.1136  0.0736  0.7786
 7127SOL     OW32842   0.858   1.253  11.614  0.5624 -0.1463 -0.4981
 7127SOL    HW132843   0.844   1.339  11.654 -1.7293 -1.3534  1.3138
 7127SOL    HW232844   0.772   1.224  11.583  1.5553 -2.1270 -1.3781
 7128SOL     OW32845   0.404   4.588  14.719  0.3298  0.4684  0.3374
 7128SOL    HW132846   0.460   4.551  14.787 -2.2295 -1.0127  1.6690
 7128SOL    HW232847   0.463   4.651  14.679  0.1893  0.9216  0.8443
 7129SOL     OW32848   1.732   2.212  13.664 -0.2803 -0.3694 -0.0375
 7129SOL    HW132849   1.813   2.203  13.714 -0.6802 -0.6347  0.5732
 7129SOL    HW232850   1.745   2.300  13.630 -0.2334  0.1350  1.2855
 7130SOL     OW32851   0.502   2.194   6.454 -0.4165  0.0639  0.2123
 7130SOL    HW132852   0.572   2.152   6.504  2.1000  0.5717 -2.8633
 7130SOL    HW232853   0.506   2.279   6.497 -1.8542  0.7567 -1.0288
 7131SOL     OW32854   0.958   4.335   6.175 -0.0638 -0.1558  0.3440
 7131SOL    HW132855   0.999   4.422   6.178 -0.0271 -0.1790  0.5481
 7131SOL    HW232856   1.010   4.297   6.104  0.4606  0.6200  0.3131
 7132SOL     OW32857   4.132   3.887   2.654  0.2311 -0.1148 -0.2205
 7132SOL    HW132858   4.139   3.801   2.612  0.5891 -0.3590  0.3250
 7132SOL    HW232859   4.214   3.880   2.703  1.2239  0.5012 -1.7911
 7133SOL     OW32860   4.108   1.875  15.193  0.3046 -0.2505 -0.1916
 7133SOL    HW132861   4.191   1.833  15.172  0.5399  0.8259 -1.4391
 7133SOL    HW232862   4.060   1.795  15.214 -0.1570 -0.2032 -1.0462
 7134SOL     OW32863   1.357   3.438   6.264 -0.0480 -0.5469 -0.0230
 7134SOL    HW132864   1.329   3.350   6.290 -0.6458 -0.9364 -1.9196
 7134SOL    HW232865   1.281   3.468   6.214 -1.9605 -0.7790  2.7979
 7135SOL     OW32866   0.633   4.144  16.361  0.1032 -0.0655  0.4752
 7135SOL    HW132867   0.627   4.220  16.304 -0.2270 -0.8413 -0.5258
 7135SOL    HW232868   0.659   4.080  16.295 -0.7711  0.4218 -0.3352
 7136SOL     OW32869   2.525   0.683   9.397  0.2103 -0.1547  0.2937
 7136SOL    HW132870   2.567   0.677   9.311  0.8675 -1.3349  0.6884
 7136SOL    HW232871   2.603   0.694   9.452 -0.4010 -1.0007  1.3275
 7137SOL     OW32872   4.585   4.224  16.296 -0.0116  0.1333 -0.3232
 7137SOL    HW132873   4.604   4.305  16.248 -2.6107 -0.4481 -2.2723
 7137SOL    HW232874   4.524   4.249  16.366  1.3666 -0.6818  1.1730
 7138SOL     OW32875   3.833   2.484   8.566  0.7136 -0.3374 -0.2782
 7138SOL    HW132876   3.873   2.481   8.479 -0.5149  1.8682 -0.9054
 7138SOL    HW232877   3.903   2.534   8.608  0.8976 -0.8195 -0.0067
 7139SOL     OW32878   0.279   3.812   2.460 -0.3266 -0.2089 -0.7286
 7139SOL    HW132879   0.330   3.762   2.396  1.7349 -0.3390  1.0169
 7139SOL    HW232880   0.234   3.736   2.497  0.6475  0.3462  1.5907
 7140SOL     OW32881   0.163   1.370  14.782  0.4945 -0.4858  0.2420
 7140SOL    HW132882   0.146   1.464  14.787 -0.8392 -0.7210  0.0804
 7140SOL    HW232883   0.258   1.368  14.793  0.5606  2.1115  0.1163
 7141SOL     OW32884   3.886   3.216  14.574 -0.6197  0.0247 -0.2465
 7141SOL    HW132885   3.910   3.236  14.665 -0.5155  0.7766 -0.4366
 7141SOL    HW232886   3.792   3.206  14.584 -0.7982  0.8307 -1.0589
 7142SOL     OW32887   3.091   4.655  15.488 -0.2196  0.1412  0.5550
 7142SOL    HW132888   3.173   4.705  15.489  0.9772 -1.9868  4.3252
 7142SOL    HW232889   3.070   4.687  15.400  1.0000 -0.6697 -0.0218
 7143SOL     OW32890   4.677   0.071   7.349  0.3257 -0.5346 -0.0201
 7143SOL    HW132891   4.720   0.118   7.421  0.2035 -1.3504  0.5927
 7143SOL    HW232892   4.653   0.136   7.284  1.6078 -1.6997 -1.6637
 7144SOL     OW32893   0.248   2.029  14.921 -0.1800 -0.2028 -0.3610
 7144SOL    HW132894   0.172   2.062  14.874 -0.0638 -0.8671 -1.0110
 7144SOL    HW232895   0.329   2.032  14.871 -0.9713  1.7624 -1.5288
 7145SOL     OW32896   4.031   0.706  12.752 -0.4665  0.3854 -0.5611
 7145SOL    HW132897   4.086   0.757  12.694  1.7042  0.7220  1.8216
 7145SOL    HW232898   4.093   0.637  12.778 -0.4943  0.2934 -0.7382
 7146SOL     OW32899   0.903   0.552   3.161  0.3090  0.4538 -0.6173
 7146SOL    HW132900   0.924   0.459   3.158  0.1305  0.4046 -0.2808
 7146SOL    HW232901   0.847   0.558   3.238  1.8147  1.2123  0.4289
 7147SOL     OW32902   2.825   4.545   7.118  0.3837 -0.0512  0.3925
 7147SOL    HW132903   2.882   4.479   7.079 -0.3895 -1.2505  1.3033
 7147SOL    HW232904   2.801   4.596   7.040 -0.6609 -2.7140 -1.0289
 7148SOL     OW32905   0.966   2.263   6.387  0.2573  0.1632  0.0132
 7148SOL    HW132906   0.920   2.196   6.438 -2.2584  1.5910 -0.3986
 7148SOL    HW232907   0.986   2.318   6.463 -0.3527  1.6578 -0.9127
 7149SOL     OW32908   3.026   2.842   3.201 -0.4241 -0.2438  0.3754
 7149SOL    HW132909   3.017   2.808   3.290  1.8332  3.8200  2.1252
 7149SOL    HW232910   2.942   2.889   3.199  0.4055  1.2037  0.0207
 7150SOL     OW32911   4.113   3.788   8.332  0.0411  0.0146 -0.1999
 7150SOL    HW132912   4.178   3.743   8.386 -2.6064 -3.4187  0.0675
 7150SOL    HW232913   4.154   3.871   8.305 -0.8761  0.0607 -1.4423
 7151SOL     OW32914   2.436   0.127   2.464 -0.1433  0.1220 -0.1522
 7151SOL    HW132915   2.476   0.213   2.481  1.3966 -0.6799  0.2629
 7151SOL    HW232916   2.512   0.070   2.471  0.4104  1.2629  3.4900
 7152SOL     OW32917   3.021   2.793   7.579  0.0052  0.7835  0.1339
 7152SOL    HW132918   2.997   2.715   7.627 -0.8806  1.4335  0.7514
 7152SOL    HW232919   2.937   2.824   7.543 -1.3460 -1.6832  1.1674
 7153SOL     OW32920   2.609   2.549   5.456 -0.1921  0.8789 -0.0843
 7153SOL    HW132921   2.596   2.531   5.363  1.6689 -1.3118  0.0656
 7153SOL    HW232922   2.651   2.634   5.447  0.2778  0.4912 -1.5494
 7154SOL     OW32923   1.804   1.497   2.563 -0.3972 -0.0227  0.6235
 7154SOL    HW132924   1.835   1.421   2.512 -1.6741  0.5109 -0.9477
 7154SOL    HW232925   1.752   1.542   2.496 -2.3517  0.8675  2.7674
 7155SOL     OW32926   0.996   0.547  13.199 -0.3719 -0.0675  0.6060
 7155SOL    HW132927   1.043   0.490  13.261  1.1741  1.0839  0.4845
 7155SOL    HW232928   0.936   0.479  13.167 -0.0009 -0.7982  1.4601
 7156SOL     OW32929   2.734   1.887   5.330 -1.0203  0.0438  0.5455
 7156SOL    HW132930   2.650   1.846   5.353 -0.4711 -0.4994  1.5631
 7156SOL    HW232931   2.794   1.828   5.375 -0.0834  0.3238 -0.3631
 7157SOL     OW32932   0.452   0.988  17.218 -0.4615  0.4335 -0.4754
 7157SOL    HW132933   0.455   1.037  17.300  0.0660 -1.2251  0.5060
 7157SOL    HW232934   0.473   0.903  17.256 -3.1518 -0.7085 -1.6101
 7158SOL     OW32935   1.059   4.409  14.857  0.2214  0.3751  0.6526
 7158SOL    HW132936   0.973   4.448  14.843  0.2036 -0.4793 -1.6107
 7158SOL    HW232937   1.036   4.317  14.843  3.1114 -0.2573 -0.0056
 7159SOL     OW32938   4.275   2.691   5.537 -0.0811 -0.0070 -0.3271
 7159SOL    HW132939   4.359   2.731   5.560  0.6103 -1.7361  0.1134
 7159SOL    HW232940   4.314   2.607   5.516  0.7319  0.5336 -0.9886
 7160SOL     OW32941   0.065   4.132   1.921  0.2482  0.2714 -0.2204
 7160SOL    HW132942   0.099   4.077   1.992 -0.2789 -1.1922 -1.1192
 7160SOL    HW232943   0.002   4.186   1.969 -0.5627  0.1328 -1.1359
 7161SOL     OW32944   2.237   0.543   6.646  0.3662 -0.2394  0.4415
 7161SOL    HW132945   2.320   0.498   6.638  1.7388  2.3341  0.1203
 7161SOL    HW232946   2.237   0.562   6.740 -0.2375 -2.1795  0.8336
 7162SOL     OW32947   2.054   3.043   6.133 -0.1578  0.2800  0.2318
 7162SOL    HW132948   1.979   3.049   6.075 -2.0646 -0.4702  2.6293
 7162SOL    HW232949   2.128   3.046   6.072  0.9531 -0.6136  1.5337
 7163SOL     OW32950   0.023   3.334   7.610 -0.6017  0.4904 -0.6602
 7163SOL    HW132951   0.014   3.305   7.701 -0.7070  0.1385 -0.7816
 7163SOL    HW232952   4.666   3.296   7.577 -1.3919  2.4971 -1.0465
 7164SOL     OW32953   4.246   3.317   7.570  0.7600  0.9490  0.6784
 7164SOL    HW132954   4.204   3.388   7.521  0.9991 -0.0376 -0.9736
 7164SOL    HW232955   4.168   3.273   7.603  1.3165  0.2528  1.0602
 7165SOL     OW32956   3.921   1.417   7.963  0.4414  0.8708  0.0835
 7165SOL    HW132957   4.013   1.414   7.989  0.8545  1.2416 -1.3285
 7165SOL    HW232958   3.876   1.395   8.044 -0.9800 -1.1844 -1.2609
 7166SOL     OW32959   3.826   0.434   2.763  0.4747 -0.0337 -0.6089
 7166SOL    HW132960   3.875   0.502   2.718  0.4005 -0.1592 -0.8793
 7166SOL    HW232961   3.842   0.360   2.704 -0.5751 -2.0329  1.5834
 7167SOL     OW32962   3.669   3.780  16.203 -0.8697 -0.2839 -0.2977
 7167SOL    HW132963   3.628   3.805  16.286 -0.5868  2.8320 -1.1299
 7167SOL    HW232964   3.592   3.754  16.152 -0.9695 -0.1822 -0.1974
 7168SOL     OW32965   3.307   0.602   5.235  0.5850 -0.6300 -0.4159
 7168SOL    HW132966   3.346   0.519   5.208  2.2934  0.3170 -0.8050
 7168SOL    HW232967   3.368   0.650   5.291 -0.3202 -0.3161  0.3170
 7169SOL     OW32968   3.145   2.900   5.515 -0.3114  0.3651  0.5066
 7169SOL    HW132969   3.144   2.876   5.607 -2.4688  0.6307  0.5724
 7169SOL    HW232970   3.141   2.996   5.516 -1.3062  0.3628 -1.8419
 7170SOL     OW32971   2.725   3.544  11.487 -0.2690 -0.2655 -0.3161
 7170SOL    HW132972   2.632   3.525  11.483 -0.3987  0.3741 -0.2582
 7170SOL    HW232973   2.764   3.481  11.426 -0.9003 -0.9960  0.0311
 7171SOL     OW32974   4.490   0.817  17.082 -0.3768 -0.7919  0.3502
 7171SOL    HW132975   4.521   0.774  17.162  0.9150 -1.9803 -0.7923
 7171SOL    HW232976   4.482   0.906  17.114  2.3220 -0.5682  0.3563
 7172SOL     OW32977   1.119   4.032  16.953  0.2855 -0.1328 -0.1781
 7172SOL    HW132978   1.140   4.094  16.883  0.4186  1.8643  1.6166
 7172SOL    HW232979   1.027   4.019  16.930  0.2416  0.0052 -0.0815
 7173SOL     OW32980   0.877   4.084  16.829 -0.4974 -0.5373 -0.6161
 7173SOL    HW132981   0.908   4.169  16.859  0.0707 -0.4074 -1.5714
 7173SOL    HW232982   0.795   4.092  16.780 -0.4763  0.7304 -0.4499
 7174SOL     OW32983   4.490   2.646  14.797  0.3056 -0.0291  0.1017
 7174SOL    HW132984   4.483   2.577  14.862 -2.7778  1.3915  1.2739
 7174SOL    HW232985   4.563   2.694  14.835 -0.5148  0.1484  1.4317
 7175SOL     OW32986   3.460   2.455  16.932  0.0836 -0.3599 -0.1222
 7175SOL    HW132987   3.411   2.433  17.012  2.2912 -1.5748  0.8882
 7175SOL    HW232988   3.547   2.469  16.970  0.5917 -2.6766 -0.4759
 7176SOL     OW32989   1.406   4.649  14.221 -0.4549 -0.2521 -0.3072
 7176SOL    HW132990   1.363   4.649  14.307 -0.9145 -2.0541 -0.5277
 7176SOL    HW232991   1.370   0.006  14.187  0.6367 -0.1143 -1.0965
 7177SOL     OW32992   2.983   0.939   4.152  0.6857 -0.0395 -0.2315
 7177SOL    HW132993   3.025   0.921   4.236 -1.1817  0.0535  0.7268
 7177SOL    HW232994   3.029   1.015   4.118  0.2946  0.7283  0.9529
 7178SOL     OW32995   2.041   1.892   5.876  0.2110 -0.8882  0.0206
 7178SOL    HW132996   2.117   1.845   5.912 -0.3656 -0.2207  2.1495
 7178SOL    HW232997   2.088   1.948   5.814  1.5346  0.0698  1.8655
 7179SOL     OW32998   3.803   1.204   0.487 -0.3858 -0.2839 -0.4074
 7179SOL    HW132999   3.789   1.117   0.525 -0.5068  0.1587  0.5418
 7179SOL    HW233000   3.779   1.264   0.557  0.7556  1.8091 -1.8003
 7180SOL     OW33001   2.998   2.505   1.167 -0.0506 -0.0768  0.4010
 7180SOL    HW133002   2.946   2.445   1.221 -1.3815 -0.4053 -1.2536
 7180SOL    HW233003   3.061   2.529   1.234  3.3470  1.8834 -3.4900
 7181SOL     OW33004   3.352   0.252  17.251  0.0099  1.2372 -0.3372
 7181SOL    HW133005   3.446   0.233  17.247 -0.1303  0.5014 -0.1830
 7181SOL    HW233006   3.348   0.340  17.288 -1.8918  1.8716 -2.0444
 7182SOL     OW33007   1.770   0.551   6.480 -0.3151  0.6696  0.2041
 7182SOL    HW133008   1.782   0.637   6.440 -0.0670  0.8133  0.5935
 7182SOL    HW233009   1.683   0.563   6.517 -0.2165 -0.5943  0.8536
 7183SOL     OW33010   4.165   1.771   5.372  0.0349 -0.6111 -0.0565
 7183SOL    HW133011   4.073   1.785   5.395  0.5051  2.6585 -0.2970
 7183SOL    HW233012   4.140   1.704   5.308  2.7272 -1.9513  0.3029
 7184SOL     OW33013   4.499   4.157   6.997 -0.1608  0.0257 -0.6579
 7184SOL    HW133014   4.453   4.185   7.076 -1.7768  1.2239 -2.0350
 7184SOL    HW233015   4.540   4.239   6.968 -2.5647  0.8448 -1.7049
 7185SOL     OW33016   2.272   4.614   4.658 -0.5426 -0.2050 -0.1744
 7185SOL    HW133017   2.331   4.561   4.604 -1.4555 -0.6157 -0.7659
 7185SOL    HW233018   2.232   4.543   4.707 -0.1125 -0.0116  0.4560
 7186SOL     OW33019   3.486   2.229  14.166  0.0595 -0.6546 -0.0882
 7186SOL    HW133020   3.411   2.288  14.171 -0.9072 -1.8432 -0.4145
 7186SOL    HW233021   3.553   2.283  14.208 -1.1232 -0.3931  1.4541
 7187SOL     OW33022   2.561   4.397   8.143  0.3302  0.3034  0.2686
 7187SOL    HW133023   2.545   4.450   8.221  1.9450 -2.1050  2.2305
 7187SOL    HW233024   2.503   4.326   8.170 -1.7341  2.7353  2.1942
 7188SOL     OW33025   1.245   3.851   5.430  0.1680  0.4946  0.4909
 7188SOL    HW133026   1.185   3.913   5.472 -0.2132  0.2299  0.3395
 7188SOL    HW233027   1.295   3.844   5.511 -2.1095 -0.4935  1.8371
 7189SOL     OW33028   2.544   3.227   0.830 -0.2812  0.3368 -0.6935
 7189SOL    HW133029   2.512   3.248   0.918  0.5396 -0.4545 -0.2062
 7189SOL    HW233030   2.628   3.272   0.823  0.7607 -1.2194  2.0867
 7190SOL     OW33031   3.230   2.095   2.817 -0.0221 -0.0086 -0.4271
 7190SOL    HW133032   3.168   2.161   2.785  0.2305  1.9474  3.1673
 7190SOL    HW233033   3.312   2.141   2.799 -0.6789  1.4410  0.2729
 7191SOL     OW33034   0.491   2.033  14.831 -0.2270 -0.6841 -0.0534
 7191SOL    HW133035   0.483   1.977  14.754 -0.7385  0.6689 -1.0015
 7191SOL    HW233036   0.556   2.097  14.800 -1.1174 -0.8383 -2.2736
 7192SOL     OW33037   4.524   0.676  13.284  0.1507  0.0726  0.5875
 7192SOL    HW133038   4.504   0.671  13.190 -0.9634 -1.3568  0.9102
 7192SOL    HW233039   4.588   0.746  13.298 -0.2879  0.8505 -1.1896
 7193SOL     OW33040   3.238   2.253   3.591 -0.2330 -0.7080 -0.2573
 7193SOL    HW133041   3.243   2.328   3.651  1.2827 -1.2518  0.2993
 7193SOL    HW233042   3.210   2.306   3.516  1.4703 -1.5598 -1.4849
 7194SOL     OW33043   2.287   1.975   3.679 -0.1500 -0.1150 -0.2036
 7194SOL    HW133044   2.336   2.056   3.662  1.1516 -0.5795  1.3153
 7194SOL    HW233045   2.266   1.992   3.771 -0.8486 -0.0319 -0.3833
 7195SOL     OW33046   1.957   0.339   4.295  0.4375  0.4465 -0.3452
 7195SOL    HW133047   1.913   0.336   4.211  2.2964  0.1996 -1.3072
 7195SOL    HW233048   1.995   0.252   4.298  1.2734  0.9186  3.3018
 7196SOL     OW33049   0.179   4.477   8.582 -0.1032 -0.0194  0.2692
 7196SOL    HW133050   0.119   4.403   8.589 -1.1026  0.6838 -0.8665
 7196SOL    HW233051   0.126   4.550   8.550 -2.4194 -1.4369  0.9590
 7197SOL     OW33052   0.340   2.057   8.574 -0.7632  0.1347 -0.7072
 7197SOL    HW133053   0.432   2.066   8.547 -0.5820  2.2083  0.5781
 7197SOL    HW233054   0.341   1.983   8.634 -0.4473  1.4440  0.8873
 7198SOL     OW33055   2.259   2.264   5.912 -0.1313  0.2175 -0.3040
 7198SOL    HW133056   2.229   2.238   5.825 -1.9966  1.7585 -0.1086
 7198SOL    HW233057   2.349   2.278   5.880  0.2747  2.1815  1.6557
 7199SOL     OW33058   4.399   0.757   7.607 -0.3611  0.1500 -0.2508
 7199SOL    HW133059   4.332   0.822   7.630  0.9362  1.7838 -1.0864
 7199SOL    HW233060   4.476   0.810   7.588  0.3836 -1.2544 -1.1305
 7200SOL     OW33061   3.671   2.002   3.175 -0.4457 -0.3118 -0.5501
 7200SOL    HW133062   3.654   1.908   3.186  1.0443 -0.6862 -1.4015
 7200SOL    HW233063   3.586   2.038   3.150 -0.3897  2.1723  2.7225
 7201SOL     OW33064   2.716   1.405   8.041  0.3660  0.1895  0.1383
 7201SOL    HW133065   2.721   1.498   8.019  0.8044  0.4810  1.5000
 7201SOL    HW233066   2.795   1.384   7.992  0.1426 -1.5336  0.5176
 7202SOL     OW33067   0.189   3.499   6.750 -0.9487 -0.1410 -1.0858
 7202SOL    HW133068   0.233   3.547   6.820 -3.5419  1.2737 -0.4366
 7202SOL    HW233069   0.115   3.465   6.801  0.8632 -1.5936  0.5726
 7203SOL     OW33070   0.402   0.710   2.493 -0.0275  0.5562 -0.1612
 7203SOL    HW133071   0.344   0.647   2.535  0.3746  0.5674  0.4102
 7203SOL    HW233072   0.331   0.774   2.486  0.8333  1.5801  0.4118
 7204SOL     OW33073   0.190   0.342  11.165 -0.3472 -0.6209 -0.3032
 7204SOL    HW133074   0.249   0.368  11.235 -0.7658  1.0039 -0.5646
 7204SOL    HW233075   0.183   0.432  11.134  2.0779  0.0607  1.1829
 7205SOL     OW33076   4.461   4.283   2.938  0.1775  0.3908  0.6054
 7205SOL    HW133077   4.419   4.241   2.863  1.5108 -2.9587  1.7680
 7205SOL    HW233078   4.538   4.309   2.888 -0.9410  0.8048 -0.9218
 7206SOL     OW33079   2.212   2.048   0.743 -0.0284  0.5547  0.1134
 7206SOL    HW133080   2.171   2.005   0.818 -1.1326  1.7795  0.2170
 7206SOL    HW233081   2.130   2.062   0.696  1.6237 -1.2197 -3.2637
 7207SOL     OW33082   4.580   3.650  13.360  0.1160 -0.0239  0.8880
 7207SOL    HW133083   4.548   3.674  13.447 -2.7829  2.1415 -0.8210
 7207SOL    HW233084   4.550   3.731  13.320  2.4903 -0.2947 -1.4694
 7208SOL     OW33085   3.450   2.000   6.742  0.1358  0.0710  0.3115
 7208SOL    HW133086   3.366   1.957   6.758  0.3192  0.4294  2.3648
 7208SOL    HW233087   3.436   2.090   6.772 -1.4541 -0.4695  1.2372
 7209SOL     OW33088   4.180   1.683  10.448  0.5192  0.4095 -0.4548
 7209SOL    HW133089   4.124   1.658  10.522  0.9978 -0.9008 -0.5427
 7209SOL    HW233090   4.158   1.623  10.377  1.3623 -0.7050  0.2229
 7210SOL     OW33091   4.670   3.160   2.950  0.7956  0.5677 -0.1760
 7210SOL    HW133092   0.032   3.163   2.907  1.4770  1.7415  1.2738
 7210SOL    HW233093   4.617   3.148   2.871 -1.5942 -1.0116  1.6886
 7211SOL     OW33094   4.042   3.083   4.950 -0.2533 -0.3735  0.0881
 7211SOL    HW133095   4.018   3.008   5.004 -1.2892  1.7004  2.5136
 7211SOL    HW233096   4.010   3.051   4.866  1.7025 -0.0079 -0.8171
 7212SOL     OW33097   2.077   1.747  12.118  0.1788 -0.4412  0.7161
 7212SOL    HW133098   2.036   1.830  12.143  0.9513  1.2609 -3.6900
 7212SOL    HW233099   2.075   1.763  12.024 -2.9128 -1.8368  0.5585
 7213SOL     OW33100   1.760   3.034  12.075 -0.5379 -0.0434  0.0260
 7213SOL    HW133101   1.687   3.050  12.134  0.5387 -0.3969  1.4724
 7213SOL    HW233102   1.824   3.093  12.116 -1.8156  2.0013 -0.9501
 7214SOL     OW33103   2.246   0.489   2.670  0.3258 -0.0653  0.6072
 7214SOL    HW133104   2.263   0.580   2.698 -0.0857  0.2800 -0.2712
 7214SOL    HW233105   2.288   0.443   2.743 -0.1248 -0.4224  0.6360
 7215SOL     OW33106   2.393   4.527   4.028  0.5361 -0.2389  0.3926
 7215SOL    HW133107   2.485   4.552   4.020  0.5003  0.0274  0.7854
 7215SOL    HW233108   2.355   4.614   4.015  1.8866  0.5913  2.1529
 7216SOL     OW33109   2.134   2.623   8.381 -0.0478  0.1391 -0.2060
 7216SOL    HW133110   2.046   2.619   8.419  0.2208  0.6959  0.4835
 7216SOL    HW233111   2.163   2.540   8.420 -2.4814  0.0296  1.3936
 7217SOL     OW33112   1.348   4.419   6.363  0.0564 -0.1840  0.1335
 7217SOL    HW133113   1.323   4.405   6.454 -1.6876 -1.8047 -0.6060
 7217SOL    HW233114   1.372   4.335   6.324 -1.2166 -0.5703  0.1946
 7218SOL     OW33115   1.596   3.850   5.683  0.4918  0.1157 -0.7819
 7218SOL    HW133116   1.540   3.861   5.760  2.5173 -3.2708  1.1721
 7218SOL    HW233117   1.615   3.757   5.689  0.6206  0.2186  0.5642
 7219SOL     OW33118   0.058   0.540  11.359 -0.0666  0.4009  0.2177
 7219SOL    HW133119   0.041   0.623  11.314  1.9033 -0.6043 -2.4460
 7219SOL    HW233120   0.150   0.527  11.336  0.0504 -0.5085  1.2047
 7220SOL     OW33121   2.518   3.152   1.328  0.0669  0.0273  0.1230
 7220SOL    HW133122   2.609   3.144   1.298 -0.0251 -0.2384 -0.0864
 7220SOL    HW233123   2.507   3.245   1.312  2.2038  0.5103  1.4784
 7221SOL     OW33124   1.294   3.392   3.284 -0.3126 -0.4638 -0.1900
 7221SOL    HW133125   1.305   3.403   3.189 -1.4820 -0.9931 -0.3892
 7221SOL    HW233126   1.238   3.468   3.297 -0.4775 -0.8547  1.2921
 7222SOL     OW33127   3.867   3.025   2.936 -0.1924  0.2918 -0.2607
 7222SOL    HW133128   3.894   2.955   2.877 -1.8253 -0.8375  0.3392
 7222SOL    HW233129   3.850   3.088   2.867  0.2924 -0.0628 -0.7036
 7223SOL     OW33130   3.547   3.006  15.521 -0.0860  0.0862 -0.1907
 7223SOL    HW133131   3.545   3.061  15.600 -1.9827 -0.8568  0.4243
 7223SOL    HW233132   3.460   2.967  15.534 -0.1725  0.6275  0.9067
 7224SOL     OW33133   1.831   4.033  16.226 -0.0001  0.2433  0.2460
 7224SOL    HW133134   1.762   3.988  16.177 -0.0901 -0.2858  0.8500
 7224SOL    HW233135   1.784   4.115  16.239 -0.1957 -0.1845  2.2358
 7225SOL     OW33136   2.279   3.243  16.280  0.0967 -0.1906 -0.0392
 7225SOL    HW133137   2.287   3.176  16.212  2.1212 -1.1434  1.1288
 7225SOL    HW233138   2.350   3.220  16.340 -1.8275 -2.1076  1.5177
 7226SOL     OW33139   2.275   2.426   1.337 -0.4428  0.2701  0.0963
 7226SOL    HW133140   2.266   2.517   1.367 -3.1463  0.7756 -2.2208
 7226SOL    HW233141   2.335   2.386   1.400 -2.1838  0.6373  1.9588
 7227SOL     OW33142   1.149   3.004   9.035  0.2859  0.0176  0.3692
 7227SOL    HW133143   1.164   2.912   9.014  1.2091  0.4743 -0.9540
 7227SOL    HW233144   1.236   3.039   9.053  0.2693  0.0948  0.2978
 7228SOL     OW33145   3.332   1.197   6.338 -0.1243 -0.1213 -0.0980
 7228SOL    HW133146   3.427   1.208   6.326 -0.2648  1.3684  0.2006
 7228SOL    HW233147   3.313   1.235   6.423 -1.9252 -1.1677 -0.0355
 7229SOL     OW33148   4.118   1.371   9.177  0.1107 -0.0014 -0.4617
 7229SOL    HW133149   4.140   1.287   9.137  2.1423 -0.0249  0.7084
 7229SOL    HW233150   4.042   1.331   9.219 -0.5763  1.2932 -0.4645
 7230SOL     OW33151   4.512   2.734  13.378  0.5690 -0.2220 -0.7003
 7230SOL    HW133152   4.566   2.778  13.313  3.2485 -2.7926 -0.1630
 7230SOL    HW233153   4.569   2.748  13.453 -0.7009  0.2206  0.1912
 7231SOL     OW33154   1.290   0.528   1.511  0.5229  0.5351 -0.3967
 7231SOL    HW133155   1.224   0.473   1.471 -0.3453  0.3678  1.2446
 7231SOL    HW233156   1.254   0.528   1.600  1.2989 -3.4660 -0.1045
 7232SOL     OW33157   2.071   3.655   6.516 -0.0266 -0.4661  0.4129
 7232SOL    HW133158   2.092   3.708   6.439 -1.1701  0.4366  0.7205
 7232SOL    HW233159   1.997   3.699   6.558 -0.7845 -1.2607 -0.0942
 7233SOL     OW33160   1.938   1.440   6.516 -0.2423 -0.2200  0.1574
 7233SOL    HW133161   1.895   1.523   6.533 -0.4045  0.0230 -1.5373
 7233SOL    HW233162   1.946   1.455   6.422  1.0260  2.8633  0.7578
 7234SOL     OW33163   0.487   1.636   7.022 -0.2683  0.3239  0.1968
 7234SOL    HW133164   0.536   1.718   7.028 -0.6085  0.6003 -0.7150
 7234SOL    HW233165   0.459   1.643   6.930 -1.9322 -2.2627  0.4992
 7235SOL     OW33166   0.462   2.079  14.440  0.1454  0.1887  0.5464
 7235SOL    HW133167   0.420   2.020  14.503 -0.4371  0.3362  0.2973
 7235SOL    HW233168   0.398   2.080  14.369  0.2839  3.1867  0.4254
 7236SOL     OW33169   3.915   3.155   7.390  0.2719 -0.2629  0.2700
 7236SOL    HW133170   3.951   3.069   7.411  0.2922 -0.2129  0.4393
 7236SOL    HW233171   3.826   3.127   7.370 -0.6443  1.8752  1.3665
 7237SOL     OW33172   2.731   1.695   6.029  0.0332  0.2075 -0.6664
 7237SOL    HW133173   2.799   1.758   6.053 -0.7138  0.9086 -0.4102
 7237SOL    HW233174   2.772   1.639   5.962  0.0221  0.7287 -1.1045
 7238SOL     OW33175   3.293   3.710   0.443  0.2835 -0.1420  0.5763
 7238SOL    HW133176   3.201   3.719   0.421  0.0433 -2.5244  0.6092
 7238SOL    HW233177   3.331   3.785   0.397  1.7888 -1.5695 -0.4925
 7239SOL     OW33178   1.311   2.343   5.682 -0.2422 -0.4118  0.6813
 7239SOL    HW133179   1.222   2.307   5.676 -0.1815 -0.6278  1.0932
 7239SOL    HW233180   1.330   2.372   5.592 -0.8332 -0.1796  0.6259
 7240SOL     OW33181   2.335   1.925  11.212  0.2007 -0.1867 -0.7996
 7240SOL    HW133182   2.388   1.846  11.226  1.4280  0.7518 -0.0928
 7240SOL    HW233183   2.319   1.918  11.118 -1.2784  4.6734 -0.9058
 7241SOL     OW33184   4.331   1.416   9.609 -0.5323  0.2292 -0.0622
 7241SOL    HW133185   4.295   1.501   9.633 -2.6382 -0.2954 -1.2646
 7241SOL    HW233186   4.261   1.362   9.648  0.4348 -0.8304  0.2017
 7242SOL     OW33187   2.989   3.764   5.056 -0.4531 -0.1234  0.8707
 7242SOL    HW133188   3.056   3.810   5.006  0.2930 -0.5766  1.4368
 7242SOL    HW233189   2.941   3.727   4.982  0.6771  0.8391 -0.3254
 7243SOL     OW33190   0.866   3.278   5.908  0.0896 -0.1454  0.1486
 7243SOL    HW133191   0.924   3.222   5.856  2.0254  2.2051 -0.2314
 7243SOL    HW233192   0.782   3.269   5.862  1.2587 -0.5249 -1.9153
 7244SOL     OW33193   1.507   3.461   4.457  0.1660  0.6914 -0.2508
 7244SOL    HW133194   1.583   3.511   4.486 -1.1892  2.1672  0.7513
 7244SOL    HW233195   1.437   3.497   4.511 -0.1593  1.1421 -0.9659
 7245SOL     OW33196   0.245   1.431  17.259 -0.0227 -0.1471 -0.2749
 7245SOL    HW133197   0.337   1.412  17.277 -0.8251 -1.2371  2.6289
 7245SOL    HW233198   0.261   1.526  17.252 -1.5246  0.0939 -0.3484
 7246SOL     OW33199   1.116   1.883   5.131  0.0209  0.3194  0.0465
 7246SOL    HW133200   1.075   1.900   5.046  0.2899 -0.3962 -0.2297
 7246SOL    HW233201   1.073   1.950   5.183  2.5586  2.7196 -0.9211
 7247SOL     OW33202   1.094   4.528   9.063  0.6859  0.1745 -0.2137
 7247SOL    HW133203   1.017   4.558   9.015  1.5240  0.3282 -1.4709
 7247SOL    HW233204   1.103   4.600   9.125 -0.5274  0.4706 -0.3841
 7248SOL     OW33205   4.033   0.097   6.477  0.9139 -0.0072  0.3195
 7248SOL    HW133206   4.036   0.119   6.384 -0.1744  3.3931  1.0556
 7248SOL    HW233207   4.002   0.181   6.512  2.8780  0.1024  1.7976
 7249SOL     OW33208   0.447   4.221   1.033  0.0686  0.4749  0.1520
 7249SOL    HW133209   0.498   4.246   1.110 -0.0021  1.2547 -0.0557
 7249SOL    HW233210   0.402   4.150   1.078 -1.2485  1.5263  0.4962
 7250SOL     OW33211   4.438   0.108   4.598 -0.1021 -0.3661  0.2250
 7250SOL    HW133212   4.446   0.192   4.643 -0.8840  2.1042 -4.2004
 7250SOL    HW233213   4.350   0.087   4.628  0.5625 -3.4918  0.0388
 7251SOL     OW33214   0.479   2.683   4.000 -0.2635  0.2608  0.3605
 7251SOL    HW133215   0.534   2.632   3.940 -0.3778  2.5464 -1.6570
 7251SOL    HW233216   0.422   2.736   3.945 -0.9978 -0.1403  0.7445
 7252SOL     OW33217   2.908   2.334  16.956 -0.3692  0.0181 -0.2964
 7252SOL    HW133218   2.942   2.408  16.906  0.0788  1.0097  1.4576
 7252SOL    HW233219   2.894   2.371  17.044  0.7765  0.3383 -0.2584
 7253SOL     OW33220   3.945   1.518   3.991 -0.1665  0.1202  0.5605
 7253SOL    HW133221   3.986   1.443   4.035 -0.4774 -0.7588 -0.6518
 7253SOL    HW233222   3.859   1.479   3.977  0.2721 -0.2719 -1.1033
 7254SOL     OW33223   3.864   3.836   6.617  0.5385 -0.1533  0.2216
 7254SOL    HW133224   3.849   3.861   6.708 -0.0375  1.9540 -0.4594
 7254SOL    HW233225   3.857   3.743   6.640 -1.7950  0.6893  2.8855
 7255SOL     OW33226   0.261   1.231   0.180 -0.3786 -0.1242 -0.3028
 7255SOL    HW133227   0.195   1.200   0.243  0.2079  1.2540  0.9974
 7255SOL    HW233228   0.340   1.185   0.207 -1.8318 -2.0495  0.6862
 7256SOL     OW33229   2.567   3.635   7.865  0.4704 -1.2539 -0.4115
 7256SOL    HW133230   2.553   3.573   7.793 -3.8473 -0.0903 -0.5683
 7256SOL    HW233231   2.480   3.675   7.871  1.4264  0.7481  0.0722
 7257SOL     OW33232   3.371   3.391   7.858 -0.1715 -0.2170 -0.0871
 7257SOL    HW133233   3.388   3.305   7.817  1.7830 -0.4885  1.3146
 7257SOL    HW233234   3.410   3.391   7.945 -0.6203 -1.6453  0.1180
 7258SOL     OW33235   3.659   1.237   4.281  0.6567  0.5240 -0.1166
 7258SOL    HW133236   3.705   1.272   4.357  0.3357  0.5958  0.0440
 7258SOL    HW233237   3.571   1.267   4.302  0.0960  0.6980 -2.6588
 7259SOL     OW33238   3.247   2.523   6.820  0.0514 -0.2366  0.3943
 7259SOL    HW133239   3.204   2.588   6.875  0.7551  0.7961 -0.2586
 7259SOL    HW233240   3.236   2.439   6.863  1.5441  0.1489  1.5487
 7260SOL     OW33241   4.018   1.197   2.058 -0.2378 -0.0593 -0.5202
 7260SOL    HW133242   4.033   1.287   2.087  2.0812 -1.8225  3.7588
 7260SOL    HW233243   3.926   1.188   2.081  0.1336  1.9785  1.8152
 7261SOL     OW33244   2.846   3.282   8.445  0.6816 -0.0723 -0.1003
 7261SOL    HW133245   2.872   3.330   8.524  2.9502  0.0028 -0.9143
 7261SOL    HW233246   2.823   3.197   8.482 -3.7882  1.6792  1.1994
 7262SOL     OW33247   2.571   0.604   3.403 -0.0911 -0.8315  0.4052
 7262SOL    HW133248   2.520   0.671   3.357  1.3607 -0.9614 -1.3654
 7262SOL    HW233249   2.509   0.573   3.470 -1.3748 -0.1973 -0.4978
 7263SOL     OW33250   1.168   4.115   7.416 -0.0174 -0.3477 -0.5796
 7263SOL    HW133251   1.143   4.026   7.388 -1.2133  0.4795 -2.1691
 7263SOL    HW233252   1.237   4.148   7.359  1.0299 -1.8514 -0.1807
 7264SOL     OW33253   0.981   0.781  12.858  0.0480  0.1664  0.4594
 7264SOL    HW133254   0.903   0.771  12.912  0.5908  2.6455  1.6893
 7264SOL    HW233255   1.050   0.753  12.918 -0.4926 -2.9486 -0.3465
 7265SOL     OW33256   0.972   3.507   9.218  0.7531  0.2831 -0.3448
 7265SOL    HW133257   0.993   3.417   9.193  1.6470  0.4876 -0.3003
 7265SOL    HW233258   1.037   3.528   9.285 -3.3117  0.1152  3.6719
 7266SOL     OW33259   1.362   1.135   6.424  0.3677  0.4880  0.3400
 7266SOL    HW133260   1.329   1.047   6.442  1.2590  0.2481  0.8226
 7266SOL    HW233261   1.397   1.154   6.511  0.4472 -1.6576  0.7843
 7267SOL     OW33262   4.614   0.907   4.274  0.3279 -0.5490 -0.2793
 7267SOL    HW133263   4.617   0.907   4.178  0.8220  0.2393 -0.2620
 7267SOL    HW233264   4.700   0.904   4.317  0.0727  0.1086  0.2750
 7268SOL     OW33265   1.402   0.118   2.980 -0.0568  0.3505  0.6770
 7268SOL    HW133266   1.346   0.194   2.962  0.9085  0.2374 -2.7174
 7268SOL    HW233267   1.343   0.050   3.011 -0.4084 -0.2348 -1.2958
 7269SOL     OW33268   0.533   3.098   7.995  0.0997 -0.0297 -0.3366
 7269SOL    HW133269   0.494   3.147   7.922 -0.2553  0.3788  0.1299
 7269SOL    HW233270   0.457   3.077   8.049  1.0179 -1.0295  0.5720
 7270SOL     OW33271   4.594   2.963   0.079 -0.3052 -0.1939 -0.0855
 7270SOL    HW133272   4.636   2.982   0.163 -0.7381  1.7347 -0.2924
 7270SOL    HW233273   4.514   2.926   0.118 -1.1390  0.2541 -1.3730
 7271SOL     OW33274   1.861   2.179   7.172 -0.1891 -0.8241 -0.1316
 7271SOL    HW133275   1.864   2.201   7.079  0.8513  0.2210  0.1426
 7271SOL    HW233276   1.835   2.087   7.162 -1.4454 -0.5240  0.3445
 7272SOL     OW33277   2.097   4.515   7.890  0.1794  0.2233 -0.4591
 7272SOL    HW133278   2.121   4.422   7.890 -0.8561 -0.0368 -0.6650
 7272SOL    HW233279   2.158   4.546   7.957 -0.6709  1.0335 -0.0608
 7273SOL     OW33280   1.707   3.840   4.727 -0.4084  0.5745 -0.8109
 7273SOL    HW133281   1.770   3.806   4.791  0.2750  0.6037 -1.4559
 7273SOL    HW233282   1.723   3.934   4.735 -1.1830  0.4706  1.8888
 7274SOL     OW33283   3.636   0.954   5.648  0.8872 -0.9066  0.8757
 7274SOL    HW133284   3.694   0.879   5.664  0.0102 -1.3449  1.9713
 7274SOL    HW233285   3.620   0.973   5.740  1.0174  2.8183  0.1110
 7275SOL     OW33286   4.542   2.482   8.649  0.2055 -0.0517 -0.4530
 7275SOL    HW133287   4.588   2.404   8.617 -0.9700  0.6603 -3.9400
 7275SOL    HW233288   4.618   2.505   8.702  1.0091  0.8999 -1.9949
 7276SOL     OW33289   4.401   3.114   6.811  0.3244 -0.0367  0.1966
 7276SOL    HW133290   4.381   3.027   6.846 -3.5504  0.1664 -1.5605
 7276SOL    HW233291   4.470   3.142   6.872  0.7846 -1.5222  0.3389
 7277SOL     OW33292   4.476   1.374   8.091 -0.5131 -0.3045  0.2073
 7277SOL    HW133293   4.460   1.344   8.181  4.4678 -1.5091  0.7090
 7277SOL    HW233294   4.541   1.443   8.101 -0.0956 -0.2794 -2.6764
 7278SOL     OW33295   2.839   3.908   0.388  0.1950  0.4272 -0.6542
 7278SOL    HW133296   2.902   3.979   0.372  1.1160 -0.5151 -1.1487
 7278SOL    HW233297   2.776   3.970   0.425 -0.4325 -1.7930  2.0473
 7279SOL     OW33298   4.554   1.649   3.786  0.2322 -0.2607 -0.2127
 7279SOL    HW133299   4.594   1.685   3.707 -0.4878  1.4657  0.1987
 7279SOL    HW233300   4.548   1.725   3.844  1.3593  1.1243 -1.9085
 7280SOL     OW33301   2.234   0.346   9.143  0.2570 -0.1487 -0.7636
 7280SOL    HW133302   2.239   0.346   9.238  0.6010 -1.7355 -0.7804
 7280SOL    HW233303   2.260   0.438   9.137  4.0303 -1.2627 -1.2493
 7281SOL     OW33304   1.121   2.399  17.584 -0.4822  0.4309  0.0664
 7281SOL    HW133305   1.031   2.427  17.566 -0.0639  1.0859 -1.0015
 7281SOL    HW233306   1.123   2.401  17.679 -0.6205  0.9306  0.0585
 7282SOL     OW33307   0.706   1.521   4.496  0.0165 -0.1890  0.5811
 7282SOL    HW133308   0.756   1.448   4.459  0.0044 -1.6610  3.4442
 7282SOL    HW233309   0.686   1.576   4.420 -0.7168 -1.5455 -0.2146
 7283SOL     OW33310   1.084   2.821   0.119 -0.1594 -0.2688 -0.1201
 7283SOL    HW133311   1.107   2.736   0.080 -0.0292 -0.8765  1.2689
 7283SOL    HW233312   1.168   2.858   0.145  0.0937 -1.0882  0.2163
 7284SOL     OW33313   1.771   1.631   4.661 -0.1248 -0.0506 -0.7980
 7284SOL    HW133314   1.683   1.652   4.632 -0.7097 -0.8171  0.4032
 7284SOL    HW233315   1.790   1.705   4.719 -1.4093 -0.6993  0.4464
 7285SOL     OW33316   3.026   0.617   3.517 -0.3485  0.6702  0.3851
 7285SOL    HW133317   2.998   0.610   3.426 -3.3138 -0.0829  1.3486
 7285SOL    HW233318   2.939   0.633   3.553 -1.1810  0.1788 -1.4441
 7286SOL     OW33319   0.959   3.218   6.343  0.0511  1.1062  0.1518
 7286SOL    HW133320   1.043   3.202   6.300 -0.8887 -0.0529 -1.2392
 7286SOL    HW233321   0.892   3.184   6.284  1.4323  0.8882 -1.2966
 7287SOL     OW33322   1.631   2.523   0.437  0.1204  0.2006 -0.1637
 7287SOL    HW133323   1.711   2.544   0.389  0.4780  1.9589  1.1864
 7287SOL    HW233324   1.572   2.556   0.369 -0.7962 -0.3829  0.3438
 7288SOL     OW33325   2.197   1.468   4.476  0.1261 -0.9263 -0.3167
 7288SOL    HW133326   2.269   1.462   4.538 -2.1818 -0.1681  2.4652
 7288SOL    HW233327   2.247   1.474   4.395  1.0224  2.0115  0.4419
 7289SOL     OW33328   0.658   0.459   1.569 -0.0371 -0.0858 -0.2246
 7289SOL    HW133329   0.576   0.487   1.529  0.4353 -0.2123 -1.2808
 7289SOL    HW233330   0.641   0.367   1.588 -4.5839  1.1292  1.5081
 7290SOL     OW33331   2.229   0.662   0.805 -0.0538 -0.1721  0.3149
 7290SOL    HW133332   2.320   0.683   0.827  0.2519  0.9315 -1.9166
 7290SOL    HW233333   2.223   0.568   0.818  1.3051 -0.2129  0.6997
 7291SOL     OW33334   1.900   3.998   3.962  0.8110 -0.4004 -0.2839
 7291SOL    HW133335   1.880   3.910   3.996 -2.7314  1.0608  1.3859
 7291SOL    HW233336   1.878   4.037   4.046  3.8526  0.2963  0.1713
 7292SOL     OW33337   3.595   2.269   7.309 -0.6266  0.4755  0.7505
 7292SOL    HW133338   3.556   2.348   7.271 -0.6925 -0.7868 -1.7989
 7292SOL    HW233339   3.611   2.311   7.394  0.7427  0.0242  0.7002
 7293SOL     OW33340   1.576   3.070   2.508 -0.1357 -0.6707  0.0617
 7293SOL    HW133341   1.546   3.160   2.513  0.3218 -0.5573  0.6907
 7293SOL    HW233342   1.583   3.041   2.599  0.7274 -0.8104 -0.0459
 7294SOL     OW33343   2.775   4.389   9.671 -0.1346  0.4163  0.0954
 7294SOL    HW133344   2.768   4.475   9.628  0.6883 -0.2271 -1.3290
 7294SOL    HW233345   2.852   4.354   9.627 -0.7117  0.6346 -1.1069
 7295SOL     OW33346   0.189   2.390  16.695  0.0885 -0.2279  0.0844
 7295SOL    HW133347   0.252   2.401  16.766  1.5497 -0.0058 -1.2498
 7295SOL    HW233348   0.186   2.479  16.662  2.2717 -0.2439 -0.1886
 7296SOL     OW33349   0.281   2.666   2.985 -0.7510 -0.3625 -0.2235
 7296SOL    HW133350   0.364   2.662   3.033 -1.9204 -1.4249  1.7423
 7296SOL    HW233351   0.215   2.662   3.054 -0.0572 -2.2817  0.3499
 7297SOL     OW33352   2.823   3.985   5.639  0.1369  0.4656 -0.2349
 7297SOL    HW133353   2.864   3.974   5.553 -2.4166 -1.1047 -1.2261
 7297SOL    HW233354   2.838   3.906   5.692 -0.3487  0.8754  0.5080
 7298SOL     OW33355   0.688   2.563   4.187  0.4269  0.0084  0.0812
 7298SOL    HW133356   0.610   2.545   4.135  0.0725 -0.9822  0.9663
 7298SOL    HW233357   0.643   2.576   4.271 -0.7454 -0.9112 -0.4054
 7299SOL     OW33358   4.637   2.979  13.305 -0.6604  0.6471  0.1712
 7299SOL    HW133359   4.582   3.052  13.334  1.7970  1.8030  1.9569
 7299SOL    HW233360   4.722   2.999  13.345  0.5773 -1.7400 -1.2560
 7300SOL     OW33361   4.068   0.817   6.353 -0.4640 -0.9572  0.6531
 7300SOL    HW133362   4.112   0.891   6.395  1.0313 -1.0158 -0.8121
 7300SOL    HW233363   4.072   0.854   6.264 -2.2486 -1.3933  0.3798
 7301SOL     OW33364   1.168   1.504   0.856 -0.0656  0.0390 -0.3758
 7301SOL    HW133365   1.139   1.521   0.946 -2.1283  1.1085 -1.2397
 7301SOL    HW233366   1.123   1.423   0.833 -0.6416 -0.1747  1.4383
 7302SOL     OW33367   2.958   4.381   3.749 -0.7279  0.5415  0.4625
 7302SOL    HW133368   3.017   4.324   3.698 -0.8771  0.2185  0.6480
 7302SOL    HW233369   2.870   4.351   3.725 -0.6050 -0.5289  1.3531
 7303SOL     OW33370   0.132   1.898   8.089 -0.6446  0.2379  0.4880
 7303SOL    HW133371   0.225   1.896   8.113 -0.4691  0.0112 -0.2106
 7303SOL    HW233372   0.129   1.991   8.064  0.4767 -0.0284 -0.6408
 7304SOL     OW33373   2.865   1.611  11.590 -0.4634  0.2274  0.0729
 7304SOL    HW133374   2.892   1.524  11.619  1.4007  1.2634  1.4156
 7304SOL    HW233375   2.833   1.633  11.678  0.3481  4.4584 -0.6720
 7305SOL     OW33376   3.953   0.773   3.625  0.3959 -0.0299 -0.1986
 7305SOL    HW133377   3.886   0.720   3.669 -0.1862  1.7958  1.1252
 7305SOL    HW233378   3.983   0.827   3.698  2.8816  1.5432 -2.3640
 7306SOL     OW33379   3.156   3.354   5.571 -0.1324 -0.4000  0.3076
 7306SOL    HW133380   3.250   3.343   5.588  0.0671  0.6826 -0.0544
 7306SOL    HW233381   3.136   3.448   5.566  0.6154 -0.3101 -1.1699
 7307SOL     OW33382   4.588   0.039   9.452  0.2698  0.5721 -0.1371
 7307SOL    HW133383   4.515   4.711   9.418  1.1944  0.0260 -1.2654
 7307SOL    HW233384   4.568   0.038   9.545 -1.0353 -1.7150 -0.4471
 7308SOL     OW33385   1.888   1.510  17.496 -0.5512 -0.4338  0.3406
 7308SOL    HW133386   1.848   1.467  17.572 -1.2026  0.3334  0.4270
 7308SOL    HW233387   1.928   1.586  17.539 -1.0227 -0.2499  0.4534
 7309SOL     OW33388   4.436   1.130  15.030 -0.5663  0.1197 -0.2893
 7309SOL    HW133389   4.444   1.149  15.123 -2.3715  0.1105 -0.1269
 7309SOL    HW233390   4.480   1.206  14.992  0.5853 -0.0594  0.6936
 7310SOL     OW33391   1.199   4.528   3.456 -0.2676 -0.0700  0.4309
 7310SOL    HW133392   1.167   4.599   3.511  0.4530  1.9592 -1.7907
 7310SOL    HW233393   1.183   4.578   3.376  3.0235 -3.0431 -2.1012
 7311SOL     OW33394   1.481   0.693   4.619  0.4586 -0.4784  0.1723
 7311SOL    HW133395   1.570   0.725   4.608  0.5735 -0.7057  0.4664
 7311SOL    HW233396   1.473   0.624   4.553 -2.1219 -0.0066 -0.0150
 7312SOL     OW33397   4.510   2.488   2.574  0.2841  0.2133 -0.1353
 7312SOL    HW133398   4.601   2.480   2.546 -0.0942  1.0419 -1.6072
 7312SOL    HW233399   4.514   2.581   2.596 -1.9267  0.2123  0.2458
 7313SOL     OW33400   1.687   3.403   2.521 -0.0163  0.2164 -0.7248
 7313SOL    HW133401   1.724   3.480   2.479  2.5681  0.0242  1.2381
 7313SOL    HW233402   1.734   3.338   2.469  1.3438 -0.6801  1.6495
 7314SOL     OW33403   3.525   3.112   4.794 -0.2917  0.0095  0.3458
 7314SOL    HW133404   3.604   3.165   4.787 -0.1622  0.0091  1.9037
 7314SOL    HW233405   3.557   3.032   4.836  2.2603  1.4458  1.1640
 7315SOL     OW33406   0.768   0.720   7.384  0.5542 -0.4090 -0.2671
 7315SOL    HW133407   0.841   0.709   7.445  1.9337 -0.5437 -1.9213
 7315SOL    HW233408   0.765   0.815   7.383 -0.3874 -0.4441 -0.7067
 7316SOL     OW33409   2.785   2.853   3.651  0.0093 -0.0734  0.2701
 7316SOL    HW133410   2.805   2.941   3.619 -2.9661  0.9716  1.2025
 7316SOL    HW233411   2.739   2.823   3.572  0.1783 -0.2506  0.2397
 7317SOL     OW33412   0.825   3.971  13.666  0.4249 -0.5373  0.1473
 7317SOL    HW133413   0.851   3.928  13.747 -0.2461 -1.4050 -0.1061
 7317SOL    HW233414   0.902   4.027  13.653 -0.0058 -0.8574 -3.6900
 7318SOL     OW33415   1.305   3.225   7.368 -0.0829  0.5358 -0.2356
 7318SOL    HW133416   1.239   3.182   7.314  1.3709  0.2922 -1.8036
 7318SOL    HW233417   1.264   3.305   7.401 -2.8858 -2.0263  2.5399
 7319SOL     OW33418   1.713   2.949  12.787 -0.5199 -0.3065  0.3878
 7319SOL    HW133419   1.695   3.004  12.863 -2.1180 -0.4642  0.1259
 7319SOL    HW233420   1.719   2.857  12.812 -0.2961 -0.4632 -0.2421
 7320SOL     OW33421   3.575   1.180   0.802  0.2251  0.0705 -0.0267
 7320SOL    HW133422   3.617   1.112   0.856 -0.6388 -0.5499 -0.1354
 7320SOL    HW233423   3.594   1.263   0.846  3.6939 -1.6788  1.7987
 7321SOL     OW33424   0.771   3.123   6.156  0.0039  0.5260 -0.1454
 7321SOL    HW133425   0.827   3.151   6.084  0.1781  1.4453  0.3395
 7321SOL    HW233426   0.705   3.074   6.108 -0.8952  1.6196 -0.0159
 7322SOL     OW33427   1.107   3.591   0.369 -0.2683 -0.9413  0.0767
 7322SOL    HW133428   1.080   3.567   0.280  0.3984 -0.3910 -0.2696
 7322SOL    HW233429   1.064   3.521   0.418 -0.6064 -1.1017 -0.4506
 7323SOL     OW33430   0.931   0.647   7.948 -0.1262 -0.2600  0.4943
 7323SOL    HW133431   0.970   0.618   7.866 -2.0036 -2.9218  0.5188
 7323SOL    HW233432   0.842   0.657   7.913 -0.2922 -1.2750  0.6167
 7324SOL     OW33433   0.707   2.704   3.324 -0.1570 -0.2695 -0.4282
 7324SOL    HW133434   0.734   2.649   3.398 -1.1754  1.0563  0.9129
 7324SOL    HW233435   0.628   2.745   3.358  0.8770  0.9001  0.5312
 7325SOL     OW33436   3.704   0.056   9.211 -0.2168  0.3918  0.1881
 7325SOL    HW133437   3.744   4.702   9.175 -1.6768  0.2808 -1.2145
 7325SOL    HW233438   3.664   0.024   9.292 -0.5952 -1.5649 -0.7734
 7326SOL     OW33439   3.376   1.110   7.129  0.8407 -0.2381  0.3171
 7326SOL    HW133440   3.410   1.186   7.176 -0.4475  0.0909  0.7207
 7326SOL    HW233441   3.291   1.108   7.173  0.3337 -0.7180 -0.6815
 7327SOL     OW33442   1.611   4.228   5.103 -0.7253  0.9570  0.7293
 7327SOL    HW133443   1.685   4.287   5.092  0.7000 -0.8993  0.3916
 7327SOL    HW233444   1.569   4.267   5.181 -0.2582  1.2685  0.8245
 7328SOL     OW33445   1.560   0.743   6.572  0.2617  0.1478  0.1090
 7328SOL    HW133446   1.606   0.816   6.614  2.0829 -0.7665 -0.3137
 7328SOL    HW233447   1.567   0.678   6.642 -1.0866  0.7610  0.7982
 7329SOL     OW33448   0.172   0.419  15.796 -0.4102 -0.2327  0.2211
 7329SOL    HW133449   0.104   0.362  15.831 -2.8281  2.3647 -0.2539
 7329SOL    HW233450   0.150   0.435  15.704  0.9815 -2.1604 -0.4437
 7330SOL     OW33451   3.065   0.836   4.387  0.4478  0.4026 -0.1423
 7330SOL    HW133452   3.123   0.761   4.397 -0.0145  0.0067 -0.4354
 7330SOL    HW233453   2.994   0.811   4.447  1.1815  1.2681  1.0785
 7331SOL     OW33454   0.388   3.606  15.359  0.3422 -0.7457  0.4308
 7331SOL    HW133455   0.347   3.617  15.273 -0.8793 -0.0985  1.1101
 7331SOL    HW233456   0.471   3.654  15.357  0.5869 -1.1793  0.1486
 7332SOL     OW33457   0.338   1.480   0.230 -0.1275  0.3185 -0.0155
 7332SOL    HW133458   0.286   1.406   0.198 -1.2169  0.8924  0.4187
 7332SOL    HW233459   0.263   1.532   0.259 -0.2311 -0.1769  0.6193
 7333SOL     OW33460   0.662   4.489   4.706  0.9511 -0.3880  0.5499
 7333SOL    HW133461   0.664   4.396   4.686  1.7099 -0.4037  0.6788
 7333SOL    HW233462   0.587   4.516   4.653  0.4955 -2.6555  0.0655
 7334SOL     OW33463   2.309   2.990   6.772 -0.6796  0.1733  0.2917
 7334SOL    HW133464   2.228   2.939   6.774 -0.4033 -0.2846 -0.0584
 7334SOL    HW233465   2.299   3.040   6.853 -0.7028  3.0587 -1.5004
 7335SOL     OW33466   0.743   4.591   8.828  0.7639 -0.3873 -0.5028
 7335SOL    HW133467   0.710   4.607   8.917  3.0309  1.1016  0.1037
 7335SOL    HW233468   0.829   4.635   8.824  1.7952 -2.4961 -1.2769
 7336SOL     OW33469   3.073   4.552   6.016  0.8960  0.2511 -0.3017
 7336SOL    HW133470   3.166   4.534   6.003  0.5540 -0.2969 -1.9495
 7336SOL    HW233471   3.051   4.615   5.947 -1.5971 -0.8843 -0.5437
 7337SOL     OW33472   0.320   1.300   6.790 -0.3556 -0.3145  0.8014
 7337SOL    HW133473   0.324   1.358   6.713  0.7467 -0.1212  1.0076
 7337SOL    HW233474   0.290   1.220   6.747 -0.1832  1.2438 -2.2590
 7338SOL     OW33475   4.213   4.488  12.149 -0.1954  0.3586 -0.4145
 7338SOL    HW133476   4.139   4.428  12.164  0.5962 -0.4015  0.5100
 7338SOL    HW233477   4.195   4.490  12.055  2.5928  1.6384 -0.9144
 7339SOL     OW33478   3.692   1.245   1.288 -0.3601  0.2206  0.1327
 7339SOL    HW133479   3.604   1.276   1.311 -0.2971  0.7256 -0.3103
 7339SOL    HW233480   3.698   1.185   1.362  2.5862  0.4197  0.0172
 7340SOL     OW33481   4.465   3.914   4.228  0.6483  0.4591 -0.0327
 7340SOL    HW133482   4.502   3.828   4.249  2.8898  1.6085  0.7254
 7340SOL    HW233483   4.544   3.957   4.194  0.1631  0.2811 -1.3789
 7341SOL     OW33484   3.237   1.164  17.469  0.2130 -0.0122  0.3754
 7341SOL    HW133485   3.161   1.107  17.460  0.1956  0.3939 -2.0702
 7341SOL    HW233486   3.205   1.231  17.410  0.5780  0.8825  1.1840
 7342SOL     OW33487   1.871   4.303   8.454  0.0741  0.5309  0.2184
 7342SOL    HW133488   1.962   4.274   8.443 -0.5965 -1.0197 -1.1343
 7342SOL    HW233489   1.829   4.300   8.368  1.4879  3.9516 -0.6058
 7343SOL     OW33490   0.784   2.478   1.910  0.1457 -0.4012 -0.1795
 7343SOL    HW133491   0.837   2.504   1.986 -1.0324  1.2676  0.0816
 7343SOL    HW233492   0.702   2.521   1.935 -0.7975 -2.1880 -0.1820
 7344SOL     OW33493   3.308   2.072   4.471 -0.4144 -0.1143  0.4961
 7344SOL    HW133494   3.324   2.144   4.531 -1.3431 -0.7258  1.4664
 7344SOL    HW233495   3.233   2.112   4.427 -0.7783 -1.1623  0.1466
 7345SOL     OW33496   3.552   1.947  17.476  0.2099 -0.2094 -0.1455
 7345SOL    HW133497   3.593   2.029  17.504  0.2535  0.1443 -1.2610
 7345SOL    HW233498   3.500   1.971  17.399 -0.6649 -2.5380 -0.3057
 7346SOL     OW33499   3.249   1.306   9.077 -0.4535 -0.0767  0.5476
 7346SOL    HW133500   3.203   1.389   9.092  1.5798  1.0310  0.5987
 7346SOL    HW233501   3.299   1.310   8.996 -1.7080 -0.3391 -0.2291
 7347SOL     OW33502   4.054   3.444   5.438 -0.9248 -0.2035 -0.3696
 7347SOL    HW133503   4.081   3.384   5.369  1.2884 -2.6498  2.6658
 7347SOL    HW233504   3.974   3.401   5.469  0.3394 -2.3189 -0.0681
 7348SOL     OW33505   3.144   0.976   5.123 -0.1847 -0.7194  0.6521
 7348SOL    HW133506   3.073   1.016   5.073 -0.8625 -1.3648  1.0969
 7348SOL    HW233507   3.152   0.897   5.069 -2.3574  0.9106 -2.0184
 7349SOL     OW33508   2.604   1.195   6.592 -0.2125 -0.5384  0.0983
 7349SOL    HW133509   2.582   1.259   6.660 -0.3336 -1.9112  1.3614
 7349SOL    HW233510   2.541   1.218   6.524 -2.0231 -1.2566  1.5352
 7350SOL     OW33511   1.932   3.132   2.437 -0.0926  0.2158 -0.2808
 7350SOL    HW133512   1.997   3.079   2.392 -0.6257  0.7562 -1.6889
 7350SOL    HW233513   1.937   3.098   2.527  0.5446  1.6330  0.2210
 7351SOL     OW33514   3.519   0.835   0.746  0.0738  0.6919 -0.1091
 7351SOL    HW133515   3.427   0.863   0.743 -0.3599 -0.9917 -3.2531
 7351SOL    HW233516   3.540   0.860   0.836  0.7009 -4.3632  1.1804
 7352SOL     OW33517   2.349   4.595   6.872 -0.1145 -0.6816  0.2654
 7352SOL    HW133518   2.372   4.649   6.947  2.1418 -1.1990 -0.0659
 7352SOL    HW233519   2.424   4.610   6.816  0.1482 -2.7149  0.0816
 7353SOL     OW33520   3.515   1.283  11.439  0.0748  0.3332  0.7352
 7353SOL    HW133521   3.456   1.220  11.399  1.0386  0.4971 -0.9568
 7353SOL    HW233522   3.510   1.250  11.529  1.5535 -1.7177  0.0453
 7354SOL     OW33523   4.093   0.546   6.273 -0.3512 -0.5697  0.1263
 7354SOL    HW133524   4.067   0.638   6.284  0.5052 -0.4847  1.4123
 7354SOL    HW233525   4.188   0.554   6.262 -0.2319 -1.4301  0.5831
 7355SOL     OW33526   1.297   2.133  12.659  0.1370 -0.7149  0.3740
 7355SOL    HW133527   1.247   2.124  12.741  0.6017 -0.8100  0.6452
 7355SOL    HW233528   1.358   2.062  12.679 -1.5876 -1.9232  1.3909
 7356SOL     OW33529   4.009   2.956   0.077  0.1277 -0.2957  0.1559
 7356SOL    HW133530   4.035   3.041   0.112  1.1101 -0.8293  0.7348
 7356SOL    HW233531   4.046   2.892   0.138  0.0752 -1.0297 -0.5840
 7357SOL     OW33532   4.702   1.758   7.895  0.2437  0.3049 -0.5802
 7357SOL    HW133533   4.640   1.820   7.857  0.0099  1.1218  1.1196
 7357SOL    HW233534   0.032   1.814   7.950 -1.2512  0.0311  1.1647
 7358SOL     OW33535   3.423   4.432   5.575  0.4769  0.4419 -0.0833
 7358SOL    HW133536   3.357   4.468   5.634  0.2989 -0.6588  0.3950
 7358SOL    HW233537   3.384   4.355   5.534  2.4478 -1.0523  0.8388
 7359SOL     OW33538   2.991   0.990  17.589 -0.3228 -0.6211  0.2944
 7359SOL    HW133539   2.991   1.010  17.495  0.3837  1.7243  0.8087
 7359SOL    HW233540   2.904   0.952  17.602  0.3177 -2.4018 -0.5488
 7360SOL     OW33541   3.603   1.075   3.886  0.2165 -0.3721 -0.4493
 7360SOL    HW133542   3.578   0.982   3.887 -0.1369 -0.2587  1.5231
 7360SOL    HW233543   3.529   1.112   3.838  0.5346  1.1825  0.2569
 7361SOL     OW33544   0.690   3.234   5.040 -0.0978 -0.1406 -0.4970
 7361SOL    HW133545   0.706   3.209   4.949 -1.7816  1.3580 -1.2051
 7361SOL    HW233546   0.604   3.275   5.036 -0.4690 -1.0708 -1.9931
 7362SOL     OW33547   4.190   4.410   7.896  0.7154  0.1697 -0.3450
 7362SOL    HW133548   4.201   4.378   7.807 -1.4992 -0.4626 -0.3950
 7362SOL    HW233549   4.263   4.472   7.903  1.8176 -1.1218 -0.2558
 7363SOL     OW33550   3.408   3.742   4.633  0.0347  0.0332 -0.3971
 7363SOL    HW133551   3.420   3.718   4.541  2.1410 -2.0400  0.4173
 7363SOL    HW233552   3.429   3.655   4.667 -1.8357  0.4673  1.8096
 7364SOL     OW33553   1.413   0.255  15.760 -0.5711  0.4959 -0.2963
 7364SOL    HW133554   1.412   0.328  15.699 -0.9239 -0.0478 -0.9346
 7364SOL    HW233555   1.509   0.252  15.765 -0.6067  0.9522  0.6921
 7365SOL     OW33556   4.536   2.772   0.342 -0.5531 -0.5588  0.0989
 7365SOL    HW133557   4.507   2.842   0.401 -0.8026 -0.5357 -0.0497
 7365SOL    HW233558   4.562   2.719   0.417  0.6188  0.0078  0.0958
 7366SOL     OW33559   4.223   1.729   3.698 -0.1933 -0.0918 -0.3266
 7366SOL    HW133560   4.209   1.777   3.780 -0.2600 -0.3294 -0.1984
 7366SOL    HW233561   4.262   1.798   3.645 -0.1377 -0.5946 -0.9306
 7367SOL     OW33562   2.340   2.582   4.171  0.2333 -0.2744  0.1814
 7367SOL    HW133563   2.259   2.571   4.220  1.3412 -0.1852  2.0158
 7367SOL    HW233564   2.318   2.647   4.104 -1.0469  1.0200  1.8859
 7368SOL     OW33565   2.656   4.123   2.250  0.4757  0.3897  0.0461
 7368SOL    HW133566   2.735   4.080   2.218  0.5612  0.0004  0.7883
 7368SOL    HW233567   2.621   4.160   2.169 -0.3210 -0.4197  0.0320
 7369SOL     OW33568   3.250   3.368  15.789  0.3670  0.3039 -0.4242
 7369SOL    HW133569   3.189   3.441  15.797  0.5834  0.3628  0.8085
 7369SOL    HW233570   3.204   3.312  15.728  0.1490  1.4474 -1.3153
 7370SOL     OW33571   2.641   2.947   2.939 -0.1800 -0.4480  0.3817
 7370SOL    HW133572   2.648   2.900   2.856  2.2551 -0.8531  0.8269
 7370SOL    HW233573   2.549   2.975   2.937 -0.2296 -0.8860 -2.6363
 7371SOL     OW33574   1.638   1.347   6.388 -0.0387 -0.2077 -0.8269
 7371SOL    HW133575   1.628   1.356   6.483 -0.5103  2.3197 -1.1400
 7371SOL    HW233576   1.711   1.285   6.377  0.0712 -0.0016 -1.2547
 7372SOL     OW33577   3.707   2.791   8.320 -0.2850  0.4175 -0.0404
 7372SOL    HW133578   3.704   2.699   8.294 -1.5655  1.1141 -2.3778
 7372SOL    HW233579   3.745   2.789   8.408  0.2717  0.0634 -0.2922
 7373SOL     OW33580   0.019   3.600   8.886  0.2538  0.4506 -0.1118
 7373SOL    HW133581   0.020   3.507   8.908 -1.1643  0.7444  1.1930
 7373SOL    HW233582   0.103   3.620   8.927 -0.2763  2.0224  0.2105
 7374SOL     OW33583   4.177   2.187   3.142 -0.3600 -0.4108  0.1395
 7374SOL    HW133584   4.110   2.121   3.123 -1.1075  0.2657  0.3899
 7374SOL    HW233585   4.208   2.149   3.223 -0.0918 -0.4084  0.0362
 7375SOL     OW33586   0.524   3.306  10.618 -0.0957  0.2886  0.1182
 7375SOL    HW133587   0.613   3.288  10.650 -0.9610 -1.0667  1.7186
 7375SOL    HW233588   0.481   3.231  10.658 -0.4028  0.0466 -0.6727
 7376SOL     OW33589   2.770   3.525   4.949  0.3737  0.0055 -0.0786
 7376SOL    HW133590   2.766   3.581   4.871 -1.1006 -1.0049 -0.7321
 7376SOL    HW233591   2.823   3.452   4.917 -0.5557 -0.9453  0.5663
 7377SOL     OW33592   2.003   2.292   2.983 -0.6846  0.5607 -0.3016
 7377SOL    HW133593   2.095   2.285   3.007 -1.2039  1.6708  1.9542
 7377SOL    HW233594   2.008   2.351   2.908  0.3880 -1.2711 -1.6827
 7378SOL     OW33595   1.569   1.936   2.750  0.2193  0.5608  0.0680
 7378SOL    HW133596   1.633   1.865   2.751  0.6962  0.9769 -0.5693
 7378SOL    HW233597   1.492   1.884   2.773 -0.8623  2.3430  0.5687
 7379SOL     OW33598   3.806   2.476   1.349  0.1860 -0.5774 -0.1712
 7379SOL    HW133599   3.848   2.531   1.416  0.9268 -2.5083  0.9401
 7379SOL    HW233600   3.830   2.532   1.275 -1.4471  1.0602  0.5396
 7380SOL     OW33601   1.051   2.931   2.971 -0.0635  0.3671 -0.0623
 7380SOL    HW133602   0.958   2.925   2.995  0.3883 -0.1503  1.5905
 7380SOL    HW233603   1.076   2.843   2.998 -2.2308 -0.3774 -0.4403
 7381SOL     OW33604   4.270   4.400   5.790  0.3834 -0.7887  0.2216
 7381SOL    HW133605   4.349   4.365   5.832  0.5591 -0.1690  0.4182
 7381SOL    HW233606   4.216   4.420   5.867 -0.9533 -1.5750 -0.5130
 7382SOL     OW33607   4.445   2.108  13.918  0.3780 -0.5010  0.0630
 7382SOL    HW133608   4.353   2.129  13.902  0.3405 -1.8360 -1.4552
 7382SOL    HW233609   4.442   2.015  13.896 -2.2585 -0.1556 -1.1400
 7383SOL     OW33610   3.124   1.110   7.580  0.3228  0.3671 -0.2191
 7383SOL    HW133611   3.069   1.187   7.570  0.7523  0.8390  1.1599
 7383SOL    HW233612   3.050   1.050   7.578 -0.7381  1.6407  1.8630
 7384SOL     OW33613   4.183   3.280  11.811 -0.2893 -0.6965  0.1221
 7384SOL    HW133614   4.224   3.361  11.841 -0.6858  0.0701 -1.4393
 7384SOL    HW233615   4.251   3.253  11.749  0.8480  1.0071  0.6227
 7385SOL     OW33616   1.143   1.523  15.817 -0.2657  0.3394 -0.3664
 7385SOL    HW133617   1.174   1.554  15.902 -2.5918 -0.2939  0.6880
 7385SOL    HW233618   1.122   1.433  15.840 -1.5780  0.7727  0.1276
 7386SOL     OW33619   1.352   2.423   5.420 -0.0769  0.3177  0.3933
 7386SOL    HW133620   1.366   2.517   5.430 -1.8850  0.6544 -0.1985
 7386SOL    HW233621   1.353   2.406   5.326  1.3929 -1.3174  0.7087
 7387SOL     OW33622   3.340   1.416   8.799 -0.3319  0.4833 -0.1388
 7387SOL    HW133623   3.353   1.326   8.769  0.3372  0.4082  0.3893
 7387SOL    HW233624   3.425   1.447   8.830 -0.1351  0.3696 -0.5627
 7388SOL     OW33625   1.769   1.295   5.864 -0.0905 -0.6769  0.3125
 7388SOL    HW133626   1.728   1.330   5.786  1.5084 -0.2759 -0.3513
 7388SOL    HW233627   1.767   1.201   5.849 -1.8024 -0.5502 -0.2632
 7389SOL     OW33628   4.553   1.510   9.021 -0.0281 -0.2408 -0.6976
 7389SOL    HW133629   4.543   1.463   8.938 -0.9033 -3.2336  1.1024
 7389SOL    HW233630   4.567   1.439   9.083  1.7365  1.6249  1.0295
 7390SOL     OW33631   0.746   2.544   3.545 -0.4445 -0.3622 -0.1521
 7390SOL    HW133632   0.789   2.472   3.499  1.7380 -0.0020  1.2899
 7390SOL    HW233633   0.693   2.494   3.607 -0.0629  0.9044  1.2007
 7391SOL     OW33634   4.650   2.754   1.084 -0.4744  0.5308 -0.2976
 7391SOL    HW133635   4.617   2.694   1.151  1.3862  0.1628  0.2905
 7391SOL    HW233636   4.707   2.804   1.143  0.4098 -0.2520 -0.4891
 7392SOL     OW33637   3.566   1.104  15.674  0.6597 -0.5382 -0.6643
 7392SOL    HW133638   3.534   1.075  15.589 -1.5263  1.4401 -0.5149
 7392SOL    HW233639   3.530   1.191  15.658 -0.3560 -1.0215 -1.0238
 7393SOL     OW33640   2.045   4.256   2.011  0.6458  0.3525  0.3330
 7393SOL    HW133641   2.004   4.329   1.965 -1.0553  0.6027  2.2370
 7393SOL    HW233642   2.070   4.194   1.942  3.6254  1.7764  0.1336
 7394SOL     OW33643   1.397   3.188  10.567 -0.7143 -0.7692 -0.1855
 7394SOL    HW133644   1.419   3.279  10.589  0.0097 -1.4822  2.0548
 7394SOL    HW233645   1.478   3.143  10.590 -0.7504 -0.9190 -0.3525
 7395SOL     OW33646   1.640   2.780   3.279  0.0922 -0.2397  0.2515
 7395SOL    HW133647   1.731   2.768   3.303  0.7653  1.7663 -1.3163
 7395SOL    HW233648   1.593   2.722   3.339  1.4205  0.4190  1.8988
 7396SOL     OW33649   2.188   3.833   6.329  0.0881  0.0280 -0.2855
 7396SOL    HW133650   2.170   3.894   6.257  1.2078 -0.1146 -0.6882
 7396SOL    HW233651   2.231   3.894   6.389  0.6284  0.6604 -1.3003
 7397SOL     OW33652   0.409   4.047   8.563 -0.3953  0.3753 -0.1820
 7397SOL    HW133653   0.496   4.088   8.556 -0.4884  0.9867  1.9632
 7397SOL    HW233654   0.399   4.033   8.657  2.4143 -1.5184 -0.1658
 7398SOL     OW33655   0.464   2.145   7.212  1.0404 -0.0951  0.0060
 7398SOL    HW133656   0.453   2.211   7.144  0.8434  2.0242  2.0695
 7398SOL    HW233657   0.463   2.200   7.291 -0.6210 -0.8214  0.4851
 7399SOL     OW33658   4.433   0.293   5.907 -0.2663  0.2827  0.1010
 7399SOL    HW133659   4.357   0.274   5.962  0.4689  0.0843  1.0587
 7399SOL    HW233660   4.403   0.277   5.818 -0.0414  2.1923 -0.3270
 7400SOL     OW33661   3.772   1.316   6.162  0.5197  0.3772  0.1528
 7400SOL    HW133662   3.842   1.343   6.102  1.2014  0.5671  1.0317
 7400SOL    HW233663   3.719   1.261   6.105  1.5259 -1.2896  0.8509
 7401SOL     OW33664   4.705   2.430  14.997 -0.2997 -0.1144  0.1061
 7401SOL    HW133665   4.610   2.427  15.003 -0.2060 -2.1603  0.2916
 7401SOL    HW233666   0.005   2.344  15.031  2.2023  1.1407  1.4862
 7402SOL     OW33667   3.821   1.886   0.440 -0.0750 -0.3602 -0.6554
 7402SOL    HW133668   3.800   1.827   0.368  0.3479 -1.8849  0.4752
 7402SOL    HW233669   3.883   1.834   0.491 -0.1230  0.0608 -0.1671
 7403SOL     OW33670   2.695   4.380   6.633  0.0853 -0.1800  0.3043
 7403SOL    HW133671   2.758   4.382   6.705  0.8299  1.4803 -0.3931
 7403SOL    HW233672   2.686   4.286   6.616  2.0289 -0.4653  0.8436
 7404SOL     OW33673   2.431   3.742  12.032  0.8525  0.1450 -0.4577
 7404SOL    HW133674   2.500   3.685  11.998  1.4484  0.3527  0.3938
 7404SOL    HW233675   2.452   3.744  12.125  1.1756  2.7232 -0.5848
 7405SOL     OW33676   1.501   0.852   8.724 -0.0202 -0.1020 -0.2631
 7405SOL    HW133677   1.519   0.912   8.797 -0.5129 -1.5298  1.0315
 7405SOL    HW233678   1.406   0.838   8.726 -0.2320  1.3536  0.1429
 7406SOL     OW33679   3.193   3.506  11.784  0.1148 -0.3523 -0.6043
 7406SOL    HW133680   3.258   3.549  11.840 -1.0424  0.0450  0.4293
 7406SOL    HW233681   3.251   3.452  11.730  0.2926 -0.6245 -0.1524
 7407SOL     OW33682   1.382   0.420   5.963 -0.2410 -0.1596 -0.1219
 7407SOL    HW133683   1.345   0.454   5.883 -0.3527 -2.2663 -0.9720
 7407SOL    HW233684   1.346   0.484   6.024  2.5038  1.0081  0.2958
 7408SOL     OW33685   2.012   3.156   8.191  0.4324 -0.0181  0.0513
 7408SOL    HW133686   1.993   3.210   8.267 -0.8492 -0.0138 -0.2686
 7408SOL    HW233687   2.059   3.221   8.140 -0.5429 -0.2400 -1.1425
 7409SOL     OW33688   0.313   1.598   6.038  0.1258 -0.2622 -0.2096
 7409SOL    HW133689   0.237   1.541   6.055  1.6655 -1.9452  1.0979
 7409SOL    HW233690   0.293   1.628   5.949 -1.0473  2.1561  0.8671
 7410SOL     OW33691   3.247   0.655   7.915 -0.6868 -0.5978  0.2506
 7410SOL    HW133692   3.267   0.635   8.006 -0.8870  0.0546  0.4355
 7410SOL    HW233693   3.270   0.571   7.874 -1.1904 -0.3600 -0.5235
 7411SOL     OW33694   1.137   0.246   5.768  0.2105 -0.5653  0.6591
 7411SOL    HW133695   1.188   0.327   5.776  0.2455 -0.6455  1.2684
 7411SOL    HW233696   1.047   0.278   5.773 -0.3616 -2.3730  1.9711
 7412SOL     OW33697   1.992   0.103   9.569 -0.0862 -0.2074  0.1772
 7412SOL    HW133698   1.988   0.107   9.665  1.0890 -0.1051  0.2153
 7412SOL    HW233699   2.066   0.047   9.546  1.2346  1.0142  1.5065
 7413SOL     OW33700   0.458   3.814   6.936 -0.1623 -0.2972  0.6816
 7413SOL    HW133701   0.424   3.725   6.924 -1.7222  0.5235 -0.9860
 7413SOL    HW233702   0.422   3.817   7.024  0.7774  0.9609  1.0216
 7414SOL     OW33703   2.708   3.157   3.347 -0.3781  0.5350 -0.5489
 7414SOL    HW133704   2.761   3.114   3.413 -0.5841  1.1476  0.0221
 7414SOL    HW233705   2.748   3.107   3.277  1.0297 -0.2275  0.8109
 7415SOL     OW33706   4.117   1.753  11.439 -0.4304 -0.3626  0.1615
 7415SOL    HW133707   4.048   1.779  11.378  0.1222  1.4817  0.3344
 7415SOL    HW233708   4.198   1.765  11.389 -0.7072 -1.7935 -0.6468
 7416SOL     OW33709   0.344   0.760   3.523 -0.0818  1.3481 -0.0618
 7416SOL    HW133710   0.341   0.712   3.605 -1.5732  2.3912  0.4994
 7416SOL    HW233711   0.250   0.769   3.503 -0.1124  1.1177 -0.0137
 7417SOL     OW33712   2.604   4.391  12.209  0.6985 -0.1422 -0.6150
 7417SOL    HW133713   2.665   4.318  12.205 -0.0795 -0.8704  0.9542
 7417SOL    HW233714   2.671   4.459  12.208  2.1382 -1.5638  0.6368
 7418SOL     OW33715   2.375   3.012   2.890 -0.2107 -0.2898  0.1882
 7418SOL    HW133716   2.307   2.946   2.872 -0.0459  0.3733 -2.8873
 7418SOL    HW233717   2.380   3.071   2.815 -3.0195  1.0634  1.0805
 7419SOL     OW33718   2.829   1.973  10.639 -0.3301 -0.4316 -0.3837
 7419SOL    HW133719   2.920   1.954  10.617 -0.4199 -1.0411 -0.2301
 7419SOL    HW233720   2.788   1.888  10.652  1.0169 -0.8405  1.1776
 7420SOL     OW33721   0.947   2.930   3.826 -0.1404  0.2560  0.1569
 7420SOL    HW133722   0.986   2.923   3.739  1.2353 -2.7388  1.0394
 7420SOL    HW233723   0.861   2.890   3.811  0.9261 -1.6223 -0.8181
 7421SOL     OW33724   2.294   0.720   3.989 -0.5190  0.4343  0.6484
 7421SOL    HW133725   2.340   0.735   3.907 -1.2224  1.0865  0.3812
 7421SOL    HW233726   2.362   0.685   4.047  1.2831 -1.6072 -2.7255
 7422SOL     OW33727   3.848   3.968   9.921  0.3900 -0.2106  0.0982
 7422SOL    HW133728   3.892   4.033   9.977 -0.1656 -0.4730  0.8489
 7422SOL    HW233729   3.926   3.931   9.880  0.8135 -1.1228  1.7040
 7423SOL     OW33730   3.595   0.988   7.411  0.0716 -0.0195  0.6004
 7423SOL    HW133731   3.542   1.051   7.460  0.4790  2.8608 -2.6985
 7423SOL    HW233732   3.528   0.936   7.367 -0.3694 -0.1909  1.4620
 7424SOL     OW33733   1.256   0.854   2.227  0.3336 -0.4568 -0.1680
 7424SOL    HW133734   1.224   0.807   2.150  1.0293  0.9010 -1.3012
 7424SOL    HW233735   1.196   0.929   2.229  3.1841  1.7730  1.6549
 7425SOL     OW33736   3.658   2.731   5.705  0.0556  0.1109  0.2709
 7425SOL    HW133737   3.619   2.643   5.706 -0.4784  0.3626  1.7065
 7425SOL    HW233738   3.662   2.738   5.609 -1.6676 -0.5647  0.1603
 7426SOL     OW33739   0.436   2.733  13.165  0.1617 -0.1301  0.0375
 7426SOL    HW133740   0.382   2.657  13.143 -0.3883  0.1834  0.2963
 7426SOL    HW233741   0.487   2.740  13.084 -0.1703 -0.4828 -0.2034
 7427SOL     OW33742   0.453   4.663   4.231  0.1838  0.2110 -0.0714
 7427SOL    HW133743   0.435   0.009   4.168 -1.6442 -0.4332 -0.2569
 7427SOL    HW233744   0.453   4.587   4.173  3.0689  0.8469 -0.9210
 7428SOL     OW33745   0.094   2.868  10.505 -0.1748 -0.4851 -0.6999
 7428SOL    HW133746   0.114   2.911  10.589  1.3486 -2.2251 -0.1790
 7428SOL    HW233747   0.041   2.793  10.533 -0.4457 -0.9604 -2.5095
 7429SOL     OW33748   1.820   4.335   3.943  0.3595 -0.7238  0.4245
 7429SOL    HW133749   1.724   4.339   3.934  0.5264  2.0842 -0.1353
 7429SOL    HW233750   1.831   4.355   4.036 -1.8705  2.0596  0.0797
 7430SOL     OW33751   1.386   1.253   7.532 -0.6070 -0.5250  0.4231
 7430SOL    HW133752   1.389   1.296   7.446  0.3084 -0.3663  0.5299
 7430SOL    HW233753   1.478   1.254   7.559  0.1735  2.6973 -2.3229
 7431SOL     OW33754   0.509   0.319  13.615 -0.0377 -0.0730 -0.5439
 7431SOL    HW133755   0.489   0.360  13.531  0.4547 -0.3629 -0.8054
 7431SOL    HW233756   0.588   0.265  13.606  0.8376  0.8533  1.5509
 7432SOL     OW33757   2.199   3.832   6.994  0.3354 -0.1328  0.0487
 7432SOL    HW133758   2.199   3.811   7.087  0.0716  1.7266  0.4631
 7432SOL    HW233759   2.211   3.745   6.955 -0.0192 -0.2903  0.2894
 7433SOL     OW33760   2.252   4.110  11.742  0.0676  0.6960  0.2641
 7433SOL    HW133761   2.308   4.055  11.687  0.0781  0.6326  0.3375
 7433SOL    HW233762   2.309   4.127  11.818  0.0816  0.6910  0.2546
 7434SOL     OW33763   3.850   0.103   4.181 -0.9381  0.2605  0.0251
 7434SOL    HW133764   3.845   0.063   4.268 -1.2521 -1.5692 -0.8313
 7434SOL    HW233765   3.822   0.033   4.122  2.4215 -1.2180  0.2166
 7435SOL     OW33766   2.023   0.855   3.544 -0.2329 -0.2629  0.7003
 7435SOL    HW133767   1.964   0.781   3.529 -0.1624 -0.1176 -0.2456
 7435SOL    HW233768   2.035   0.838   3.638 -0.4147  0.4551  0.8473
 7436SOL     OW33769   2.289   4.556   8.072  0.0432 -0.2206  0.1795
 7436SOL    HW133770   2.342   4.533   7.995  1.2158 -0.5372  1.0844
 7436SOL    HW233771   2.358   4.567   8.137  0.0190 -0.1989  0.2012
 7437SOL     OW33772   3.087   1.211  14.783  0.1448  0.0093  0.3079
 7437SOL    HW133773   3.123   1.150  14.719  2.1776  1.1099  0.3917
 7437SOL    HW233774   3.166   1.243  14.826 -0.3836 -2.3048  2.9384
 7438SOL     OW33775   1.096   0.679   4.208 -0.1783  0.1205 -0.6484
 7438SOL    HW133776   1.026   0.677   4.143  0.2254 -0.3954 -1.0676
 7438SOL    HW233777   1.143   0.747   4.160  0.1570 -0.6850 -1.4698
 7439SOL     OW33778   3.144   2.870   5.783  0.4467 -0.0597  0.0788
 7439SOL    HW133779   3.203   2.801   5.811  2.3195  0.9566 -1.3629
 7439SOL    HW233780   3.200   2.943   5.810  0.7474  0.4948 -1.9868
 7440SOL     OW33781   1.909   2.692   5.222  0.2977 -0.2008 -0.3780
 7440SOL    HW133782   1.934   2.742   5.300 -2.2874  1.0014 -0.3078
 7440SOL    HW233783   1.847   2.629   5.260  0.5116 -0.8975 -1.1740
 7441SOL     OW33784   2.914   2.139   2.480 -0.2239 -0.3055  0.1517
 7441SOL    HW133785   3.005   2.157   2.506 -0.2505 -0.3465  0.2712
 7441SOL    HW233786   2.931   2.147   2.386 -2.5469 -1.1015 -0.3227
 7442SOL     OW33787   1.115   1.131   5.116  0.2043  0.3295 -0.1079
 7442SOL    HW133788   1.189   1.074   5.094 -0.0068 -0.9218  2.3770
 7442SOL    HW233789   1.055   1.100   5.049  1.2384 -0.4153 -0.6895
 7443SOL     OW33790   1.531   0.350  11.343  0.1169  0.1622  0.1419
 7443SOL    HW133791   1.457   0.348  11.283  1.2074  3.9182 -1.3185
 7443SOL    HW233792   1.600   0.387  11.287  1.8974 -2.0266  0.8820
 7444SOL     OW33793   1.001   2.908   6.311  0.7010 -0.0283 -0.1103
 7444SOL    HW133794   1.035   2.820   6.293  1.0406  0.3685 -1.3200
 7444SOL    HW233795   0.989   2.932   6.220  0.9212 -1.5882 -0.5517
 7445SOL     OW33796   3.908   3.128  15.615 -0.1763  0.0653 -0.1197
 7445SOL    HW133797   3.876   3.154  15.702 -1.1139  2.0346 -1.0407
 7445SOL    HW233798   3.869   3.199  15.564  1.9421  1.2785 -0.0714
 7446SOL     OW33799   3.537   0.825  16.248  0.2066  0.4408 -0.3732
 7446SOL    HW133800   3.461   0.807  16.192  1.5286 -1.4387 -1.6119
 7446SOL    HW233801   3.592   0.868  16.182  1.9111 -0.9895  0.1031
 7447SOL     OW33802   1.086   4.292   2.921  0.2332 -0.2558 -0.6245
 7447SOL    HW133803   1.087   4.210   2.873  2.1306 -1.3286  1.2689
 7447SOL    HW233804   1.170   4.302   2.966  0.6644 -1.5620 -1.1594
 7448SOL     OW33805   0.112   3.495  11.179 -0.0555  0.4391 -0.4149
 7448SOL    HW133806   0.182   3.537  11.228 -0.4181  0.7807 -0.1948
 7448SOL    HW233807   0.075   3.571  11.135  0.4340  1.7307  1.3876
 7449SOL     OW33808   2.407   0.331  15.661  0.5897  0.2553 -0.0415
 7449SOL    HW133809   2.492   0.287  15.658 -0.2577 -1.2829 -1.2379
 7449SOL    HW233810   2.365   0.277  15.728  2.6726 -2.7171 -1.1196
 7450SOL     OW33811   1.622   3.534   3.206  0.0306 -0.4844  0.1676
 7450SOL    HW133812   1.689   3.533   3.138 -1.1979  0.6654 -1.0576
 7450SOL    HW233813   1.628   3.446   3.244 -1.0259 -0.4562  0.4150
 7451SOL     OW33814   0.118   1.060   6.604 -0.0085 -0.2051 -0.1850
 7451SOL    HW133815   0.029   1.095   6.610 -0.6386 -1.7193 -0.6141
 7451SOL    HW233816   0.105   1.010   6.524  0.1093 -0.4784 -0.0361
 7452SOL     OW33817   1.483   3.348   4.211 -0.8184  0.1601 -0.1045
 7452SOL    HW133818   1.569   3.318   4.183  0.0046  0.6576  1.9373
 7452SOL    HW233819   1.508   3.415   4.274 -0.4605 -0.0496 -0.0236
 7453SOL     OW33820   1.229   3.398   7.992 -0.2905  0.4162 -0.3819
 7453SOL    HW133821   1.150   3.448   7.973 -0.7194 -0.0363  0.2054
 7453SOL    HW233822   1.264   3.463   8.054 -0.7188 -1.3449  1.7022
 7454SOL     OW33823   4.205   1.001   1.973  0.1829  0.8413  0.2632
 7454SOL    HW133824   4.134   1.045   2.020  0.5402  2.4047 -0.6700
 7454SOL    HW233825   4.157   0.989   1.890 -0.0501 -0.7477  0.6149
 7455SOL     OW33826   4.041   1.235   5.644  0.5404  0.0332 -0.5543
 7455SOL    HW133827   3.951   1.239   5.611 -0.1931  0.3960  1.5299
 7455SOL    HW233828   4.040   1.325   5.677  4.1169 -0.6252  1.3973
 7456SOL     OW33829   1.149   2.051  17.410 -0.0401 -0.2729  0.5204
 7456SOL    HW133830   1.195   2.134  17.418  0.8306 -0.5206 -2.1089
 7456SOL    HW233831   1.128   2.024  17.500 -0.6669  1.6969  0.9640
 7457SOL     OW33832   2.697   0.867   5.471 -0.6645  0.2987 -0.0560
 7457SOL    HW133833   2.673   0.849   5.562 -1.1137 -2.8007 -0.7997
 7457SOL    HW233834   2.626   0.822   5.427  1.9056 -2.1594 -1.7198
 7458SOL     OW33835   2.835   0.919   0.227  0.4351 -0.1542 -0.0299
 7458SOL    HW133836   2.794   1.005   0.212 -3.5210 -2.2425 -1.1736
 7458SOL    HW233837   2.906   0.948   0.284  1.0355 -0.3793 -0.6622
 7459SOL     OW33838   1.017   1.586   3.116 -0.1311 -0.0791 -0.2708
 7459SOL    HW133839   1.078   1.512   3.109 -0.9081 -0.7736  0.1902
 7459SOL    HW233840   1.016   1.588   3.211 -3.2684  0.3910 -0.3184
 7460SOL     OW33841   1.724   0.333   3.520  0.1053 -0.3762 -0.4355
 7460SOL    HW133842   1.714   0.392   3.445 -1.4366 -1.0827 -0.7831
 7460SOL    HW233843   1.773   0.266   3.473 -0.8495  0.7468 -3.0435
 7461SOL     OW33844   1.671   0.349  17.190 -0.1395 -0.3615  0.4243
 7461SOL    HW133845   1.685   0.329  17.283 -1.9608  1.5008  1.1152
 7461SOL    HW233846   1.653   0.442  17.205 -0.6379 -0.4098  0.1131
 7462SOL     OW33847   3.587   0.891   7.840 -0.1166  0.0051 -0.2139
 7462SOL    HW133848   3.638   0.919   7.764  1.1042  0.5658  0.8119
 7462SOL    HW233849   3.495   0.906   7.818 -0.3605  1.2399  1.6104
 7463SOL     OW33850   1.750   0.072   9.458  0.1306  0.1940  0.1211
 7463SOL    HW133851   1.710   0.094   9.543  0.3271 -1.2208  0.5727
 7463SOL    HW233852   1.843   0.087   9.474  0.0524 -0.3915  1.1205
 7464SOL     OW33853   2.808   3.560   8.052 -0.4840 -0.1926 -0.0625
 7464SOL    HW133854   2.832   3.467   8.058 -1.1547 -0.3258  0.5304
 7464SOL    HW233855   2.736   3.554   7.990 -0.3301 -0.0365 -0.2557
 7465SOL     OW33856   4.262   4.226  15.880  0.0451 -0.1564  0.0276
 7465SOL    HW133857   4.192   4.238  15.816 -1.2037 -0.6820  1.3113
 7465SOL    HW233858   4.321   4.172  15.827  0.5405 -0.2189  0.6425
 7466SOL     OW33859   1.503   2.037   7.107  0.4301  0.1309  0.3901
 7466SOL    HW133860   1.526   2.129   7.096  3.2572 -0.7615 -1.1855
 7466SOL    HW233861   1.528   2.020   7.198  0.6342  1.5067  0.5894
 7467SOL     OW33862   2.769   2.037   5.774 -0.7659 -0.2538  0.7404
 7467SOL    HW133863   2.738   2.111   5.723 -1.6702 -1.2182 -0.1140
 7467SOL    HW233864   2.771   1.976   5.700  2.3452  1.7853 -0.8523
 7468SOL     OW33865   3.559   2.826   3.636 -0.5891  0.0268 -0.0533
 7468SOL    HW133866   3.570   2.858   3.546  1.3016  0.1318  0.1950
 7468SOL    HW233867   3.560   2.731   3.631  1.6185 -0.1885  4.0717
 7469SOL     OW33868   3.991   2.574   5.996  0.6176  0.3681 -0.3639
 7469SOL    HW133869   4.029   2.618   6.073 -0.1551  0.1217  0.1566
 7469SOL    HW233870   3.979   2.651   5.941 -3.8296 -0.4106 -0.4194
 7470SOL     OW33871   3.111   2.591   9.897 -0.1054 -0.2306 -0.3007
 7470SOL    HW133872   3.188   2.535   9.909  0.9807  0.9684 -1.6748
 7470SOL    HW233873   3.033   2.547   9.933  0.9384 -1.4349  0.5043
 7471SOL     OW33874   3.117   3.884   9.927  0.3982  0.1855  0.4643
 7471SOL    HW133875   3.129   3.977   9.907  0.7863  0.0672  0.1517
 7471SOL    HW233876   3.200   3.863   9.971  0.6197 -1.8616 -0.9760
 7472SOL     OW33877   1.437   0.397   0.962 -0.3074 -0.1981  0.3504
 7472SOL    HW133878   1.437   0.314   0.913 -0.4220 -0.8817  1.5146
 7472SOL    HW233879   1.447   0.464   0.895  1.0637 -0.7625 -0.0158
 7473SOL     OW33880   1.177   2.563  16.753  0.0837 -0.8458 -0.0385
 7473SOL    HW133881   1.187   2.525  16.840  0.0534 -1.5738 -0.3482
 7473SOL    HW233882   1.157   2.652  16.780  1.6775  0.2562 -2.5147
 7474SOL     OW33883   3.186   1.002   5.819 -0.4971 -0.2175  0.0142
 7474SOL    HW133884   3.164   0.952   5.740 -1.0816  0.3714 -0.1963
 7474SOL    HW233885   3.145   0.952   5.889  0.0776  1.0671  1.2789
 7475SOL     OW33886   3.321   2.878   3.217 -0.3218  0.2354 -0.0259
 7475SOL    HW133887   3.367   2.960   3.236 -3.0194  2.2634 -2.1096
 7475SOL    HW233888   3.230   2.894   3.242  0.0441  1.1134  0.7274
 7476SOL     OW33889   1.747   0.810   4.350  0.3115  0.0155  0.6221
 7476SOL    HW133890   1.793   0.726   4.357  0.8892  0.1580 -1.3216
 7476SOL    HW233891   1.741   0.815   4.445  0.5762  0.3104  0.6218
 7477SOL     OW33892   1.006   1.088  16.015 -0.3941  0.1294 -0.0751
 7477SOL    HW133893   0.914   1.061  16.006  0.1676 -1.6970 -0.2209
 7477SOL    HW233894   0.998   1.183  16.016  0.0040  0.1609  0.1556
 7478SOL     OW33895   1.805   3.848   8.952  0.1452  0.0749  0.3595
 7478SOL    HW133896   1.793   3.901   9.030 -0.7514  0.9457 -0.3711
 7478SOL    HW233897   1.867   3.782   8.984 -0.2746 -1.3179 -1.6461
 7479SOL     OW33898   0.630   3.274   6.372 -0.2630 -0.0069 -0.1858
 7479SOL    HW133899   0.679   3.193   6.385  0.1871 -0.1100 -2.5197
 7479SOL    HW233900   0.605   3.274   6.280 -2.1229 -0.1121  0.3201
 7480SOL     OW33901   1.260   0.921   3.533  0.0859 -0.1062  0.5003
 7480SOL    HW133902   1.171   0.888   3.518 -0.0934 -0.0086  1.3452
 7480SOL    HW233903   1.306   0.837   3.523 -1.5371 -0.9155 -0.2661
 7481SOL     OW33904   0.597   3.744  16.142  0.4328  0.3993  0.2782
 7481SOL    HW133905   0.630   3.832  16.158  0.5863  0.4379 -0.2731
 7481SOL    HW233906   0.559   3.723  16.228 -2.4938  1.4634 -0.7628
 7482SOL     OW33907   0.730   1.885   2.198 -0.0349  0.1659 -0.0493
 7482SOL    HW133908   0.675   1.963   2.200  0.6131  0.6329 -0.4988
 7482SOL    HW233909   0.799   1.927   2.250 -1.6156  1.2128  1.2116
 7483SOL     OW33910   3.543   2.487   1.386  0.4566 -0.2387 -0.4130
 7483SOL    HW133911   3.537   2.491   1.291 -2.0809 -1.6229 -0.3112
 7483SOL    HW233912   3.637   2.503   1.397  0.3771 -1.6952  2.2463
 7484SOL     OW33913   4.245   2.298   4.942  0.1714  0.1150  0.4092
 7484SOL    HW133914   4.289   2.215   4.925  0.7259  0.1016  1.9223
 7484SOL    HW233915   4.230   2.342   4.858 -0.5663 -0.8337  0.0491
 7485SOL     OW33916   1.136   4.185   1.517  0.3575 -0.0330 -0.2407
 7485SOL    HW133917   1.201   4.141   1.462 -0.7221  0.2521 -1.7447
 7485SOL    HW233918   1.065   4.121   1.504  0.2597  0.1498 -0.6180
 7486SOL     OW33919   3.208   0.861   1.068 -0.1740 -0.3584  0.2143
 7486SOL    HW133920   3.165   0.936   1.028  1.0787  0.7316  0.9564
 7486SOL    HW233921   3.231   0.899   1.152  1.1781 -1.1809  0.2092
 7487SOL     OW33922   4.375   2.349   6.102  0.1276 -0.0555  0.2269
 7487SOL    HW133923   4.292   2.315   6.136 -0.2862  2.0942  1.3474
 7487SOL    HW233924   4.350   2.358   6.010  2.8218 -1.5443 -0.6455
 7488SOL     OW33925   0.349   2.901   6.150  0.4677  0.1218  0.1229
 7488SOL    HW133926   0.410   2.948   6.093  0.0021 -1.4451 -1.6617
 7488SOL    HW233927   0.357   2.962   6.223  1.1144  1.8608 -1.4002
 7489SOL     OW33928   0.793   3.007   2.736 -0.4601 -0.2993 -0.0004
 7489SOL    HW133929   0.720   3.042   2.786 -0.1010  2.5031 -1.4382
 7489SOL    HW233930   0.755   2.921   2.721 -0.5630  0.0297 -1.5883
 7490SOL     OW33931   0.299   1.681  17.216  0.2313 -0.1311 -0.1484
 7490SOL    HW133932   0.353   1.750  17.256  0.6481  0.4139 -1.6745
 7490SOL    HW233933   0.361   1.668  17.144  1.2690 -2.8583  1.2243
 7491SOL     OW33934   2.357   3.664   4.489  0.2869 -0.5031  0.7398
 7491SOL    HW133935   2.353   3.658   4.585  2.2748  0.7619  0.9157
 7491SOL    HW233936   2.272   3.625   4.472 -1.7620  3.4104  2.0057
 7492SOL     OW33937   3.516   1.581   8.623  0.1965  0.1403  0.2771
 7492SOL    HW133938   3.440   1.637   8.639 -0.5572 -1.0023  0.6176
 7492SOL    HW233939   3.572   1.624   8.689 -0.1240 -0.8223  1.1782
 7493SOL     OW33940   0.140   1.438  16.947  0.1837 -0.5350  0.0005
 7493SOL    HW133941   0.130   1.493  17.025  0.3829  0.2777 -0.5451
 7493SOL    HW233942   0.233   1.441  16.924  0.5384  1.0793  1.5969
 7494SOL     OW33943   0.557   1.338   6.224  0.0675 -0.3298 -0.7444
 7494SOL    HW133944   0.599   1.270   6.171  0.4318  0.7917 -1.8799
 7494SOL    HW233945   0.491   1.283   6.268 -0.0383 -1.4126 -2.2555
 7495SOL     OW33946   2.601   0.476   2.889  0.0859 -0.0442 -0.5878
 7495SOL    HW133947   2.579   0.563   2.921  0.2837 -0.6349  1.1865
 7495SOL    HW233948   2.695   0.496   2.885 -0.8762  4.2809 -1.5280
 7496SOL     OW33949   1.222   1.549   8.671  0.2818  0.3927  0.5892
 7496SOL    HW133950   1.154   1.482   8.666  0.4090  0.0461  3.2181
 7496SOL    HW233951   1.231   1.565   8.765  0.6479 -1.1170  0.8150
 7497SOL     OW33952   0.797   3.448   4.162  0.1670  0.3016 -0.2154
 7497SOL    HW133953   0.777   3.390   4.235 -1.2180 -0.1493 -0.9574
 7497SOL    HW233954   0.727   3.427   4.100 -0.1035 -0.2852  0.2850
 7498SOL     OW33955   0.073   3.451   8.290  0.4671 -0.0215 -0.4611
 7498SOL    HW133956   0.163   3.482   8.300  0.5541 -0.0594 -1.1080
 7498SOL    HW233957   0.044   3.514   8.224  2.4307 -1.6285 -2.9121
 7499SOL     OW33958   4.482   4.195   9.721  0.2882  0.2952  0.3135
 7499SOL    HW133959   4.502   4.145   9.642 -1.1000 -1.2321  0.9142
 7499SOL    HW233960   4.392   4.163   9.731  0.1621  0.7564  0.6391
 7500SOL     OW33961   2.950   1.490   2.764 -0.2760  0.8690 -0.4267
 7500SOL    HW133962   2.953   1.510   2.671 -1.3445  0.2451 -0.5937
 7500SOL    HW233963   3.043   1.505   2.780 -0.5619  2.2018  0.0464
 7501SOL     OW33964   3.797   0.252   3.800  0.0629 -1.0516  0.5083
 7501SOL    HW133965   3.869   0.270   3.860  0.6698  1.2213 -0.8773
 7501SOL    HW233966   3.797   0.157   3.809 -0.8586 -0.9214  1.8441
 7502SOL     OW33967   1.098   1.946   4.265 -0.7272 -0.3044 -0.3804
 7502SOL    HW133968   1.079   1.903   4.348 -2.5423  1.7003  0.2642
 7502SOL    HW233969   1.081   2.034   4.300  3.1181 -0.1229  1.0974
 7503SOL     OW33970   3.098   3.205  10.422  0.5125 -0.7285 -0.2855
 7503SOL    HW133971   3.158   3.226  10.494 -1.4906 -0.7432  1.3912
 7503SOL    HW233972   3.047   3.134  10.462 -1.3458  0.6402 -0.2411
 7504SOL     OW33973   0.233   2.325  10.833  0.5039  0.1591  0.0039
 7504SOL    HW133974   0.244   2.291  10.744 -0.8657  1.3672 -0.6337
 7504SOL    HW233975   0.274   2.253  10.882  1.0365  0.3941 -0.0948
 7505SOL     OW33976   4.375   0.235  12.667  0.0709 -0.1503 -0.1932
 7505SOL    HW133977   4.336   0.149  12.653  1.3668 -0.7067 -0.4538
 7505SOL    HW233978   4.455   0.207  12.712  0.8639 -0.5792 -1.8419
 7506SOL     OW33979   2.844   0.422   6.378 -0.2514  0.2325 -0.4426
 7506SOL    HW133980   2.881   0.486   6.318  0.1526 -0.2440 -0.7004
 7506SOL    HW233981   2.880   0.340   6.343 -1.3656 -0.3981 -0.0980
 7507SOL     OW33982   1.917   1.070   7.214 -0.4557  0.2494 -0.0504
 7507SOL    HW133983   1.847   1.031   7.162  2.1822 -3.5404 -0.7976
 7507SOL    HW233984   1.990   1.037   7.162 -1.6092  0.4134 -1.7667
 7508SOL     OW33985   3.181   0.423   3.631  0.3996  0.5328 -0.5909
 7508SOL    HW133986   3.122   0.482   3.585  0.2150  1.7103  1.1554
 7508SOL    HW233987   3.259   0.474   3.606  0.6551  0.5820  0.3010
 7509SOL     OW33988   2.300   2.937   1.277  0.3236 -0.1692  0.3267
 7509SOL    HW133989   2.333   2.934   1.187  2.9908 -1.8807  1.3422
 7509SOL    HW233990   2.349   3.008   1.319  0.7044 -1.5201  2.2109
 7510SOL     OW33991   3.089   0.140   3.603 -0.2006 -0.4494  0.4354
 7510SOL    HW133992   3.064   0.152   3.511  2.1672  1.5003  0.0392
 7510SOL    HW233993   3.149   0.213   3.616 -1.7049  0.6847  1.0244
 7511SOL     OW33994   2.409   3.613   7.127 -0.3056  0.1025 -0.1327
 7511SOL    HW133995   2.440   3.554   7.196 -0.6490  0.7685  0.5826
 7511SOL    HW233996   2.329   3.656   7.158 -1.9298 -2.1724 -1.1786
 7512SOL     OW33997   0.690   3.762   5.056 -0.1688  0.0971  0.7215
 7512SOL    HW133998   0.614   3.733   5.006 -0.2113  2.8636 -0.7788
 7512SOL    HW233999   0.662   3.853   5.068 -0.6875  0.1308 -0.7621
 7513SOL     OW34000   3.824   4.280   8.958 -0.2046  0.0351  0.1452
 7513SOL    HW134001   3.833   4.323   8.873  0.9998 -1.2713 -0.4011
 7513SOL    HW234002   3.731   4.257   8.946 -0.5268  1.6633 -0.4672
 7514SOL     OW34003   1.416   1.555  14.638 -0.3018  0.5253  0.3700
 7514SOL    HW134004   1.474   1.608  14.693  3.0552 -0.0068 -2.6685
 7514SOL    HW234005   1.437   1.582  14.549 -0.7527 -2.8673 -0.7431
 7515SOL     OW34006   3.681   2.782   1.380  0.0621 -0.5523 -0.6036
 7515SOL    HW134007   3.614   2.716   1.399 -2.2113  0.8723 -3.7553
 7515SOL    HW234008   3.699   2.776   1.287 -2.2416 -2.6227 -0.9272
 7516SOL     OW34009   1.162   1.609  15.533 -0.4692  0.2810  0.0387
 7516SOL    HW134010   1.198   1.682  15.582 -0.3635  0.0193  0.3485
 7516SOL    HW234011   1.138   1.550  15.604  0.4261 -1.2641 -0.9134
 7517SOL     OW34012   1.661   1.203   7.541 -0.5308  0.0967 -0.2095
 7517SOL    HW134013   1.755   1.206   7.526 -0.3171 -0.6851  0.9983
 7517SOL    HW234014   1.660   1.164   7.628 -1.8888  0.5915 -0.0008
 7518SOL     OW34015   4.121   0.148   0.943  0.1800  0.0613 -0.4458
 7518SOL    HW134016   4.052   0.159   1.009  1.2488 -0.0800  0.6905
 7518SOL    HW234017   4.203   0.130   0.989 -0.7069 -0.0316  1.0700
 7519SOL     OW34018   3.620   0.740   2.426  0.0111  0.2623 -0.3804
 7519SOL    HW134019   3.677   0.663   2.432 -1.8133 -0.9884  0.8462
 7519SOL    HW234020   3.639   0.776   2.513 -0.7295 -0.1441 -0.0470
 7520SOL     OW34021   4.454   2.193   3.474  0.4425 -0.0056 -0.0047
 7520SOL    HW134022   4.506   2.233   3.405  0.8046  0.8201  0.7476
 7520SOL    HW234023   4.387   2.140   3.430  0.2303  0.7152 -0.5425
 7521SOL     OW34024   1.788   1.980  14.821  0.0219  0.0187 -0.0221
 7521SOL    HW134025   1.844   1.905  14.802 -0.2194 -0.1905  0.0874
 7521SOL    HW234026   1.810   1.991  14.914 -2.5285  0.5820  0.5194
 7522SOL     OW34027   2.703   3.877  12.711  0.1732 -0.3106  0.0002
 7522SOL    HW134028   2.614   3.851  12.687 -1.0373  2.2976  1.6862
 7522SOL    HW234029   2.751   3.822  12.649 -1.4952  0.1145 -1.6560
 7523SOL     OW34030   1.310   0.469   4.789  0.3031  0.9818  0.4140
 7523SOL    HW134031   1.318   0.544   4.730 -0.1262  2.1162  1.8165
 7523SOL    HW234032   1.395   0.463   4.832  0.5911 -2.4524 -0.6261
 7524SOL     OW34033   3.953   1.057   9.110  0.3842 -0.1322 -0.2368
 7524SOL    HW134034   3.929   1.127   9.171  1.3333 -0.6781  0.7744
 7524SOL    HW234035   4.041   1.090   9.095  0.1258  0.6721  0.0332
 7525SOL     OW34036   3.946   2.810  12.218 -0.1132 -0.3644 -0.1478
 7525SOL    HW134037   3.914   2.794  12.307  1.6036 -3.0726 -0.0178
 7525SOL    HW234038   3.928   2.726  12.175  1.5751 -0.1553 -1.2507
 7526SOL     OW34039   3.638   0.105  14.055 -0.9386  0.2717 -0.3154
 7526SOL    HW134040   3.593   0.143  14.131 -1.9695  0.5404 -1.0577
 7526SOL    HW234041   3.687   0.030  14.090 -0.4118  1.3311  1.2306
 7527SOL     OW34042   0.923   1.323  12.114 -0.2589 -0.1677  0.1488
 7527SOL    HW134043   0.831   1.304  12.130  0.4123 -3.1168  0.5168
 7527SOL    HW234044   0.965   1.258  12.171 -1.3950 -0.9226  0.1192
 7528SOL     OW34045   3.624   1.297   5.812 -0.2302  0.2414 -0.5458
 7528SOL    HW134046   3.699   1.274   5.758 -0.1055 -1.4895  0.3713
 7528SOL    HW234047   3.568   1.225   5.783  1.2691 -0.8370 -0.7581
 7529SOL     OW34048   1.532   3.722  12.472 -0.2134  0.0060 -0.4527
 7529SOL    HW134049   1.579   3.695  12.550  1.1833 -0.1799 -1.3642
 7529SOL    HW234050   1.459   3.660  12.470  0.6723 -0.9836 -2.2796
 7530SOL     OW34051   4.537   0.824   2.290  0.0432  0.0794 -0.3720
 7530SOL    HW134052   4.450   0.855   2.267 -0.2713 -0.0774  0.6370
 7530SOL    HW234053   4.537   0.741   2.244  0.6353  0.2704 -0.7256
 7531SOL     OW34054   3.008   1.479   0.767  0.8255  0.1444 -0.2905
 7531SOL    HW134055   3.046   1.410   0.713  1.3344  2.7345 -3.2637
 7531SOL    HW234056   3.052   1.556   0.729 -1.5137  2.3502  1.5026
 7532SOL     OW34057   2.938   0.159   7.882 -0.2482 -0.0717  0.2618
 7532SOL    HW134058   2.866   0.217   7.906  1.3013  1.8701  0.1658
 7532SOL    HW234059   3.008   0.220   7.858  0.5787 -1.0479  0.1631
 7533SOL     OW34060   4.503   4.425  15.764 -0.8378 -0.3583  0.1591
 7533SOL    HW134061   4.508   4.361  15.835  0.1195  0.4039  0.7959
 7533SOL    HW234062   4.418   4.465  15.783 -0.2507  0.4197  1.1672
 7534SOL     OW34063   4.093   0.853   9.936  0.0219  0.4216 -0.3752
 7534SOL    HW134064   4.162   0.793   9.910  0.0746 -0.0626  0.8828
 7534SOL    HW234065   4.103   0.929   9.878  0.3985 -0.5556 -1.5760
 7535SOL     OW34066   2.516   4.005  15.876  0.1601 -0.2242 -0.5277
 7535SOL    HW134067   2.495   4.091  15.913  0.2167 -0.4281 -0.0216
 7535SOL    HW234068   2.532   3.954  15.955  3.3572  2.9820  0.8467
 7536SOL     OW34069   1.532   1.121  16.440 -0.1811 -0.1903  0.5207
 7536SOL    HW134070   1.515   1.144  16.532  1.8067  1.2197  0.5213
 7536SOL    HW234071   1.576   1.200  16.409 -0.2147 -0.1329  0.6163
 7537SOL     OW34072   0.535   1.627  11.775 -0.5082 -0.2155 -0.1350
 7537SOL    HW134073   0.505   1.600  11.862 -0.0949  0.6819  0.2987
 7537SOL    HW234074   0.620   1.662  11.804 -0.6393  0.8238 -0.9999
 7538SOL     OW34075   3.515   0.748   7.567  0.4349  0.3297 -0.1329
 7538SOL    HW134076   3.578   0.802   7.518  1.0625 -0.9333 -0.7119
 7538SOL    HW234077   3.427   0.778   7.543  0.7339  0.5062 -1.0169
 7539SOL     OW34078   0.922   3.313  10.202 -0.2276  0.1110 -0.1634
 7539SOL    HW134079   0.988   3.256  10.240  0.7302 -0.0196 -2.0846
 7539SOL    HW234080   0.920   3.286  10.111 -2.0969  1.0069 -0.4025
 7540SOL     OW34081   4.109   3.755  10.344  0.3194  0.4827  0.6476
 7540SOL    HW134082   4.013   3.761  10.342  0.1232 -2.4911  0.7501
 7540SOL    HW234083   4.117   3.782  10.253  2.6037 -1.2628  0.3311
 7541SOL     OW34084   4.603   0.112  10.228 -0.0052 -0.4215  0.3458
 7541SOL    HW134085   4.647   0.186  10.187  0.2600 -0.4478  0.5850
 7541SOL    HW234086   4.534   0.166  10.267  0.5415 -0.2976  1.1361
 7542SOL     OW34087   1.031   3.990   9.200 -0.1197  0.1616  0.5277
 7542SOL    HW134088   1.111   3.939   9.214  0.5740 -0.1644 -4.7135
 7542SOL    HW234089   0.996   3.948   9.121  0.5510  1.3084 -0.3656
 7543SOL     OW34090   3.868   3.760  17.014 -0.1612 -0.5037  0.1901
 7543SOL    HW134091   3.899   3.709  17.088  0.7426 -0.8804 -0.4461
 7543SOL    HW234092   3.778   3.728  17.009  0.5822 -2.3560 -1.4170
 7544SOL     OW34093   1.393   2.549   4.162 -0.5605  0.4592 -0.0475
 7544SOL    HW134094   1.470   2.581   4.115 -0.0793 -0.3597  0.1782
 7544SOL    HW234095   1.406   2.599   4.242 -1.0773  0.7132 -0.1264
 7545SOL     OW34096   1.542   2.737   2.970 -0.6430  0.2230  0.6561
 7545SOL    HW134097   1.553   2.660   2.914  1.4477  1.9473 -1.3649
 7545SOL    HW234098   1.610   2.720   3.035 -0.5013 -2.8433 -0.2911
 7546SOL     OW34099   0.673   0.299  11.573 -0.2457 -0.0108 -0.2514
 7546SOL    HW134100   0.702   0.233  11.510 -0.2228 -0.3519  0.1232
 7546SOL    HW234101   0.745   0.363  11.569  0.2735 -0.5551  0.4372
 7547SOL     OW34102   2.812   3.166   6.105 -0.2285  0.2491  0.1712
 7547SOL    HW134103   2.810   3.076   6.136 -1.6605 -0.1845 -1.1863
 7547SOL    HW234104   2.869   3.163   6.028  0.0972 -0.9017  0.4679
 7548SOL     OW34105   4.679   2.366  11.134 -0.5971  0.0002 -0.1537
 7548SOL    HW134106   4.594   2.321  11.127 -1.6659  2.2745 -1.7868
 7548SOL    HW234107   4.693   2.386  11.041  0.1398 -1.4214 -0.3559
 7549SOL     OW34108   1.184   4.658  13.117  0.3545  0.2273  0.0828
 7549SOL    HW134109   1.207   4.600  13.045 -1.7303  0.2970 -0.6414
 7549SOL    HW234110   1.201   4.608  13.197  2.0135 -0.6173 -0.7910
 7550SOL     OW34111   0.142   4.466  12.147 -0.1676 -0.1441 -0.6328
 7550SOL    HW134112   0.171   4.466  12.055 -0.9192 -2.9943 -0.8783
 7550SOL    HW234113   0.096   4.549  12.150 -0.3004 -0.3323  1.8501
 7551SOL     OW34114   2.710   1.755   3.247  0.4061  0.0623 -0.4549
 7551SOL    HW134115   2.728   1.807   3.169 -1.6222 -0.1335 -1.0618
 7551SOL    HW234116   2.767   1.678   3.243  1.5935  1.0208 -1.7789
 7552SOL     OW34117   1.259   4.659   3.069  0.2799  0.5564  0.2062
 7552SOL    HW134118   1.194   4.674   3.138 -1.2150 -1.0418 -0.8419
 7552SOL    HW234119   1.269   4.564   3.075 -1.1561  0.2996 -1.3694
 7553SOL     OW34120   0.430   4.601  15.183  0.1393 -0.2906  0.1963
 7553SOL    HW134121   0.341   4.593  15.218 -0.9858  2.9104 -1.8936
 7553SOL    HW234122   0.431   4.696  15.166 -1.1809 -0.5832 -1.4707
 7554SOL     OW34123   3.685   0.434   3.519 -0.1017  0.1669  0.0087
 7554SOL    HW134124   3.768   0.439   3.566 -0.5342 -0.9326  0.9190
 7554SOL    HW234125   3.635   0.367   3.567  1.0516  0.4518  1.6024
 7555SOL     OW34126   3.340   4.162   8.118  0.5813 -0.1964 -0.4440
 7555SOL    HW134127   3.421   4.114   8.097 -0.0977 -1.1892 -0.7699
 7555SOL    HW234128   3.285   4.130   8.046 -0.9111  1.8344 -0.2000
 7556SOL     OW34129   3.823   2.666   1.152  0.4483 -0.2765 -0.0232
 7556SOL    HW134130   3.787   2.684   1.065 -1.0331  3.3306  1.3122
 7556SOL    HW234131   3.903   2.718   1.157 -0.2026  0.5691  1.7457
 7557SOL     OW34132   1.424   4.332   5.302  0.3629 -0.0386  0.0896
 7557SOL    HW134133   1.341   4.353   5.261  0.7179  0.3353 -0.4339
 7557SOL    HW234134   1.398   4.315   5.392 -0.2507  1.4373  0.1807
 7558SOL     OW34135   4.650   3.972   6.658 -0.1369 -0.2487 -0.0343
 7558SOL    HW134136   4.559   3.947   6.672 -1.2338  2.6455 -1.9634
 7558SOL    HW234137   4.688   3.929   6.734 -1.6072 -0.6121  0.4936
 7559SOL     OW34138   0.960   3.469  13.705 -0.0208 -0.1858  0.1284
 7559SOL    HW134139   0.874   3.511  13.714  0.6686  0.6280  2.9157
 7559SOL    HW234140   0.936   3.377  13.695 -0.7824  0.0154  0.0948
 7560SOL     OW34141   3.146   3.498   7.240  0.1212 -0.3092  0.3332
 7560SOL    HW134142   3.194   3.441   7.181 -1.4917 -0.7591 -0.5375
 7560SOL    HW234143   3.138   3.456   7.325 -2.3726  3.0299  1.7800
 7561SOL     OW34144   2.609   2.082   4.515  0.0424 -0.1176 -0.0615
 7561SOL    HW134145   2.669   2.026   4.565 -1.4660 -0.8045  0.9620
 7561SOL    HW234146   2.593   2.145   4.585 -1.1844 -1.0535  0.5038
 7562SOL     OW34147   2.074   2.249  14.613  0.2727  0.3400  0.1950
 7562SOL    HW134148   2.114   2.163  14.600 -1.3320 -0.2448 -0.8248
 7562SOL    HW234149   1.990   2.240  14.568  1.4643 -0.9052 -1.8102
 7563SOL     OW34150   1.647   0.451   5.830 -0.3546 -0.1061 -0.4059
 7563SOL    HW134151   1.595   0.507   5.773  0.9375  1.3670 -0.1489
 7563SOL    HW234152   1.578   0.410   5.882  0.0461 -1.3660 -0.8664
 7564SOL     OW34153   4.384   2.454   5.456 -0.4112 -0.0196  0.3216
 7564SOL    HW134154   4.402   2.392   5.526  2.1285 -0.8040 -1.0617
 7564SOL    HW234155   4.447   2.423   5.392  1.1456  1.1446  1.3001
 7565SOL     OW34156   3.045   0.605  15.196 -0.3557 -0.2395 -0.1060
 7565SOL    HW134157   3.008   0.558  15.271  0.5571 -0.1659  0.3926
 7565SOL    HW234158   2.975   0.588  15.134 -0.0020 -0.7415 -0.3631
 7566SOL     OW34159   1.982   1.297  16.364 -0.2295 -0.2863 -0.1558
 7566SOL    HW134160   1.887   1.306  16.357 -0.1861 -1.5544 -2.5612
 7566SOL    HW234161   1.996   1.391  16.361  2.8799 -0.8280 -3.4177
 7567SOL     OW34162   4.059   4.212   9.384  0.3251 -0.4838 -0.0651
 7567SOL    HW134163   4.043   4.206   9.479  2.3472 -1.5895  0.2075
 7567SOL    HW234164   4.036   4.124   9.357  0.6376 -0.4738 -0.3579
 7568SOL     OW34165   0.137   3.853   3.171 -0.4454  0.2322 -0.3581
 7568SOL    HW134166   0.142   3.767   3.128 -3.3268  0.8597 -1.9486
 7568SOL    HW234167   0.113   3.904   3.093  1.8074 -0.6360 -1.5973
 7569SOL     OW34168   1.793   3.378   7.988  0.0982  0.1768 -0.7588
 7569SOL    HW134169   1.752   3.458   7.955  2.2081  1.8497  0.7479
 7569SOL    HW234170   1.878   3.415   8.012 -0.2776  0.7844 -0.3583
 7570SOL     OW34171   2.437   2.211   4.295 -0.1695  0.4887 -0.4159
 7570SOL    HW134172   2.458   2.138   4.354 -0.5433 -0.4875 -1.4991
 7570SOL    HW234173   2.408   2.279   4.356 -1.0813  1.9812 -2.5549
 7571SOL     OW34174   2.814   3.667  14.551 -0.2021 -0.1291  0.0052
 7571SOL    HW134175   2.794   3.578  14.580  1.8487  0.0793  2.0476
 7571SOL    HW234176   2.725   3.702  14.550 -0.1220  0.1017  0.5649
 7572SOL     OW34177   0.963   1.541   4.215 -0.6830  0.3554 -0.1382
 7572SOL    HW134178   0.951   1.560   4.122 -0.4487  0.3740 -0.1645
 7572SOL    HW234179   0.943   1.447   4.215 -0.2919  0.2703 -0.3605
 7573SOL     OW34180   4.039   3.835   3.443 -0.4301 -0.2807 -0.1041
 7573SOL    HW134181   3.980   3.911   3.438  1.1760  0.9084 -0.9812
 7573SOL    HW234182   4.086   3.850   3.525 -0.0109  0.0166 -0.3966
 7574SOL     OW34183   2.160   2.706   6.813 -0.2071 -0.1853 -0.2131
 7574SOL    HW134184   2.219   2.631   6.815  0.0673  0.0507  0.6792
 7574SOL    HW234185   2.192   2.754   6.737  1.2476  0.5439  0.8552
 7575SOL     OW34186   0.029   0.477   8.493  0.0792  0.0053 -0.6374
 7575SOL    HW134187   4.715   0.564   8.480 -2.1950 -0.8924  0.0797
 7575SOL    HW234188   0.111   0.511   8.528  1.3376 -2.0476 -1.6132
 7576SOL     OW34189   3.769   2.920   4.445  0.0981  0.6585  0.2843
 7576SOL    HW134190   3.723   2.844   4.480  3.1569 -1.8031 -0.9687
 7576SOL    HW234191   3.772   2.893   4.353 -0.0227  1.0401  0.1710
 7577SOL     OW34192   2.892   0.626   5.679 -0.2457  0.3221  0.1443
 7577SOL    HW134193   2.927   0.652   5.763 -0.6001  0.0245  0.3848
 7577SOL    HW234194   2.938   0.689   5.625  0.1787  1.4594  1.8545
 7578SOL     OW34195   2.084   4.049   8.534  0.2721 -0.0828 -0.3185
 7578SOL    HW134196   1.990   4.047   8.554  0.7726  1.3570  2.1558
 7578SOL    HW234197   2.108   4.095   8.614  0.9601  1.5412 -1.4515
 7579SOL     OW34198   0.574   1.468   5.934  0.1936 -0.5335  0.8791
 7579SOL    HW134199   0.517   1.501   6.003 -0.2640  1.8783 -0.6361
 7579SOL    HW234200   0.525   1.394   5.896 -1.1115  0.3223  0.8818
 7580SOL     OW34201   3.321   0.346   4.380  0.1688 -0.4927 -0.3615
 7580SOL    HW134202   3.289   0.434   4.363 -0.5263 -1.4179 -3.8952
 7580SOL    HW234203   3.243   0.292   4.367  0.5765 -1.7768  2.4075
 7581SOL     OW34204   1.355   4.009   4.853 -0.4405  0.8412 -0.9826
 7581SOL    HW134205   1.429   3.983   4.908 -0.6980 -0.1353 -1.0982
 7581SOL    HW234206   1.273   3.995   4.900  1.7431 -0.4136  2.4252
 7582SOL     OW34207   3.289   2.119  13.448 -0.1695 -0.2200 -0.0754
 7582SOL    HW134208   3.223   2.187  13.465 -0.9393 -1.3575  1.4166
 7582SOL    HW234209   3.363   2.181  13.445  0.2226 -0.7834 -1.8530
 7583SOL     OW34210   0.870   0.536   6.046 -0.1005 -0.5429 -0.1137
 7583SOL    HW134211   0.781   0.504   6.040 -0.8189  1.3555  0.2532
 7583SOL    HW234212   0.923   0.481   5.988  0.3013 -1.1387  0.8176
 7584SOL     OW34213   0.054   0.801   8.046 -0.5680  0.3041 -0.3828
 7584SOL    HW134214   0.033   0.722   8.095 -1.6962  2.1792  2.1316
 7584SOL    HW234215   0.001   0.784   7.968 -2.3687 -1.8020  1.2951
 7585SOL     OW34216   4.670   3.231   0.104 -0.1641 -0.8560  0.1365
 7585SOL    HW134217   4.614   3.193   0.037  1.1916 -2.5847  0.0031
 7585SOL    HW234218   4.620   3.310   0.129 -0.6409 -1.3569  0.7678
 7586SOL     OW34219   3.613   1.566   2.705 -0.1425 -0.5698 -0.1814
 7586SOL    HW134220   3.633   1.625   2.633 -1.9817 -0.4601 -0.6202
 7586SOL    HW234221   3.554   1.516   2.649 -0.9573  0.8604 -0.6112
 7587SOL     OW34222   3.672   2.847  14.645  0.9024 -0.4565  0.3407
 7587SOL    HW134223   3.600   2.903  14.673 -0.0626  0.4306 -3.8708
 7587SOL    HW234224   3.697   2.911  14.578  1.2877 -0.3307  0.6074
 7588SOL     OW34225   2.828   0.105   7.522 -0.0572 -0.1426  0.2895
 7588SOL    HW134226   2.836   0.028   7.466 -2.3365  1.3429 -2.0432
 7588SOL    HW234227   2.902   0.079   7.578  1.4710  1.2159 -1.1287
 7589SOL     OW34228   1.403   3.975  13.015 -1.0179  0.2633  0.1324
 7589SOL    HW134229   1.361   4.049  12.971 -2.4372 -1.5098 -1.5023
 7589SOL    HW234230   1.495   3.995  12.999 -0.0737 -2.5861  1.9758
 7590SOL     OW34231   2.160   3.347   8.052  0.1067  0.5624  0.2352
 7590SOL    HW134232   2.102   3.423   8.044 -0.1434  0.4082  0.5958
 7590SOL    HW234233   2.190   3.335   7.961  2.1733  1.8823  0.7372
 7591SOL     OW34234   1.548   2.310   7.030 -0.0577  0.4533 -0.1622
 7591SOL    HW134235   1.501   2.390   7.054  3.5083  2.7119 -0.7483
 7591SOL    HW234236   1.620   2.352   6.982 -2.4130 -0.3861 -4.3811
 7592SOL     OW34237   4.165   1.063   9.789  0.4890 -0.6936 -0.1620
 7592SOL    HW134238   4.252   1.073   9.751  0.3657 -1.1444 -0.5572
 7592SOL    HW234239   4.121   1.126   9.733 -1.4253 -1.0708  0.9251
 7593SOL     OW34240   0.639   2.649   4.441  0.2036 -0.5240  0.3385
 7593SOL    HW134241   0.569   2.714   4.437  0.1555 -0.5063  1.7119
 7593SOL    HW234242   0.710   2.703   4.475  0.8161 -0.3590 -1.1645
 7594SOL     OW34243   3.679   1.691   7.008  0.2564  0.3310  0.6190
 7594SOL    HW134244   3.657   1.733   6.924 -1.4828  1.3919  1.6024
 7594SOL    HW234245   3.761   1.737   7.024  0.6804  0.2891 -1.4195
 7595SOL     OW34246   1.901   3.983  12.819 -0.0089  0.3356  0.1733
 7595SOL    HW134247   1.983   3.978  12.868  0.5879  1.7739 -0.6988
 7595SOL    HW234248   1.921   3.928  12.744 -0.3795  1.4298 -0.7308
 7596SOL     OW34249   0.196   1.551   5.789 -0.2804 -0.4518 -0.0072
 7596SOL    HW134250   0.199   1.546   5.693 -1.5911 -0.6161 -0.0369
 7596SOL    HW234251   0.155   1.467   5.809 -2.3834  0.4477 -0.5328
 7597SOL     OW34252   3.861   3.195  10.193  0.3249  0.6248  0.0132
 7597SOL    HW134253   3.767   3.210  10.193  0.0018 -1.3784  0.7888
 7597SOL    HW234254   3.893   3.279  10.160 -0.5970  0.9136 -0.1332
 7598SOL     OW34255   3.245   1.864  10.435  0.0619  0.2962  0.5765
 7598SOL    HW134256   3.294   1.906  10.365  0.9007 -1.1982  0.2632
 7598SOL    HW234257   3.172   1.815  10.397 -0.4339  0.8449  0.8073
 7599SOL     OW34258   4.678   0.186   8.734  0.0086 -0.2379 -0.6930
 7599SOL    HW134259   0.003   0.179   8.815 -2.1837 -0.8781  0.5938
 7599SOL    HW234260   4.705   0.106   8.689  2.1243 -0.2568  0.6277
 7600SOL     OW34261   4.194   0.271   6.081  0.2930  0.3811 -0.2738
 7600SOL    HW134262   4.243   0.264   6.163  1.7452 -2.8827 -1.4065
 7600SOL    HW234263   4.153   0.357   6.079  3.0082  1.6994 -0.5230
 7601SOL     OW34264   0.784   3.281   9.676  0.4243 -0.7113  0.3710
 7601SOL    HW134265   0.775   3.188   9.659  0.8523 -0.5367 -0.7971
 7601SOL    HW234266   0.765   3.318   9.590  1.4610 -0.5038  0.2208
 7602SOL     OW34267   1.287   3.197   4.324  0.1042 -0.0788 -0.0798
 7602SOL    HW134268   1.263   3.133   4.257  2.5733  0.6836 -1.6870
 7602SOL    HW234269   1.361   3.243   4.285  0.5189  1.4760  2.5234
 7603SOL     OW34270   2.503   3.446   5.917 -0.1518  0.2847 -0.0271
 7603SOL    HW134271   2.530   3.388   5.989 -0.1922 -0.5360 -0.6839
 7603SOL    HW234272   2.551   3.527   5.936 -1.5692  1.1340 -0.0773
 7604SOL     OW34273   0.631   2.349  15.584  0.7725 -0.4193  0.0402
 7604SOL    HW134274   0.717   2.383  15.559  1.1254 -1.8488 -0.6873
 7604SOL    HW234275   0.638   2.359  15.679 -0.6863 -0.5322  0.1558
 7605SOL     OW34276   1.351   3.503  10.771  0.2649 -0.1367  0.7512
 7605SOL    HW134277   1.388   3.521  10.685 -1.2245 -0.6244  0.0046
 7605SOL    HW234278   1.406   3.433  10.806  1.6694  1.2305  1.3011
 7606SOL     OW34279   0.018   2.181   7.316 -0.6828  0.3615 -0.2100
 7606SOL    HW134280   0.037   2.102   7.266 -1.9896 -0.8250  1.1432
 7606SOL    HW234281   0.081   2.176   7.388 -1.7048  0.7865  0.7220
 7607SOL     OW34282   0.274   3.577  12.892  0.2505 -0.3425 -0.1375
 7607SOL    HW134283   0.344   3.641  12.877  0.9835 -0.7697  1.4986
 7607SOL    HW234284   0.313   3.537  12.969  1.4099 -0.3733 -0.7442
 7608SOL     OW34285   2.781   2.638   6.287  0.4474  0.3857  0.0016
 7608SOL    HW134286   2.754   2.686   6.365 -1.0046 -0.7512  0.1861
 7608SOL    HW234287   2.854   2.590   6.327  1.9472  3.4283  0.9277
 7609SOL     OW34288   1.908   3.979  14.439 -0.3416 -0.1588  0.1295
 7609SOL    HW134289   1.827   3.970  14.490 -0.7066  0.1343 -0.4019
 7609SOL    HW234290   1.891   3.920  14.366  0.0231 -0.4052  0.2444
 7610SOL     OW34291   3.393   2.956  13.494 -0.2213 -0.3478 -0.2785
 7610SOL    HW134292   3.435   2.932  13.412 -1.9789 -2.5366 -0.5418
 7610SOL    HW234293   3.306   2.920  13.479 -0.3916  0.9303 -2.3288
 7611SOL     OW34294   1.327   1.863   6.520  0.0358 -0.1598 -0.5742
 7611SOL    HW134295   1.276   1.793   6.479 -0.1957  0.6888 -1.7391
 7611SOL    HW234296   1.250   1.901   6.562  1.2117 -1.6690  2.9239
 7612SOL     OW34297   3.297   1.872   8.974  0.7915  0.6898 -0.0948
 7612SOL    HW134298   3.239   1.839   9.042  0.5304 -2.3627 -1.7626
 7612SOL    HW234299   3.380   1.859   9.021  1.9078 -0.3886 -2.3300
 7613SOL     OW34300   4.086   0.826   5.487  0.4331 -0.3053  0.4102
 7613SOL    HW134301   4.038   0.759   5.537  2.4761 -0.4395  2.1732
 7613SOL    HW234302   4.129   0.863   5.564  0.3331 -1.7112  1.1419
 7614SOL     OW34303   3.544   2.909   6.032  0.4973  0.2545 -0.1623
 7614SOL    HW134304   3.485   2.834   6.030  1.5288 -0.6068  1.4182
 7614SOL    HW234305   3.524   2.940   6.120  0.3088  1.1287 -0.5144
 7615SOL     OW34306   3.171   3.514   5.119  0.0446  0.0917  0.1651
 7615SOL    HW134307   3.103   3.582   5.118  0.4484  0.4786 -0.8308
 7615SOL    HW234308   3.251   3.562   5.099  1.0613 -1.6231  0.1402
 7616SOL     OW34309   1.730   3.268   0.718  0.1380 -0.0987  0.3476
 7616SOL    HW134310   1.748   3.357   0.688  0.5325 -0.6837 -1.1632
 7616SOL    HW234311   1.660   3.249   0.656  0.9622 -1.1623 -0.2619
 7617SOL     OW34312   3.960   3.925   7.420  0.1603  0.5460  0.3775
 7617SOL    HW134313   3.949   3.831   7.436 -0.2953  0.5427  0.0335
 7617SOL    HW234314   3.906   3.962   7.491  1.1081  0.8320  0.9423
 7618SOL     OW34315   2.065   3.927   0.216  0.3093 -0.0282 -0.4466
 7618SOL    HW134316   2.044   3.892   0.302 -0.7082  1.8240  0.0509
 7618SOL    HW234317   2.160   3.940   0.226  0.1525  0.7811 -0.0216
 7619SOL     OW34318   0.262   4.624   6.917  0.3907  0.2065  0.1676
 7619SOL    HW134319   0.218   4.607   7.000 -0.2744  0.5491 -0.1166
 7619SOL    HW234320   0.189   4.658   6.866 -1.8494 -0.9432  2.6099
 7620SOL     OW34321   4.450   1.366   0.168 -0.1293  0.1121  0.6827
 7620SOL    HW134322   4.489   1.360   0.255 -0.9116 -2.1629  0.8636
 7620SOL    HW234323   4.377   1.427   0.181 -0.0914 -0.6920  4.5098
 7621SOL     OW34324   1.570   2.234  14.493  0.0599 -0.7144 -0.1832
 7621SOL    HW134325   1.622   2.284  14.556 -0.1157  0.1053 -0.6917
 7621SOL    HW234326   1.523   2.307  14.453  0.2936 -0.4899 -0.0488
 7622SOL     OW34327   4.411   1.465  17.208  0.2557 -0.0258 -0.0732
 7622SOL    HW134328   4.473   1.512  17.264  0.1677  1.5021 -1.2684
 7622SOL    HW234329   4.386   1.385  17.254 -0.2423  0.5388  0.6306
 7623SOL     OW34330   2.806   2.558  11.850  0.1037  0.0835  0.3112
 7623SOL    HW134331   2.846   2.520  11.772 -1.7120  0.9641 -1.0614
 7623SOL    HW234332   2.841   2.646  11.837  2.4421 -0.9426 -0.2476
 7624SOL     OW34333   3.397   4.118   5.793  0.2596 -0.4354  0.6167
 7624SOL    HW134334   3.485   4.149   5.816  0.9372  0.6730 -3.5523
 7624SOL    HW234335   3.377   4.151   5.706  1.5147  0.9948  0.8703
 7625SOL     OW34336   1.967   4.114   7.026 -0.3466 -0.0718 -0.2556
 7625SOL    HW134337   1.925   4.137   6.944  0.5993  0.4123 -0.5936
 7625SOL    HW234338   2.022   4.037   7.010  0.4625 -0.1483  2.7741
 7626SOL     OW34339   3.216   1.583   9.173  0.4154  0.1823  0.4675
 7626SOL    HW134340   3.176   1.530   9.242  0.0578 -1.2445 -0.8509
 7626SOL    HW234341   3.209   1.671   9.212  0.8131 -0.0452  1.0606
 7627SOL     OW34342   2.672   0.626   5.187  0.7289 -0.7365 -0.2706
 7627SOL    HW134343   2.599   0.565   5.191  1.2056 -1.3090 -0.3745
 7627SOL    HW234344   2.624   0.703   5.218  2.1739  0.9964 -2.3138
 7628SOL     OW34345   3.058   2.873  12.728 -0.3359 -0.0293  0.3827
 7628SOL    HW134346   2.998   2.908  12.794 -1.5137  4.0341 -2.8454
 7628SOL    HW234347   3.001   2.803  12.695 -1.6576  1.9945 -1.6253
 7629SOL     OW34348   3.183   3.094   7.520  0.0923  0.1366  0.2911
 7629SOL    HW134349   3.183   3.036   7.595  1.3351  0.0611  0.2317
 7629SOL    HW234350   3.275   3.080   7.496 -0.3421 -2.7293  0.3590
 7630SOL     OW34351   2.066   4.592   6.080 -0.0917 -0.0700 -0.2248
 7630SOL    HW134352   2.015   4.540   6.142 -1.5234  1.8645  0.2125
 7630SOL    HW234353   2.038   4.679   6.107 -1.2509 -1.2991  2.5207
 7631SOL     OW34354   4.314   0.845  10.199  0.2197  0.8496  0.0585
 7631SOL    HW134355   4.326   0.903  10.124  0.0213 -1.1447 -1.5282
 7631SOL    HW234356   4.388   0.876  10.251  0.2394  0.0543  0.5135
 7632SOL     OW34357   1.285   1.469   4.065 -0.0492 -0.0255  0.6065
 7632SOL    HW134358   1.221   1.447   3.998  0.1564  1.4733 -0.0927
 7632SOL    HW234359   1.374   1.453   4.033  0.1915  1.4681  0.5318
 7633SOL     OW34360   4.427   4.357   5.190  0.0299 -0.1762 -1.0350
 7633SOL    HW134361   4.350   4.413   5.200  0.2927  0.1693 -0.9395
 7633SOL    HW234362   4.395   4.273   5.221 -1.0395  0.0465 -1.5351
 7634SOL     OW34363   2.527   1.659   5.519  0.6254 -0.2468 -0.4653
 7634SOL    HW134364   2.503   1.675   5.427  0.9894 -0.5959 -0.6194
 7634SOL    HW234365   2.534   1.564   5.519  0.4591 -0.2598 -0.5573
 7635SOL     OW34366   0.923   1.556   5.185  0.4445 -0.1308  0.1809
 7635SOL    HW134367   0.989   1.620   5.212 -0.7428  1.9630 -1.8915
 7635SOL    HW234368   0.974   1.476   5.171  1.3247  0.6343 -1.0288
 7636SOL     OW34369   3.384   0.881   4.512 -0.8914 -0.0288  0.1008
 7636SOL    HW134370   3.430   0.868   4.429  0.9313  0.4171  1.0327
 7636SOL    HW234371   3.349   0.966   4.485 -1.5358 -0.2990  0.0847
 7637SOL     OW34372   0.876   1.200   2.899  0.2436 -0.0661 -0.0709
 7637SOL    HW134373   0.810   1.164   2.958  0.5293  1.3482  1.0949
 7637SOL    HW234374   0.938   1.127   2.897  0.2953 -0.0163 -0.2698
 7638SOL     OW34375   0.772   1.811   1.137 -0.5272 -0.1862  0.2203
 7638SOL    HW134376   0.836   1.821   1.068 -0.6344 -2.9227 -0.2934
 7638SOL    HW234377   0.831   1.817   1.213 -0.2188  1.4675 -0.1685
 7639SOL     OW34378   2.105   2.201   8.700 -0.7552 -0.1916 -0.3591
 7639SOL    HW134379   2.190   2.244   8.704  0.5473 -2.9597  1.3729
 7639SOL    HW234380   2.082   2.190   8.792 -0.6918  1.8451 -0.0955
 7640SOL     OW34381   2.733   2.809   9.025  0.1704  0.4145  0.4923
 7640SOL    HW134382   2.789   2.884   9.007  0.4244 -0.0498 -0.6903
 7640SOL    HW234383   2.730   2.793   9.119 -3.2222  0.7786  0.4711
 7641SOL     OW34384   2.188   1.947  16.853 -0.3855 -0.4540  0.6037
 7641SOL    HW134385   2.271   1.992  16.867  0.1972 -2.1883  2.7492
 7641SOL    HW234386   2.128   1.995  16.796  0.1201  0.3499  0.7480
 7642SOL     OW34387   2.155   2.713   3.877  0.1472 -0.9443  0.3375
 7642SOL    HW134388   2.248   2.712   3.855  0.1375  0.1588  0.2469
 7642SOL    HW234389   2.161   2.771   3.953  3.4140  1.7464 -1.9529
 7643SOL     OW34390   3.910   2.692   3.073 -0.0524  0.2988 -0.0281
 7643SOL    HW134391   3.938   2.611   3.030  1.3753 -0.1153  1.6522
 7643SOL    HW234392   3.994   2.738   3.082  0.1189 -0.4395  2.1837
 7644SOL     OW34393   3.764   1.828  11.313  0.6130  0.3176 -0.1015
 7644SOL    HW134394   3.789   1.737  11.332  1.8342  0.1608 -2.4248
 7644SOL    HW234395   3.840   1.842  11.257  1.8458  0.3381  1.5987
 7645SOL     OW34396   2.125   4.337   5.289 -0.2350  0.6983 -0.1017
 7645SOL    HW134397   2.044   4.381   5.317  0.4346  1.1123  1.1346
 7645SOL    HW234398   2.100   4.253   5.326 -0.3560 -0.6838 -3.2766
 7646SOL     OW34399   3.999   0.348  13.695 -0.0974 -0.0774 -0.2021
 7646SOL    HW134400   4.059   0.404  13.744 -2.4292  3.2107 -1.1274
 7646SOL    HW234401   3.953   0.295  13.761 -1.7213 -1.4766 -2.4421
 7647SOL     OW34402   4.078   3.999   2.243 -0.2889 -0.3419  0.3143
 7647SOL    HW134403   4.164   3.985   2.283 -0.4540  0.3759  0.9355
 7647SOL    HW234404   4.014   3.968   2.308 -0.0224  1.9621  1.7011
 7648SOL     OW34405   2.475   4.104   3.034  0.6264  0.3096  0.4964
 7648SOL    HW134406   2.517   4.075   3.115  1.9982  0.7221 -0.0723
 7648SOL    HW234407   2.526   4.061   2.966 -1.6395  1.4604 -1.9400
 7649SOL     OW34408   2.192   1.735   4.749  0.4213  0.0275  0.0057
 7649SOL    HW134409   2.183   1.650   4.705 -1.8698  0.3655 -0.2060
 7649SOL    HW234410   2.108   1.776   4.728 -0.1794 -1.1451  0.0642
 7650SOL     OW34411   0.779   0.594   7.131  0.7575  0.0011  0.1611
 7650SOL    HW134412   0.775   0.505   7.166  0.4983  0.1281  0.4534
 7650SOL    HW234413   0.778   0.637   7.216 -0.7248 -0.8463  0.5703
 7651SOL     OW34414   3.468   1.502  17.652  0.1218 -0.0942  0.3072
 7651SOL    HW134415   3.553   1.535  17.682 -0.0247  0.1551  0.4458
 7651SOL    HW234416   3.470   1.412  17.682 -2.1762  0.3090  1.6520
 7652SOL     OW34417   2.373   4.241   9.030  0.2040  0.9255  0.5481
 7652SOL    HW134418   2.334   4.224   8.944  0.8286  0.1493  0.4149
 7652SOL    HW234419   2.463   4.259   9.001  0.6293 -1.9181  0.0190
 7653SOL     OW34420   0.854   2.264   5.627 -0.1323  0.0792  0.5029
 7653SOL    HW134421   0.941   2.224   5.620 -0.6405 -0.9166  0.0135
 7653SOL    HW234422   0.814   2.185   5.662  0.3064 -1.2796 -2.1027
 7654SOL     OW34423   0.038   3.999   4.788 -0.2866  0.1302  0.0962
 7654SOL    HW134424   4.712   3.927   4.825 -0.2410  1.2332  2.2914
 7654SOL    HW234425   0.060   4.055   4.862  2.0370  1.5084 -1.6357
 7655SOL     OW34426   2.073   2.152   6.587 -0.6573 -0.3818  0.0595
 7655SOL    HW134427   2.096   2.201   6.665  0.1459 -0.2249 -0.2823
 7655SOL    HW234428   2.072   2.059   6.610  0.1440 -0.3732  0.1083
 7656SOL     OW34429   0.951   1.895   9.703  0.0606  0.6141  0.2048
 7656SOL    HW134430   1.009   1.821   9.684 -0.6577 -0.2904  1.4990
 7656SOL    HW234431   0.876   1.895   9.642 -0.8557  0.6532  1.3270
 7657SOL     OW34432   0.205   2.215  13.971 -0.1718 -0.2546  0.2747
 7657SOL    HW134433   0.110   2.214  13.976 -0.3247  2.3018 -2.4793
 7657SOL    HW234434   0.234   2.126  13.950  0.7380  0.2067 -0.4369
 7658SOL     OW34435   2.580   0.722   0.096  0.4660  0.9348 -0.0123
 7658SOL    HW134436   2.646   0.673   0.145 -0.3437  0.3873  0.5223
 7658SOL    HW234437   2.550   0.770   0.172  0.2121 -0.2454  0.6293
 7659SOL     OW34438   1.157   2.877  10.128  0.3032 -0.3978  0.4671
 7659SOL    HW134439   1.240   2.831  10.140  0.3634 -0.4135 -0.0163
 7659SOL    HW234440   1.164   2.900  10.036  2.2852  1.3905  1.0600
 7660SOL     OW34441   4.620   1.259   8.627  0.3024  0.0386  0.1658
 7660SOL    HW134442   4.620   1.286   8.718 -0.6003  0.4522  0.0413
 7660SOL    HW234443   4.673   1.179   8.635  1.1946  0.5824 -0.2471
 7661SOL     OW34444   2.494   3.832  17.246  0.6471 -0.4126 -0.1900
 7661SOL    HW134445   2.571   3.777  17.232  0.0643 -1.1309 -0.5314
 7661SOL    HW234446   2.495   3.885  17.166  0.0033 -1.1103 -0.6546
 7662SOL     OW34447   3.258   2.700   8.444 -0.5710 -0.9198 -0.0065
 7662SOL    HW134448   3.330   2.654   8.400  1.1886  2.3965 -0.6411
 7662SOL    HW234449   3.197   2.635   8.480  0.3504 -1.6489  0.2576
 7663SOL     OW34450   1.530   2.332   3.214  0.1926  0.2281 -0.0756
 7663SOL    HW134451   1.593   2.261   3.200  0.3750 -0.3884  3.8876
 7663SOL    HW234452   1.581   2.401   3.172 -0.9264  1.3288  0.3809
 7664SOL     OW34453   2.117   2.063  11.026 -0.3991  0.8615  0.3751
 7664SOL    HW134454   2.044   2.044  10.967  0.4391  1.6904 -0.9305
 7664SOL    HW234455   2.180   1.994  11.004 -2.4419 -1.5364  2.0167
 7665SOL     OW34456   3.218   3.849   3.387  0.4994  0.7966 -0.2924
 7665SOL    HW134457   3.299   3.810   3.354 -0.3947 -0.3591 -1.1144
 7665SOL    HW234458   3.230   3.831   3.480  0.2088  0.6318 -0.2857
 7666SOL     OW34459   2.720   3.600   9.220  0.2614 -0.2032  0.4065
 7666SOL    HW134460   2.671   3.519   9.232  0.3448 -0.2909  0.1539
 7666SOL    HW234461   2.660   3.674   9.208  0.5300  0.0116  0.3678
 7667SOL     OW34462   2.091   3.091  13.034 -0.0419 -0.4232  0.3044
 7667SOL    HW134463   2.125   3.005  13.060 -1.1630 -0.3695  1.9257
 7667SOL    HW234464   2.159   3.148  13.070  0.2853  1.1045 -2.6993
 7668SOL     OW34465   1.517   3.534  15.409  0.0326  0.0832 -0.4577
 7668SOL    HW134466   1.579   3.591  15.362  1.6842 -0.3206  1.2298
 7668SOL    HW234467   1.577   3.513  15.480 -0.3471 -1.2593 -0.5454
 7669SOL     OW34468   0.553   0.041   8.711 -0.0224  0.3078  0.6207
 7669SOL    HW134469   0.608   0.119   8.719  1.6150 -0.9409  1.6834
 7669SOL    HW234470   0.608   4.707   8.764 -1.2152 -1.2344  0.1748
 7670SOL     OW34471   4.027   1.292   5.147 -0.4745  0.0078 -0.3453
 7670SOL    HW134472   4.080   1.265   5.223 -0.0220  0.6134 -0.4506
 7670SOL    HW234473   3.943   1.246   5.156 -0.0669 -0.7214 -0.2567
 7671SOL     OW34474   0.733   1.744   8.467 -0.5683 -0.0709  0.1577
 7671SOL    HW134475   0.758   1.767   8.378  0.2633 -2.7333 -0.3039
 7671SOL    HW234476   0.641   1.771   8.465  0.1146  2.2533 -0.0396
 7672SOL     OW34477   1.659   2.623   3.818  0.4212 -0.0326  0.0494
 7672SOL    HW134478   1.753   2.607   3.828  0.2326 -1.4194 -0.3676
 7672SOL    HW234479   1.634   2.561   3.749 -0.5054  0.4540 -0.0548
 7673SOL     OW34480   2.585   2.516   6.483 -0.4372  0.2815  0.0897
 7673SOL    HW134481   2.521   2.558   6.426  0.4729  2.0085  0.3448
 7673SOL    HW234482   2.631   2.593   6.517 -0.1174  0.0146  0.2609
 7674SOL     OW34483   3.675   1.548   5.912  0.6039  0.1685  0.0282
 7674SOL    HW134484   3.599   1.580   5.960  1.4423 -2.1242  2.8721
 7674SOL    HW234485   3.639   1.476   5.860  2.1448 -3.1706  3.6253
 7675SOL     OW34486   2.010   2.258  15.179 -0.2498  0.3585  0.2129
 7675SOL    HW134487   1.971   2.238  15.093  0.7496 -1.2806  0.1253
 7675SOL    HW234488   1.934   2.304  15.215  0.0932  0.5384  0.6947
 7676SOL     OW34489   2.590   1.541   6.825 -0.0118  0.5933  0.0079
 7676SOL    HW134490   2.576   1.633   6.848 -2.8631  0.2598 -0.4655
 7676SOL    HW234491   2.677   1.515   6.855 -0.7351 -1.5311  0.2579
 7677SOL     OW34492   1.004   4.198   5.333 -0.2141 -0.3198  0.0113
 7677SOL    HW134493   1.044   4.150   5.406 -1.8824  0.5228  1.4778
 7677SOL    HW234494   0.977   4.121   5.283 -1.3278  0.0084  0.1048
 7678SOL     OW34495   3.648   0.042  13.781 -0.1234  0.0523  0.3189
 7678SOL    HW134496   3.610   0.074  13.862 -0.3413  0.6293 -0.0092
 7678SOL    HW234497   3.741   0.033  13.804 -0.5739 -1.1502  1.6689
 7679SOL     OW34498   2.125   0.289   1.641  0.1067  0.1521  0.3595
 7679SOL    HW134499   2.214   0.256   1.630  0.4245  0.7915  1.0404
 7679SOL    HW234500   2.100   0.247   1.723  2.2120 -1.7851 -0.0011
 7680SOL     OW34501   1.032   1.119   6.168 -0.8898  0.2709  0.2910
 7680SOL    HW134502   1.011   1.136   6.077 -1.4268  0.2160  0.4067
 7680SOL    HW234503   1.094   1.047   6.159  1.3517  2.3454 -1.0143
 7681SOL     OW34504   0.060   0.045   0.927  0.7513  0.2838  0.2087
 7681SOL    HW134505   0.130   0.076   0.984  1.4436 -0.5449 -0.1820
 7681SOL    HW234506   0.045   0.119   0.869  0.6565  1.5270  1.8120
 7682SOL     OW34507   2.717   3.832   3.692  0.6380 -0.6113  0.2967
 7682SOL    HW134508   2.784   3.896   3.719  0.7962 -0.3175 -0.8051
 7682SOL    HW234509   2.646   3.873   3.742  0.1236  0.7880 -1.5863
 7683SOL     OW34510   1.881   3.689  12.038  0.8233  0.2580 -0.5365
 7683SOL    HW134511   1.878   3.601  11.999  0.6460 -0.6660  1.5593
 7683SOL    HW234512   1.975   3.705  12.031  0.9923  0.1158  1.4752
 7684SOL     OW34513   2.671   2.793   3.428  0.6105 -0.0201 -0.5213
 7684SOL    HW134514   2.599   2.810   3.367 -0.3964  1.2272  1.0087
 7684SOL    HW234515   2.701   2.707   3.398  0.8376  0.5942 -2.0455
 7685SOL     OW34516   0.631   2.036   0.058 -0.1445 -0.4954  0.0127
 7685SOL    HW134517   0.605   2.085   0.136 -0.2828 -1.1450  0.3809
 7685SOL    HW234518   0.710   1.991   0.090 -2.2183 -2.8816  1.7290
 7686SOL     OW34519   0.162   2.595   0.167 -0.0454  0.6995 -0.0803
 7686SOL    HW134520   0.220   2.529   0.129  1.5567  1.9569  0.2014
 7686SOL    HW234521   0.150   2.666   0.104  0.4350  1.1278  0.3136
 7687SOL     OW34522   0.457   3.253   7.799  0.2499  0.0109 -0.2872
 7687SOL    HW134523   0.399   3.223   7.729  0.2740 -0.9437  0.1050
 7687SOL    HW234524   0.481   3.336   7.758  0.1074 -0.3416 -1.0879
 7688SOL     OW34525   3.230   0.987   9.518 -0.5487 -0.1212 -0.0735
 7688SOL    HW134526   3.284   0.966   9.595  0.7659  1.9161 -0.4436
 7688SOL    HW234527   3.297   1.035   9.470  2.2573 -2.7899  1.1160
 7689SOL     OW34528   0.908   3.211  13.713  0.2478  0.1165  0.6998
 7689SOL    HW134529   0.827   3.167  13.738  0.3618  0.1361  1.1121
 7689SOL    HW234530   0.985   3.154  13.716  0.5411  0.5091  0.6025
 7690SOL     OW34531   0.846   2.764   4.049 -0.1915  0.3538 -0.2625
 7690SOL    HW134532   0.796   2.716   4.114  0.0273  0.9276  0.3266
 7690SOL    HW234533   0.788   2.761   3.973 -0.7363 -2.4293  0.2574
 7691SOL     OW34534   2.831   3.817  17.318  0.1385 -0.0481 -0.3129
 7691SOL    HW134535   2.888   3.818  17.396  0.5165 -0.9194 -0.5748
 7691SOL    HW234536   2.785   3.898  17.336  0.1948 -0.1287  0.1937
 7692SOL     OW34537   2.044   4.045   6.192  0.3997  0.1995  0.0333
 7692SOL    HW134538   2.024   4.038   6.099  0.6920 -1.2926  0.0723
 7692SOL    HW234539   2.111   4.113   6.188  1.5580 -0.9232  0.5087
 7693SOL     OW34540   0.866   2.406   3.050  0.3781 -0.0414  0.1619
 7693SOL    HW134541   0.939   2.351   3.078 -0.1167 -0.3150  0.8984
 7693SOL    HW234542   0.848   2.361   2.967 -1.1330  0.0338  0.4502
 7694SOL     OW34543   0.316   3.393   3.680  0.2700 -0.1261  0.2991
 7694SOL    HW134544   0.348   3.452   3.611  1.2835 -1.7940 -0.6792
 7694SOL    HW234545   0.224   3.420   3.677  0.1503 -0.5536  0.0168
 7695SOL     OW34546   0.222   1.597   8.866 -0.3185  0.3459 -0.2503
 7695SOL    HW134547   0.308   1.556   8.868 -0.1367  0.6888 -0.9429
 7695SOL    HW234548   0.200   1.577   8.957  2.2509 -0.4115  0.1932
 7696SOL     OW34549   2.356   0.463  14.906  0.2057 -0.2470 -0.5850
 7696SOL    HW134550   2.355   0.447  15.000  2.1851 -1.3526 -0.7407
 7696SOL    HW234551   2.272   0.424  14.881 -0.2016  1.1760 -1.4459
 7697SOL     OW34552   0.695   0.588   5.475 -0.5711 -0.3815 -0.0134
 7697SOL    HW134553   0.613   0.634   5.490 -0.5791 -0.2874 -0.3374
 7697SOL    HW234554   0.692   0.598   5.380 -1.9809 -0.0661  0.0735
 7698SOL     OW34555   1.285   4.394   7.320  0.3514  0.0024 -0.3091
 7698SOL    HW134556   1.330   4.315   7.292  1.2517  0.4593 -0.1325
 7698SOL    HW234557   1.329   4.415   7.402  1.1368  0.0444 -0.7438
 7699SOL     OW34558   1.648   3.435   9.079  0.0013 -0.1054 -0.2959
 7699SOL    HW134559   1.687   3.387   9.006  0.3912 -0.7629  0.3471
 7699SOL    HW234560   1.583   3.489   9.033 -0.4237 -0.4727 -0.1136
 7700SOL     OW34561   2.707   1.145   0.281 -0.0864 -0.2523  0.2487
 7700SOL    HW134562   2.685   1.203   0.208 -1.7978 -2.3830 -0.9333
 7700SOL    HW234563   2.660   1.189   0.352 -1.3963 -1.9829  0.4679
 7701SOL     OW34564   3.222   2.495   7.883  0.3494 -0.1374  0.4197
 7701SOL    HW134565   3.128   2.498   7.904 -0.1158  0.1183 -1.7489
 7701SOL    HW234566   3.248   2.583   7.909 -3.9088  0.6395  2.0905
 7702SOL     OW34567   1.883   0.320   8.098  0.0440  0.4662 -0.2402
 7702SOL    HW134568   1.829   0.277   8.032  0.0509  0.9939 -0.5832
 7702SOL    HW234569   1.913   0.248   8.155  0.3155  0.7400 -0.0405
 7703SOL     OW34570   3.456   3.737   8.915  0.2300 -0.4815  0.1486
 7703SOL    HW134571   3.495   3.749   9.002 -0.3775 -0.2193  0.3823
 7703SOL    HW234572   3.412   3.821   8.903 -3.4785 -2.1826  2.0134
 7704SOL     OW34573   0.846   3.704  16.010  0.2839  0.7993  0.6166
 7704SOL    HW134574   0.882   3.632  16.062  2.6648  1.8648  0.4603
 7704SOL    HW234575   0.761   3.712  16.052  1.9452  0.0947  4.2051
 7705SOL     OW34576   1.042   0.620   2.638  0.1385  0.7391 -0.2180
 7705SOL    HW134577   1.023   0.593   2.728 -3.0729 -0.6638 -1.3236
 7705SOL    HW234578   0.953   0.633   2.604  0.9817  1.7318 -2.0040
 7706SOL     OW34579   2.158   2.620   3.598  0.1631  0.4492 -0.0500
 7706SOL    HW134580   2.131   2.653   3.683 -1.1516  0.4886 -0.4851
 7706SOL    HW234581   2.186   2.528   3.599 -3.7098 -0.7118 -1.2956
 7707SOL     OW34582   0.889   0.472  11.593 -0.7025  0.2346  0.1332
 7707SOL    HW134583   0.938   0.460  11.511 -2.4252  2.4878 -1.2353
 7707SOL    HW234584   0.905   0.564  11.613  1.8148  0.0628 -1.1895
 7708SOL     OW34585   4.590   1.097   4.610 -0.3299  0.2561 -0.5442
 7708SOL    HW134586   4.507   1.051   4.622 -0.5237  0.1533 -2.2622
 7708SOL    HW234587   4.595   1.139   4.696  3.2511  2.3564 -1.7846
 7709SOL     OW34588   4.524   2.342  12.477 -0.3898 -0.1940 -0.1736
 7709SOL    HW134589   4.450   2.323  12.535 -0.7464  1.4769 -0.0968
 7709SOL    HW234590   4.590   2.338  12.547  1.4050  1.7301 -1.7715
 7710SOL     OW34591   3.136   0.234   8.651  0.0019 -0.0694 -0.3600
 7710SOL    HW134592   3.166   0.240   8.560  0.4588  0.3403 -0.1813
 7710SOL    HW234593   3.117   0.141   8.657  3.4094 -0.7687 -0.4374
 7711SOL     OW34594   2.646   3.628  10.319  0.1579  0.2143  0.0368
 7711SOL    HW134595   2.742   3.629  10.326  0.1544 -0.5078  0.2242
 7711SOL    HW234596   2.645   3.676  10.402 -1.2723  1.0356 -0.4706
 7712SOL     OW34597   1.085   0.287   8.352 -0.3197 -0.0372  0.5731
 7712SOL    HW134598   1.081   0.380   8.372  0.7234  0.1830 -0.2378
 7712SOL    HW234599   1.150   0.251   8.412 -0.0467  1.4373  1.1643
 7713SOL     OW34600   4.445   0.845  12.418  0.2661  0.2230 -0.2717
 7713SOL    HW134601   4.462   0.804  12.333 -2.6325 -1.2108 -0.1575
 7713SOL    HW234602   4.534   0.853  12.452  0.7590 -1.5089 -1.1462
 7714SOL     OW34603   2.911   4.075  15.974  0.4351  0.1820 -0.1165
 7714SOL    HW134604   2.845   4.142  15.994  0.6661  0.6568 -0.9591
 7714SOL    HW234605   2.927   4.078  15.880  3.3498  0.9287  0.3818
 7715SOL     OW34606   2.583   0.376   6.703  0.3054 -0.6267 -0.2469
 7715SOL    HW134607   2.532   0.451   6.735 -0.2188 -1.0926  0.0011
 7715SOL    HW234608   2.625   0.357   6.786  1.0391  1.0487 -0.2258
 7716SOL     OW34609   3.635   3.998  11.916 -0.2208  0.1264 -0.2474
 7716SOL    HW134610   3.710   3.951  11.879 -0.0966 -0.1407  0.3470
 7716SOL    HW234611   3.600   4.047  11.841  0.9870 -0.8425 -1.4538
 7717SOL     OW34612   3.302   0.523  17.293  0.3608 -0.3546 -0.8193
 7717SOL    HW134613   3.384   0.533  17.341 -0.1716  0.8094 -0.1485
 7717SOL    HW234614   3.258   0.607  17.306  1.5728  0.0157  0.8906
 7718SOL     OW34615   3.411   1.242   4.902  0.4051 -0.2612 -0.0097
 7718SOL    HW134616   3.500   1.270   4.879 -0.5157  2.6893  0.0522
 7718SOL    HW234617   3.350   1.289   4.846  0.2332  2.1040  2.1441
 7719SOL     OW34618   3.803   2.239   2.391 -0.2347 -0.5460 -0.1136
 7719SOL    HW134619   3.898   2.234   2.404 -0.1377  0.8451 -0.2478
 7719SOL    HW234620   3.801   2.286   2.308 -1.3146  0.1296  0.2881
 7720SOL     OW34621   2.001   3.403   3.939 -0.1397  0.0493 -0.2146
 7720SOL    HW134622   2.033   3.460   4.010  0.6372  0.7196 -1.1073
 7720SOL    HW234623   1.911   3.436   3.935 -0.3927 -0.2605  2.8761
 7721SOL     OW34624   0.684   1.071   5.512  0.8810  0.6659  0.3194
 7721SOL    HW134625   0.778   1.055   5.511  0.6018 -0.8709 -0.6982
 7721SOL    HW234626   0.684   1.166   5.495  0.4464  0.8269  1.2478
 7722SOL     OW34627   2.149   3.170   3.308  0.1248  0.4431  0.3225
 7722SOL    HW134628   2.178   3.256   3.340  0.7240  0.1508  0.5465
 7722SOL    HW234629   2.132   3.114   3.383 -1.0106 -1.7033 -1.5491
 7723SOL     OW34630   0.577   4.006  15.871 -0.4911  0.1517  0.3809
 7723SOL    HW134631   0.654   4.060  15.890 -1.2655  0.6445  2.1117
 7723SOL    HW234632   0.539   3.995  15.958  0.4577  1.3571  0.9409
 7724SOL     OW34633   3.126   0.184   1.578 -0.7075  0.0238  0.4275
 7724SOL    HW134634   3.099   0.141   1.497  0.7692  1.3019 -0.7304
 7724SOL    HW234635   3.105   0.121   1.648 -0.0186 -0.9965 -0.2827
 7725SOL     OW34636   4.112   2.682   1.163 -0.4036  0.1674  0.1992
 7725SOL    HW134637   4.141   2.707   1.076  0.3146 -1.2089  0.0548
 7725SOL    HW234638   4.125   2.587   1.163  1.6518  0.4485 -0.5428
 7726SOL     OW34639   0.825   2.398   1.655  0.1546 -0.1942  0.2775
 7726SOL    HW134640   0.816   2.476   1.600  0.7359 -0.3028  0.0250
 7726SOL    HW234641   0.832   2.448   1.736 -0.3130 -1.5389  1.1444
 7727SOL     OW34642   4.333   1.986  15.349 -0.1455 -1.0460 -0.2532
 7727SOL    HW134643   4.258   1.958  15.297 -0.2480 -1.5604  0.1659
 7727SOL    HW234644   4.336   2.080  15.332  1.6176 -1.1367 -0.3683
 7728SOL     OW34645   0.950   4.648   6.954 -0.0772  0.6299 -0.1726
 7728SOL    HW134646   0.921   4.641   7.045  1.6289 -0.1930  0.2997
 7728SOL    HW234647   0.884   4.707   6.917  0.5438 -0.5847 -3.1935
 7729SOL     OW34648   1.778   3.431  13.023  0.6604  0.3221 -0.2358
 7729SOL    HW134649   1.731   3.469  13.098  1.3240 -0.7241  0.7147
 7729SOL    HW234650   1.825   3.364  13.073  1.3595  1.1852  0.2654
 7730SOL     OW34651   1.891   1.963   1.017  0.1033  0.0730  0.0303
 7730SOL    HW134652   1.917   1.919   1.098  0.0484 -0.3306 -0.1710
 7730SOL    HW234653   1.978   1.987   0.986  0.7023 -0.0633  1.6025
 7731SOL     OW34654   1.480   0.163   1.976 -0.5062  0.3641 -0.0027
 7731SOL    HW134655   1.386   0.179   1.966 -0.8213 -1.5042  0.0584
 7731SOL    HW234656   1.483   0.118   2.060 -0.6715 -0.6111 -0.5124
 7732SOL     OW34657   2.894   4.232  13.920 -0.6333  0.5987 -0.1188
 7732SOL    HW134658   2.936   4.316  13.899 -2.0362  1.5084  0.7055
 7732SOL    HW234659   2.827   4.265  13.980  0.2889 -0.1896  1.3725
 7733SOL     OW34660   2.039   0.791   7.373  0.0685  1.0947 -0.1218
 7733SOL    HW134661   2.049   0.845   7.452  2.3547 -1.7230  1.4707
 7733SOL    HW234662   1.946   0.766   7.377  1.1200 -2.6399  0.1673
 7734SOL     OW34663   0.152   4.502   5.350 -0.4998  0.1198  0.4672
 7734SOL    HW134664   0.061   4.505   5.320  0.5478 -2.1134 -3.0284
 7734SOL    HW234665   0.152   4.551   5.432 -1.3489  1.8661 -0.5805
 7735SOL     OW34666   1.213   3.329   4.836  0.8353 -0.2573 -0.4085
 7735SOL    HW134667   1.137   3.386   4.830  1.4593  0.4514 -1.5957
 7735SOL    HW234668   1.221   3.297   4.746  1.6839 -1.8246  0.2134
 7736SOL     OW34669   3.141   3.509   9.745  0.0888  0.3094 -0.1259
 7736SOL    HW134670   3.085   3.435   9.723 -0.4860  0.3695  1.1563
 7736SOL    HW234671   3.222   3.463   9.771 -0.0319  0.3333  0.2941
 7737SOL     OW34672   0.469   1.856   4.488  0.0388  0.3661 -0.6527
 7737SOL    HW134673   0.424   1.800   4.551  1.9013  0.5601  0.8479
 7737SOL    HW234674   0.400   1.893   4.434  0.5128 -0.0634 -1.5442
 7738SOL     OW34675   0.235   0.325   4.762  0.1367  0.1893  0.2428
 7738SOL    HW134676   0.322   0.356   4.786  0.5879 -0.6515 -0.3084
 7738SOL    HW234677   0.232   0.346   4.669  0.2644  2.2218  0.7028
 7739SOL     OW34678   1.976   2.113  17.402  0.5015 -0.4548 -0.0311
 7739SOL    HW134679   1.980   2.106  17.307 -1.0541  0.9601 -0.2031
 7739SOL    HW234680   1.989   2.020  17.423  0.4627 -0.4360  0.0778
 7740SOL     OW34681   1.412   3.481   7.749 -0.7339 -0.0428  0.2277
 7740SOL    HW134682   1.371   3.411   7.800 -0.9387 -0.4074 -0.4296
 7740SOL    HW234683   1.394   3.553   7.809 -1.5168  0.1287 -0.1978
 7741SOL     OW34684   1.682   3.430   8.263  0.2463  0.1906  0.1440
 7741SOL    HW134685   1.721   3.457   8.181  1.7131  2.1119  1.4655
 7741SOL    HW234686   1.606   3.378   8.238  0.9680 -1.2463  0.9941
 7742SOL     OW34687   1.205   0.791  16.226 -0.1494  0.0397  0.0274
 7742SOL    HW134688   1.213   0.784  16.131 -2.4141  3.7839 -0.4567
 7742SOL    HW234689   1.285   0.748  16.255 -0.3829 -0.0004  0.6154
 7743SOL     OW34690   2.757   4.339   2.765  0.2494 -0.6412  0.0292
 7743SOL    HW134691   2.852   4.337   2.766  0.2368 -1.1640  0.6522
 7743SOL    HW234692   2.743   4.323   2.672  1.9193 -2.1301  0.0377
 7744SOL     OW34693   3.047   3.661   1.962 -0.5651  0.4182  0.0572
 7744SOL    HW134694   3.087   3.588   1.914 -1.8199  1.7243 -2.9545
 7744SOL    HW234695   3.001   3.619   2.035  0.9823 -1.7216 -0.1813
 7745SOL     OW34696   0.217   1.659  12.825  0.4861  0.4867  0.7841
 7745SOL    HW134697   0.133   1.632  12.788  1.8850  2.3836 -3.7745
 7745SOL    HW234698   0.185   1.717  12.894  0.5113  2.0303 -0.5017
 7746SOL     OW34699   1.768   3.558   5.694  0.2902  0.2927 -0.3747
 7746SOL    HW134700   1.793   3.502   5.620 -0.2968 -1.3075  0.6412
 7746SOL    HW234701   1.818   3.511   5.762 -2.4609  0.0635  1.4647
 7747SOL     OW34702   3.675   3.949   2.294 -0.4908  0.2551 -0.5856
 7747SOL    HW134703   3.758   3.903   2.305 -0.1109  0.7402 -1.4366
 7747SOL    HW234704   3.691   4.043   2.302  0.3802 -0.1210  2.2901
 7748SOL     OW34705   3.683   1.378   1.827 -0.0182  0.8014 -0.1695
 7748SOL    HW134706   3.730   1.308   1.782 -0.7769 -0.5789  1.1479
 7748SOL    HW234707   3.677   1.446   1.760 -1.0529  3.1010  2.2376
 7749SOL     OW34708   0.676   1.616  10.987 -0.1604 -0.3363  0.1179
 7749SOL    HW134709   0.583   1.600  11.003 -0.2928  1.4860  1.1998
 7749SOL    HW234710   0.695   1.541  10.930  1.3319  0.1937 -0.0858
 7750SOL     OW34711   4.395   3.015   5.520 -0.1511  0.6520 -0.2456
 7750SOL    HW134712   4.395   3.109   5.501 -0.1911  0.5600 -0.7042
 7750SOL    HW234713   4.303   3.011   5.545  0.1203  1.6925  0.9089
 7751SOL     OW34714   4.097   4.507   5.334  0.1250 -0.3250 -0.5962
 7751SOL    HW134715   4.153   4.496   5.411 -0.1912  1.9616 -0.0485
 7751SOL    HW234716   4.016   4.523   5.382  1.1824  0.7926  0.7872
 7752SOL     OW34717   1.846   4.096   4.230 -0.0254  0.2435 -0.0445
 7752SOL    HW134718   1.771   4.048   4.194 -1.6749  3.3532 -0.7619
 7752SOL    HW234719   1.816   4.114   4.319  2.4227 -1.8970  1.1861
 7753SOL     OW34720   2.891   2.752   1.115  0.3088  0.2928  0.0766
 7753SOL    HW134721   2.797   2.743   1.131  0.9048 -0.3462  3.2368
 7753SOL    HW234722   2.926   2.670   1.148 -1.4330 -0.8055 -0.7881
 7754SOL     OW34723   4.415   1.143   7.284  0.1902 -0.5462  0.2460
 7754SOL    HW134724   4.446   1.054   7.300  1.3710 -0.2296 -0.3278
 7754SOL    HW234725   4.499   1.188   7.286 -0.2677  0.3631 -1.1606
 7755SOL     OW34726   4.713   2.231   2.080  0.7622 -0.0250 -0.7702
 7755SOL    HW134727   0.029   2.318   2.087  0.4653 -0.1653  2.6364
 7755SOL    HW234728   0.045   2.197   2.010  0.5616  1.3910 -1.6055
 7756SOL     OW34729   3.566   1.415  10.423  0.0844 -0.3926 -0.2354
 7756SOL    HW134730   3.590   1.493  10.373  1.5213 -0.0608  0.9813
 7756SOL    HW234731   3.497   1.443  10.483 -2.0240 -0.8461 -2.4372
 7757SOL     OW34732   2.354   0.174  15.330  0.1344  0.0689 -0.1712
 7757SOL    HW134733   2.265   0.156  15.360  0.6923 -2.3048  0.1104
 7757SOL    HW234734   2.362   0.127  15.247  1.3178  1.0506 -0.6131
 7758SOL     OW34735   0.743   1.221   4.920 -0.6983 -0.6707  0.0326
 7758SOL    HW134736   0.696   1.301   4.894  1.9260  0.7830 -0.2086
 7758SOL    HW234737   0.757   1.226   5.015  2.9036  2.0024 -0.6677
 7759SOL     OW34738   2.574   2.962   4.407 -0.0136 -0.3910 -0.2654
 7759SOL    HW134739   2.529   2.966   4.323 -1.6846  1.8647  0.7159
 7759SOL    HW234740   2.612   3.050   4.405  0.5003 -0.6089  0.0542
 7760SOL     OW34741   4.549   0.355   4.446 -0.4097 -0.6629  0.3208
 7760SOL    HW134742   4.460   0.325   4.465 -0.7702  0.1326 -0.1131
 7760SOL    HW234743   4.563   0.346   4.352  0.8018 -0.2281  0.4590
 7761SOL     OW34744   1.435   3.897  16.695  0.0796  0.1195  0.0732
 7761SOL    HW134745   1.497   3.965  16.670  1.7828 -1.5457 -0.2332
 7761SOL    HW234746   1.460   3.887  16.787  0.2482 -3.5924 -0.3756
 7762SOL     OW34747   4.533   4.489   0.193  0.1002 -0.1138 -0.1354
 7762SOL    HW134748   4.478   4.503   0.115  0.9056 -2.8263 -1.1880
 7762SOL    HW234749   4.589   4.414   0.175 -0.0114 -0.0984 -0.5592
 7763SOL     OW34750   4.330   1.080   0.315  0.1645 -0.3864  0.2529
 7763SOL    HW134751   4.393   1.048   0.250  1.1932  1.1622  0.4966
 7763SOL    HW234752   4.383   1.147   0.358 -1.7034 -0.3589  2.5038
 7764SOL     OW34753   2.188   3.983   3.562 -0.6250  0.2729  0.6661
 7764SOL    HW134754   2.173   3.964   3.655  1.2983 -1.5002  0.6244
 7764SOL    HW234755   2.099   3.988   3.528  0.1243 -0.0066 -1.3134
 7765SOL     OW34756   2.824   0.217   5.778 -0.8738  0.2294  0.0132
 7765SOL    HW134757   2.791   0.304   5.802 -2.2088 -1.1555  3.3549
 7765SOL    HW234758   2.749   0.171   5.741 -2.7344  1.6293  2.0182
 7766SOL     OW34759   1.938   2.424   7.860  0.5083  0.4854  0.0286
 7766SOL    HW134760   1.854   2.410   7.816 -1.2272  1.9085  2.8546
 7766SOL    HW234761   1.905   2.478   7.932  0.9025  0.3742  0.2966
 7767SOL     OW34762   3.421   1.708  12.982  0.3609 -0.1269  0.2450
 7767SOL    HW134763   3.474   1.753  12.916  0.9787 -0.4893  0.4937
 7767SOL    HW234764   3.422   1.615  12.959 -0.0761 -0.2426  0.7060
 7768SOL     OW34765   2.534   0.830   0.609 -0.0639 -0.3674  0.3501
 7768SOL    HW134766   2.442   0.855   0.620 -0.6117 -1.9847 -0.5251
 7768SOL    HW234767   2.559   0.842   0.517  2.9462 -1.6834  1.0116
 7769SOL     OW34768   3.039   2.704   6.100 -0.1994 -0.2036 -0.0996
 7769SOL    HW134769   3.014   2.655   6.022  0.2569 -0.4011 -0.1212
 7769SOL    HW234770   3.026   2.643   6.173  0.2573 -1.3452 -0.9636
 7770SOL     OW34771   1.408   1.932   1.623  0.5322 -0.0468  0.4786
 7770SOL    HW134772   1.322   1.895   1.642 -1.2287  2.3862 -2.8786
 7770SOL    HW234773   1.456   1.871   1.566  2.1462 -0.5066  2.3016
 7771SOL     OW34774   0.479   1.175   6.495 -0.3806  0.1471 -0.2866
 7771SOL    HW134775   0.502   1.265   6.520  2.7264 -1.3848  2.3939
 7771SOL    HW234776   0.568   1.145   6.516 -0.6725 -0.6082 -0.1338
 7772SOL     OW34777   4.001   0.005   5.729 -0.1721 -0.1853 -0.1244
 7772SOL    HW134778   4.049   0.024   5.809  1.7804 -1.2942 -1.0324
 7772SOL    HW234779   3.917   0.044   5.752 -1.2228 -2.8695  0.6505
 7773SOL     OW34780   4.489   3.887  13.224  0.0533 -0.5232  0.1507
 7773SOL    HW134781   4.400   3.919  13.207  1.2497  2.3277 -0.7201
 7773SOL    HW234782   4.538   3.926  13.152  0.9628  0.9090  1.5456
 7774SOL     OW34783   3.768   2.310   3.394 -0.0771  0.0734 -0.6153
 7774SOL    HW134784   3.809   2.395   3.410 -2.0198  0.7987  0.6505
 7774SOL    HW234785   3.838   2.247   3.410 -0.6716  0.0690  2.0284
 7775SOL     OW34786   0.463   4.601   2.989  0.2900  0.6208  0.0826
 7775SOL    HW134787   0.369   4.592   3.006  0.4227 -1.6058 -0.4301
 7775SOL    HW234788   0.474   4.537   2.919  0.8869 -0.0214  0.7684
 7776SOL     OW34789   2.720   4.293   4.403 -0.3899  0.6155  0.0855
 7776SOL    HW134790   2.643   4.347   4.424 -0.6237 -0.3470  1.7476
 7776SOL    HW234791   2.744   4.246   4.483 -1.1247  1.3650  0.7473
 7777SOL     OW34792   0.043   0.561   9.699  0.5039 -0.3708  0.8295
 7777SOL    HW134793   0.124   0.610   9.684 -0.4427  1.2029  0.8820
 7777SOL    HW234794   0.048   0.498   9.628  1.7809  1.8789 -1.0773
 7778SOL     OW34795   0.364   3.193   3.865 -0.1289  0.2850  0.4314
 7778SOL    HW134796   0.442   3.188   3.810 -0.5502 -1.8095  0.0185
 7778SOL    HW234797   0.315   3.260   3.818  0.5459  1.2694  1.1397
 7779SOL     OW34798   0.434   0.582  11.654 -0.2202  0.8877 -0.3296
 7779SOL    HW134799   0.395   0.537  11.728  1.7365 -2.4585 -1.3235
 7779SOL    HW234800   0.527   0.581  11.676 -0.9451  0.9912  2.6536
 7780SOL     OW34801   3.527   0.726  10.156 -0.0497  0.4953 -0.0092
 7780SOL    HW134802   3.432   0.734  10.153  0.1351  1.6023 -3.2141
 7780SOL    HW234803   3.549   0.760  10.069 -2.3224 -0.0643 -0.8181
 7781SOL     OW34804   2.781   3.977   7.614 -0.3445 -0.1221  0.5146
 7781SOL    HW134805   2.834   4.045   7.656 -0.0858 -1.4841  2.3931
 7781SOL    HW234806   2.722   3.959   7.687 -1.1646 -1.9065 -0.6037
 7782SOL     OW34807   2.221   1.840   7.809 -0.1392  0.2239 -0.2418
 7782SOL    HW134808   2.239   1.817   7.900  1.5460  0.3036 -0.5506
 7782SOL    HW234809   2.158   1.910   7.831  0.2041  0.0691  1.2474
 7783SOL     OW34810   4.553   0.224   4.151 -0.0649  0.2276 -0.3675
 7783SOL    HW134811   4.489   0.274   4.101  0.8351  0.3221 -1.4194
 7783SOL    HW234812   4.506   0.140   4.149 -1.8359  1.1957  0.6456
 7784SOL     OW34813   0.876   1.573   7.054  0.6000  0.0296 -0.0732
 7784SOL    HW134814   0.819   1.497   7.041 -0.7427  0.6406  2.1322
 7784SOL    HW234815   0.876   1.601   6.963 -0.8878  0.7858  0.1599
 7785SOL     OW34816   2.467   1.645   3.067 -0.0827  0.0299 -0.0112
 7785SOL    HW134817   2.457   1.739   3.050 -2.6868 -0.0873  0.8385
 7785SOL    HW234818   2.510   1.653   3.153 -1.3845  0.2628  0.6228
 7786SOL     OW34819   0.112   4.477  11.324  0.3737  0.2587  0.3957
 7786SOL    HW134820   0.083   4.498  11.412 -0.1978 -2.7010  0.9054
 7786SOL    HW234821   0.190   4.422  11.333  0.1782 -0.1118 -0.1905
 7787SOL     OW34822   0.463   4.135   4.545  0.0194  0.2289  0.1943
 7787SOL    HW134823   0.514   4.066   4.501 -1.9884  0.8506 -3.1232
 7787SOL    HW234824   0.403   4.158   4.474 -0.9919 -2.9204  0.0384
 7788SOL     OW34825   4.465   4.234   9.292  0.2121  0.0839  0.1196
 7788SOL    HW134826   4.479   4.249   9.199  0.0341  0.4548  0.1532
 7788SOL    HW234827   4.390   4.291   9.310 -0.8705 -0.6299 -2.1300
 7789SOL     OW34828   4.474   2.980  17.125  0.0119 -0.9725 -0.9601
 7789SOL    HW134829   4.564   2.988  17.093  0.3478  1.4346  0.5405
 7789SOL    HW234830   4.436   3.041  17.062  0.0359 -0.7354 -0.7461
 7790SOL     OW34831   1.225   0.985   8.982 -0.8242  0.4338  0.4232
 7790SOL    HW134832   1.211   0.978   9.076  0.6942  1.0798  0.6902
 7790SOL    HW234833   1.285   1.059   8.982  1.8137 -1.7131  2.7759
 7791SOL     OW34834   3.606   3.227   2.238  0.3341  0.2294  0.0773
 7791SOL    HW134835   3.630   3.290   2.305  1.5825 -0.1940  0.0300
 7791SOL    HW234836   3.669   3.261   2.175 -0.1807  2.0231  0.5372
 7792SOL     OW34837   2.471   3.419   1.349  0.3540 -0.0405  0.5881
 7792SOL    HW134838   2.440   3.507   1.371 -0.4288  0.0213 -0.7035
 7792SOL    HW234839   2.472   3.384   1.438 -0.2132  0.1989  0.6891
 7793SOL     OW34840   0.068   1.390   5.052 -0.0900 -0.2932 -0.2179
 7793SOL    HW134841   0.047   1.355   5.139  0.5623  1.1116  0.5171
 7793SOL    HW234842   0.007   1.464   5.052 -0.4490 -0.5936  0.7204
 7794SOL     OW34843   0.156   4.201  13.158 -0.0244 -0.0240  0.1607
 7794SOL    HW134844   0.223   4.172  13.096  0.3635  1.7352 -0.2301
 7794SOL    HW234845   0.163   4.294  13.139  1.7809 -0.4700 -1.4215
 7795SOL     OW34846   3.056   3.807  13.825 -0.4296 -0.1237 -0.6759
 7795SOL    HW134847   3.013   3.731  13.866  0.1095  1.0969  2.1867
 7795SOL    HW234848   2.982   3.841  13.775 -1.2126  1.0484  1.2492
 7796SOL     OW34849   1.106   2.363   5.941 -0.0882 -0.5397 -0.1125
 7796SOL    HW134850   1.033   2.393   5.996  0.2982 -0.2907  0.2690
 7796SOL    HW234851   1.159   2.307   5.998 -0.2063  1.6988  2.1937
 7797SOL     OW34852   4.183   2.788   2.669 -0.1773  0.3481 -0.6838
 7797SOL    HW134853   4.185   2.768   2.575  1.1116 -0.0483 -0.5782
 7797SOL    HW234854   4.247   2.722   2.698  0.0333  0.6356 -0.4935
 7798SOL     OW34855   1.053   4.102   3.257  0.6978  0.0956  0.0122
 7798SOL    HW134856   1.055   4.146   3.342  1.6291  2.3723 -1.1745
 7798SOL    HW234857   0.959   4.086   3.246  0.7572 -0.2575  0.0004
 7799SOL     OW34858   4.558   1.051   1.883  0.0984 -0.0688  0.1581
 7799SOL    HW134859   4.518   0.968   1.908  0.0924  0.2760  1.2571
 7799SOL    HW234860   4.626   1.027   1.819  1.6321  0.1502  1.7003
 7800SOL     OW34861   3.530   3.118   6.522  0.2811  0.3274  0.4272
 7800SOL    HW134862   3.617   3.085   6.498 -0.1409 -0.8572  0.5309
 7800SOL    HW234863   3.525   3.096   6.615  0.3886 -1.3448  0.0308
 7801SOL     OW34864   1.315   3.623   8.543 -0.0211 -0.4329 -0.2691
 7801SOL    HW134865   1.403   3.595   8.570 -0.3055 -1.0341  0.0501
 7801SOL    HW234866   1.294   3.542   8.496 -1.2041  0.9510 -2.1131
 7802SOL     OW34867   3.556   3.871   5.144  0.5158 -0.8144  0.5620
 7802SOL    HW134868   3.619   3.799   5.144  2.1598  0.6452  1.4768
 7802SOL    HW234869   3.537   3.874   5.237 -1.3103  1.3640  0.1417
 7803SOL     OW34870   2.741   4.080   4.168  0.1491 -0.3625  0.1594
 7803SOL    HW134871   2.645   4.074   4.169  0.1841 -1.1865 -1.9955
 7803SOL    HW234872   2.753   4.168   4.206  1.7073 -0.1585 -0.8338
 7804SOL     OW34873   2.161   3.106   8.722 -0.3593 -0.6019  0.3015
 7804SOL    HW134874   2.232   3.158   8.685 -1.5027  0.3501 -0.5302
 7804SOL    HW234875   2.214   3.031   8.748 -1.2339 -1.7115 -1.1596
 7805SOL     OW34876   2.332   1.131   3.502 -0.4163  0.6525  0.1587
 7805SOL    HW134877   2.319   1.133   3.597  0.2055  0.6213  0.2508
 7805SOL    HW234878   2.297   1.043   3.487  0.9362 -0.1586  1.7297
 7806SOL     OW34879   3.736   3.906   3.449  0.3022 -0.2150 -0.3612
 7806SOL    HW134880   3.655   3.934   3.407 -1.1387 -0.3319  2.3887
 7806SOL    HW234881   3.790   3.982   3.427  1.7180 -1.3786 -0.9540
 7807SOL     OW34882   0.099   4.537  16.046 -0.5950 -0.0987 -0.4109
 7807SOL    HW134883   0.101   4.601  16.118 -1.3538  0.1692 -0.6302
 7807SOL    HW234884   0.102   4.592  15.968  1.7284  0.1509 -0.1233
 7808SOL     OW34885   1.945   2.165   7.699  0.1768  0.2611  0.3498
 7808SOL    HW134886   1.949   2.094   7.764 -3.0509  2.4468  2.9949
 7808SOL    HW234887   1.960   2.248   7.745  1.4066  0.2676 -0.0706
 7809SOL     OW34888   2.765   4.237   3.542 -0.0956  0.3199  0.1919
 7809SOL    HW134889   2.780   4.154   3.496 -2.9487 -0.0356 -0.0537
 7809SOL    HW234890   2.757   4.298   3.468  1.4856  3.1614  2.3544
 7810SOL     OW34891   3.965   1.918   1.869  1.0591  0.6672 -0.2404
 7810SOL    HW134892   3.915   1.853   1.818  1.1384  0.7936 -0.4792
 7810SOL    HW234893   3.896   1.951   1.926  0.3449 -0.5808 -0.3609
 7811SOL     OW34894   2.496   1.724   5.262  0.3215 -0.6334  0.3214
 7811SOL    HW134895   2.463   1.814   5.257  1.8246 -0.0382  1.0035
 7811SOL    HW234896   2.524   1.710   5.171 -1.2788  0.0717 -0.2671
 7812SOL     OW34897   1.090   1.329   5.261 -0.2216  0.3453 -0.3588
 7812SOL    HW134898   1.100   1.244   5.218 -0.6725  0.2140 -0.1999
 7812SOL    HW234899   1.016   1.320   5.320 -0.5501  1.3190 -0.6168
 7813SOL     OW34900   2.345   3.109   5.977 -0.0584 -0.2224 -0.4029
 7813SOL    HW134901   2.344   3.165   5.899  0.3578 -0.8358 -0.8477
 7813SOL    HW234902   2.391   3.159   6.045 -1.3670  1.5056 -0.7653
 7814SOL     OW34903   0.426   1.253  16.341 -0.3401  0.1181  0.3273
 7814SOL    HW134904   0.423   1.205  16.424 -1.8215  1.7129  1.1933
 7814SOL    HW234905   0.342   1.298  16.352 -1.4581 -2.0284  0.4902
 7815SOL     OW34906   2.006   1.024   3.184 -0.2653 -0.2760 -0.2239
 7815SOL    HW134907   1.986   0.949   3.128  0.4792 -1.4177  1.0540
 7815SOL    HW234908   1.982   1.093   3.121 -1.3592  1.5251  2.1784
 7816SOL     OW34909   1.166   2.380   7.869 -0.1844  0.1657 -0.6532
 7816SOL    HW134910   1.259   2.371   7.892  0.0618  0.1009 -1.6877
 7816SOL    HW234911   1.122   2.338   7.943  2.8758 -2.4242 -0.2879
 7817SOL     OW34912   3.723   2.123  16.402 -0.4461  0.1752 -0.3403
 7817SOL    HW134913   3.737   2.079  16.486 -0.1747 -0.9071 -0.9483
 7817SOL    HW234914   3.637   2.091  16.374  0.2476 -1.8816 -0.0822
 7818SOL     OW34915   3.283   4.579   2.881  0.3242 -0.0631 -0.6021
 7818SOL    HW134916   3.320   4.509   2.827 -1.8708 -0.0461 -2.1224
 7818SOL    HW234917   3.236   4.634   2.818  3.5510  1.6243 -1.5201
 7819SOL     OW34918   2.055   4.246   8.133 -0.1224 -0.2793 -0.0914
 7819SOL    HW134919   1.988   4.313   8.123  0.2627  0.0980 -0.1260
 7819SOL    HW234920   2.083   4.238   8.042  0.5762 -2.7960  0.3432
 7820SOL     OW34921   3.797   1.588   2.915  0.1088 -0.4612 -0.0596
 7820SOL    HW134922   3.732   1.575   2.846 -0.9680  2.2550  0.4311
 7820SOL    HW234923   3.869   1.537   2.877  0.2544 -0.8929  0.7773
 7821SOL     OW34924   2.386   2.653   1.074  0.2057  0.3485 -0.7791
 7821SOL    HW134925   2.343   2.654   1.159  0.4695  0.1174 -0.6410
 7821SOL    HW234926   2.455   2.719   1.086  1.9891 -1.6327 -0.0363
 7822SOL     OW34927   4.026   0.645   4.518  0.6277  0.4461 -0.1851
 7822SOL    HW134928   4.050   0.625   4.609 -2.5716 -1.0017  0.3633
 7822SOL    HW234929   3.951   0.702   4.533 -0.4712 -0.2489 -3.1525
 7823SOL     OW34930   2.718   0.338   4.783 -0.0028 -0.2747 -0.4744
 7823SOL    HW134931   2.798   0.345   4.835 -0.5863  0.6579  0.2754
 7823SOL    HW234932   2.653   0.319   4.850  0.7360  1.0054  0.6142
 7824SOL     OW34933   4.154   4.390   2.889 -0.7895 -0.5946  0.0081
 7824SOL    HW134934   4.173   4.463   2.830  2.3469 -0.5366  1.1145
 7824SOL    HW234935   4.186   4.318   2.833  0.9551 -0.7802  1.2548
 7825SOL     OW34936   4.652   0.081  15.526  0.2651  0.1501 -0.0943
 7825SOL    HW134937   0.013   0.108  15.558 -0.2770  1.4489  0.2574
 7825SOL    HW234938   4.669   4.723  15.479  1.4170  1.6704 -2.3242
 7826SOL     OW34939   2.455   4.522   5.273 -0.3465  0.0043 -0.5174
 7826SOL    HW134940   2.487   4.602   5.232  3.1509 -1.7099 -1.1638
 7826SOL    HW234941   2.449   4.464   5.197  3.5830 -0.3719 -0.5577
 7827SOL     OW34942   0.828   4.028   5.697 -0.5548 -0.0814 -0.6375
 7827SOL    HW134943   0.733   4.033   5.708 -0.1586 -1.4009  3.2682
 7827SOL    HW234944   0.850   3.983   5.778 -2.2074  0.3898  0.0840
 7828SOL     OW34945   3.613   1.791   6.755  0.2482 -0.3188  0.1808
 7828SOL    HW134946   3.693   1.815   6.710 -0.2967 -0.2757 -0.7694
 7828SOL    HW234947   3.566   1.874   6.763  0.7958  0.0192 -0.1114
 7829SOL     OW34948   1.692   3.851  14.553  0.2693  0.0467  0.4867
 7829SOL    HW134949   1.624   3.828  14.617 -2.0978  1.3593 -1.5802
 7829SOL    HW234950   1.698   3.764  14.513  0.5966  0.7914 -1.0407
 7830SOL     OW34951   3.379   2.825   6.816 -0.1872 -0.5696 -0.4003
 7830SOL    HW134952   3.292   2.808   6.851 -0.0245  1.0760  0.7869
 7830SOL    HW234953   3.354   2.845   6.725 -1.0662  0.3577  0.0469
 7831SOL     OW34954   0.955   1.561   0.412 -0.2177 -0.2639 -0.7671
 7831SOL    HW134955   0.939   1.603   0.497 -0.3528  1.0625 -1.4484
 7831SOL    HW234956   0.886   1.495   0.410 -0.7809  0.3352 -1.4432
 7832SOL     OW34957   2.662   3.945   4.608 -0.0717  0.1239 -0.0266
 7832SOL    HW134958   2.568   3.942   4.587  0.5841 -0.5171 -2.8831
 7832SOL    HW234959   2.694   3.906   4.526 -0.5315  0.0442 -0.1677
 7833SOL     OW34960   3.427   1.861   2.745  0.2216 -0.2878 -0.2691
 7833SOL    HW134961   3.358   1.795   2.741  0.4512 -0.4375 -1.6969
 7833SOL    HW234962   3.463   1.867   2.657 -1.0220  0.4575 -0.7215
 7834SOL     OW34963   2.388   4.068   8.504  0.0070 -1.6224  0.0663
 7834SOL    HW134964   2.295   4.055   8.522 -0.7101  3.1666 -0.0993
 7834SOL    HW234965   2.427   3.994   8.550  0.0928 -0.2306  2.2855
 7835SOL     OW34966   3.931   3.333   2.929  0.5366  0.2906 -1.1712
 7835SOL    HW134967   3.925   3.293   3.015 -1.6356  0.3540 -1.2954
 7835SOL    HW234968   4.024   3.319   2.910  0.3793  0.5525 -2.1412
 7836SOL     OW34969   3.002   1.504  17.399  0.5260 -0.5759  0.0130
 7836SOL    HW134970   2.987   1.583  17.347  2.2805  0.3249  0.8940
 7836SOL    HW234971   2.952   1.522  17.479  2.6206 -1.2273  1.4736
 7837SOL     OW34972   4.273   1.955   5.607 -0.5257 -0.4902 -0.6321
 7837SOL    HW134973   4.273   1.914   5.521 -3.5875 -1.1725 -0.2833
 7837SOL    HW234974   4.217   2.031   5.597  0.1361 -0.0435 -0.9477
 7838SOL     OW34975   3.244   1.620  13.156 -0.1842 -0.1013  0.5228
 7838SOL    HW134976   3.301   1.670  13.098 -0.1266  1.2092  1.7124
 7838SOL    HW234977   3.291   1.628  13.239 -1.5340  1.1248  1.1796
 7839SOL     OW34978   0.068   3.861   5.332  0.4721 -0.1511  0.7067
 7839SOL    HW134979   0.074   3.940   5.278 -2.9638 -2.1073 -2.5380
 7839SOL    HW234980   4.701   3.873   5.356  0.0975 -2.4775  0.3941
 7840SOL     OW34981   3.010   1.347   5.283  0.4266 -0.4597 -0.3048
 7840SOL    HW134982   3.064   1.419   5.317  1.2194 -2.0174  1.7230
 7840SOL    HW234983   3.028   1.275   5.343  2.7487  0.3205 -0.0510
 7841SOL     OW34984   3.081   1.009   0.476 -0.0226 -0.1635 -0.3966
 7841SOL    HW134985   3.094   1.042   0.387  0.1681 -1.8152 -0.9731
 7841SOL    HW234986   3.163   0.964   0.495  1.7394  2.5140 -1.5706
 7842SOL     OW34987   0.625   4.645   1.682 -0.1238 -0.5715 -0.1460
 7842SOL    HW134988   0.627   4.559   1.640 -0.8625 -0.5597 -0.2048
 7842SOL    HW234989   0.600   4.636   1.774  0.1252  0.3412  0.0150
 7843SOL     OW34990   3.406   0.647   9.353  0.0086 -0.7767 -0.0398
 7843SOL    HW134991   3.311   0.642   9.363 -0.2927  1.9440 -1.7199
 7843SOL    HW234992   3.406   0.641   9.258 -1.7206  0.6816 -0.1450
 7844SOL     OW34993   3.952   1.887   5.601 -0.2267  0.3534 -0.1531
 7844SOL    HW134994   3.915   1.813   5.649 -0.7935  0.5846 -0.2391
 7844SOL    HW234995   3.912   1.885   5.514  0.0456 -1.4308 -0.2402
 7845SOL     OW34996   0.645   4.439   5.723 -0.1622  0.0203 -0.4420
 7845SOL    HW134997   0.614   4.378   5.656 -0.8880 -0.5082  0.3641
 7845SOL    HW234998   0.661   4.512   5.665 -0.8907  1.7999  1.5990
 7846SOL     OW34999   2.145   0.313   5.926  0.1001  0.5969 -0.1236
 7846SOL    HW135000   2.080   0.375   5.895 -1.5494 -0.4942  1.1770
 7846SOL    HW235001   2.111   0.235   5.884 -0.3047  0.8145 -0.1979
 7847SOL     OW35002   0.717   0.022   8.207  0.1732  0.2109 -0.0221
 7847SOL    HW135003   0.767   4.683   8.156  1.0607 -1.5787  3.0831
 7847SOL    HW235004   0.780   0.094   8.209 -1.0786  1.2702  0.8182
 7848SOL     OW35005   2.618   0.278   3.591 -0.4931  0.2750 -0.3308
 7848SOL    HW135006   2.625   0.187   3.619 -0.2759 -0.0382 -1.3692
 7848SOL    HW235007   2.699   0.285   3.540 -1.1347 -0.7838 -1.4996
 7849SOL     OW35008   2.486   3.525  12.433 -0.2520  0.6955 -0.0983
 7849SOL    HW135009   2.462   3.463  12.365  1.7868 -0.0635 -0.1135
 7849SOL    HW235010   2.408   3.518  12.489  0.6297 -0.3549  1.0020
 7850SOL     OW35011   4.272   3.038   5.093  0.6297  0.0960 -0.2748
 7850SOL    HW135012   4.269   2.946   5.121 -0.1474  0.3941  0.6219
 7850SOL    HW235013   4.178   3.038   5.073  1.3416 -1.2880 -3.6069
 7851SOL     OW35014   0.180   2.539   4.122  0.2436 -0.2765  0.4939
 7851SOL    HW135015   0.107   2.479   4.106 -0.5431  0.8235  0.0618
 7851SOL    HW235016   0.224   2.510   4.203  0.8989 -1.9895 -0.4791
 7852SOL     OW35017   4.139   3.001   6.583  0.2682  0.3104 -0.0816
 7852SOL    HW135018   4.194   2.952   6.645  0.6330  0.8720  0.0492
 7852SOL    HW235019   4.207   3.016   6.518 -1.3726  1.6873 -1.4724
 7853SOL     OW35020   3.976   1.538   1.439 -0.1398  0.2015 -0.0593
 7853SOL    HW135021   3.998   1.573   1.353  0.5307  1.4909  0.6411
 7853SOL    HW235022   4.025   1.594   1.499 -0.6307  0.3171  0.2306
 7854SOL     OW35023   1.615   0.421   8.292 -0.1860 -0.3216  0.4427
 7854SOL    HW135024   1.590   0.456   8.377 -0.3825 -2.0487  1.0909
 7854SOL    HW235025   1.677   0.487   8.260 -0.0929 -0.6451 -0.0574
 7855SOL     OW35026   1.243   1.295   7.902 -0.6471 -0.4119  0.3467
 7855SOL    HW135027   1.228   1.201   7.912 -0.2455 -0.3121  1.8683
 7855SOL    HW235028   1.283   1.318   7.986 -0.6815 -0.2477  0.3176
 7856SOL     OW35029   0.385   3.196   2.305  0.2553 -0.5726 -0.3899
 7856SOL    HW135030   0.435   3.116   2.321 -0.5387 -1.0778 -0.4348
 7856SOL    HW235031   0.346   3.176   2.221 -0.5882  0.0050 -0.1365
 7857SOL     OW35032   4.287   4.652   6.950 -0.2644 -0.1294  0.0770
 7857SOL    HW135033   4.242   4.567   6.949  0.3753 -0.4773  0.3568
 7857SOL    HW235034   4.211   4.710   6.947 -0.4242 -0.3934 -1.1653
 7858SOL     OW35035   4.284   3.917   6.375 -0.3349  0.5544  0.5841
 7858SOL    HW135036   4.226   3.950   6.444  1.8886  3.3959  1.0934
 7858SOL    HW235037   4.329   3.998   6.352  0.0157  0.3808  0.6609
 7859SOL     OW35038   1.268   2.921   4.842  0.5062  0.3785 -0.0819
 7859SOL    HW135039   1.190   2.927   4.898 -2.2703 -1.3115 -3.7489
 7859SOL    HW235040   1.305   2.836   4.863  1.7881  1.4687  1.9836
 7860SOL     OW35041   1.782   1.810  11.798  0.0538  0.2460  0.6853
 7860SOL    HW135042   1.754   1.755  11.871 -1.0534 -1.1636 -0.8026
 7860SOL    HW235043   1.702   1.794  11.747  0.5412  2.5870 -0.8054
 7861SOL     OW35044   3.714   3.073  11.451 -0.1184 -0.2053 -0.1685
 7861SOL    HW135045   3.756   3.105  11.371 -0.8846  1.1176 -0.0551
 7861SOL    HW235046   3.770   3.004  11.485 -1.9363 -2.1627 -1.2021
 7862SOL     OW35047   1.520   3.644  16.879  0.1033  0.0635  0.8818
 7862SOL    HW135048   1.529   3.706  16.951  1.1598 -0.6805  1.3962
 7862SOL    HW235049   1.610   3.638  16.847 -0.0101 -2.7020  1.0351
 7863SOL     OW35050   0.833   3.090   8.273 -0.3981 -0.6897  0.3037
 7863SOL    HW135051   0.887   3.032   8.327 -0.8565 -2.7534 -1.4702
 7863SOL    HW235052   0.805   3.035   8.200  0.7214 -0.2608 -0.4405
 7864SOL     OW35053   2.090   4.086   5.413  0.1782  0.3316  0.3503
 7864SOL    HW135054   2.171   4.049   5.448  0.2859  0.6655  0.4438
 7864SOL    HW235055   2.051   4.113   5.496  1.7191 -1.4894  1.6632
 7865SOL     OW35056   0.311   2.896   9.109 -0.4401  0.2475 -0.4006
 7865SOL    HW135057   0.372   2.958   9.069 -0.0742  0.1529  0.0187
 7865SOL    HW235058   0.332   2.895   9.202 -2.2744  2.9774  0.0471
 7866SOL     OW35059   3.522   2.387  11.133  0.4793  0.5418 -0.5075
 7866SOL    HW135060   3.568   2.455  11.085  0.4418  0.3069 -0.8827
 7866SOL    HW235061   3.558   2.309  11.090  1.6874  0.9599 -0.2500
 7867SOL     OW35062   3.582   0.005   8.437  0.0905  0.2672  0.7009
 7867SOL    HW135063   3.562   0.069   8.369  2.4582 -2.7602 -2.8181
 7867SOL    HW235064   3.499   4.681   8.436  0.2030  0.0746  0.9039
 7868SOL     OW35065   2.291   3.580   2.495  0.3344 -0.0896 -0.2458
 7868SOL    HW135066   2.292   3.594   2.590 -1.4857  1.4618 -0.4567
 7868SOL    HW235067   2.341   3.657   2.468  1.8521 -0.3899  1.6999
 7869SOL     OW35068   0.027   4.228   7.233 -0.3165 -0.6189  0.2620
 7869SOL    HW135069   4.710   4.273   7.160 -0.2201 -3.1582 -1.3526
 7869SOL    HW235070   0.068   4.159   7.181 -0.4418 -1.1237  0.8249
 7870SOL     OW35071   4.076   2.671   7.085 -0.2554  0.1187  0.0910
 7870SOL    HW135072   4.078   2.767   7.083 -1.9660  0.1093 -1.9072
 7870SOL    HW235073   4.095   2.647   6.994 -0.6266  0.8672 -0.1862
 7871SOL     OW35074   3.463   2.946  14.943  0.2627  0.3594 -0.2116
 7871SOL    HW135075   3.458   2.981  14.854 -1.8191  0.8451  0.0914
 7871SOL    HW235076   3.558   2.949  14.949  0.3152 -3.6097  0.7194
 7872SOL     OW35077   2.070   1.087   9.545  0.1058 -0.5044 -0.1896
 7872SOL    HW135078   1.997   1.148   9.534  1.0685  0.4600 -1.0780
 7872SOL    HW235079   2.131   1.143   9.499  0.1479 -1.1069 -0.8621
 7873SOL     OW35080   0.733   1.899   8.233 -0.5863 -0.2006  0.2538
 7873SOL    HW135081   0.755   1.878   8.142 -1.4016  1.8452 -0.4158
 7873SOL    HW235082   0.704   1.990   8.225 -3.4233 -1.2475 -1.4934
 7874SOL     OW35083   1.591   0.421  15.957  0.3762 -0.0831  0.5920
 7874SOL    HW135084   1.523   0.373  16.004  1.0560 -0.1683  1.4964
 7874SOL    HW235085   1.607   0.353  15.892 -0.4797  0.5391 -0.2661
 7875SOL     OW35086   4.178   1.184   1.727 -0.2261 -0.0801 -0.0105
 7875SOL    HW135087   4.139   1.097   1.739 -0.2189 -0.4230 -2.4076
 7875SOL    HW235088   4.096   1.221   1.693  0.0881  1.4101  0.8700
 7876SOL     OW35089   0.573   0.751  17.302 -0.0025 -0.3620  0.0452
 7876SOL    HW135090   0.668   0.746  17.308 -0.0126 -1.2080 -0.3748
 7876SOL    HW235091   0.567   0.695  17.224 -0.4547  0.5385 -0.5602
 7877SOL     OW35092   0.955   3.655   1.431  0.3120  0.7009  0.3874
 7877SOL    HW135093   0.989   3.615   1.351  1.0319  1.3541  0.3609
 7877SOL    HW235094   0.867   3.617   1.431  0.1461  1.0498 -2.0469
 7878SOL     OW35095   2.880   2.481   4.909  0.1402  0.2293 -0.2419
 7878SOL    HW135096   2.819   2.415   4.943 -0.4646 -0.7238 -3.2097
 7878SOL    HW235097   2.888   2.538   4.986 -1.0537 -0.8434  0.6685
 7879SOL     OW35098   4.178   2.533   7.287  0.6024 -0.2070 -0.4455
 7879SOL    HW135099   4.163   2.559   7.196  1.8926  1.0372 -0.2976
 7879SOL    HW235100   4.104   2.474   7.296  1.6544 -1.5373 -0.3990
 7880SOL     OW35101   3.831   3.757   7.786  0.2440  0.1478  0.1168
 7880SOL    HW135102   3.830   3.690   7.717  2.4388  0.3142 -0.0535
 7880SOL    HW235103   3.809   3.836   7.737  0.8485  1.4034  1.9092
 7881SOL     OW35104   1.322   4.383   4.960 -0.0363 -0.0435 -0.3389
 7881SOL    HW135105   1.400   4.331   4.980 -0.9364 -1.1148  0.3735
 7881SOL    HW235106   1.253   4.342   5.013  1.3732  0.0704  1.5897
 7882SOL     OW35107   4.104   2.523   2.926 -0.3104 -0.4536  0.0065
 7882SOL    HW135108   4.198   2.513   2.914  0.0993 -1.4166  3.7942
 7882SOL    HW235109   4.085   2.552   2.837  1.8615 -0.2255 -0.3780
 7883SOL     OW35110   4.186   4.264   3.135 -0.0874 -0.3303 -0.1709
 7883SOL    HW135111   4.179   4.310   3.052 -2.4345 -0.5122 -0.0682
 7883SOL    HW235112   4.096   4.231   3.142 -0.1336 -0.2822 -0.5573
 7884SOL     OW35113   4.006   0.728   7.917  0.4002 -0.8110 -0.6265
 7884SOL    HW135114   4.013   0.728   7.821 -0.8803  0.1831 -0.7228
 7884SOL    HW235115   4.083   0.676   7.938 -0.4767 -2.3445 -1.2430
 7885SOL     OW35116   0.089   3.031   9.017 -0.2178  0.2710  0.3721
 7885SOL    HW135117   0.090   3.013   8.923  0.0635 -1.3875  0.6771
 7885SOL    HW235118   0.158   2.974   9.052  0.4462 -0.0778 -1.4782
 7886SOL     OW35119   0.461   3.609   2.318 -0.1159  0.3484 -0.1042
 7886SOL    HW135120   0.439   3.600   2.225 -1.7038  1.6426  0.1582
 7886SOL    HW235121   0.419   3.537   2.365  1.6934 -0.4698  0.2721
 7887SOL     OW35122   0.867   1.272   2.556 -0.4319  0.1433 -0.3711
 7887SOL    HW135123   0.943   1.220   2.532 -0.7503 -0.1638 -0.7060
 7887SOL    HW235124   0.902   1.360   2.541  1.1052 -0.3550  0.3639
 7888SOL     OW35125   0.156   0.167  15.629 -0.1479  0.3041  0.2709
 7888SOL    HW135126   0.237   0.116  15.636 -0.3486 -0.3689 -2.4321
 7888SOL    HW235127   0.193   0.255  15.625 -0.1826  0.3090  0.0632
 7889SOL     OW35128   2.271   3.911  17.344  0.7932 -0.3175  0.2410
 7889SOL    HW135129   2.346   3.852  17.335  1.6137  1.0530 -1.9390
 7889SOL    HW235130   2.262   3.919  17.249 -1.0325 -1.3535  0.3194
 7890SOL     OW35131   1.558   3.131   3.574 -0.3791  0.0159 -0.5087
 7890SOL    HW135132   1.648   3.133   3.543  0.6355  1.4622  2.5498
 7890SOL    HW235133   1.521   3.145   3.487  2.0543  2.9571 -1.0836
 7891SOL     OW35134   4.668   4.295   5.577  0.3575  0.3981 -0.1568
 7891SOL    HW135135   4.603   4.261   5.516 -2.5464  2.7217  1.6639
 7891SOL    HW235136   4.661   4.226   5.642 -1.1062 -0.3258 -1.0830
 7892SOL     OW35137   0.732   2.125   7.018  0.2992 -0.0994  0.2743
 7892SOL    HW135138   0.724   2.212   6.979  2.4575  0.4036  0.9392
 7892SOL    HW235139   0.721   2.146   7.110  0.9121  2.1882 -0.1527
 7893SOL     OW35140   4.469   2.893   5.834  0.3940 -0.8120  0.1978
 7893SOL    HW135141   4.426   2.926   5.755  3.0198 -2.2095 -1.8223
 7893SOL    HW235142   4.416   2.815   5.853 -1.1961 -0.3101 -2.1283
 7894SOL     OW35143   3.615   4.645  16.486 -0.0020 -0.7070  0.1383
 7894SOL    HW135144   3.670   4.598  16.423  0.3295 -1.1868  0.7884
 7894SOL    HW235145   3.559   4.699  16.432 -1.4935  0.0128  2.4124
 7895SOL     OW35146   4.145   1.996   8.397 -0.0328  0.1897  0.3462
 7895SOL    HW135147   4.065   1.954   8.429  0.8026  1.0036  3.5627
 7895SOL    HW235148   4.100   2.081   8.399  2.0334  1.2755  0.1907
 7896SOL     OW35149   4.157   1.138   5.866 -0.1439 -0.3373  0.6032
 7896SOL    HW135150   4.121   1.172   5.784  3.2417  0.6844 -0.4401
 7896SOL    HW235151   4.243   1.180   5.870  0.3763 -1.3358 -0.0943
 7897SOL     OW35152   0.418   0.925   9.334 -0.1744  0.8410 -0.0307
 7897SOL    HW135153   0.413   0.986   9.260  1.8856 -0.6224 -1.4150
 7897SOL    HW235154   0.469   0.852   9.299 -0.2898  0.7684 -0.0471
 7898SOL     OW35155   2.911   2.970   8.881 -0.2920  0.0506 -0.2993
 7898SOL    HW135156   2.944   3.017   8.805  1.4794  1.7391  1.4969
 7898SOL    HW235157   2.907   3.045   8.940  1.9511 -0.9604  1.1456
 7899SOL     OW35158   2.874   3.943   6.664  0.3966 -0.0525 -0.2518
 7899SOL    HW135159   2.836   3.935   6.577 -1.4116  2.6179  0.2909
 7899SOL    HW235160   2.795   3.966   6.714  0.8245 -0.4039  0.5879
 7900SOL     OW35161   4.215   1.178   7.080  0.1399  0.2770 -0.7951
 7900SOL    HW135162   4.232   1.227   7.000  0.1080 -0.7552 -1.4408
 7900SOL    HW235163   4.297   1.138   7.109 -0.8812 -0.3086  1.3181
 7901SOL     OW35164   2.812   3.309   1.337 -0.0767  0.4880  0.3909
 7901SOL    HW135165   2.784   3.219   1.353 -0.9965  0.6061 -0.5389
 7901SOL    HW235166   2.865   3.315   1.416 -0.5133 -1.1028  0.7943
 7902SOL     OW35167   0.797   4.579   5.916 -0.4984 -0.1168  0.0782
 7902SOL    HW135168   0.728   4.523   5.881 -0.2989  0.0705 -0.6275
 7902SOL    HW235169   0.870   4.517   5.909  0.9247  1.3993  1.5199
 7903SOL     OW35170   3.600   4.481   2.814 -0.1466 -0.6093  0.3350
 7903SOL    HW135171   3.645   4.398   2.799 -3.0076 -1.9738 -0.6107
 7903SOL    HW235172   3.624   4.487   2.907 -0.9918  0.5954  0.4812
 7904SOL     OW35173   2.214   2.311   6.209 -0.2298 -0.3239  0.2115
 7904SOL    HW135174   2.193   2.314   6.116  0.3396 -0.6640  0.0689
 7904SOL    HW235175   2.301   2.351   6.207 -0.4699  0.1480 -0.5741
 7905SOL     OW35176   1.772   4.655   8.557  0.6029  0.5470  0.1405
 7905SOL    HW135177   1.836   4.638   8.626 -1.4252 -1.9568  1.4002
 7905SOL    HW235178   1.820   4.627   8.479  0.7878 -2.0370  1.1855
 7906SOL     OW35179   3.814   3.293   2.052 -0.4224  0.1102 -1.0396
 7906SOL    HW135180   3.818   3.388   2.042 -1.1830  0.0172 -2.2251
 7906SOL    HW235181   3.859   3.271   1.971 -0.8624 -1.7637 -0.7790
 7907SOL     OW35182   2.855   2.707  17.402  0.3678 -0.6029 -0.3309
 7907SOL    HW135183   2.945   2.676  17.399  0.5933 -0.0758  1.1797
 7907SOL    HW235184   2.820   2.686  17.488 -1.9811  2.0857 -0.6424
 7908SOL     OW35185   2.995   0.268  14.727 -0.5575 -0.2752 -0.0641
 7908SOL    HW135186   2.985   0.184  14.771 -3.1884 -0.4113 -0.8700
 7908SOL    HW235187   2.973   0.241  14.638 -0.3648  2.5977 -0.9999
 7909SOL     OW35188   1.192   0.826   6.249  0.1537  0.3400  0.3776
 7909SOL    HW135189   1.105   0.823   6.209 -0.0717  1.9293  0.7676
 7909SOL    HW235190   1.234   0.891   6.194 -0.4139  1.8160  1.7096
 7910SOL     OW35191   3.626   1.251  10.182  0.5397 -0.0386 -0.1540
 7910SOL    HW135192   3.536   1.282  10.195 -0.3620 -2.9689  0.4386
 7910SOL    HW235193   3.610   1.157  10.178 -0.6948  0.1264  0.8554
 7911SOL     OW35194   3.533   4.412   5.028  0.2646  0.6613  0.4143
 7911SOL    HW135195   3.616   4.375   4.997  2.1302  3.6576  1.8480
 7911SOL    HW235196   3.504   4.340   5.084  2.0655  0.4263  1.0565
 7912SOL     OW35197   0.730   1.248   5.192 -0.2885 -0.6620 -0.4716
 7912SOL    HW135198   0.716   1.341   5.174 -2.6278 -1.0040 -0.3887
 7912SOL    HW235199   0.764   1.261   5.280 -1.0986 -2.2050  0.0556
 7913SOL     OW35200   3.424   1.847   4.519  0.6878  0.4300 -0.3908
 7913SOL    HW135201   3.383   1.923   4.478 -1.9016 -0.9100 -0.2987
 7913SOL    HW235202   3.464   1.872   4.602  2.2866 -1.6424 -0.5249
 7914SOL     OW35203   1.015   1.196  17.027  0.7052 -0.0405  0.4736
 7914SOL    HW135204   1.057   1.220  17.110 -0.3199  1.6534  0.5175
 7914SOL    HW235205   0.940   1.147  17.059  0.8872 -0.7114 -0.1427
 7915SOL     OW35206   0.237   4.325   4.088  0.4921  0.5474 -0.7681
 7915SOL    HW135207   0.182   4.285   4.020 -1.0441  2.2188 -0.5039
 7915SOL    HW235208   0.245   4.416   4.058  0.7964  0.7554 -0.0386
 7916SOL     OW35209   0.135   3.910  12.858  0.2725 -0.2194  1.1518
 7916SOL    HW135210   0.217   3.913  12.906  1.0305  2.6924 -0.3690
 7916SOL    HW235211   0.169   3.876  12.775 -1.4238  0.1250  0.3087
 7917SOL     OW35212   1.974   2.712   4.264 -0.0560  0.0192 -0.6860
 7917SOL    HW135213   2.034   2.689   4.335 -0.4909 -0.6878 -0.5487
 7917SOL    HW235214   1.982   2.635   4.208 -0.5034  0.4918 -1.4124
 7918SOL     OW35215   4.100   0.615  15.603 -0.1669  0.3809 -0.6777
 7918SOL    HW135216   4.179   0.577  15.563 -0.2791 -1.7469  1.1282
 7918SOL    HW235217   4.033   0.594  15.538 -1.5518 -0.8719  1.1557
 7919SOL     OW35218   2.722   3.453   4.150 -0.2065 -0.8156  0.1901
 7919SOL    HW135219   2.656   3.496   4.204 -2.4882  0.6298 -3.7790
 7919SOL    HW235220   2.752   3.523   4.094  0.7842 -0.6861  0.8864
 7920SOL     OW35221   2.089   0.705   4.595  0.3558 -0.3562  0.1306
 7920SOL    HW135222   2.137   0.685   4.675 -0.1517  1.8615  0.9885
 7920SOL    HW235223   2.080   0.799   4.610  1.2165 -0.3708  0.6797
 7921SOL     OW35224   1.677   0.976   1.507  0.5767  0.6414 -0.2805
 7921SOL    HW135225   1.656   0.988   1.414  1.4754  0.2325 -0.5258
 7921SOL    HW235226   1.589   0.988   1.544  0.7828 -0.1596  0.4577
 7922SOL     OW35227   0.651   0.006   3.147  0.3420  0.0175  0.3086
 7922SOL    HW135228   0.644   4.657   3.209 -3.7201  0.3410  0.2729
 7922SOL    HW235229   0.592   4.692   3.082  0.2799 -0.3456  0.5779
 7923SOL     OW35230   3.623   1.028   8.223  0.4839 -0.0819 -0.0184
 7923SOL    HW135231   3.640   1.073   8.140  0.9627  1.0436  0.6892
 7923SOL    HW235232   3.706   1.045   8.266  0.4005  1.5696 -0.4938
 7924SOL     OW35233   4.380   2.112  12.644  0.6697  0.7086  0.5608
 7924SOL    HW135234   4.429   2.062  12.579  2.4973  3.0667  0.1238
 7924SOL    HW235235   4.438   2.120  12.720  0.9373  1.1925  0.3022
 7925SOL     OW35236   0.175   0.979  10.837 -0.2725 -0.0136 -0.6934
 7925SOL    HW135237   0.264   0.961  10.806  0.3336 -0.1166  1.0790
 7925SOL    HW235238   0.138   0.892  10.847  1.7675 -0.9192 -0.9681
 7926SOL     OW35239   3.148   1.040   9.023  0.1556 -0.0398  0.0167
 7926SOL    HW135240   3.107   1.060   8.938  0.2821 -0.6642 -0.1941
 7926SOL    HW235241   3.194   1.122   9.042  2.1841 -1.5332  1.4860
 7927SOL     OW35242   3.963   3.999   8.669  0.0444  0.2006 -0.1940
 7927SOL    HW135243   4.028   3.929   8.665 -1.0803 -0.7781 -1.1631
 7927SOL    HW235244   3.953   4.018   8.762 -1.7772  0.6668 -0.4956
 7928SOL     OW35245   0.538   0.628   3.084  0.2955  0.6287 -0.0242
 7928SOL    HW135246   0.533   0.532   3.079 -0.4492  0.7800 -2.0474
 7928SOL    HW235247   0.514   0.647   3.174 -0.8230  0.2643 -0.2523
 7929SOL     OW35248   1.308   0.635  12.849 -0.0322  0.1555  0.5759
 7929SOL    HW135249   1.278   0.696  12.916 -2.1081  0.5564 -0.7223
 7929SOL    HW235250   1.393   0.670  12.820 -0.3741  0.6138  0.1302
 7930SOL     OW35251   4.444   1.322  15.242 -0.2901 -0.2042 -0.7084
 7930SOL    HW135252   4.531   1.306  15.204 -0.5445 -1.6958 -0.6828
 7930SOL    HW235253   4.420   1.407  15.205  0.0575  0.0754 -0.2815
 7931SOL     OW35254   2.747   0.564  15.802 -0.1726 -0.4701  0.6290
 7931SOL    HW135255   2.718   0.564  15.711 -0.1105  0.6318  0.6015
 7931SOL    HW235256   2.661   0.565  15.845 -0.1672 -0.8112  0.6458
 7932SOL     OW35257   1.789   3.490   8.797 -0.5257  0.4809 -0.2351
 7932SOL    HW135258   1.847   3.565   8.786  0.7838 -0.4559  0.3398
 7932SOL    HW235259   1.707   3.536   8.818  0.0739  2.0435 -1.3530
 7933SOL     OW35260   1.733   1.137   3.657 -0.5442 -0.4881  0.2197
 7933SOL    HW135261   1.654   1.092   3.628  0.2607 -0.0438 -2.6398
 7933SOL    HW235262   1.795   1.130   3.584  0.0329 -1.0826  0.7649
 7934SOL     OW35263   1.994   3.355  10.923 -0.1677 -0.0485  0.4010
 7934SOL    HW135264   2.001   3.293  10.996 -0.7626 -1.0631 -0.4042
 7934SOL    HW235265   1.903   3.386  10.926  0.1302  0.8953 -0.3673
 7935SOL     OW35266   1.931   1.800   1.240 -0.4106 -0.3631  0.2167
 7935SOL    HW135267   2.017   1.758   1.244 -0.1022  0.3298  0.9452
 7935SOL    HW235268   1.920   1.809   1.335  1.9790 -1.3662  0.5850
 7936SOL     OW35269   2.182   0.203  16.525 -0.2665  0.0193  0.4328
 7936SOL    HW135270   2.102   0.154  16.546  0.1063 -1.1276 -0.7974
 7936SOL    HW235271   2.188   0.176  16.434 -1.9450  0.2401  0.2580
 7937SOL     OW35272   2.949   0.563   7.328 -0.1846  0.1371  0.7054
 7937SOL    HW135273   2.956   0.646   7.280  4.7948 -1.9090 -2.0143
 7937SOL    HW235274   2.854   0.555   7.327 -0.1651 -0.0122  0.0826
 7938SOL     OW35275   4.294   0.595  17.282 -0.1006 -0.4219 -0.0203
 7938SOL    HW135276   4.352   0.522  17.261  1.4386  0.4339  1.2836
 7938SOL    HW235277   4.250   0.616  17.200  0.3306  0.8773  0.0835
 7939SOL     OW35278   3.390   0.674   4.684 -0.1993 -0.0362 -0.2968
 7939SOL    HW135279   3.418   0.707   4.769  0.0373  0.9064 -0.7420
 7939SOL    HW235280   3.381   0.747   4.623 -2.3002 -1.1953 -1.3837
 7940SOL     OW35281   4.387   0.669   6.011 -0.0617 -0.0225 -0.4573
 7940SOL    HW135282   4.364   0.607   6.080 -1.3993 -1.2806 -2.0309
 7940SOL    HW235283   4.365   0.625   5.929  1.2947 -0.6177 -0.5111
 7941SOL     OW35284   3.747   0.670   6.981 -0.1596  0.3882 -0.1914
 7941SOL    HW135285   3.720   0.762   6.988 -3.1715 -0.5461  0.6550
 7941SOL    HW235286   3.767   0.663   6.888 -1.5895  1.2594 -0.5630
 7942SOL     OW35287   4.599   3.035  13.827  0.3487  0.2141 -0.6783
 7942SOL    HW135288   4.622   3.043  13.735  1.9834  3.1047  0.0156
 7942SOL    HW235289   4.508   3.005  13.825  0.6309 -0.6368 -0.9976
 7943SOL     OW35290   0.700   1.297  13.244 -0.5785  0.0050 -0.5587
 7943SOL    HW135291   0.752   1.333  13.316  0.1479 -2.2786  0.0741
 7943SOL    HW235292   0.714   1.203  13.251 -1.1711  0.0759  1.6830
 7944SOL     OW35293   1.982   3.386  12.053 -0.0772  0.8345 -0.0234
 7944SOL    HW135294   1.964   3.437  11.974 -2.5621 -0.3027 -0.2010
 7944SOL    HW235295   2.075   3.402  12.065 -0.4390  3.0809 -0.2037
 7945SOL     OW35296   3.916   4.142  11.853 -0.1460 -0.3831  0.1677
 7945SOL    HW135297   3.979   4.071  11.854 -0.0418 -0.2891  0.3328
 7945SOL    HW235298   3.861   4.102  11.786  0.3865  1.8222 -1.5885
 7946SOL     OW35299   4.443   0.519  12.490 -0.4343 -0.4136  0.4199
 7946SOL    HW135300   4.382   0.508  12.563  0.4979 -3.3767  0.7393
 7946SOL    HW235301   4.531   0.527  12.527 -0.3641  0.0854  0.1475
 7947SOL     OW35302   2.083   0.040   4.516 -0.6785 -0.3937 -0.0584
 7947SOL    HW135303   2.147   4.709   4.561 -1.3275  0.0943  1.4872
 7947SOL    HW235304   2.140   0.089   4.458 -1.0931 -0.5612 -0.6146
 7948SOL     OW35305   3.798   4.702   3.247  0.2475  0.0856  0.4969
 7948SOL    HW135306   3.748   0.016   3.319 -0.2930 -0.1411  0.2422
 7948SOL    HW235307   3.865   4.659   3.299  1.2275 -0.7648 -1.4813
 7949SOL     OW35308   2.563   0.320   4.169  0.0209  0.2071 -0.2496
 7949SOL    HW135309   2.602   0.321   4.081 -1.0725  0.1342 -0.7375
 7949SOL    HW235310   2.622   0.255   4.207 -1.8476 -1.0496  0.4952
 7950SOL     OW35311   1.219   3.570   2.079  0.0070  0.1849 -0.8311
 7950SOL    HW135312   1.133   3.540   2.110 -0.4508  0.8060 -1.5005
 7950SOL    HW235313   1.223   3.541   1.988 -2.4940  0.7635 -1.1348
 7951SOL     OW35314   4.537   2.927   2.382  0.7672  0.7925  0.1600
 7951SOL    HW135315   4.453   2.922   2.336 -0.0825 -1.4148  1.9263
 7951SOL    HW235316   4.555   3.021   2.375 -1.0397  0.9185 -2.9246
 7952SOL     OW35317   0.166   4.281   1.164 -0.1464 -0.4050 -0.6903
 7952SOL    HW135318   0.241   4.334   1.139 -0.0464 -0.8246 -1.2754
 7952SOL    HW235319   0.120   4.287   1.080  1.2033 -0.0936 -1.3985
 7953SOL     OW35320   2.376   1.493   4.275  0.4372 -0.0581  0.0336
 7953SOL    HW135321   2.342   1.573   4.235  0.3916 -0.1427 -0.0986
 7953SOL    HW235322   2.395   1.456   4.189 -0.9442 -3.0754  1.0256
 7954SOL     OW35323   3.700   4.252   2.069  0.7675 -0.3887 -0.0149
 7954SOL    HW135324   3.673   4.328   2.018 -0.7156 -0.7239  0.2926
 7954SOL    HW235325   3.652   4.264   2.151  0.0594 -2.2866 -0.1580
 7955SOL     OW35326   3.318   3.005  15.738 -0.4070 -0.5470  0.1107
 7955SOL    HW135327   3.228   3.031  15.758 -0.1397  0.7894 -0.4519
 7955SOL    HW235328   3.316   2.920  15.782  0.4630 -1.3227 -1.3364
 7956SOL     OW35329   0.041   2.070   7.753  0.3063 -0.2051 -0.0695
 7956SOL    HW135330   4.692   2.122   7.784  0.0867 -0.1052 -0.7590
 7956SOL    HW235331   0.063   2.117   7.672 -0.2911 -1.0364 -0.7173
 7957SOL     OW35332   2.330   1.086   4.894 -0.1567 -0.5660 -0.1533
 7957SOL    HW135333   2.235   1.088   4.888 -0.1084 -1.2362 -1.0783
 7957SOL    HW235334   2.367   1.130   4.817  1.9622  0.1266  1.2483
 7958SOL     OW35335   2.814   2.855  11.298 -0.6111  0.4338  0.2068
 7958SOL    HW135336   2.793   2.906  11.377  0.7053  1.3803 -0.0454
 7958SOL    HW235337   2.763   2.776  11.313  0.4452 -0.2472  0.2256
 7959SOL     OW35338   1.829   1.595   5.939 -0.0183  0.4226  0.3332
 7959SOL    HW135339   1.923   1.610   5.942  0.0003  0.9640 -3.0042
 7959SOL    HW235340   1.834   1.505   5.971 -2.8977  0.3358  0.5574
 7960SOL     OW35341   0.181   2.161   1.880  0.1071  0.8370  0.0036
 7960SOL    HW135342   0.143   2.075   1.895  0.9479  0.1377 -1.8494
 7960SOL    HW235343   0.249   2.142   1.815  0.1319  0.2873  0.1931
 7961SOL     OW35344   1.364   1.782   2.729 -0.6365  0.2019 -0.5062
 7961SOL    HW135345   1.292   1.795   2.791  0.0494  0.0013  0.3302
 7961SOL    HW235346   1.325   1.796   2.643  0.1938  0.4868 -0.8386
 7962SOL     OW35347   0.008   1.694   6.510  0.1730  0.5515 -0.5180
 7962SOL    HW135348   0.026   1.606   6.543 -0.1432  1.5323  2.2488
 7962SOL    HW235349   0.037   1.675   6.421  0.9080 -0.0281 -0.1569
 7963SOL     OW35350   2.609   0.966   9.303 -0.1614 -0.4911  0.2641
 7963SOL    HW135351   2.636   0.963   9.394  0.4799 -0.7810  0.0617
 7963SOL    HW235352   2.624   0.879   9.266 -1.0423 -0.0968 -1.0507
 7964SOL     OW35353   2.371   4.470   6.505  0.0101 -0.2316  0.2375
 7964SOL    HW135354   2.364   4.565   6.518 -0.7754 -0.1671 -0.6339
 7964SOL    HW235355   2.457   4.470   6.463 -1.0784 -2.1260 -1.9681
 7965SOL     OW35356   0.307   3.750   5.219  0.6434  0.2455 -0.2741
 7965SOL    HW135357   0.224   3.781   5.255 -0.3867  0.2039 -2.6206
 7965SOL    HW235358   0.269   3.667   5.192 -0.6674  0.7175  0.1542
 7966SOL     OW35359   2.524   3.400   8.319 -0.2381  0.3878  0.2346
 7966SOL    HW135360   2.572   3.318   8.312 -3.5343 -1.5062 -0.2328
 7966SOL    HW235361   2.571   3.451   8.253 -1.5601  1.1599 -0.1356
 7967SOL     OW35362   3.245   0.683   6.354  0.2053  0.4475 -0.3054
 7967SOL    HW135363   3.240   0.778   6.369 -0.2542  0.8074 -2.7881
 7967SOL    HW235364   3.204   0.655   6.436  2.5808 -0.7170  0.4870
 7968SOL     OW35365   2.479   2.919  11.236  0.3483  0.0944 -0.2674
 7968SOL    HW135366   2.389   2.952  11.240  0.2961  0.1448 -1.6379
 7968SOL    HW235367   2.532   2.989  11.274 -0.9003  0.1378  1.4023
 7969SOL     OW35368   0.628   1.166   2.620 -0.0326  0.5090  0.1613
 7969SOL    HW135369   0.646   1.080   2.656 -1.9597 -0.2935 -0.7840
 7969SOL    HW235370   0.717   1.193   2.599  0.2769 -1.8488 -1.5656
 7970SOL     OW35371   1.367   3.783   1.238 -0.2238 -0.1029  0.0720
 7970SOL    HW135372   1.363   3.878   1.233  1.8111 -0.0852 -1.1968
 7970SOL    HW235373   1.379   3.754   1.147 -3.5302 -2.6495  0.4416
 7971SOL     OW35374   1.070   0.011   3.267 -0.0952 -0.1116  0.2165
 7971SOL    HW135375   1.112   0.076   3.323 -1.9000  2.1079 -1.0192
 7971SOL    HW235376   0.978   0.034   3.255 -0.0707  0.5044  1.1859
 7972SOL     OW35377   3.863   0.097   8.104 -0.1615  0.4272 -0.2561
 7972SOL    HW135378   3.830   0.183   8.130  1.9300  0.4397  2.3804
 7972SOL    HW235379   3.838   0.096   8.011  0.0782  0.9962 -0.3265
 7973SOL     OW35380   2.194   1.214   9.304 -0.2105 -0.0585 -0.1527
 7973SOL    HW135381   2.202   1.280   9.372 -0.1141 -0.0070 -0.2147
 7973SOL    HW235382   2.108   1.237   9.267  0.4452  0.8652 -1.0995
 7974SOL     OW35383   3.311   2.297   4.626  0.1149 -0.3423  0.2850
 7974SOL    HW135384   3.351   2.384   4.619  0.7608 -0.5958  0.8162
 7974SOL    HW235385   3.221   2.321   4.607 -0.5189 -2.7181  0.2966
 7975SOL     OW35386   4.694   3.149   6.081 -0.3381 -0.3167  0.0579
 7975SOL    HW135387   4.714   3.215   6.014  3.0670 -0.4073  0.9884
 7975SOL    HW235388   4.650   3.203   6.147  0.3049  1.3604 -0.8677
 7976SOL     OW35389   0.754   1.355   0.998  0.2974  0.0498  0.4410
 7976SOL    HW135390   0.746   1.384   1.088 -0.2644 -1.1449  0.7705
 7976SOL    HW235391   0.783   1.264   1.005 -0.3489 -0.2567 -0.7982
 7977SOL     OW35392   0.764   0.221  15.241  0.0868 -0.3029  0.2742
 7977SOL    HW135393   0.854   0.215  15.211  0.4528 -2.1090  1.7242
 7977SOL    HW235394   0.785   0.247  15.331  1.2469 -1.7777  0.4225
 7978SOL     OW35395   4.388   0.292   1.276 -0.3227 -0.4536 -0.1345
 7978SOL    HW135396   4.364   0.225   1.211  2.2002  0.2605 -1.8135
 7978SOL    HW235397   4.309   0.345   1.285  0.2663  0.2547  0.8394
 7979SOL     OW35398   1.252   3.840   0.780 -0.1556 -0.2591  0.3173
 7979SOL    HW135399   1.194   3.772   0.815  0.3218  0.5310  2.6258
 7979SOL    HW235400   1.314   3.800   0.719  1.7743  0.8333  1.5556
 7980SOL     OW35401   2.009   2.977   8.502  0.2745 -0.2961 -0.6724
 7980SOL    HW135402   2.061   3.018   8.571  0.2339  1.0620 -1.4437
 7980SOL    HW235403   1.929   2.947   8.544  1.5031 -0.8298  1.2788
 7981SOL     OW35404   0.718   4.202   4.719  0.2644  0.0937 -0.3759
 7981SOL    HW135405   0.813   4.194   4.704  0.4396 -0.5760  1.1198
 7981SOL    HW235406   0.702   4.131   4.657  1.2113 -1.4519  1.1351
 7982SOL     OW35407   3.178   3.623  12.483 -0.0534 -0.3077 -0.4898
 7982SOL    HW135408   3.084   3.634  12.500 -0.2015 -0.2740 -1.3164
 7982SOL    HW235409   3.196   3.530  12.499  1.3087  0.0424 -0.0005
 7983SOL     OW35410   3.700   0.276   5.129 -0.1231 -0.4394 -0.2777
 7983SOL    HW135411   3.701   0.321   5.214 -0.3360  0.0831 -0.5527
 7983SOL    HW235412   3.733   0.189   5.149 -0.7469 -0.4713  0.5957
 7984SOL     OW35413   1.581   4.614   1.236 -0.0771 -0.0619 -0.2364
 7984SOL    HW135414   1.632   4.664   1.300 -1.3895  0.7239  0.2027
 7984SOL    HW235415   1.548   4.542   1.289  1.5841 -0.3531  0.3849
 7985SOL     OW35416   3.551   0.968   8.929  0.2826  0.0393 -0.1597
 7985SOL    HW135417   3.589   1.047   8.966  0.2457  0.8897 -1.9259
 7985SOL    HW235418   3.469   0.981   8.976  1.6989  1.3423  1.9239
 7986SOL     OW35419   3.183   0.838   8.304  0.0320  0.1250 -0.5274
 7986SOL    HW135420   3.103   0.868   8.345  0.4624  1.8206 -0.9349
 7986SOL    HW235421   3.245   0.910   8.321 -1.1686  0.8404  0.7822
 7987SOL     OW35422   4.426   0.834   1.967  0.1169 -0.4350  0.3372
 7987SOL    HW135423   4.401   0.766   2.029  0.2338  0.5431  1.4655
 7987SOL    HW235424   4.353   0.896   1.972  0.1674 -0.5338  2.6353
 7988SOL     OW35425   1.490   4.162  10.405  0.4468  0.1702 -0.4033
 7988SOL    HW135426   1.451   4.199  10.326  1.7777 -0.0463 -1.1654
 7988SOL    HW235427   1.533   4.081  10.376 -1.9834 -1.0810 -0.5933
 7989SOL     OW35428   3.578   1.488   5.575 -0.3506 -0.3856  0.4838
 7989SOL    HW135429   3.506   1.479   5.637  0.0041 -2.7463  0.5431
 7989SOL    HW235430   3.584   1.403   5.531  0.1161  0.5481 -1.2510
 7990SOL     OW35431   3.012   0.974   6.075  0.3190  0.4031 -0.3371
 7990SOL    HW135432   2.930   1.014   6.104  0.2773  1.7812 -2.3109
 7990SOL    HW235433   3.076   1.042   6.099  1.8139 -1.4991  1.0822
 7991SOL     OW35434   1.038   2.159  16.322 -0.0222  0.8613 -0.2234
 7991SOL    HW135435   1.048   2.065  16.340 -1.3136  0.8399  0.3934
 7991SOL    HW235436   1.077   2.165  16.235  0.0292 -2.5917 -0.4465
 7992SOL     OW35437   2.203   3.618   6.155  0.3926 -0.2967 -0.0013
 7992SOL    HW135438   2.167   3.682   6.093 -0.2334 -0.3944  0.2540
 7992SOL    HW235439   2.214   3.677   6.229  1.1056  2.7614 -2.5620
 7993SOL     OW35440   2.560   3.741   5.394  0.3138 -0.2480  0.0004
 7993SOL    HW135441   2.628   3.762   5.330 -0.8603  1.5439 -0.7008
 7993SOL    HW235442   2.613   3.688   5.452 -0.4254 -1.2307 -0.2255
 7994SOL     OW35443   2.437   1.299   6.816  0.0807  0.3062  0.2492
 7994SOL    HW135444   2.465   1.231   6.877  0.6584 -0.1232 -0.4998
 7994SOL    HW235445   2.490   1.374   6.843  0.9054 -0.3775  0.4992
 7995SOL     OW35446   3.340   2.400  17.176 -0.0721  0.3546 -0.2621
 7995SOL    HW135447   3.304   2.389  17.264 -1.1813 -1.0884 -0.8977
 7995SOL    HW235448   3.278   2.454  17.127 -1.1355  0.4799  1.2206
 7996SOL     OW35449   1.879   2.580   8.967  0.0041 -0.0260  0.4911
 7996SOL    HW135450   1.830   2.657   8.997  2.4268  1.5333  0.3906
 7996SOL    HW235451   1.965   2.598   9.003  0.6092  0.1264 -1.0437
 7997SOL     OW35452   4.548   0.979   7.565 -0.3328 -1.0907 -0.7772
 7997SOL    HW135453   4.550   0.960   7.471 -0.9316 -0.0003 -1.0137
 7997SOL    HW235454   4.638   0.995   7.594 -0.6378  0.2462 -0.5746
 7998SOL     OW35455   0.738   4.316   8.823  0.6523 -0.2642  0.2359
 7998SOL    HW135456   0.731   4.411   8.815  1.6299 -0.1992  0.1152
 7998SOL    HW235457   0.822   4.310   8.868 -0.2850 -2.8570  1.6632
 7999SOL     OW35458   3.032   2.940  12.328  0.0019  0.2463  0.0823
 7999SOL    HW135459   3.054   2.934  12.235 -0.8675  2.2454 -0.2468
 7999SOL    HW235460   2.997   2.851  12.339  2.1529 -0.5258  0.5652
 8000SOL     OW35461   1.861   0.671   9.581  0.3999  0.3678  0.7624
 8000SOL    HW135462   1.792   0.725   9.621  1.2138  2.4350 -0.6020
 8000SOL    HW235463   1.815   0.589   9.598  0.9821 -0.2441 -0.6325
 8001SOL     OW35464   0.243   1.980   5.429 -0.2405 -0.0467 -0.1601
 8001SOL    HW135465   0.165   1.968   5.375  1.2532  0.4782 -2.3979
 8001SOL    HW235466   0.257   2.073   5.411  1.4341  0.1155  1.9455
 8002SOL     OW35467   2.296   3.909   3.242 -0.0415  0.1037 -0.1717
 8002SOL    HW135468   2.303   3.853   3.319  0.3757 -0.3713 -0.5550
 8002SOL    HW235469   2.387   3.940   3.240  0.4752 -1.2020  4.0246
 8003SOL     OW35470   3.816   1.760   3.980 -0.2767  0.2331  0.5143
 8003SOL    HW135471   3.879   1.688   3.995  0.4465  0.3742 -1.8890
 8003SOL    HW235472   3.790   1.784   4.069 -1.8951  3.1899 -0.7816
 8004SOL     OW35473   0.510   2.953   4.489 -0.4235 -0.6884  0.4039
 8004SOL    HW135474   0.452   2.975   4.417 -0.5132  1.7211  1.2282
 8004SOL    HW235475   0.599   2.984   4.469  0.4630 -4.2046 -1.1917
 8005SOL     OW35476   1.219   0.504   5.768  0.2080  0.2604 -0.6298
 8005SOL    HW135477   1.175   0.566   5.826  1.0724 -0.3743  0.7017
 8005SOL    HW235478   1.207   0.545   5.682  0.0352 -1.7064 -1.5515
 8006SOL     OW35479   1.827   3.942   7.786  0.2193 -0.2196  0.5068
 8006SOL    HW135480   1.815   3.853   7.752 -2.1965  0.0953  0.5542
 8006SOL    HW235481   1.769   3.928   7.861 -0.7631  0.4780 -0.1310
 8007SOL     OW35482   2.998   1.246   8.193  0.3965  0.1328  0.1065
 8007SOL    HW135483   3.031   1.303   8.262 -0.5406 -0.6032  1.1617
 8007SOL    HW235484   2.909   1.245   8.228  0.6142  2.9140  0.7839
 8008SOL     OW35485   1.643   4.366   4.676 -0.8333  0.5126  0.5549
 8008SOL    HW135486   1.709   4.411   4.623 -2.1608  1.0319 -0.6905
 8008SOL    HW235487   1.625   4.446   4.725 -1.1341 -0.6420  2.3090
 8009SOL     OW35488   3.624   3.575   5.592 -0.1291 -0.3009 -0.1639
 8009SOL    HW135489   3.717   3.567   5.614  0.4989  0.7439 -2.5311
 8009SOL    HW235490   3.628   3.617   5.507  3.8164  1.0633  0.6902
 8010SOL     OW35491   1.884   1.243   1.876  0.9828  0.3276 -0.1781
 8010SOL    HW135492   1.832   1.171   1.842  0.8834  0.3875 -0.1532
 8010SOL    HW235493   1.896   1.213   1.966 -1.2224 -0.6026 -0.2109
 8011SOL     OW35494   1.212   2.538   2.399  0.0039  0.1214  0.2010
 8011SOL    HW135495   1.166   2.599   2.456  2.1028  1.5152  0.4095
 8011SOL    HW235496   1.230   2.588   2.319 -2.2778  1.8760  0.7841
 8012SOL     OW35497   2.185   3.939   9.778 -0.0819 -0.0690 -0.3197
 8012SOL    HW135498   2.156   3.867   9.722  0.1509 -2.2953  2.4238
 8012SOL    HW235499   2.164   3.911   9.867  2.1000 -1.4657 -0.2503
 8013SOL     OW35500   3.373   0.447   3.231  0.0626  0.0476 -0.0601
 8013SOL    HW135501   3.429   0.373   3.205 -0.6381 -0.0670 -1.2237
 8013SOL    HW235502   3.344   0.483   3.147 -0.2064  1.7153  0.7547
 8014SOL     OW35503   2.659   2.089   0.053 -0.1443  0.4005  0.6010
 8014SOL    HW135504   2.672   2.080   0.148  1.0699  3.4511  0.7290
 8014SOL    HW235505   2.675   2.183   0.048 -1.0141  0.5561  0.7616
 8015SOL     OW35506   0.117   1.073   5.279 -0.1820  0.2701  0.2316
 8015SOL    HW135507   0.067   1.153   5.296 -0.9665 -0.0843 -0.4266
 8015SOL    HW235508   0.069   1.043   5.202 -0.4305 -2.0372  1.2858
 8016SOL     OW35509   3.281   4.524   1.852  0.0989  0.0604 -0.3563
 8016SOL    HW135510   3.278   4.456   1.919 -0.9845  0.4883  0.0301
 8016SOL    HW235511   3.314   4.478   1.774 -0.3798 -0.1601 -0.4270
 8017SOL     OW35512   2.524   3.214   5.544  0.0043 -0.2008 -0.0605
 8017SOL    HW135513   2.549   3.138   5.597 -0.0264 -0.3680 -0.2829
 8017SOL    HW235514   2.572   3.205   5.461 -0.9103 -1.4663 -0.4583
 8018SOL     OW35515   2.936   1.858   1.222  0.4480  0.0200  0.0830
 8018SOL    HW135516   2.844   1.883   1.229 -0.1122 -1.8158 -0.8335
 8018SOL    HW235517   2.975   1.937   1.183 -0.9617 -0.0364 -1.4175
 8019SOL     OW35518   2.204   0.104   0.791 -0.0002  0.1905  0.6177
 8019SOL    HW135519   2.223   0.041   0.860 -0.1661  1.0749  1.4674
 8019SOL    HW235520   2.109   0.117   0.794 -0.0193 -0.2164  1.5595
 8020SOL     OW35521   1.420   2.480   4.666 -0.4248 -0.1660  0.3426
 8020SOL    HW135522   1.488   2.483   4.732  1.2773 -3.4939 -1.2459
 8020SOL    HW235523   1.348   2.530   4.704 -1.4231 -1.8884  0.7437
 8021SOL     OW35524   0.275   1.520   5.347 -0.2246  0.1830  0.2871
 8021SOL    HW135525   0.197   1.573   5.328  0.3068  1.2038  0.9664
 8021SOL    HW235526   0.341   1.587   5.361  1.0822 -0.9586 -0.4432
 8022SOL     OW35527   2.035   3.852   2.693 -0.2462 -0.1731 -0.8329
 8022SOL    HW135528   2.126   3.851   2.725 -1.0732 -0.5161  1.5468
 8022SOL    HW235529   2.039   3.941   2.659 -0.0662  0.3391  0.5033
 8023SOL     OW35530   2.010   0.684   1.079 -0.0057  0.8221 -0.0658
 8023SOL    HW135531   1.989   0.759   1.135 -1.9758  0.5012 -0.3716
 8023SOL    HW235532   2.103   0.696   1.062 -0.6332  1.5381 -2.9640
 8024SOL     OW35533   0.654   1.465   3.850  0.2679  0.3655  0.0308
 8024SOL    HW135534   0.612   1.494   3.769  0.8833 -1.0776 -0.8142
 8024SOL    HW235535   0.721   1.403   3.821  0.4573  0.4091  0.3745
 8025SOL     OW35536   0.295   2.151  10.632 -0.6522 -0.1969 -0.3983
 8025SOL    HW135537   0.337   2.066  10.620  2.2326  0.9735  1.4525
 8025SOL    HW235538   0.301   2.197  10.548 -0.0367 -0.3381 -0.4289
 8026SOL     OW35539   1.298   3.986   9.461  0.5934 -0.3682 -0.2833
 8026SOL    HW135540   1.300   4.040   9.382 -0.3506  1.2202  0.7857
 8026SOL    HW235541   1.392   3.971   9.474  0.7315  1.3102  0.6432
 8027SOL     OW35542   0.194   2.106   3.244 -0.4219  0.3960  0.0821
 8027SOL    HW135543   0.267   2.156   3.208 -0.4377  1.2787  1.3102
 8027SOL    HW235544   0.184   2.140   3.333  0.9028 -2.4784  1.3274
 8028SOL     OW35545   0.138   2.915   8.517  0.8316  0.0630 -0.4183
 8028SOL    HW135546   0.096   2.877   8.440  0.8073  3.7762 -2.2099
 8028SOL    HW235547   0.174   2.995   8.479 -1.3631  2.4450  2.4996
 8029SOL     OW35548   3.736   0.789  14.168 -0.1712  0.7004 -0.4296
 8029SOL    HW135549   3.678   0.763  14.096  1.1582 -3.2791 -0.1013
 8029SOL    HW235550   3.822   0.780  14.127  0.5293 -1.3404  1.4696
 8030SOL     OW35551   2.734   0.620   6.739 -0.1146 -0.2345 -0.1612
 8030SOL    HW135552   2.714   0.649   6.651  1.4460  0.0549 -0.4283
 8030SOL    HW235553   2.648   0.610   6.778  0.9726 -1.6248  1.9219
 8031SOL     OW35554   1.972   0.140  17.241 -0.1680  0.1873  0.2904
 8031SOL    HW135555   2.052   0.128  17.292 -0.8482 -0.8313  1.1076
 8031SOL    HW235556   1.905   0.144  17.310 -0.5681 -1.1821 -0.0268
 8032SOL     OW35557   1.358   2.739   6.795 -0.1243 -0.1885  0.2931
 8032SOL    HW135558   1.371   2.833   6.804  2.1645 -0.4318 -0.6307
 8032SOL    HW235559   1.265   2.730   6.814 -0.2442  1.5502  0.5123
 8033SOL     OW35560   3.969   0.285   3.531 -0.0411 -0.2009 -0.3128
 8033SOL    HW135561   4.029   0.330   3.591 -2.6420 -1.8962  3.5296
 8033SOL    HW235562   3.908   0.236   3.587  0.4624 -0.4514  0.0222
 8034SOL     OW35563   3.362   2.030   6.394  0.7551 -0.6586 -0.3589
 8034SOL    HW135564   3.431   2.096   6.394 -2.3764  2.5222  2.3224
 8034SOL    HW235565   3.299   2.101   6.396  0.8458 -0.6082  0.8248
 8035SOL     OW35566   0.855   0.618   1.543 -0.3627  0.1848  0.2104
 8035SOL    HW135567   0.833   0.711   1.532  0.1343  0.3587  0.7046
 8035SOL    HW235568   0.771   0.575   1.527 -0.0166  0.4608 -2.3691
 8036SOL     OW35569   4.593   4.372  11.174 -0.1765  0.1423 -0.1535
 8036SOL    HW135570   4.606   4.358  11.081  0.9070  1.2274 -0.1673
 8036SOL    HW235571   4.676   4.402  11.212 -0.1594  0.2043 -0.2401
 8037SOL     OW35572   0.977   2.982  14.688 -0.1454  0.5760  0.2302
 8037SOL    HW135573   1.007   3.015  14.604  0.4988  1.9623  1.0021
 8037SOL    HW235574   1.047   3.012  14.745  0.0896 -0.6535  0.5859
 8038SOL     OW35575   3.617   3.898   4.734 -0.4315  0.5485  0.3164
 8038SOL    HW135576   3.542   3.850   4.699  1.4723 -1.8206 -0.5300
 8038SOL    HW235577   3.624   3.979   4.684  1.1263 -0.8609 -1.7321
 8039SOL     OW35578   0.797   4.340   2.960 -0.3348 -0.4292 -0.3742
 8039SOL    HW135579   0.890   4.318   2.971 -0.1858  0.7200  0.6134
 8039SOL    HW235580   0.767   4.320   3.049  0.5294  2.3299  0.5070
 8040SOL     OW35581   3.561   3.815   7.836  0.0503  0.1294 -0.1897
 8040SOL    HW135582   3.651   3.814   7.867 -0.3772  2.0739  1.1312
 8040SOL    HW235583   3.529   3.874   7.904 -0.4308 -0.0426 -0.2645
 8041SOL     OW35584   4.244   1.481  14.792  0.3951  0.5646  0.1447
 8041SOL    HW135585   4.243   1.572  14.762  3.1460  0.7814  0.6919
 8041SOL    HW235586   4.338   1.464  14.790  0.2551  0.2984 -2.7865
 8042SOL     OW35587   0.519   2.710   2.474  0.2993  0.3284  0.2711
 8042SOL    HW135588   0.563   2.698   2.390  1.9505 -1.1989  1.3577
 8042SOL    HW235589   0.466   2.785   2.449 -1.3999 -0.9211  0.1329
 8043SOL     OW35590   3.966   0.344   6.934  0.4137  0.2458 -0.2155
 8043SOL    HW135591   3.878   0.343   6.972  1.2033  0.7125  1.5801
 8043SOL    HW235592   3.986   0.251   6.927  0.3543  0.2379 -0.2837
 8044SOL     OW35593   0.179   2.728   8.738 -0.0704  0.2049 -0.0806
 8044SOL    HW135594   0.261   2.771   8.761 -0.3195  1.0207 -0.7139
 8044SOL    HW235595   0.170   2.758   8.647  1.1205 -1.9594 -0.9090
 8045SOL     OW35596   4.459   3.179   2.590  0.2347  0.3980 -0.7316
 8045SOL    HW135597   4.481   3.188   2.497  1.0735 -1.2543 -0.6992
 8045SOL    HW235598   4.433   3.266   2.618  0.1933  0.2589 -0.3367
 8046SOL     OW35599   2.778   1.492  17.108  0.2093 -0.3766 -0.2425
 8046SOL    HW135600   2.760   1.511  17.016  1.5176  0.8869 -0.2516
 8046SOL    HW235601   2.832   1.568  17.131 -2.4269  0.4567  3.0567
 8047SOL     OW35602   2.344   3.178  12.449  0.1831 -0.0531 -0.4043
 8047SOL    HW135603   2.290   3.143  12.520  0.6181 -0.5667 -0.3220
 8047SOL    HW235604   2.426   3.130  12.436  0.0815 -0.0125 -1.1591
 8048SOL     OW35605   4.341   3.704   4.907  0.2463 -0.4404  0.2749
 8048SOL    HW135606   4.251   3.675   4.890 -0.0925  0.5093  0.4441
 8048SOL    HW235607   4.325   3.734   4.996 -1.7541  0.3675 -0.3542
 8049SOL     OW35608   3.404   3.738   7.575  0.9690  0.5103 -0.1684
 8049SOL    HW135609   3.335   3.804   7.579  2.7113  2.3666 -0.4217
 8049SOL    HW235610   3.442   3.746   7.663  3.4694 -2.1524 -1.0203
 8050SOL     OW35611   4.045   4.183   7.182  0.4002  0.6145  0.0538
 8050SOL    HW135612   4.010   4.198   7.270 -1.2479  1.5333 -0.7540
 8050SOL    HW235613   3.994   4.252   7.139  0.3197  1.1551  1.0052
 8051SOL     OW35614   2.591   2.234   6.860  0.0388  0.4325 -0.5275
 8051SOL    HW135615   2.591   2.264   6.769  0.0564  2.0872  0.0121
 8051SOL    HW235616   2.608   2.321   6.898  0.7565  1.1388 -2.4686
 8052SOL     OW35617   0.816   2.195   7.833 -0.6026  0.1631  0.7054
 8052SOL    HW135618   0.763   2.122   7.864 -1.5586  0.4139 -0.3487
 8052SOL    HW235619   0.898   2.174   7.880 -1.1027 -0.0892  1.4739
 8053SOL     OW35620   0.439   3.893  13.473  0.0582 -0.3422 -0.1346
 8053SOL    HW135621   0.404   3.818  13.426 -0.5263  0.4580 -0.9883
 8053SOL    HW235622   0.494   3.855  13.541  0.0822 -2.1892 -1.2046
 8054SOL     OW35623   1.732   2.228   5.362  0.0206  0.2413  0.3931
 8054SOL    HW135624   1.711   2.252   5.453  0.6156 -2.2685  1.1796
 8054SOL    HW235625   1.752   2.135   5.372 -0.4769 -0.0856 -1.6622
 8055SOL     OW35626   2.577   2.762   5.857 -0.0479 -0.2102 -0.1362
 8055SOL    HW135627   2.668   2.758   5.831 -0.3441 -0.1307 -1.1779
 8055SOL    HW235628   2.537   2.702   5.794 -0.3304  2.4212 -2.4817
 8056SOL     OW35629   4.226   4.240  12.830 -0.3447  0.2065 -0.2687
 8056SOL    HW135630   4.301   4.299  12.838  0.6211 -0.9289 -0.8659
 8056SOL    HW235631   4.150   4.292  12.856 -1.1171  0.1847 -2.4710
 8057SOL     OW35632   4.616   3.455   5.983 -0.2332 -0.3980  0.4033
 8057SOL    HW135633   4.540   3.513   5.983 -2.1018 -2.8630 -1.4441
 8057SOL    HW235634   4.652   3.476   6.069  0.3664 -0.6767  0.2211
 8058SOL     OW35635   1.634   0.283   2.540 -0.0202 -0.2356 -0.2474
 8058SOL    HW135636   1.674   0.244   2.618  0.4654 -0.9335 -0.8568
 8058SOL    HW235637   1.612   0.213   2.480  0.1373  0.7974 -1.5011
 8059SOL     OW35638   3.295   1.731   8.640  0.3845  0.0903 -0.0133
 8059SOL    HW135639   3.297   1.770   8.728 -1.0728  0.1731 -0.0184
 8059SOL    HW235640   3.231   1.783   8.592 -1.2876 -1.3233  0.6951
 8060SOL     OW35641   1.837   3.464   5.463 -0.0875  0.0024  0.1165
 8060SOL    HW135642   1.878   3.389   5.420  0.4928 -0.8134  2.1111
 8060SOL    HW235643   1.759   3.476   5.408  1.6084  3.0070 -1.6616
 8061SOL     OW35644   4.551   3.803   2.452  0.0826 -0.6586  0.1681
 8061SOL    HW135645   4.528   3.718   2.488 -2.6230 -0.4096 -1.0036
 8061SOL    HW235646   4.623   3.834   2.507 -0.4741  0.3711  0.3275
 8062SOL     OW35647   1.783   1.759   7.107  0.0032 -0.1116  0.4277
 8062SOL    HW135648   1.804   1.821   7.177  4.0173  0.5171 -1.3627
 8062SOL    HW235649   1.860   1.779   7.053 -0.9479 -1.2587 -1.3389
 8063SOL     OW35650   0.292   2.436   5.749  0.1000  0.4378 -0.0106
 8063SOL    HW135651   0.341   2.492   5.810 -1.7388  2.0127  0.0388
 8063SOL    HW235652   0.314   2.355   5.794  0.7908  1.6927  1.9510
 8064SOL     OW35653   0.388   4.491   8.169 -0.0720  0.1385 -0.4053
 8064SOL    HW135654   0.443   4.430   8.218 -0.3401  0.9862  0.9235
 8064SOL    HW235655   0.439   4.498   8.088 -1.2502 -0.6421 -1.2221
 8065SOL     OW35656   4.043   4.527   8.086 -0.0138 -0.5330  0.4547
 8065SOL    HW135657   3.973   4.537   8.022  0.0915  1.1210  0.5992
 8065SOL    HW235658   4.098   4.462   8.041  0.7635 -1.2403  2.4036
 8066SOL     OW35659   1.567   4.389   0.417 -0.1203 -0.3275  0.3788
 8066SOL    HW135660   1.575   4.371   0.323 -1.1044  0.2187  0.1889
 8066SOL    HW235661   1.561   4.299   0.447 -1.0499 -0.2642  0.3855
 8067SOL     OW35662   3.204   3.719   6.049 -0.2644 -0.1486 -0.8057
 8067SOL    HW135663   3.219   3.721   5.955  0.0635 -0.1150 -0.7541
 8067SOL    HW235664   3.184   3.810   6.069  1.8221  0.0567  0.3599
 8068SOL     OW35665   4.276   1.765   8.388 -0.1090 -0.7443  0.2848
 8068SOL    HW135666   4.241   1.851   8.409  1.5254  0.1816 -0.8285
 8068SOL    HW235667   4.361   1.778   8.430  0.4196  0.7218 -1.2750
 8069SOL     OW35668   0.263   3.402   9.107  0.3052 -0.7243 -0.5583
 8069SOL    HW135669   0.236   3.441   9.190  3.2173 -1.2908  0.6625
 8069SOL    HW235670   0.323   3.331   9.128  0.4122 -0.3469  0.4400
 8070SOL     OW35671   1.405   0.200   7.793 -0.3839  0.1087 -0.0905
 8070SOL    HW135672   1.494   0.235   7.783  1.3001 -4.2222 -0.0642
 8070SOL    HW235673   1.382   0.226   7.882 -1.3960  3.1619 -1.2199
 8071SOL     OW35674   3.305   0.946   4.133  1.1336 -0.2606 -0.0577
 8071SOL    HW135675   3.247   1.022   4.134 -1.0169 -1.8995  0.9861
 8071SOL    HW235676   3.391   0.973   4.167  0.7808 -1.0815  1.5053
 8072SOL     OW35677   3.376   2.401   1.018 -0.1627  0.1511 -0.4203
 8072SOL    HW135678   3.369   2.331   1.083 -1.5651  1.8993  1.2944
 8072SOL    HW235679   3.289   2.395   0.977 -0.4865 -0.0758  0.2945
 8073SOL     OW35680   4.356   0.946  15.450  0.7303  0.5956 -0.2684
 8073SOL    HW135681   4.271   0.918  15.483  1.5718 -1.1312  0.3975
 8073SOL    HW235682   4.395   1.019  15.498 -2.8533  0.0967  3.3729
 8074SOL     OW35683   0.206   2.667   7.796 -0.1350  0.3657  0.6259
 8074SOL    HW135684   0.285   2.670   7.742  0.2726 -0.1464  1.1925
 8074SOL    HW235685   0.142   2.676   7.726 -0.7902 -0.3247  1.1312
 8075SOL     OW35686   1.923   1.563   4.376 -0.0356 -0.0324  0.4320
 8075SOL    HW135687   1.902   1.603   4.461  0.9922 -1.0512  1.1709
 8075SOL    HW235688   2.000   1.506   4.385 -0.4950 -0.5851  0.9007
 8076SOL     OW35689   4.048   2.165   2.468  0.0602  0.0308 -0.2561
 8076SOL    HW135690   4.086   2.223   2.534  0.3251  0.0860 -0.4582
 8076SOL    HW235691   4.009   2.093   2.517 -1.5080  0.5927 -0.6790
 8077SOL     OW35692   3.527   1.026   1.968 -0.1909 -0.1902 -0.0193
 8077SOL    HW135693   3.579   0.976   1.906 -2.7140 -0.8489 -1.6396
 8077SOL    HW235694   3.537   0.973   2.047  1.0633 -2.2361 -1.5507
 8078SOL     OW35695   0.373   1.430   2.290  0.0177  0.0873  0.1937
 8078SOL    HW135696   0.288   1.453   2.327  0.2261 -1.1785  1.4317
 8078SOL    HW235697   0.435   1.488   2.334 -1.3638  0.9188  1.0452
 8079SOL     OW35698   3.813   1.788   1.172 -0.2714 -0.2552 -0.3247
 8079SOL    HW135699   3.778   1.717   1.118  1.0892 -0.6601 -0.6877
 8079SOL    HW235700   3.768   1.779   1.256  0.7317 -0.9010  0.1472
 8080SOL     OW35701   0.886   3.500   3.654  0.0582 -0.1920  0.1139
 8080SOL    HW135702   0.899   3.594   3.641  0.1182 -0.2805 -0.4770
 8080SOL    HW235703   0.831   3.486   3.577  2.5026 -1.2169 -1.4731
 8081SOL     OW35704   0.581   0.981   5.155 -0.2389 -0.2666 -0.6539
 8081SOL    HW135705   0.509   0.999   5.216 -0.3650  1.4402 -1.3060
 8081SOL    HW235706   0.646   1.050   5.171  0.7345 -1.2800 -0.1974
 8082SOL     OW35707   4.570   0.415   6.841 -0.7618  0.9969 -0.0657
 8082SOL    HW135708   4.649   0.461   6.867 -3.0302  2.9090  3.3254
 8082SOL    HW235709   4.502   0.473   6.875  0.6732  0.9059  3.0068
 8083SOL     OW35710   4.343   4.255   3.364 -0.8460  1.1810 -0.0787
 8083SOL    HW135711   4.310   4.256   3.274  1.3801 -1.2567 -0.9167
 8083SOL    HW235712   4.312   4.344   3.383  0.2882  1.4323  0.5954
 8084SOL     OW35713   0.030   1.023   3.763 -0.9570  0.1187  0.3862
 8084SOL    HW135714   4.705   1.104   3.753 -1.5430 -0.3499 -0.5212
 8084SOL    HW235715   4.684   0.962   3.742 -2.0098  1.7425 -0.7379
 8085SOL     OW35716   3.626   4.626   1.669  0.1266  0.3595 -0.2720
 8085SOL    HW135717   3.648   4.534   1.682 -1.5279  0.0696  0.3811
 8085SOL    HW235718   3.545   4.623   1.618  0.0212 -2.4135  0.0668
 8086SOL     OW35719   3.082   4.713   2.084  0.0952  0.1391 -0.2889
 8086SOL    HW135720   3.112   0.029   2.166  2.7794  0.4617 -1.4490
 8086SOL    HW235721   3.104   4.621   2.097 -0.1656  0.4078  2.0449
 8087SOL     OW35722   1.558   4.320   4.028  0.7114  0.6474 -0.3984
 8087SOL    HW135723   1.567   4.323   4.123  0.5191 -0.1652 -0.3512
 8087SOL    HW235724   1.496   4.247   4.021 -0.1972  1.4388 -0.5798
 8088SOL     OW35725   2.112   1.175   6.117  0.3660  0.0947  0.0335
 8088SOL    HW135726   2.099   1.084   6.142 -1.6440  0.0785 -1.1353
 8088SOL    HW235727   2.207   1.185   6.105  0.7769 -0.4139  2.8980
 8089SOL     OW35728   0.316   3.732   2.971  0.7081 -0.2303 -0.1676
 8089SOL    HW135729   0.362   3.803   3.016  0.8450 -0.3543 -0.1102
 8089SOL    HW235730   0.291   3.776   2.890 -0.4793 -0.3636  0.1188
 8090SOL     OW35731   1.866   2.016   4.042  0.0613 -0.0091  0.2884
 8090SOL    HW135732   1.864   2.017   4.138 -1.6626  1.4238  0.2415
 8090SOL    HW235733   1.878   1.923   4.027 -3.4537 -0.8085  2.5193
 8091SOL     OW35734   2.194   2.211   2.702  0.0657  0.0582 -0.2738
 8091SOL    HW135735   2.245   2.234   2.624  0.9785  0.4654  0.4500
 8091SOL    HW235736   2.198   2.287   2.760  0.8290 -1.0884  1.1831
 8092SOL     OW35737   2.679   1.892  17.039  0.3979 -0.6937 -0.2386
 8092SOL    HW135738   2.690   1.909  16.946  0.4953 -0.5890 -0.2078
 8092SOL    HW235739   2.584   1.898  17.031  0.1477 -0.9805  2.4824
 8093SOL     OW35740   2.329   3.641   2.783 -0.1174 -0.3099 -0.3651
 8093SOL    HW135741   2.289   3.694   2.852 -0.3709 -0.3305 -0.4960
 8093SOL    HW235742   2.405   3.696   2.766 -0.1753 -0.2850 -0.5453
 8094SOL     OW35743   3.385   4.299  16.141 -0.7370 -0.1946  1.3114
 8094SOL    HW135744   3.427   4.267  16.221  0.6798  3.7348  2.1330
 8094SOL    HW235745   3.356   4.217  16.100 -1.3326  0.3794  0.5892
 8095SOL     OW35746   4.141   2.478   2.233 -0.2649  0.1659 -0.0214
 8095SOL    HW135747   4.175   2.449   2.318 -0.3092  0.1452 -0.0107
 8095SOL    HW235748   4.092   2.402   2.199  0.4939  0.4577 -1.7716
 8096SOL     OW35749   2.788   1.820   8.577  0.0073  0.0087 -0.2766
 8096SOL    HW135750   2.777   1.802   8.671  0.4991  3.7469  0.5072
 8096SOL    HW235751   2.827   1.908   8.579 -2.0562  0.9005  0.1501
 8097SOL     OW35752   1.297   0.511   5.093 -0.2181 -0.0739  0.0122
 8097SOL    HW135753   1.286   0.497   4.999  2.2380 -0.3033 -0.2457
 8097SOL    HW235754   1.363   0.444   5.109 -0.2069 -0.6092 -2.1844
 8098SOL     OW35755   3.040   4.284   3.049  0.6982  0.0136 -0.3810
 8098SOL    HW135756   3.057   4.337   2.971  0.6880 -0.7171 -0.8729
 8098SOL    HW235757   3.039   4.195   3.014  1.7850  0.3926 -1.3858
 8099SOL     OW35758   1.796   3.909   5.857  0.1877  0.1959  0.5336
 8099SOL    HW135759   1.756   3.910   5.771 -2.1098  1.3584  1.6301
 8099SOL    HW235760   1.841   3.993   5.864  0.5775  0.1361 -1.2443
 8100SOL     OW35761   1.161   0.219   9.767  0.1313 -0.0824 -0.5216
 8100SOL    HW135762   1.244   0.222   9.813 -0.6691  0.2990  0.9022
 8100SOL    HW235763   1.098   0.202   9.837  1.2947  0.5776  0.6566
 8101SOL     OW35764   3.937   4.093   1.999  0.6385 -0.1846  0.1861
 8101SOL    HW135765   3.869   4.154   2.027  0.1758 -0.4882 -0.2644
 8101SOL    HW235766   4.005   4.103   2.065  0.5700 -0.6309  0.3241
 8102SOL     OW35767   0.668   0.689   7.890 -0.4145  0.0729 -0.3551
 8102SOL    HW135768   0.637   0.618   7.833 -1.8337  0.1586  0.3082
 8102SOL    HW235769   0.629   0.762   7.843  1.1782  0.3936 -1.1708
 8103SOL     OW35770   2.513   3.367  11.511 -0.1028  0.1035 -0.5682
 8103SOL    HW135771   2.433   3.413  11.486  0.7841  3.1037  2.1098
 8103SOL    HW235772   2.479   3.279  11.529 -1.8694  0.2827 -3.0043
 8104SOL     OW35773   0.514   2.135   5.106 -0.2285  0.1273  0.4833
 8104SOL    HW135774   0.569   2.073   5.155 -0.6628  0.2057  1.0739
 8104SOL    HW235775   0.504   2.204   5.171 -1.1799 -0.6033  1.1134
 8105SOL     OW35776   2.349   2.356   0.109  0.0158 -0.6942 -0.1647
 8105SOL    HW135777   2.390   2.383   0.192 -0.8869 -1.4990  0.5396
 8105SOL    HW235778   2.305   2.284   0.154  0.3791 -0.2484  0.9184
 8106SOL     OW35779   4.412   1.845  12.462 -0.0414 -0.4093  0.7242
 8106SOL    HW135780   4.450   1.804  12.384  0.8330 -0.6584  1.2762
 8106SOL    HW235781   4.490   1.885  12.502  0.2022  1.4469 -1.6240
 8107SOL     OW35782   3.867   0.372   8.985 -0.4066  1.0871  0.1007
 8107SOL    HW135783   3.814   0.452   8.995 -0.5552  1.0368 -0.2647
 8107SOL    HW235784   3.842   0.326   9.065  2.6091 -1.7089 -0.5547
 8108SOL     OW35785   3.970   1.836   2.341  0.1654 -0.0678 -0.4886
 8108SOL    HW135786   4.031   1.765   2.359  1.4223  0.6139 -2.0749
 8108SOL    HW235787   3.923   1.839   2.424  1.0286  0.7615 -0.0262
 8109SOL     OW35788   3.090   4.688   8.671 -0.3195 -0.6255  0.5835
 8109SOL    HW135789   3.044   4.630   8.732 -3.1122  1.5193  0.5135
 8109SOL    HW235790   3.157   4.629   8.637  0.6071  0.6553  0.1952
 8110SOL     OW35791   2.648   2.186   3.930  0.4517 -0.2529  0.4058
 8110SOL    HW135792   2.582   2.254   3.936 -0.7107 -1.3670  0.2128
 8110SOL    HW235793   2.716   2.237   3.974  1.3358  0.8626 -2.2592
 8111SOL     OW35794   3.615   4.165   7.769 -0.1745  0.2613 -0.3923
 8111SOL    HW135795   3.605   4.259   7.786 -1.5723  0.1964 -0.8282
 8111SOL    HW235796   3.528   4.143   7.736  0.2752 -0.5541 -1.0234
 8112SOL     OW35797   2.757   2.294   4.384 -0.1267 -0.6413  0.0544
 8112SOL    HW135798   2.704   2.228   4.429 -1.0890  1.0100  1.3646
 8112SOL    HW235799   2.841   2.258   4.415  0.4496 -0.2478 -1.0571
 8113SOL     OW35800   2.014   4.588   5.142  0.1218  0.3299 -0.4331
 8113SOL    HW135801   2.001   4.586   5.237  1.4786 -0.6728 -0.2755
 8113SOL    HW235802   2.108   4.578   5.127 -0.0087 -0.5145 -0.7089
 8114SOL     OW35803   2.133   0.546   7.365  0.0017 -0.4023 -0.8909
 8114SOL    HW135804   2.098   0.635   7.359  1.6514  0.2501 -0.7250
 8114SOL    HW235805   2.141   0.528   7.459  0.6291  0.1410 -0.8399
 8115SOL     OW35806   2.380   2.747   2.136 -0.6580  0.1691 -0.1542
 8115SOL    HW135807   2.362   2.836   2.106  0.7922 -0.2015 -2.1357
 8115SOL    HW235808   2.310   2.735   2.200  0.2686 -0.5880  0.6991
 8116SOL     OW35809   3.557   2.756   2.139 -0.4477  0.0416 -0.1156
 8116SOL    HW135810   3.554   2.825   2.206 -1.4821 -0.7596  0.6642
 8116SOL    HW235811   3.534   2.803   2.059  0.3604  1.4243  0.4625
 8117SOL     OW35812   0.897   3.978   5.210  0.6031  0.7301 -1.0029
 8117SOL    HW135813   0.806   4.003   5.196  0.1988  0.1847  0.7379
 8117SOL    HW235814   0.887   3.923   5.287 -0.6492  2.2846 -0.0705
 8118SOL     OW35815   2.637   1.392   5.509 -0.2492  0.5047  0.1488
 8118SOL    HW135816   2.644   1.391   5.413 -2.3204  0.4809  0.0058
 8118SOL    HW235817   2.727   1.381   5.539 -0.1155 -0.4949 -0.6248
 8119SOL     OW35818   0.679   4.540  11.003 -0.2828 -0.0679  0.0648
 8119SOL    HW135819   0.627   4.579  10.932 -1.5653 -0.9922  0.4938
 8119SOL    HW235820   0.715   4.464  10.957 -0.7988 -0.2797  0.0070
 8120SOL     OW35821   1.194   1.302  11.139  0.7340 -0.6870  0.0186
 8120SOL    HW135822   1.271   1.250  11.117  0.2936 -0.5203 -1.8749
 8120SOL    HW235823   1.184   1.276  11.231  1.7389 -0.8876  0.0729
 8121SOL     OW35824   0.119   3.332   0.372 -0.1270 -0.7641 -0.1410
 8121SOL    HW135825   0.067   3.268   0.323  0.9224 -2.5413  1.0441
 8121SOL    HW235826   0.081   3.342   0.459 -0.8850 -0.8084 -0.4637
 8122SOL     OW35827   0.971   2.584   4.315  0.2048  0.3379 -0.0350
 8122SOL    HW135828   0.906   2.516   4.332 -1.4076  1.6606 -0.8659
 8122SOL    HW235829   1.027   2.589   4.393 -0.4763 -0.7376  0.5248
 8123SOL     OW35830   3.487   0.490   7.268 -0.1690  0.0510  0.0691
 8123SOL    HW135831   3.400   0.474   7.304 -0.9702 -0.4540 -2.1030
 8123SOL    HW235832   3.464   0.547   7.195  3.2803 -0.3501 -1.3360
 8124SOL     OW35833   4.051   0.663  13.548  0.1310 -0.2466  0.1912
 8124SOL    HW135834   4.061   0.568  13.542 -0.7761 -0.3600  0.4667
 8124SOL    HW235835   3.991   0.677  13.475  0.6534  0.8995 -0.0156
 8125SOL     OW35836   4.702   2.145   4.116  0.3256  0.4829 -0.6241
 8125SOL    HW135837   0.068   2.170   4.135  0.8979  0.3871 -3.2566
 8125SOL    HW235838   4.682   2.194   4.036  0.7907 -0.6670 -1.4412
 8126SOL     OW35839   0.320   3.719  11.337 -0.2070 -0.0895  0.3159
 8126SOL    HW135840   0.296   3.729  11.245  1.6484 -0.7027 -0.2428
 8126SOL    HW235841   0.371   3.796  11.362 -1.6447  1.1114 -0.4671
 8127SOL     OW35842   2.345   3.515   7.729 -0.7465  0.1207 -0.2782
 8127SOL    HW135843   2.310   3.434   7.767 -0.3339  0.0835  0.0217
 8127SOL    HW235844   2.278   3.539   7.665 -0.4846 -0.3803 -0.7370
 8128SOL     OW35845   1.903   2.529   3.868  0.1296  0.4044  0.0870
 8128SOL    HW135846   1.948   2.452   3.902  0.5669 -0.1701 -1.7825
 8128SOL    HW235847   1.968   2.599   3.874 -1.5122  2.1235 -2.0231
 8129SOL     OW35848   3.260   2.244   8.368  0.1102  0.0466 -0.6055
 8129SOL    HW135849   3.210   2.311   8.321 -1.3535  1.0927  2.4235
 8129SOL    HW235850   3.203   2.167   8.360 -2.0079  1.4168  1.1074
 8130SOL     OW35851   0.982   0.174  17.220  0.2821 -0.1811  0.6084
 8130SOL    HW135852   1.023   0.244  17.272  1.9048 -0.8784  0.2857
 8130SOL    HW235853   0.993   0.223  17.138 -1.1905  2.7824  2.1605
 8131SOL     OW35854   0.037   3.979   9.195 -0.1843 -0.0548 -0.5335
 8131SOL    HW135855   0.076   3.993   9.281  0.6938 -1.4498 -0.7176
 8131SOL    HW235856   4.690   3.918   9.211  1.6696 -2.1968 -0.5373
 8132SOL     OW35857   4.230   4.004  13.181 -0.0980 -0.4636 -0.4313
 8132SOL    HW135858   4.223   3.981  13.088  1.7662  1.3948 -1.0303
 8132SOL    HW235859   4.177   3.934  13.218  0.5547 -1.1028 -0.6956
 8133SOL     OW35860   1.748   1.457   4.122  0.1644  0.0246 -0.0128
 8133SOL    HW135861   1.802   1.478   4.198  0.0522  2.0628 -0.4720
 8133SOL    HW235862   1.662   1.490   4.147  1.4883  0.8590  3.3755
 8134SOL     OW35863   4.718   3.963   0.229 -0.3950 -0.2146 -0.1193
 8134SOL    HW135864   4.640   3.923   0.190  0.2630 -1.0339 -0.6000
 8134SOL    HW235865   0.014   3.885   0.280  1.9137  0.9457  0.6842
 8135SOL     OW35866   3.431   2.479   7.237  0.3647  0.0327  0.2457
 8135SOL    HW135867   3.347   2.474   7.283  1.0939  0.9765  1.6561
 8135SOL    HW235868   3.434   2.573   7.219 -0.2985  0.0548  0.2519
 8136SOL     OW35869   3.232   0.931   1.315  0.2149  0.3252 -0.1680
 8136SOL    HW135870   3.167   0.976   1.369  0.5209 -1.3233  1.5523
 8136SOL    HW235871   3.309   0.909   1.367  0.4060  0.6109 -0.3289
 8137SOL     OW35872   3.052   3.782  17.497  0.5195 -0.6217 -0.0017
 8137SOL    HW135873   3.118   3.739  17.551  1.8011  0.5267 -0.6376
 8137SOL    HW235874   3.095   3.868  17.495 -0.1795 -0.2725 -0.0809
 8138SOL     OW35875   0.248   0.588   1.712 -0.1603  0.1605  0.2744
 8138SOL    HW135876   0.336   0.627   1.716  0.6539 -1.7128  0.7613
 8138SOL    HW235877   0.202   0.655   1.662 -0.9174 -1.9194 -1.8249
 8139SOL     OW35878   0.853   3.865   5.472 -0.4971 -0.4003  0.5117
 8139SOL    HW135879   0.841   3.927   5.544  1.3274 -0.1640  0.6106
 8139SOL    HW235880   0.857   3.781   5.517  0.2876 -0.6655 -0.0572
 8140SOL     OW35881   0.244   4.587   0.575  0.3544 -0.4455 -0.0096
 8140SOL    HW135882   0.256   4.590   0.669 -0.9034  3.6859  0.0192
 8140SOL    HW235883   0.215   4.497   0.556  0.3750 -0.5158  0.3026
 8141SOL     OW35884   1.248   4.237   4.037  0.4606 -0.5400  0.2213
 8141SOL    HW135885   1.158   4.236   4.069 -0.2006 -0.5544 -1.6291
 8141SOL    HW235886   1.245   4.319   3.988 -0.1384 -0.3504  0.5699
 8142SOL     OW35887   2.009   4.602   8.428  0.1666  0.4767  0.5273
 8142SOL    HW135888   2.096   4.621   8.464  1.2923 -2.5631 -0.6434
 8142SOL    HW235889   2.045   4.526   8.382  0.5848  0.5314  0.7618
 8143SOL     OW35890   0.776   2.499  13.416 -0.1532  0.4170 -0.1508
 8143SOL    HW135891   0.684   2.489  13.390 -0.2164  0.2917  0.1174
 8143SOL    HW235892   0.826   2.442  13.358 -1.2606 -3.0415  2.2487
 8144SOL     OW35893   3.815   1.488   0.076  0.3517  0.6167  0.0369
 8144SOL    HW135894   3.846   1.527  17.694  0.8400  1.3181  0.5690
 8144SOL    HW235895   3.738   1.545   0.086 -1.1463 -1.3994  0.0596
 8145SOL     OW35896   0.916   3.555   2.174 -0.2920 -0.2040 -0.2920
 8145SOL    HW135897   0.859   3.554   2.098  0.0489  0.6480 -0.5593
 8145SOL    HW235898   0.879   3.489   2.232 -1.2064  1.5657  1.1454
 8146SOL     OW35899   2.366   0.494   5.964 -0.2231 -0.2872  0.0059
 8146SOL    HW135900   2.297   0.561   5.962 -0.8367 -0.9850 -2.4196
 8146SOL    HW235901   2.328   0.417   5.922 -0.8866 -0.3178  0.6813
 8147SOL     OW35902   2.255   2.241   3.116 -0.0024 -0.1773  0.3135
 8147SOL    HW135903   2.349   2.245   3.102  0.1724  0.7030  1.7827
 8147SOL    HW235904   2.259   2.303   3.189  0.8747  0.4928 -0.3106
 8148SOL     OW35905   0.092   4.717   9.806 -0.0538 -0.1210 -0.0386
 8148SOL    HW135906   0.068   4.629   9.835 -1.3845  0.2479 -0.0322
 8148SOL    HW235907   0.118   4.698   9.716 -0.1624  1.7549 -0.4676
 8149SOL     OW35908   3.684   1.689   2.345  0.3948  0.1903 -0.1390
 8149SOL    HW135909   3.751   1.731   2.400  0.2689  0.7929 -0.4475
 8149SOL    HW235910   3.723   1.690   2.257  0.3473 -0.6911 -0.1758
 8150SOL     OW35911   1.883   3.343  13.304 -0.2874 -0.1051 -0.2561
 8150SOL    HW135912   1.874   3.319  13.396  0.7617  1.9133  0.3627
 8150SOL    HW235913   1.878   3.254  13.267  0.0394 -0.1709 -0.1414
 8151SOL     OW35914   1.100   0.420   3.421 -0.4596  0.0695 -0.2707
 8151SOL    HW135915   1.075   0.363   3.349  0.5277  0.8986 -1.2715
 8151SOL    HW235916   1.136   0.496   3.374  1.2027  0.4977  1.6878
 8152SOL     OW35917   3.082   3.100   1.353 -0.3153  0.8132  0.7044
 8152SOL    HW135918   3.168   3.059   1.358 -0.0006  1.7145  2.5172
 8152SOL    HW235919   3.038   3.046   1.287  1.4860 -0.0887  0.2706
 8153SOL     OW35920   4.267   2.852   4.638  0.4350  0.3810 -0.1823
 8153SOL    HW135921   4.209   2.822   4.568  1.8817 -0.3748 -1.0460
 8153SOL    HW235922   4.254   2.782   4.702  0.6788  1.7452  1.3559
 8154SOL     OW35923   2.584   4.612   6.716  0.2585  0.0685  0.0713
 8154SOL    HW135924   2.596   4.522   6.686  1.1104  0.0437  0.5055
 8154SOL    HW235925   2.568   4.658   6.634  0.2569  1.7214  1.0116
 8155SOL     OW35926   2.197   1.353   0.622  0.3988 -0.2128 -0.2543
 8155SOL    HW135927   2.187   1.359   0.528  1.0883  0.5717 -0.2777
 8155SOL    HW235928   2.166   1.265   0.645  0.6363 -0.4342 -0.7845
 8156SOL     OW35929   2.133   1.803   2.008 -0.0457  0.2078  0.2235
 8156SOL    HW135930   2.139   1.898   1.994  0.0850  0.2665  0.6644
 8156SOL    HW235931   2.057   1.799   2.066  1.3315 -3.0211  1.7766
 8157SOL     OW35932   3.070   0.576  11.599  0.4113  0.1448  0.4447
 8157SOL    HW135933   3.065   0.613  11.511 -0.9795 -0.5771  0.2251
 8157SOL    HW235934   3.043   0.658  11.643 -2.4669 -1.7436  2.1999
 8158SOL     OW35935   3.652   2.301   0.234  0.4409 -0.1638 -0.6092
 8158SOL    HW135936   3.646   2.257   0.318 -0.7223  2.2482  0.5453
 8158SOL    HW235937   3.626   2.391   0.251 -2.1094 -0.5987 -2.2813
 8159SOL     OW35938   0.428   2.547   3.260  0.1321  0.0666  0.2438
 8159SOL    HW135939   0.513   2.513   3.232 -0.1647  1.6713 -2.5455
 8159SOL    HW235940   0.393   2.475   3.312 -3.8660  2.0579  0.2805
 8160SOL     OW35941   2.565   0.786  13.051 -0.3810 -0.2156  0.2902
 8160SOL    HW135942   2.581   0.798  12.958 -2.7542  1.9046  0.1548
 8160SOL    HW235943   2.496   0.720  13.048  1.9404 -2.7002  0.9937
 8161SOL     OW35944   3.621   2.500   4.759 -0.1354 -0.2284 -0.0307
 8161SOL    HW135945   3.681   2.472   4.690  1.0824 -1.1349  1.3996
 8161SOL    HW235946   3.674   2.554   4.818 -2.3990  0.8431  1.0711
 8162SOL     OW35947   4.400   0.180   3.711  0.3589  0.0908 -0.1589
 8162SOL    HW135948   4.486   0.190   3.752  0.9949 -1.8356 -1.0520
 8162SOL    HW235949   4.416   0.210   3.622  2.1709  0.0580  0.1568
 8163SOL     OW35950   0.662   1.988  15.042 -0.0354  0.0654  0.0308
 8163SOL    HW135951   0.608   1.998  15.121 -0.4788  0.3909 -0.3153
 8163SOL    HW235952   0.590   1.986  14.978  1.7530 -0.6398 -1.9506
 8164SOL     OW35953   4.197   0.209   7.072 -0.2760  0.5339  0.1198
 8164SOL    HW135954   4.262   0.209   7.143 -0.3299  1.1905  0.1625
 8164SOL    HW235955   4.118   0.202   7.126  0.1545 -0.3866  0.6361
 8165SOL     OW35956   0.976   1.607   0.684 -0.8359 -0.3378  0.2176
 8165SOL    HW135957   0.913   1.536   0.670 -0.9069 -0.6889  2.4140
 8165SOL    HW235958   1.031   1.565   0.750 -0.8637  0.5980  0.8292
 8166SOL     OW35959   1.176   2.976   6.526  0.0723  0.3719  0.3230
 8166SOL    HW135960   1.116   2.956   6.454 -0.0994  0.4699  0.4399
 8166SOL    HW235961   1.259   3.001   6.487  0.7002 -0.4532  1.1243
 8167SOL     OW35962   1.486   0.168   4.342 -0.3849 -0.6730  0.4278
 8167SOL    HW135963   1.418   0.110   4.310 -0.9723  0.5352 -0.5255
 8167SOL    HW235964   1.506   0.220   4.264  0.9590  0.1967  1.3390
 8168SOL     OW35965   4.500   3.207  14.236 -0.0731  0.1559  0.7811
 8168SOL    HW135966   4.425   3.202  14.177 -0.9862  1.3145  1.8684
 8168SOL    HW235967   4.556   3.145  14.189 -1.5661 -0.1754 -0.5502
 8169SOL     OW35968   1.142   0.853   5.475 -1.0256 -0.3373  0.1746
 8169SOL    HW135969   1.165   0.777   5.528  0.2586 -0.7126 -0.9196
 8169SOL    HW235970   1.161   0.817   5.388  0.0412 -0.9481  0.6603
 8170SOL     OW35971   1.349   1.944   2.211 -0.2544  0.0182 -0.9768
 8170SOL    HW135972   1.278   1.964   2.149  1.5765 -1.5747 -3.5613
 8170SOL    HW235973   1.329   1.853   2.233 -0.3425 -0.4078 -2.8382
 8171SOL     OW35974   0.604   1.772   1.951  0.5453  0.1569 -0.8064
 8171SOL    HW135975   0.549   1.748   2.026  1.2294 -0.3079 -0.4520
 8171SOL    HW235976   0.684   1.787   2.001 -0.8077 -0.2872  1.5371
 8172SOL     OW35977   1.458   3.193  13.902 -0.0329  0.7153  0.1614
 8172SOL    HW135978   1.386   3.196  13.965 -0.5753 -0.7138 -0.3785
 8172SOL    HW235979   1.414   3.162  13.823  0.2124  1.3583 -0.2284
 8173SOL     OW35980   1.349   4.082   2.386  0.5595 -0.5015 -0.1987
 8173SOL    HW135981   1.348   4.165   2.338  0.3811 -0.4419 -0.0902
 8173SOL    HW235982   1.271   4.093   2.440 -0.6352 -1.3953 -1.7462
 8174SOL     OW35983   1.861   3.741   3.697 -0.3222  0.4845  1.1085
 8174SOL    HW135984   1.851   3.776   3.786 -0.3431 -0.1331  1.3524
 8174SOL    HW235985   1.773   3.705   3.689  0.4090 -1.0238 -0.0576
 8175SOL     OW35986   1.355   4.292   8.673  0.3776 -0.3616 -0.0203
 8175SOL    HW135987   1.340   4.303   8.580  0.3500 -0.2425 -0.0021
 8175SOL    HW235988   1.266   4.284   8.707  0.4294  1.7754  0.6727
 8176SOL     OW35989   0.884   0.760   8.262  0.2386  0.4458 -0.4734
 8176SOL    HW135990   0.802   0.712   8.250  0.9834 -1.4569  2.1595
 8176SOL    HW235991   0.856   0.839   8.215 -0.2620  0.1367 -0.7011
 8177SOL     OW35992   3.279   0.846  11.522  0.3873 -0.0760 -0.0815
 8177SOL    HW135993   3.310   0.763  11.485 -1.1362 -0.4479 -0.5135
 8177SOL    HW235994   3.206   0.813  11.576  1.5278 -0.5798  1.1618
 8178SOL     OW35995   3.644   2.813   0.991  0.0774 -0.0191 -0.6462
 8178SOL    HW135996   3.622   2.885   1.050  1.2810  0.5298 -0.8708
 8178SOL    HW235997   3.637   2.856   0.906 -2.0164  1.1049  0.0959
 8179SOL     OW35998   2.553   4.424  10.183 -0.2562  0.2278  0.4881
 8179SOL    HW135999   2.569   4.401  10.091  2.3495 -2.9641  1.7447
 8179SOL    HW236000   2.627   4.481  10.201 -1.9786  2.3035  0.9862
 8180SOL     OW36001   0.309   0.901   6.070  0.0074  0.3182  0.9285
 8180SOL    HW136002   0.318   0.989   6.107  0.7602  1.8031 -2.7570
 8180SOL    HW236003   0.250   0.910   5.995  0.7993  0.0812  0.2815
 8181SOL     OW36004   0.316   0.078   5.631 -0.2676 -0.3454 -0.7421
 8181SOL    HW136005   0.322   0.021   5.554  0.5095  0.1454 -1.0367
 8181SOL    HW236006   0.405   0.069   5.663  0.7554  1.1074 -3.1912
 8182SOL     OW36007   2.969   2.173   0.872 -0.7817  0.1507  0.0882
 8182SOL    HW136008   2.974   2.171   0.967  0.3840 -1.2483 -0.0053
 8182SOL    HW236009   2.991   2.083   0.848 -1.7340  0.2493 -1.1686
 8183SOL     OW36010   1.939   1.882   2.153 -0.1800  0.3089 -0.3233
 8183SOL    HW136011   1.857   1.931   2.162  0.4405  1.7322 -2.4233
 8183SOL    HW236012   1.966   1.878   2.245 -0.9144  1.0131 -0.0713
 8184SOL     OW36013   4.064   0.595   5.632 -0.1552  0.0567 -0.7884
 8184SOL    HW136014   4.150   0.585   5.675 -0.5067 -1.6784 -0.4869
 8184SOL    HW236015   4.107   0.569   5.550  1.0262  0.2969 -0.2561
 8185SOL     OW36016   1.587   3.024   5.225 -0.2640 -0.4794 -0.2571
 8185SOL    HW136017   1.503   3.063   5.247  0.0382  0.5404 -0.8928
 8185SOL    HW236018   1.563   2.955   5.164 -1.7910  0.6751 -0.9619
 8186SOL     OW36019   1.255   3.816   0.378 -0.2121 -0.4154  0.0522
 8186SOL    HW136020   1.266   3.782   0.289 -0.4329  0.5332 -0.3304
 8186SOL    HW236021   1.192   3.752   0.411  0.0035  0.4413  2.0807
 8187SOL     OW36022   1.714   2.580   8.069 -0.9217  0.2263  0.5039
 8187SOL    HW136023   1.771   2.649   8.100  1.0782 -1.2131  0.0297
 8187SOL    HW236024   1.762   2.498   8.081 -2.8005 -0.7865  1.2394
 8188SOL     OW36025   4.303   3.743  16.360 -0.3944 -0.6003  0.4835
 8188SOL    HW136026   4.321   3.835  16.345  1.8651 -0.7521  2.2629
 8188SOL    HW236027   4.378   3.709  16.310 -0.9133  0.1135 -0.7725
 8189SOL     OW36028   3.274   1.303   3.263 -0.0870  0.2150  0.4659
 8189SOL    HW136029   3.330   1.227   3.276  1.0829  0.6973 -1.7568
 8189SOL    HW236030   3.214   1.280   3.192  1.1380 -0.8688 -0.2241
 8190SOL     OW36031   3.823   1.758   8.134  0.2910  0.0610  0.3318
 8190SOL    HW136032   3.884   1.718   8.197 -1.8135 -0.7250  1.8882
 8190SOL    HW236033   3.779   1.687   8.087  2.6555  1.0297 -3.3270
 8191SOL     OW36034   0.667   0.842  10.005 -0.5603  0.4376  0.3330
 8191SOL    HW136035   0.711   0.920   9.972 -1.2930  1.8297  2.5766
 8191SOL    HW236036   0.649   0.871  10.095 -1.8680 -2.1366  0.8844
 8192SOL     OW36037   2.604   0.335   5.436 -0.1846  0.0229  0.4046
 8192SOL    HW136038   2.622   0.245   5.408  0.4511  0.2380  0.1238
 8192SOL    HW236039   2.686   0.385   5.430  0.7225 -1.2132  2.4900
 8193SOL     OW36040   0.984   3.930   2.994 -0.6755  0.2973  0.0437
 8193SOL    HW136041   1.072   3.893   3.004  0.3921  2.3358 -1.9124
 8193SOL    HW236042   0.987   3.979   3.076  0.9273  1.6422 -0.8220
 8194SOL     OW36043   2.788   2.571   0.502 -0.1590 -0.5321 -0.1416
 8194SOL    HW136044   2.839   2.623   0.564  1.0553 -0.4245 -1.2521
 8194SOL    HW236045   2.804   2.484   0.537 -0.3544 -0.3522  0.4138
 8195SOL     OW36046   0.459   1.333   5.389  0.4070 -0.7003 -0.0380
 8195SOL    HW136047   0.393   1.401   5.390  1.1176 -0.0391  1.7097
 8195SOL    HW236048   0.523   1.369   5.326  2.7756 -0.1196  2.7078
 8196SOL     OW36049   1.514   4.435  10.839  0.4243 -0.7141 -0.0606
 8196SOL    HW136050   1.554   4.389  10.766  0.3593 -1.6827  0.5103
 8196SOL    HW236051   1.567   4.399  10.910 -0.8752 -0.7094  0.9240
 8197SOL     OW36052   3.621   1.219   2.694 -0.0044  0.5319  0.4939
 8197SOL    HW136053   3.530   1.213   2.664  0.5308  2.5838 -1.5417
 8197SOL    HW236054   3.670   1.228   2.613  2.2831  0.2914  1.8540
 8198SOL     OW36055   1.830   4.590   5.639 -0.4537 -0.3957  0.5096
 8198SOL    HW136056   1.864   4.551   5.719  0.1046  0.5354  0.7330
 8198SOL    HW236057   1.743   4.551   5.635  0.3635 -2.1736  0.3069
 8199SOL     OW36058   0.884   4.621   5.124  0.5978  0.4094 -0.3238
 8199SOL    HW136059   0.955   4.661   5.175  0.7783 -3.1083  2.1142
 8199SOL    HW236060   0.836   4.588   5.199  0.1108  0.2718 -0.6950
 8200SOL     OW36061   0.591   3.788   5.361 -0.5688 -0.0893 -0.1860
 8200SOL    HW136062   0.549   3.806   5.277  1.3668  2.6776 -0.5336
 8200SOL    HW236063   0.649   3.863   5.369  0.2346 -0.9057  1.7122
 8201SOL     OW36064   2.835   4.518  13.383  0.4579 -0.4807 -0.2937
 8201SOL    HW136065   2.871   4.539  13.297  0.1155 -1.1188 -0.5970
 8201SOL    HW236066   2.756   4.466  13.367  1.0146 -1.2264 -0.6159
 8202SOL     OW36067   0.190   1.760   4.330 -0.2969  0.4303  0.3683
 8202SOL    HW136068   0.189   1.737   4.237 -0.1958  0.6239  0.3200
 8202SOL    HW236069   0.149   1.847   4.328 -0.5720  0.2916 -0.1481
 8203SOL     OW36070   1.738   2.962  10.344  0.1659  0.2725  0.0796
 8203SOL    HW136071   1.772   2.946  10.256  0.9780 -4.0967  1.1697
 8203SOL    HW236072   1.681   3.038  10.331  1.8770  1.4630 -0.4605
 8204SOL     OW36073   0.312   2.360   3.406  0.0322  0.3591  0.1490
 8204SOL    HW136074   0.297   2.272   3.441  1.1301  0.3615  0.6382
 8204SOL    HW236075   0.290   2.416   3.481 -0.5330 -2.8080  2.3327
 8205SOL     OW36076   3.158   1.152   7.267 -0.3698  0.2491  0.2208
 8205SOL    HW136077   3.143   1.173   7.359  2.3536 -1.0867  0.9674
 8205SOL    HW236078   3.144   1.245   7.249  1.4681  0.3587 -0.7054
 8206SOL     OW36079   2.022   1.874   2.909 -0.5416 -0.0641 -0.1449
 8206SOL    HW136080   2.060   1.809   2.967  1.4518  0.7203 -0.5830
 8206SOL    HW236081   2.101   1.898   2.861 -1.0956  0.0068 -1.0260
 8207SOL     OW36082   1.315   4.477   4.678  0.1068  0.1924  0.3689
 8207SOL    HW136083   1.354   4.396   4.647 -0.1355  0.4815 -0.6820
 8207SOL    HW236084   1.311   4.450   4.770 -0.9639  1.0553  0.5812
 8208SOL     OW36085   3.457   3.591   6.069 -0.0276  0.3256 -0.3131
 8208SOL    HW136086   3.461   3.593   5.973  2.8576  0.1291 -0.2073
 8208SOL    HW236087   3.375   3.639   6.082  0.0490  0.0557  1.1164
 8209SOL     OW36088   3.855   3.269  13.145 -0.7276  0.0574 -0.2757
 8209SOL    HW136089   3.930   3.276  13.086 -1.4166  1.2202 -1.0281
 8209SOL    HW236090   3.882   3.345  13.198 -2.5145 -0.6147  1.5925
 8210SOL     OW36091   2.284   0.419  16.648 -0.1756 -0.3102  1.2539
 8210SOL    HW136092   2.218   0.476  16.609  0.8510 -1.4765 -2.1977
 8210SOL    HW236093   2.252   0.337  16.610  0.4214  0.9409 -1.9782
 8211SOL     OW36094   2.943   0.941   2.121 -0.2231  0.1616 -0.1097
 8211SOL    HW136095   2.873   0.978   2.174  0.2580  0.1425  0.5475
 8211SOL    HW236096   2.935   0.996   2.043 -0.6582  0.8430  0.4194
 8212SOL     OW36097   0.195   3.155  10.388 -0.0031  0.9402 -0.3362
 8212SOL    HW136098   0.114   3.187  10.349  0.4369  1.1098 -1.1065
 8212SOL    HW236099   0.192   3.060  10.390  1.4382  0.8976  0.1841
 8213SOL     OW36100   4.710   0.903  10.043 -0.0217 -0.2503 -0.0076
 8213SOL    HW136101   0.078   0.928  10.054 -0.4627  0.6667  1.4955
 8213SOL    HW236102   4.703   0.822  10.095 -0.0828 -1.4541 -1.8702
 8214SOL     OW36103   2.271   0.039   4.031 -0.5533  0.1963 -1.2629
 8214SOL    HW136104   2.346   0.088   3.997  0.6518  1.3426  3.0381
 8214SOL    HW236105   2.199   0.059   3.971 -1.6653  1.0491  0.3542
 8215SOL     OW36106   1.055   1.159   5.887  0.7364 -0.1005  0.1936
 8215SOL    HW136107   1.099   1.239   5.915  0.0762  0.5874 -0.7372
 8215SOL    HW236108   1.137   1.112   5.877 -0.3501 -1.3601 -2.8665
 8216SOL     OW36109   0.847   4.268   3.940 -0.3879  0.3727  0.0534
 8216SOL    HW136110   0.935   4.304   3.940  0.1102 -0.8290  2.5212
 8216SOL    HW236111   0.796   4.343   3.973 -0.9271  0.4850 -1.0476
 8217SOL     OW36112   4.348   0.070   1.060 -0.0070 -0.2759 -0.0486
 8217SOL    HW136113   4.429   0.086   1.010  0.0112 -0.0299  0.0602
 8217SOL    HW236114   4.345   4.700   1.045  2.4088 -0.1507 -1.4318
 8218SOL     OW36115   1.800   3.733   1.475 -0.2808  0.0707  0.3553
 8218SOL    HW136116   1.819   3.785   1.397  0.5253 -1.7214 -0.6492
 8218SOL    HW236117   1.888   3.731   1.513  0.0143 -0.8205 -0.3833
 8219SOL     OW36118   1.569   3.667   5.045 -0.1457  0.0413  0.0410
 8219SOL    HW136119   1.502   3.651   5.112 -3.0947  0.1604 -2.8514
 8219SOL    HW236120   1.580   3.761   5.060  0.7915 -0.4710  2.6829
 8220SOL     OW36121   3.616   2.716   6.405 -0.9667 -0.0578  0.0383
 8220SOL    HW136122   3.567   2.682   6.480 -1.6326 -0.0302 -0.3918
 8220SOL    HW236123   3.639   2.638   6.356 -0.9037 -0.2738  0.4107
 8221SOL     OW36124   2.134   2.958  10.986  0.3022 -0.1201 -0.1081
 8221SOL    HW136125   2.126   2.872  11.027 -3.1105 -0.6494 -1.8475
 8221SOL    HW236126   2.225   2.976  11.009 -0.1091 -0.1649  1.5377
 8222SOL     OW36127   0.649   0.717   5.905 -0.1759 -0.0951  0.2866
 8222SOL    HW136128   0.728   0.758   5.869  0.6101 -1.7612  0.0744
 8222SOL    HW236129   0.622   0.670   5.827 -1.4237  0.1213  0.5934
 8223SOL     OW36130   2.966   2.496   2.470  0.3551  0.3778  0.3271
 8223SOL    HW136131   3.039   2.436   2.485 -1.3092 -0.7656  3.7492
 8223SOL    HW236132   3.011   2.578   2.489  0.2664  0.6348 -0.5713
 8224SOL     OW36133   1.547   4.449  15.283  0.5671 -0.3153  0.4406
 8224SOL    HW136134   1.636   4.479  15.300  1.3220 -1.9795 -0.4947
 8224SOL    HW236135   1.560   4.436  15.189 -0.2783  0.3309  0.2379
 8225SOL     OW36136   2.894   4.579   9.997 -0.5307 -0.2312  0.0032
 8225SOL    HW136137   2.878   4.554  10.088 -3.7001 -1.0412 -0.7986
 8225SOL    HW236138   2.987   4.562   9.980 -0.4311 -0.4410  0.7303
 8226SOL     OW36139   2.092   4.293   7.193 -0.0101 -0.6028 -0.1205
 8226SOL    HW136140   2.024   4.234   7.160 -1.0999  0.2005  0.6597
 8226SOL    HW236141   2.139   4.318   7.114 -1.1088 -2.3091 -1.3253
 8227SOL     OW36142   4.208   0.715  13.939  0.0865 -0.0833 -0.2574
 8227SOL    HW136143   4.269   0.781  13.973  0.9321  0.4081 -2.7508
 8227SOL    HW236144   4.265   0.655  13.891  1.1508 -0.5144  1.4977
 8228SOL     OW36145   4.005   4.390   2.523 -0.1514  0.5695 -0.7288
 8228SOL    HW136146   3.999   4.300   2.555  0.4312  1.7681  2.8211
 8228SOL    HW236147   4.076   4.425   2.577  0.9569 -1.3607 -0.9246
 8229SOL     OW36148   0.161   0.912   0.601 -0.2286 -0.9475  0.1020
 8229SOL    HW136149   0.191   0.885   0.688  0.6773 -1.1847 -0.2796
 8229SOL    HW236150   0.245   0.943   0.567 -0.8855  1.4231  0.6620
 8230SOL     OW36151   3.053   2.542   6.337 -0.0489  0.0846 -0.5039
 8230SOL    HW136152   3.061   2.552   6.432 -0.1785 -1.1496 -0.3698
 8230SOL    HW236153   3.030   2.450   6.329  0.5619 -0.3161  2.5539
 8231SOL     OW36154   0.230   0.383   8.760 -0.1663  0.4410  0.5508
 8231SOL    HW136155   0.281   0.347   8.688 -0.1865  0.4966  0.5086
 8231SOL    HW236156   0.219   0.306   8.816 -0.8615  0.2487  0.1511
 8232SOL     OW36157   0.800   1.562   4.766 -0.0290 -0.3614  0.1945
 8232SOL    HW136158   0.748   1.573   4.687 -0.5440  1.2624  0.7703
 8232SOL    HW236159   0.738   1.502   4.808 -4.4328  1.9023 -3.1088
 8233SOL     OW36160   1.901   3.711   4.916 -0.1589 -0.2991 -0.3910
 8233SOL    HW136161   1.976   3.652   4.904  0.2685  0.0892  0.3844
 8233SOL    HW236162   1.880   3.677   5.002 -0.1717  1.6032  0.3520
 8234SOL     OW36163   3.980   4.133   2.638  0.2971 -0.0248  0.1651
 8234SOL    HW136164   3.921   4.097   2.705 -2.0497  4.0498  0.3183
 8234SOL    HW236165   4.047   4.065   2.641 -0.7446 -1.0509  0.2665
 8235SOL     OW36166   2.519   0.869   3.273 -0.5489 -0.0754  0.0069
 8235SOL    HW136167   2.442   0.926   3.263  0.1646  1.1705  1.5533
 8235SOL    HW236168   2.540   0.868   3.180 -1.1463 -0.2548 -0.1268
 8236SOL     OW36169   0.796   3.869   9.330 -0.1021 -0.1729  0.3960
 8236SOL    HW136170   0.809   3.874   9.425  0.0393 -1.6640  0.4498
 8236SOL    HW236171   0.884   3.898   9.309 -1.3199  3.8553  0.7441
 8237SOL     OW36172   1.160   2.369   0.168 -0.0606 -0.4593  0.4938
 8237SOL    HW136173   1.168   2.286   0.216  1.8771  0.4198  1.7208
 8237SOL    HW236174   1.151   2.431   0.240 -2.7845 -1.4846  1.0021
 8238SOL     OW36175   3.234   2.004   6.079  0.2866 -0.1715 -0.7444
 8238SOL    HW136176   3.218   1.967   6.166 -1.0218 -1.2152 -1.4378
 8238SOL    HW236177   3.326   2.029   6.077  0.1651  0.2894 -0.6662
 8239SOL     OW36178   0.961   1.355  16.005  0.1186 -0.8607 -0.3884
 8239SOL    HW136179   0.956   1.369  16.100  1.6361 -2.3213 -0.1027
 8239SOL    HW236180   0.933   1.439  15.970  1.3202 -1.1795 -2.0905
 8240SOL     OW36181   0.668   4.384   1.582  0.2441  0.0624  0.0470
 8240SOL    HW136182   0.608   4.325   1.627  0.0860  0.0950 -0.1209
 8240SOL    HW236183   0.691   4.325   1.510  0.1798  2.1946 -1.7307
 8241SOL     OW36184   3.830   4.445   2.328 -0.0336  0.1328 -0.2609
 8241SOL    HW136185   3.900   4.426   2.390  0.0550  0.6765 -0.1912
 8241SOL    HW236186   3.880   4.444   2.247 -2.5097  0.3224 -1.8132
 8242SOL     OW36187   3.537   0.757  10.555  0.3102  0.0578 -0.8093
 8242SOL    HW136188   3.488   0.838  10.567  0.1181 -0.2604  0.5386
 8242SOL    HW236189   3.537   0.725  10.645  3.3307 -0.2094 -0.9201
 8243SOL     OW36190   3.154   2.483  12.554  0.2900  0.1705  0.1343
 8243SOL    HW136191   3.095   2.434  12.497  0.6447  0.1537 -0.2165
 8243SOL    HW236192   3.225   2.420  12.567  0.0016 -0.5190 -1.6528
 8244SOL     OW36193   2.940   0.761   8.096 -0.0244  1.0250  0.3987
 8244SOL    HW136194   2.970   0.749   8.186  0.4207  1.1380  0.2624
 8244SOL    HW236195   3.000   0.826   8.062 -1.0517  1.7588 -0.0071
 8245SOL     OW36196   3.667   1.813   7.576 -0.4745 -0.4780  0.3925
 8245SOL    HW136197   3.711   1.875   7.517  0.4888  0.2627  1.9025
 8245SOL    HW236198   3.681   1.738   7.518 -0.1169 -2.1385  2.6310
 8246SOL     OW36199   0.179   4.004  16.040 -0.3311  0.4349  0.6991
 8246SOL    HW136200   0.162   4.032  15.950  1.1548  0.0848  0.3164
 8246SOL    HW236201   0.154   4.074  16.101 -0.7538  0.7746  0.1321
 8247SOL     OW36202   1.310   4.094   3.211  0.3688 -0.2953  0.3840
 8247SOL    HW136203   1.225   4.096   3.256  0.3999 -0.3572  0.4448
 8247SOL    HW236204   1.314   3.999   3.214  1.0972 -0.2638  0.4826
 8248SOL     OW36205   1.209   1.443  17.137  0.3255  0.2349  0.1868
 8248SOL    HW136206   1.172   1.388  17.206  0.5854 -0.2802 -0.0868
 8248SOL    HW236207   1.124   1.481  17.115 -0.1181 -1.5556 -1.2361
 8249SOL     OW36208   2.609   1.798   1.436 -0.5169  0.3042 -0.0714
 8249SOL    HW136209   2.516   1.780   1.440 -0.5396  0.2162 -0.8946
 8249SOL    HW236210   2.614   1.875   1.378  0.0509 -0.8287 -1.5369
 8250SOL     OW36211   3.959   0.068   2.101 -0.2929  0.4772  1.1656
 8250SOL    HW136212   3.960   4.697   2.108  1.8495  0.2427 -1.9945
 8250SOL    HW236213   4.050   0.078   2.070 -1.1251  1.9322 -0.8526
 8251SOL     OW36214   0.578   1.065   7.505 -0.1402  0.1528 -0.2595
 8251SOL    HW136215   0.512   1.028   7.446 -1.3926  1.5329  0.2651
 8251SOL    HW236216   0.566   1.155   7.474 -2.5666 -0.7466 -1.9912
 8252SOL     OW36217   4.444   0.869   6.524 -0.0876  0.6139  0.2140
 8252SOL    HW136218   4.534   0.839   6.512 -0.6227 -0.4877 -0.9823
 8252SOL    HW236219   4.445   0.948   6.469 -1.8799  0.2329 -0.3641
 8253SOL     OW36220   3.004   0.965   6.558  0.0185 -0.2912 -0.2174
 8253SOL    HW136221   3.094   0.956   6.528  0.3862 -2.1528  1.4565
 8253SOL    HW236222   3.024   0.962   6.652 -1.2712 -1.0251  0.0380
 8254SOL     OW36223   3.043   4.493   9.660 -0.6620  0.5624  0.3710
 8254SOL    HW136224   3.031   4.495   9.755  0.2580 -1.4936  0.5436
 8254SOL    HW236225   3.092   4.411   9.655 -1.1567  0.2703  0.3247
 8255SOL     OW36226   3.485   4.706  10.966  0.2021 -0.4855 -0.1102
 8255SOL    HW136227   3.440   0.063  10.988 -0.0230 -1.3395  2.5850
 8255SOL    HW236228   3.416   4.644  10.990 -0.5638  0.8945  1.2317
 8256SOL     OW36229   0.827   2.871   3.129  0.2344 -0.1827 -0.4331
 8256SOL    HW136230   0.811   2.818   3.051  1.1755 -1.6488  0.3826
 8256SOL    HW236231   0.785   2.811   3.191  1.3785  0.4088  0.9013
 8257SOL     OW36232   2.920   2.877   7.169 -0.6119  0.3101 -0.2598
 8257SOL    HW136233   2.863   2.935   7.117  1.3700 -0.6466 -3.5134
 8257SOL    HW236234   3.000   2.924   7.191 -1.3541  1.8875 -0.8740
 8258SOL     OW36235   0.104   0.006   9.322  0.0333  0.0242 -0.1592
 8258SOL    HW136236   0.031   0.022   9.382  1.1224  0.7850  0.9523
 8258SOL    HW236237   0.070   0.027   9.235 -2.4934  0.6075  0.9765
 8259SOL     OW36238   2.622   3.017   5.692 -0.1185  0.3107 -0.1176
 8259SOL    HW136239   2.718   3.013   5.689 -0.0558  1.1699  0.9316
 8259SOL    HW236240   2.600   2.985   5.779 -0.7366 -0.3561 -0.5185
 8260SOL     OW36241   3.809   0.858   6.464 -0.0447 -0.1596 -0.0861
 8260SOL    HW136242   3.893   0.837   6.424 -1.6013  0.1778 -3.5586
 8260SOL    HW236243   3.850   0.881   6.547  0.0954  1.0783 -0.4967
 8261SOL     OW36244   3.879   1.186  11.516  0.7628  0.2254 -0.2670
 8261SOL    HW136245   3.882   1.205  11.610  0.0223 -0.4147 -0.1151
 8261SOL    HW236246   3.919   1.099  11.512  2.7713  1.0814  1.2287
 8262SOL     OW36247   3.211   1.189   6.105 -0.1526 -0.1136 -0.3722
 8262SOL    HW136248   3.257   1.175   6.188  0.1164 -1.6402 -0.7807
 8262SOL    HW236249   3.284   1.209   6.046  0.0937 -0.6051 -0.2365
 8263SOL     OW36250   3.698   2.652   3.917 -0.0409  0.8664  0.3937
 8263SOL    HW136251   3.731   2.633   4.005 -0.9591  2.8838  1.1815
 8263SOL    HW236252   3.613   2.694   3.932 -0.0727  0.7134  0.6438
 8264SOL     OW36253   4.410   1.388   5.386  0.2667  0.2236 -0.4934
 8264SOL    HW136254   4.470   1.393   5.460 -2.6376 -2.2125  1.9854
 8264SOL    HW236255   4.335   1.421   5.435  0.0745  0.0206 -0.6495
 8265SOL     OW36256   0.406   1.918  10.544  0.3452  0.5665  0.3034
 8265SOL    HW136257   0.493   1.958  10.536 -0.4901  2.2008 -0.7240
 8265SOL    HW236258   0.387   1.900  10.452 -1.8906  2.4149  0.3916
 8266SOL     OW36259   2.649   3.359   7.721 -0.4453  0.3017  0.0479
 8266SOL    HW136260   2.607   3.276   7.740  0.1136  0.2787  1.2549
 8266SOL    HW236261   2.725   3.363   7.780  0.4733 -0.3278 -1.0857
 8267SOL     OW36262   0.659   1.493   8.514  0.2705  0.5377  1.1401
 8267SOL    HW136263   0.660   1.584   8.483  0.4841 -0.2031 -1.0482
 8267SOL    HW236264   0.711   1.463   8.439 -0.6899  0.1909  0.6119
 8268SOL     OW36265   1.063   1.290   7.022  0.2036 -0.5913 -0.4432
 8268SOL    HW136266   1.053   1.224   6.953 -0.6638  0.0619 -0.9489
 8268SOL    HW236267   1.120   1.354   6.979 -1.0065  0.9474  0.2094
 8269SOL     OW36268   3.663   0.427  11.313  0.0182 -0.3068 -0.0548
 8269SOL    HW136269   3.713   0.509  11.318 -3.2937  1.7381 -1.1022
 8269SOL    HW236270   3.731   0.363  11.335  0.8918  1.2422  1.7831
 8270SOL     OW36271   4.564   2.343  12.218 -0.0242  0.1146 -0.2925
 8270SOL    HW136272   4.544   2.335  12.312 -2.2040 -2.7286 -0.9619
 8270SOL    HW236273   4.483   2.371  12.175 -1.0862  0.0968  1.6486
 8271SOL     OW36274   1.910   2.262   6.042 -0.0918  0.7911  0.7187
 8271SOL    HW136275   1.981   2.238   5.983 -2.1833  2.1157 -2.3627
 8271SOL    HW236276   1.925   2.205   6.117  1.8842 -1.6688 -1.5466
 8272SOL     OW36277   2.510   2.887  11.549  0.2584  0.2547  0.0659
 8272SOL    HW136278   2.469   2.872  11.634 -1.9780  0.7634 -0.9245
 8272SOL    HW236279   2.482   2.815  11.493  2.0741  0.2100 -0.8054
 8273SOL     OW36280   1.165   0.326   0.701  0.2324 -0.5735 -0.1547
 8273SOL    HW136281   1.081   0.341   0.657  0.0245 -2.1837 -0.3283
 8273SOL    HW236282   1.217   0.331   0.620  0.5622  0.2452  0.1061
 8274SOL     OW36283   0.414   2.523   5.495 -0.9741  0.0959  0.1094
 8274SOL    HW136284   0.372   2.599   5.453 -0.6000  0.0030 -0.4382
 8274SOL    HW236285   0.362   2.498   5.571 -2.4448 -0.3975 -1.0363
 8275SOL     OW36286   2.844   1.320  14.011 -0.3012  0.4841  0.2322
 8275SOL    HW136287   2.907   1.281  13.950  0.0552  0.0353  0.8944
 8275SOL    HW236288   2.812   1.387  13.950 -0.3073  0.8293  0.6152
 8276SOL     OW36289   4.256   2.217   2.666 -0.0815  0.4318  0.1939
 8276SOL    HW136290   4.274   2.124   2.675 -0.0163  0.5239  0.9700
 8276SOL    HW236291   4.301   2.255   2.741 -0.8384  2.2750 -0.2883
 8277SOL     OW36292   0.777   2.483   7.253  0.1348 -0.3307  0.1430
 8277SOL    HW136293   0.762   2.390   7.234 -0.3821  0.1459 -1.8234
 8277SOL    HW236294   0.839   2.476   7.325  1.0920  0.7714 -0.5731
 8278SOL     OW36295   3.052   3.159   4.612 -0.0131  0.6241 -0.2152
 8278SOL    HW136296   3.130   3.182   4.663 -1.4935  1.8762  1.4828
 8278SOL    HW236297   3.096   3.129   4.532 -0.5927 -0.5365 -0.0952
 8279SOL     OW36298   1.539   4.055  10.799 -0.0611 -0.3671 -0.6303
 8279SOL    HW136299   1.580   4.072  10.884  0.6472  0.3502 -1.1104
 8279SOL    HW236300   1.500   3.970  10.818 -1.7775  0.2056 -1.5649
 8280SOL     OW36301   3.758   0.638   9.905 -0.4143 -0.5275  0.3699
 8280SOL    HW136302   3.778   0.711   9.963  0.4675 -1.3398  1.0749
 8280SOL    HW236303   3.797   0.560   9.945 -0.4029 -0.3330  0.7361
 8281SOL     OW36304   2.736   3.173   2.365 -0.2043  0.1174  0.2876
 8281SOL    HW136305   2.700   3.178   2.277 -0.6158  0.8766  0.5005
 8281SOL    HW236306   2.754   3.264   2.389  1.6523  0.0411 -0.7550
 8282SOL     OW36307   4.621   3.635  12.210 -0.8074  0.3116  0.9246
 8282SOL    HW136308   4.559   3.563  12.199  0.6617 -0.8975  0.4593
 8282SOL    HW236309   4.682   3.607  12.278 -0.5165 -2.3934 -0.4574
 8283SOL     OW36310   4.618   4.068   8.969  0.3949 -0.2429  0.2583
 8283SOL    HW136311   4.686   4.061   9.036 -0.1284  1.0841  0.9225
 8283SOL    HW236312   4.601   3.974   8.963  0.3524 -0.2124 -0.1203
 8284SOL     OW36313   2.044   3.378   7.054 -0.2684 -0.4267 -0.6070
 8284SOL    HW136314   1.952   3.358   7.039 -0.6513  1.8813 -1.2673
 8284SOL    HW236315   2.071   3.421   6.973  2.0835 -0.9006 -0.0724
 8285SOL     OW36316   4.068   4.615   7.584  0.6181  0.9865  0.2939
 8285SOL    HW136317   4.074   4.681   7.653  1.0549  0.9083  0.3340
 8285SOL    HW236318   3.974   4.610   7.570  0.4665 -0.7910  1.8900
 8286SOL     OW36319   3.624   4.023   3.869 -0.0274  0.2910 -0.6379
 8286SOL    HW136320   3.701   4.009   3.924 -0.0151 -0.6357 -0.8799
 8286SOL    HW236321   3.590   3.933   3.866 -1.6777  0.9205 -0.4373
 8287SOL     OW36322   2.813   4.073  17.508  0.0853  0.3408  0.4360
 8287SOL    HW136323   2.738   4.131  17.519  1.3740  2.1373 -0.2864
 8287SOL    HW236324   2.859   4.110  17.433  2.5623 -0.5504  1.5249
 8288SOL     OW36325   1.993   3.891  17.391 -0.4217  0.3017  0.2248
 8288SOL    HW136326   1.969   3.799  17.396 -2.7090  0.7558 -2.0010
 8288SOL    HW236327   2.087   3.893  17.374 -0.4378 -0.7458  0.0459
 8289SOL     OW36328   3.528   4.100  12.581 -0.3497  0.4981 -0.0559
 8289SOL    HW136329   3.606   4.117  12.529 -0.1053  0.4888  0.3077
 8289SOL    HW236330   3.552   4.093  12.674 -3.8268 -1.3345  0.7131
 8290SOL     OW36331   1.744   0.162   7.904  0.3623 -0.0316 -0.5375
 8290SOL    HW136332   1.794   0.094   7.858  1.4200 -0.9265  1.9686
 8290SOL    HW236333   1.714   0.126   7.987 -1.3624  2.1583 -0.2262
 8291SOL     OW36334   0.672   2.807   8.082 -0.3579  0.3386 -0.0402
 8291SOL    HW136335   0.648   2.724   8.123 -1.8832  0.1082 -1.4007
 8291SOL    HW236336   0.616   2.858   8.141  2.1973  0.7955  2.0275
 8292SOL     OW36337   4.006   3.223   3.338  0.1178 -0.0399 -0.3747
 8292SOL    HW136338   4.007   3.255   3.428  1.2852 -2.0516  0.3259
 8292SOL    HW236339   3.953   3.146   3.355 -0.3638  0.6038  1.0798
 8293SOL     OW36340   3.286   3.743   2.880  0.0546  0.1051 -0.4078
 8293SOL    HW136341   3.193   3.735   2.861  0.1529  1.1403 -1.2860
 8293SOL    HW236342   3.288   3.821   2.935 -0.5518  0.4434 -0.8798
 8294SOL     OW36343   0.933   0.057   7.896 -0.0132  0.2019 -0.1301
 8294SOL    HW136344   1.019   0.021   7.916  0.0042 -0.2153 -0.9598
 8294SOL    HW236345   0.904   0.082   7.984 -2.9742 -1.0437 -0.7338
 8295SOL     OW36346   0.319   1.918  10.284  0.0935 -0.1482 -0.2747
 8295SOL    HW136347   0.301   1.879  10.198 -0.7265 -1.7759  0.6481
 8295SOL    HW236348   0.233   1.906  10.324  1.1726  0.0277  2.0758
 8296SOL     OW36349   3.310   2.758   6.020  0.3395 -0.3451  0.0815
 8296SOL    HW136350   3.217   2.767   6.039  0.4084 -0.3840  0.4422
 8296SOL    HW236351   3.331   2.673   6.060  0.8372 -0.0513  0.4370
 8297SOL     OW36352   0.473   3.104   8.446 -0.1462  0.2934 -0.3627
 8297SOL    HW136353   0.527   3.177   8.478  0.1514 -0.9808  1.9631
 8297SOL    HW236354   0.393   3.146   8.478  0.4942  0.5412  0.9117
 8298SOL     OW36355   4.648   2.956   6.330  0.6039  0.0341 -0.1711
 8298SOL    HW136356   4.709   2.947   6.257  1.8216  1.6747  0.6317
 8298SOL    HW236357   4.611   3.042   6.308  1.3712  0.1882 -0.8883
 8299SOL     OW36358   4.288   3.666   3.656  0.2847 -0.1994 -0.2988
 8299SOL    HW136359   4.365   3.702   3.612 -0.5560  0.9484 -0.8008
 8299SOL    HW236360   4.293   3.572   3.636 -2.6083 -0.0453 -1.7760
 8300SOL     OW36361   4.236   3.672   4.500  0.0953  0.4910 -0.2607
 8300SOL    HW136362   4.304   3.641   4.560  2.4999  0.7546 -2.8240
 8300SOL    HW236363   4.270   3.758   4.475 -0.2209  1.2037  1.8275
 8301SOL     OW36364   0.607   0.945   2.796 -0.7171 -0.2632  0.4213
 8301SOL    HW136365   0.581   0.994   2.874 -0.1780 -0.4389  0.7161
 8301SOL    HW236366   0.521   0.912   2.772 -0.1084 -1.0582 -0.7024
 8302SOL     OW36367   4.682   3.416   6.871 -0.0993  0.2039  0.4703
 8302SOL    HW136368   4.649   3.472   6.942  0.4552  0.6170  0.4091
 8302SOL    HW236369   4.598   3.389   6.836  0.4271 -2.1813  1.0405
 8303SOL     OW36370   4.449   2.312  16.170 -0.1022 -0.2359  0.1790
 8303SOL    HW136371   4.396   2.369  16.113 -0.0489  0.8082  1.1738
 8303SOL    HW236372   4.390   2.327  16.243  0.1722 -1.3137  0.6123
 8304SOL     OW36373   0.461   0.199  14.322  0.4356 -0.2986  0.1627
 8304SOL    HW136374   0.430   0.277  14.369  2.6123  0.8011 -0.2145
 8304SOL    HW236375   0.387   0.144  14.296  0.7281 -2.0004  2.9213
 8305SOL     OW36376   0.343   3.555   3.466 -0.2165  0.1450  0.8491
 8305SOL    HW136377   0.420   3.579   3.414 -0.1001 -1.0319  0.4754
 8305SOL    HW236378   0.293   3.637   3.466  0.1839  0.3917  1.4402
 8306SOL     OW36379   0.653   3.348   3.275  0.2866 -0.0134  0.1955
 8306SOL    HW136380   0.671   3.394   3.193 -0.2993 -1.7685 -0.9147
 8306SOL    HW236381   0.634   3.262   3.237 -1.2428  1.1854 -1.7587
 8307SOL     OW36382   2.181   4.092   4.825 -0.0051 -0.4136  0.0973
 8307SOL    HW136383   2.126   4.156   4.778  0.0292 -0.4324  0.0304
 8307SOL    HW236384   2.110   4.042   4.863 -0.3885 -1.1996 -1.6280
 8308SOL     OW36385   1.364   3.843   8.143 -0.7532  0.1992 -0.1855
 8308SOL    HW136386   1.397   3.828   8.232  0.6002 -0.5277 -0.8080
 8308SOL    HW236387   1.355   3.938   8.151  2.3819  0.2782  2.7338
 8309SOL     OW36388   0.930   2.244   2.518 -0.1238  0.2088 -0.1509
 8309SOL    HW136389   0.982   2.175   2.559  1.9162  3.1452  2.2156
 8309SOL    HW236390   0.968   2.315   2.571 -0.6273 -1.2035  2.0988
 8310SOL     OW36391   3.807   1.980   4.402 -0.2190  0.4228  0.1631
 8310SOL    HW136392   3.824   1.918   4.331 -0.8937  2.1148 -1.4749
 8310SOL    HW236393   3.874   1.949   4.464 -0.4387  1.7758  1.0817
 8311SOL     OW36394   2.323   0.058   3.089  0.2481  0.2632 -0.1415
 8311SOL    HW136395   2.252   0.121   3.091  0.3790  0.4059 -0.0108
 8311SOL    HW236396   2.406   0.103   3.105  1.3334 -2.1220  1.1238
 8312SOL     OW36397   2.334   1.818  12.116  0.8211  0.3022 -0.0899
 8312SOL    HW136398   2.355   1.751  12.051 -0.9846  1.5360 -1.9566
 8312SOL    HW236399   2.241   1.809  12.138  0.9784 -0.7677  0.1624
 8313SOL     OW36400   3.713   0.586   7.393  0.3600  0.0235 -0.2329
 8313SOL    HW136401   3.624   0.585   7.359  0.5494 -2.2123 -0.6668
 8313SOL    HW236402   3.690   0.588   7.486  1.3922  1.0939  0.0094
 8314SOL     OW36403   2.871   1.808   0.409 -0.3169  0.1008 -0.2123
 8314SOL    HW136404   2.899   1.797   0.500  0.4324  0.2610 -0.4219
 8314SOL    HW236405   2.957   1.799   0.368 -0.4639 -3.2403  0.1752
 8315SOL     OW36406   0.583   2.984   5.972 -0.0443 -0.1728 -0.4066
 8315SOL    HW136407   0.500   3.031   5.961 -1.5582 -2.4838  1.0019
 8315SOL    HW236408   0.559   2.914   5.911  0.2727  0.4642 -1.2650
 8316SOL     OW36409   3.680   2.546  10.947 -0.2821  0.0371  0.7248
 8316SOL    HW136410   3.696   2.639  10.933  2.6555 -0.5771 -0.0672
 8316SOL    HW236411   3.621   2.531  10.873 -2.4087 -0.7914  2.5802
 8317SOL     OW36412   2.150   2.662  12.591  0.1818 -0.6659 -0.1296
 8317SOL    HW136413   2.218   2.595  12.596 -1.2909 -2.0705  1.1263
 8317SOL    HW236414   2.173   2.700  12.506  2.2650  0.3068  0.8537
 8318SOL     OW36415   1.773   2.128   5.840 -0.2116 -0.2504  0.1063
 8318SOL    HW136416   1.782   2.072   5.917 -0.6678  1.5061  1.4212
 8318SOL    HW236417   1.770   2.218   5.871  0.4198 -0.3612  0.4849
 8319SOL     OW36418   3.045   0.505   5.288 -0.1269 -0.1767 -0.3505
 8319SOL    HW136419   2.989   0.575   5.254 -1.3957  0.1914  2.5686
 8319SOL    HW236420   3.128   0.552   5.283  0.3805 -0.9847  0.4907
 8320SOL     OW36421   4.008   1.559  16.784 -0.1119  0.3974 -0.0880
 8320SOL    HW136422   4.025   1.497  16.855  2.4899  1.5086  0.2596
 8320SOL    HW236423   4.077   1.624  16.794 -0.1457  0.3005  0.7289
 8321SOL     OW36424   3.145   1.054   8.084  0.3983 -0.0843  0.5728
 8321SOL    HW136425   3.100   1.130   8.119 -0.6402 -0.0216 -0.9068
 8321SOL    HW236426   3.237   1.072   8.104  0.3800  1.3356 -0.7161
 8322SOL     OW36427   3.953   0.775  13.997 -0.5618 -0.1673 -0.0651
 8322SOL    HW136428   4.046   0.761  13.981 -0.4771 -1.1290  1.2546
 8322SOL    HW236429   3.912   0.706  13.945 -0.0399  2.1065 -3.4673
 8323SOL     OW36430   0.672   0.905   6.113  0.0081  0.1341  0.2485
 8323SOL    HW136431   0.606   0.844   6.082  0.5842 -0.7384  0.7258
 8323SOL    HW236432   0.655   0.890   6.206 -1.6640  0.4796  0.0010
 8324SOL     OW36433   4.312   3.345   0.029 -0.1323  0.4493  0.0883
 8324SOL    HW136434   4.304   3.277  17.661 -0.1697 -0.7883  1.3498
 8324SOL    HW236435   4.244   3.406   0.001 -0.2932  0.0924 -0.3075
 8325SOL     OW36436   0.907   2.027   3.065 -0.6107 -0.1598 -0.6307
 8325SOL    HW136437   0.819   2.060   3.085 -0.4520 -0.3346  0.3296
 8325SOL    HW236438   0.951   2.112   3.066 -0.8709 -0.0477  1.6977
 8326SOL     OW36439   3.689   2.992  12.299  1.0302  0.1919  0.0481
 8326SOL    HW136440   3.675   3.015  12.391 -0.0201 -0.3348  0.0233
 8326SOL    HW236441   3.600   2.977  12.267  0.6815  0.2499  1.0001
 8327SOL     OW36442   1.000   0.885   7.519  0.2883  0.3299  0.0917
 8327SOL    HW136443   0.956   0.946   7.460 -0.7396  0.3193  0.8597
 8327SOL    HW236444   1.043   0.937   7.586  2.2663 -1.1118 -0.0412
 8328SOL     OW36445   0.717   2.317   7.537 -0.4244 -0.4534  0.1056
 8328SOL    HW136446   0.683   2.402   7.565 -0.0236 -0.2719  0.0383
 8328SOL    HW236447   0.805   2.325   7.574  0.0701 -0.0206 -1.1917
 8329SOL     OW36448   1.785   0.879   2.821  0.3153 -0.3025  0.6361
 8329SOL    HW136449   1.786   0.903   2.728  0.4574 -0.6603  0.5412
 8329SOL    HW236450   1.731   0.800   2.823  2.2198 -1.6466 -0.6562
 8330SOL     OW36451   4.126   1.127   8.404  0.1502  0.0724 -0.0960
 8330SOL    HW136452   4.176   1.136   8.323 -0.8550 -0.2941 -0.7702
 8330SOL    HW236453   4.045   1.170   8.376 -0.7843 -0.2798  2.0510
 8331SOL     OW36454   1.978   1.962   7.899 -0.0793  0.5610  0.3298
 8331SOL    HW136455   1.984   1.998   7.987 -0.5669  1.0514  0.1687
 8331SOL    HW236456   1.935   1.877   7.907  1.7553 -0.3427  0.5221
 8332SOL     OW36457   0.702   4.136  13.113 -0.1768  0.1441  0.7497
 8332SOL    HW136458   0.705   4.142  13.209  1.3095 -0.1173  0.7187
 8332SOL    HW236459   0.662   4.221  13.096  1.1146  0.3787 -1.0976
 8333SOL     OW36460   2.165   1.874   7.061  0.2504 -0.2236  0.1495
 8333SOL    HW136461   2.087   1.914   7.022  1.1107  0.7511 -0.5664
 8333SOL    HW236462   2.126   1.791   7.088 -1.6504  0.8224  0.6526
 8334SOL     OW36463   1.232   4.006  13.485  0.0188 -0.2835  0.3758
 8334SOL    HW136464   1.165   4.011  13.418  1.4592 -1.9297 -1.1756
 8334SOL    HW236465   1.305   3.985  13.427  1.6986  0.4878  2.2094
 8335SOL     OW36466   4.577   1.535   7.575 -0.1267 -0.1697  0.3257
 8335SOL    HW136467   4.662   1.516   7.535  0.5379  0.1478  1.5765
 8335SOL    HW236468   4.526   1.454   7.572 -1.0100  0.3679  0.7131
 8336SOL     OW36469   4.025   4.252   4.978 -0.0847 -0.1605 -0.2343
 8336SOL    HW136470   4.069   4.171   4.954 -1.3346 -1.1790  0.9419
 8336SOL    HW236471   4.029   4.241   5.073 -2.5982 -1.1156 -0.2436
 8337SOL     OW36472   0.134   3.111   6.590 -0.1685  0.5350  0.0583
 8337SOL    HW136473   0.044   3.113   6.557  0.4844  1.8089 -1.6804
 8337SOL    HW236474   0.176   3.165   6.522 -0.1901 -0.6188 -0.8816
 8338SOL     OW36475   3.205   3.157   8.180 -0.0355 -0.4471  0.4243
 8338SOL    HW136476   3.278   3.179   8.238 -1.3585  1.3966  1.4153
 8338SOL    HW236477   3.133   3.196   8.231  0.7438  2.1060 -0.4319
 8339SOL     OW36478   2.178   4.318   8.368  0.1485 -0.9058  0.6737
 8339SOL    HW136479   2.150   4.274   8.287  0.5859  0.7570 -0.3982
 8339SOL    HW236480   2.258   4.365   8.342 -0.3108 -0.0274  0.8595
 8340SOL     OW36481   3.260   1.634  15.619 -0.1359  0.1614 -0.3637
 8340SOL    HW136482   3.352   1.623  15.595  0.3366  2.1311  0.5852
 8340SOL    HW236483   3.258   1.604  15.710  0.4941 -0.0457 -0.4227
 8341SOL     OW36484   0.036   0.490   2.809  0.5425  0.0215  0.2147
 8341SOL    HW136485   0.068   0.400   2.803  1.6421  0.4539 -0.6134
 8341SOL    HW236486   4.666   0.487   2.796  0.6553 -1.1836 -0.3160
 8342SOL     OW36487   3.203   2.239   6.402  0.3766  0.3626  0.0813
 8342SOL    HW136488   3.173   2.210   6.488 -0.0356 -2.3850 -0.9759
 8342SOL    HW236489   3.263   2.309   6.425  1.9403 -0.9774  0.0291
 8343SOL     OW36490   4.698   0.376  13.266 -0.3261  0.2782 -0.1485
 8343SOL    HW136491   4.708   0.281  13.274 -1.6691 -0.0528 -2.6056
 8343SOL    HW236492   4.717   0.407  13.355  1.0836 -1.1392  0.0592
 8344SOL     OW36493   2.614   1.820  11.277 -0.2980 -0.1196  0.4774
 8344SOL    HW136494   2.691   1.765  11.293  0.6833  1.4237  1.0773
 8344SOL    HW236495   2.547   1.771  11.324 -0.7285 -0.7852 -0.8331
 8345SOL     OW36496   2.677   4.173  13.494  0.4352  0.6925 -0.1111
 8345SOL    HW136497   2.667   4.094  13.441 -0.6672 -0.0832  1.2571
 8345SOL    HW236498   2.725   4.131  13.566  1.4358  2.9326  0.5256
 8346SOL     OW36499   3.063   4.615   4.647 -0.4480  0.4330 -0.5669
 8346SOL    HW136500   3.096   4.549   4.586  0.7108  1.7542 -1.3835
 8346SOL    HW236501   3.138   4.674   4.641 -0.2899  0.3117  0.2934
 8347SOL     OW36502   4.287   2.335  16.377  0.6002  0.0996 -0.0874
 8347SOL    HW136503   4.283   2.375  16.464 -0.0081  0.4272 -0.2674
 8347SOL    HW236504   4.268   2.244  16.400  1.0305  0.5443  2.0590
 8348SOL     OW36505   1.243   1.873   5.579  1.0187 -0.3177 -0.0776
 8348SOL    HW136506   1.321   1.912   5.538  1.4210 -1.6249 -0.5559
 8348SOL    HW236507   1.267   1.834   5.663  1.1896 -0.1358 -0.0420
 8349SOL     OW36508   3.070   3.597  15.883 -0.4464  0.6661  0.2956
 8349SOL    HW136509   3.127   3.645  15.943  0.9990 -0.1493 -0.4262
 8349SOL    HW236510   2.984   3.606  15.924 -0.6165 -0.1317  0.1256
 8350SOL     OW36511   3.679   0.938   6.905  0.2965  0.5004  0.6279
 8350SOL    HW136512   3.612   1.002   6.882 -1.7040 -1.0133  2.1871
 8350SOL    HW236513   3.672   0.946   7.001 -0.0181 -0.1319  0.6548
 8351SOL     OW36514   1.908   1.446  11.312  0.4272  0.0400  0.1861
 8351SOL    HW136515   1.958   1.424  11.234 -0.3199 -2.5059  0.4366
 8351SOL    HW236516   1.965   1.447  11.388  1.2240  0.4810 -0.4117
 8352SOL     OW36517   2.277   1.602   9.010  0.1186  0.1953  0.1964
 8352SOL    HW136518   2.360   1.645   8.988  0.3888  1.4628  3.6816
 8352SOL    HW236519   2.304   1.519   9.049  1.6896  0.2814 -0.7225
 8353SOL     OW36520   2.473   1.970   4.152  0.6403 -0.6201 -0.1848
 8353SOL    HW136521   2.546   1.918   4.186  0.4134  0.7875  2.4736
 8353SOL    HW236522   2.494   2.055   4.191 -0.7814  0.1539 -1.1486
 8354SOL     OW36523   1.666   0.938   4.124  0.4794 -0.3042  0.8050
 8354SOL    HW136524   1.612   1.013   4.150 -0.8449 -1.0825  0.2872
 8354SOL    HW236525   1.712   0.904   4.201 -0.1635 -1.3217  0.7337
 8355SOL     OW36526   3.482   0.210  11.806 -0.1850  0.7665 -0.1629
 8355SOL    HW136527   3.426   0.142  11.767 -1.8248  1.0350  1.7413
 8355SOL    HW236528   3.569   0.179  11.779 -1.9131 -3.0199 -1.4901
 8356SOL     OW36529   0.759   2.983   3.542  0.7469 -0.0800  0.4136
 8356SOL    HW136530   0.838   2.930   3.539  0.4426 -0.5599  0.7214
 8356SOL    HW236531   0.686   2.924   3.519  2.1055 -1.6565  0.1441
 8357SOL     OW36532   0.602   0.109   4.713  0.0315  0.1075  0.0882
 8357SOL    HW136533   0.681   0.148   4.677 -0.6162 -0.1287 -1.6116
 8357SOL    HW236534   0.568   0.059   4.638 -1.7006 -1.2370  1.7634
 8358SOL     OW36535   3.238   1.698   7.176 -0.1593 -0.3537 -0.1512
 8358SOL    HW136536   3.225   1.652   7.259 -1.4671 -0.5055 -0.4416
 8358SOL    HW236537   3.175   1.656   7.117 -0.8359 -1.1946  1.1736
 8359SOL     OW36538   2.416   3.209  11.819  0.0344  0.0813 -0.0809
 8359SOL    HW136539   2.352   3.219  11.749 -1.8408  0.5461  1.7199
 8359SOL    HW236540   2.462   3.126  11.803  0.0766  0.1060 -0.0869
 8360SOL     OW36541   0.702   3.379  17.693  0.1160 -0.1414  0.2653
 8360SOL    HW136542   0.732   3.463   0.028  1.6268 -1.7785  2.9760
 8360SOL    HW236543   0.608   3.394  17.689  0.1587 -0.0926 -0.6857
 8361SOL     OW36544   4.048   2.645   8.591 -0.3458 -0.0614  0.3569
 8361SOL    HW136545   4.074   2.661   8.501 -1.2723 -0.0156  0.1043
 8361SOL    HW236546   4.122   2.592   8.621 -0.1312 -0.2567 -0.5316
 8362SOL     OW36547   1.622   0.114   8.333 -0.6317  0.1164 -0.2113
 8362SOL    HW136548   1.552   0.100   8.396  1.4378 -0.7263  1.9292
 8362SOL    HW236549   1.624   0.209   8.342  0.9470  0.0501  0.3204
 8363SOL     OW36550   1.983   0.907   5.142 -0.2601  0.2530 -0.8209
 8363SOL    HW136551   2.063   0.878   5.186  0.7572  0.5575 -2.4709
 8363SOL    HW236552   1.934   0.828   5.122 -1.8386  0.7147  1.1961
 8364SOL     OW36553   3.950   0.554   2.991 -0.0537 -0.2553 -0.1514
 8364SOL    HW136554   3.915   0.635   3.028 -1.0244 -0.7356 -0.0099
 8364SOL    HW236555   3.867   0.528   2.951  0.3184 -1.0750 -0.3817
 8365SOL     OW36556   4.468   2.244   7.461 -0.4502 -0.3935 -0.2589
 8365SOL    HW136557   4.409   2.170   7.477 -1.0392  0.0356 -0.4423
 8365SOL    HW236558   4.502   2.233   7.372 -1.4424  1.6453 -0.9047
 8366SOL     OW36559   1.158   1.963   2.548 -0.3207 -0.3780  0.1159
 8366SOL    HW136560   1.239   2.013   2.556  0.4194 -0.9379 -4.2426
 8366SOL    HW236561   1.176   1.900   2.478  0.9805 -0.4170  0.4765
 8367SOL     OW36562   3.852   2.821   8.556  1.0049 -0.3705 -0.1809
 8367SOL    HW136563   3.915   2.751   8.575  1.0784  0.4014  2.3267
 8367SOL    HW236564   3.822   2.849   8.642  2.8651  0.7180  0.1205
 8368SOL     OW36565   1.689   2.033   2.517  0.1936 -0.4575  0.1438
 8368SOL    HW136566   1.659   1.986   2.594  1.5345  3.0595  2.7812
 8368SOL    HW236567   1.752   2.095   2.553 -1.6185  1.2143  0.4317
 8369SOL     OW36568   4.461   3.165   7.866  0.7418 -0.1453  0.2295
 8369SOL    HW136569   4.536   3.211   7.904  1.4710 -0.9992 -0.1636
 8369SOL    HW236570   4.380   3.206   7.896 -0.4675 -2.2153 -0.2231
 8370SOL     OW36571   2.617   2.719   2.015  0.6121  0.1819 -0.4317
 8370SOL    HW136572   2.589   2.805   1.983 -0.0160  0.1700  0.1035
 8370SOL    HW236573   2.526   2.691   2.024  0.4818 -0.4514 -3.5027
 8371SOL     OW36574   1.340   1.598   0.629 -0.0740  0.4105  0.0098
 8371SOL    HW136575   1.303   1.686   0.627  0.5630  0.7053  1.9528
 8371SOL    HW236576   1.289   1.567   0.703 -1.2472  0.0712 -0.9400
 8372SOL     OW36577   4.517   1.419  14.821  0.1526  0.6113  0.0908
 8372SOL    HW136578   4.596   1.366  14.828 -0.9888 -1.3461 -1.9653
 8372SOL    HW236579   4.566   1.500  14.837  0.4558  1.3770 -4.6195
 8373SOL     OW36580   2.846   0.541   3.848  0.6789  0.2745  1.0246
 8373SOL    HW136581   2.855   0.625   3.894  0.7364 -0.1889  1.8753
 8373SOL    HW236582   2.826   0.565   3.758  1.7825 -1.7144  0.2692
 8374SOL     OW36583   1.093   2.292   4.390  0.7700  0.5298  0.4040
 8374SOL    HW136584   1.180   2.296   4.351  0.9295  1.8972  0.8909
 8374SOL    HW236585   1.106   2.342   4.471 -0.0952 -0.9081  1.4305
 8375SOL     OW36586   2.050   3.578   4.147 -0.4115 -0.3807  0.0448
 8375SOL    HW136587   2.035   3.577   4.241 -1.5753 -1.8279 -0.1504
 8375SOL    HW236588   2.136   3.620   4.155 -1.4056  1.5892  0.3957
 8376SOL     OW36589   4.517   1.540   2.950 -0.4621 -0.7118  0.0483
 8376SOL    HW136590   4.491   1.452   2.978 -1.1000 -0.3296  0.6322
 8376SOL    HW236591   4.602   1.517   2.910 -0.6032 -3.3035  1.2420
 8377SOL     OW36592   2.251   0.239   6.712  0.0536 -0.1484 -0.7047
 8377SOL    HW136593   2.346   0.229   6.714  0.0133 -0.3116  0.8012
 8377SOL    HW236594   2.214   0.156   6.681  0.6489  0.3573 -2.7679
 8378SOL     OW36595   1.391   2.941   4.119 -0.1388 -0.5269 -1.1015
 8378SOL    HW136596   1.444   2.865   4.097  1.2483  0.4889 -1.2999
 8378SOL    HW236597   1.311   2.908   4.077  0.0392 -0.6587 -1.3338
 8379SOL     OW36598   3.015   3.915   7.245  0.0875  0.5564 -0.2355
 8379SOL    HW136599   2.924   3.940   7.231 -0.6129 -0.2714  2.7235
 8379SOL    HW236600   3.048   4.004   7.258 -1.4652  0.7809  2.1784
 8380SOL     OW36601   0.626   0.439   6.699  0.1346 -0.6909  0.2299
 8380SOL    HW136602   0.574   0.372   6.654 -0.0508 -0.6254  0.3460
 8380SOL    HW236603   0.604   0.428   6.792  1.3375 -0.9065  0.4907
 8381SOL     OW36604   3.171   0.751   7.087 -0.6356  0.3207  0.4415
 8381SOL    HW136605   3.109   0.812   7.125 -0.8286 -1.8282  3.5854
 8381SOL    HW236606   3.128   0.666   7.091 -0.3093  0.1746  0.8559
 8382SOL     OW36607   1.278   3.781   3.295  0.0481  0.0731  0.2581
 8382SOL    HW136608   1.199   3.789   3.347 -0.5471  0.7428 -0.7539
 8382SOL    HW236609   1.246   3.763   3.207 -1.2387  1.1580  0.5084
 8383SOL     OW36610   2.566   3.709   6.015  0.4557 -0.0033 -0.2333
 8383SOL    HW136611   2.532   3.688   6.101  0.7459 -0.3107 -0.1949
 8383SOL    HW236612   2.524   3.794   5.997  0.1446 -0.1314 -0.1017
 8384SOL     OW36613   0.969   4.112  11.191  0.0768 -0.1365  0.4410
 8384SOL    HW136614   1.022   4.109  11.112 -1.7553  1.1002 -0.8285
 8384SOL    HW236615   0.999   4.027  11.226 -0.0267 -0.3065  0.1099
 8385SOL     OW36616   3.087   1.778   3.190 -0.3761  0.0853  0.2058
 8385SOL    HW136617   3.145   1.807   3.120 -0.6369  2.3947  0.9395
 8385SOL    HW236618   3.005   1.786   3.141  0.4236  1.3698 -0.9098
 8386SOL     OW36619   1.946   3.139  12.799 -0.1181 -0.1057 -0.2278
 8386SOL    HW136620   1.889   3.063  12.784 -0.2754  0.0944 -0.6396
 8386SOL    HW236621   1.996   3.098  12.870 -1.0157  1.4361  1.3041
 8387SOL     OW36622   1.013   2.415   6.602 -0.7164  0.9190  0.4590
 8387SOL    HW136623   1.096   2.409   6.649 -1.1946  1.6514  1.3996
 8387SOL    HW236624   0.957   2.413   6.680 -0.0100  1.1642  0.9690
 8388SOL     OW36625   4.660   3.234   4.708  0.3237  0.2956  0.2479
 8388SOL    HW136626   4.705   3.280   4.637  0.4422 -1.6232 -0.9368
 8388SOL    HW236627   4.662   3.295   4.781 -1.7791  3.1372 -2.0558
 8389SOL     OW36628   2.867   3.093   3.546 -0.4167  0.1668  0.6285
 8389SOL    HW136629   2.948   3.105   3.496 -0.0874 -0.0659  1.1108
 8389SOL    HW236630   2.885   3.159   3.613 -1.2920  2.4430 -1.3610
 8390SOL     OW36631   0.067   1.591  15.111 -0.0254 -0.1598  0.3371
 8390SOL    HW136632   0.111   1.676  15.117 -0.5081  0.0343  1.1105
 8390SOL    HW236633   0.138   1.545  15.154 -0.2561 -0.3681  0.4964
 8391SOL     OW36634   4.656   1.220  13.159 -0.5789  0.4641 -0.9609
 8391SOL    HW136635   4.683   1.201  13.249  2.0981  2.2213 -1.3919
 8391SOL    HW236636   4.656   1.316  13.162  0.7857  0.4596 -0.7045
 8392SOL     OW36637   2.447   4.202   6.631  0.0909 -0.0285 -0.2799
 8392SOL    HW136638   2.415   4.289   6.606 -0.8727  0.1218  1.4510
 8392SOL    HW236639   2.368   4.149   6.631  0.5559 -0.7253 -2.2340
 8393SOL     OW36640   1.922   0.558   6.797 -0.3625  0.6668 -0.5041
 8393SOL    HW136641   1.939   0.471   6.762 -0.2238  0.6309 -0.3450
 8393SOL    HW236642   1.945   0.541   6.888  0.2999 -0.0497 -0.8145
 8394SOL     OW36643   2.112   2.958  12.602 -0.5196  0.6640 -0.1807
 8394SOL    HW136644   2.109   2.867  12.572  1.1580  0.1463  1.1834
 8394SOL    HW236645   2.026   2.983  12.568 -0.5377  1.2358  0.2930
 8395SOL     OW36646   0.336   0.695   8.451  0.4000 -0.0263  0.2652
 8395SOL    HW136647   0.370   0.654   8.372 -0.7355 -2.8094  1.2223
 8395SOL    HW236648   0.296   0.776   8.419 -1.6451 -2.2544 -2.8727
 8396SOL     OW36649   1.880   2.633  11.474  0.2057  0.0731  0.2150
 8396SOL    HW136650   1.932   2.553  11.463  1.1109  1.0325 -2.4954
 8396SOL    HW236651   1.946   2.689  11.514 -0.0099  1.9046 -2.0356
 8397SOL     OW36652   2.201   2.963   2.544  0.5531  0.1263  0.0991
 8397SOL    HW136653   2.218   2.872   2.569 -0.5681  0.3787  1.7818
 8397SOL    HW236654   2.185   2.957   2.450 -1.0272  0.7042  0.3359
 8398SOL     OW36655   0.286   0.059   6.606  0.0410  0.4268 -0.3313
 8398SOL    HW136656   0.246   4.701   6.635  0.5240  0.9524  1.8360
 8398SOL    HW236657   0.310   0.028   6.519 -0.3381 -0.4464 -0.1214
 8399SOL     OW36658   2.423   1.184   4.670  0.3001  0.0949  0.1488
 8399SOL    HW136659   2.509   1.172   4.631  0.5936  0.5224  0.6534
 8399SOL    HW236660   2.370   1.138   4.605 -0.9860 -1.5813  2.3797
 8400SOL     OW36661   4.561   2.748   4.558 -0.3820 -0.2401  0.5727
 8400SOL    HW136662   4.611   2.712   4.631  2.9202  1.7604 -0.6792
 8400SOL    HW236663   4.472   2.752   4.594 -0.8328  1.4913 -0.7166
 8401SOL     OW36664   4.537   2.062   2.473 -0.2044 -0.1609  0.9678
 8401SOL    HW136665   4.616   2.040   2.425 -1.2404  0.7129 -1.1060
 8401SOL    HW236666   4.488   2.115   2.410 -0.8998 -1.8348  0.0933
 8402SOL     OW36667   4.223   1.930   2.723  0.3031 -0.2824 -0.2264
 8402SOL    HW136668   4.257   1.894   2.642 -0.4029  0.9199 -1.0530
 8402SOL    HW236669   4.274   1.882   2.789  0.0052  0.7345  0.7636
 8403SOL     OW36670   2.318   0.054  12.775  1.0126  0.2468 -0.1848
 8403SOL    HW136671   2.286   0.142  12.794 -0.6208 -0.8956  2.2741
 8403SOL    HW236672   2.236   0.013  12.748 -1.0743  3.3007  1.6391
 8404SOL     OW36673   2.180   3.733   7.226 -0.0497 -0.2094 -0.4049
 8404SOL    HW136674   2.103   3.690   7.191 -0.2070  0.1988 -0.5583
 8404SOL    HW236675   2.147   3.785   7.300 -1.5039 -2.4879  0.5278
 8405SOL     OW36676   2.742   0.960   6.864  0.4118  0.5747 -0.6409
 8405SOL    HW136677   2.703   0.907   6.933 -1.1422  1.4285 -0.8539
 8405SOL    HW236678   2.701   0.914   6.791  5.0995 -0.3260 -2.6758
 8406SOL     OW36679   4.643   2.537   3.592  0.0962 -0.5556  0.4651
 8406SOL    HW136680   4.562   2.586   3.608  0.5866  0.3823  0.0801
 8406SOL    HW236681   4.666   2.584   3.511  0.8118  2.2399  2.2758
 8407SOL     OW36682   2.662   4.352   4.881  0.1249 -0.1263 -0.3536
 8407SOL    HW136683   2.655   4.303   4.799  0.1743  0.3707 -0.6543
 8407SOL    HW236684   2.751   4.383   4.866  0.2731  0.3150  1.3748
 8408SOL     OW36685   3.979   3.912   6.058 -0.3925  0.4927 -0.0304
 8408SOL    HW136686   4.008   3.867   6.137  1.5001  3.4850  0.9687
 8408SOL    HW236687   3.912   3.851   6.027 -2.1607  2.8205 -0.7430
 8409SOL     OW36688   1.577   1.755   6.607  0.1764  0.4418  0.2394
 8409SOL    HW136689   1.587   1.790   6.695 -1.7428 -0.0614  0.6581
 8409SOL    HW236690   1.487   1.786   6.591 -0.0106  0.1313  0.6857
 8410SOL     OW36691   2.480   3.533  15.670  0.2966 -0.4601  0.5625
 8410SOL    HW136692   2.407   3.502  15.616  1.4104  1.1610 -1.8346
 8410SOL    HW236693   2.537   3.588  15.617 -2.6565  2.7844  0.7204
 8411SOL     OW36694   1.119   2.283  15.737 -0.0527  0.9870 -0.3939
 8411SOL    HW136695   1.140   2.363  15.689 -0.2008  1.1412 -0.2004
 8411SOL    HW236696   1.023   2.286  15.738 -0.0471  0.8935  0.5784
 8412SOL     OW36697   0.189   4.262   2.870  0.2432  0.1781 -0.4640
 8412SOL    HW136698   0.173   4.178   2.913 -1.6148  0.9665  0.4085
 8412SOL    HW236699   0.104   4.278   2.829  0.0828  0.9633  0.1820
 8413SOL     OW36700   2.113   0.505   8.701  0.1689 -0.1799 -0.1441
 8413SOL    HW136701   2.071   0.534   8.782 -2.3840 -0.4639 -1.3715
 8413SOL    HW236702   2.181   0.450   8.739  0.9815  1.3405  0.6043
 8414SOL     OW36703   2.855   4.262  15.513 -0.3437 -0.1070  0.0772
 8414SOL    HW136704   2.932   4.318  15.523 -0.2417 -0.5997  1.8996
 8414SOL    HW236705   2.888   4.173  15.518 -0.4035 -0.1843 -0.8751
 8415SOL     OW36706   3.971   1.135   4.576  0.1669 -0.2917  0.3299
 8415SOL    HW136707   3.962   1.051   4.620 -2.5923  0.2219  0.6889
 8415SOL    HW236708   4.027   1.108   4.503 -0.4024  1.6148 -0.7954
 8416SOL     OW36709   0.929   2.066  17.208 -0.4252 -0.0739  0.2665
 8416SOL    HW136710   0.984   2.069  17.287 -0.7316 -0.4852  0.4924
 8416SOL    HW236711   0.870   1.992  17.221 -1.9407  0.6531 -2.4817
 8417SOL     OW36712   3.911   3.209   6.807  1.0100 -0.4198  0.0855
 8417SOL    HW136713   4.004   3.221   6.789  1.0340  0.7930  1.0242
 8417SOL    HW236714   3.876   3.290   6.769 -1.8721 -2.2674 -1.1903
 8418SOL     OW36715   1.147   4.339   2.093 -0.2455 -0.3362  0.0503
 8418SOL    HW136716   1.226   4.361   2.043  1.2525 -0.7990  2.2443
 8418SOL    HW236717   1.149   4.243   2.095 -2.1287 -0.4530 -2.9848
 8419SOL     OW36718   1.112   3.767  13.971  0.3586 -0.1209 -0.0538
 8419SOL    HW136719   1.120   3.857  13.938  0.2011 -0.9242 -2.2626
 8419SOL    HW236720   1.168   3.764  14.048  0.0639 -0.9572  0.1266
 8420SOL     OW36721   1.592   2.501   4.866 -0.5530  0.1415 -0.5635
 8420SOL    HW136722   1.676   2.545   4.866  0.0645 -1.0234 -2.4434
 8420SOL    HW236723   1.612   2.424   4.919 -0.0987  0.9151  0.3767
 8421SOL     OW36724   2.738   1.181  16.248 -0.0612 -0.6010 -0.2389
 8421SOL    HW136725   2.717   1.249  16.184 -1.0761 -1.2770 -0.6224
 8421SOL    HW236726   2.755   1.106  16.190 -2.6525  0.5300 -2.4483
 8422SOL     OW36727   2.047   4.079   2.515 -0.9270  0.3725 -0.3606
 8422SOL    HW136728   2.140   4.071   2.494 -1.4474 -2.9973 -1.3819
 8422SOL    HW236729   2.050   4.165   2.558 -0.1130 -0.4341  1.1982
 8423SOL     OW36730   4.078   3.391   1.450  0.2280  0.0689 -0.6003
 8423SOL    HW136731   4.121   3.314   1.487  1.7257  0.8376 -0.7311
 8423SOL    HW236732   4.033   3.432   1.523  2.1067  0.6455  0.2529
 8424SOL     OW36733   1.054   2.200  14.485 -0.3494 -0.4696  0.0278
 8424SOL    HW136734   1.135   2.214  14.533  0.2440  0.8280 -1.3322
 8424SOL    HW236735   0.996   2.160  14.550 -1.1180 -0.7821 -0.8447
 8425SOL     OW36736   0.958   0.018   8.903  0.4888  0.1047 -0.0820
 8425SOL    HW136737   0.930   0.056   8.986 -0.3382  1.9330 -1.1924
 8425SOL    HW236738   0.983   0.088   8.843 -2.9897  0.6547 -0.8863
 8426SOL     OW36739   2.912   3.701  12.529  0.2626 -0.0307  0.0002
 8426SOL    HW136740   2.903   3.651  12.611  0.5337  0.3134  0.2378
 8426SOL    HW236741   2.850   3.657  12.471 -1.7140  0.0419  2.0312
 8427SOL     OW36742   4.373   0.827   8.793  0.1618  0.0327 -0.3951
 8427SOL    HW136743   4.299   0.797   8.740 -1.8546  1.0892  1.8597
 8427SOL    HW236744   4.371   0.755   8.855 -0.0379  2.6766  2.6331
 8428SOL     OW36745   3.538   3.724  12.150 -0.0203  0.0764 -0.9598
 8428SOL    HW136746   3.503   3.718  12.239 -2.2095  1.6891 -1.7154
 8428SOL    HW236747   3.577   3.812  12.150  1.6068 -0.6512  0.8576
 8429SOL     OW36748   1.947   0.638   9.200 -0.2120 -0.3483  0.2217
 8429SOL    HW136749   1.998   0.594   9.267  0.4955 -0.9276 -0.6986
 8429SOL    HW236750   1.923   0.722   9.239 -1.0046  0.3206 -1.6533
 8430SOL     OW36751   2.172   0.099   9.025 -0.1586  0.0854 -0.1288
 8430SOL    HW136752   2.111   0.132   8.959 -1.1798 -0.4169  0.5817
 8430SOL    HW236753   2.201   0.175   9.076 -0.2363 -1.3417  2.0370
 8431SOL     OW36754   3.434   3.090   3.536  0.1853  0.1502  0.6493
 8431SOL    HW136755   3.477   3.026   3.592 -0.9979 -1.2841 -0.1103
 8431SOL    HW236756   3.438   3.162   3.599  0.8065  0.0220  0.7520
 8432SOL     OW36757   3.250   3.792   3.680 -0.1306  0.4596  0.3866
 8432SOL    HW136758   3.160   3.796   3.711 -0.2849 -0.3490  0.0580
 8432SOL    HW236759   3.293   3.822   3.759 -2.1336  2.4199  0.7416
 8433SOL     OW36760   0.499   0.200   7.759  0.3421 -0.8130 -0.3330
 8433SOL    HW136761   0.540   0.132   7.704  1.7253 -2.0833  2.2669
 8433SOL    HW236762   0.420   0.209   7.706 -0.9501  0.1616  1.7927
 8434SOL     OW36763   4.683   0.223   3.815 -0.3562 -0.4124  0.0527
 8434SOL    HW136764   0.033   0.228   3.755 -0.8237 -0.9031 -0.5630
 8434SOL    HW236765   4.699   0.150   3.875  2.0925  0.6913  0.7596
 8435SOL     OW36766   4.516   0.472   7.460 -0.0698 -0.0226  0.1763
 8435SOL    HW136767   4.548   0.562   7.464  1.8881 -0.6188 -1.8049
 8435SOL    HW236768   4.576   0.437   7.394  0.7301  0.1595  0.8055
 8436SOL     OW36769   0.656   4.458   2.244  0.6956  0.1961  0.0596
 8436SOL    HW136770   0.748   4.463   2.217  0.8579 -1.2250  0.3668
 8436SOL    HW236771   0.621   4.540   2.207  0.6664 -0.8320 -2.1906
 8437SOL     OW36772   3.823   2.379   6.082  0.1955  0.0250 -0.5025
 8437SOL    HW136773   3.893   2.314   6.074  0.1833  0.0894 -1.1674
 8437SOL    HW236774   3.873   2.452   6.045 -0.8605  0.5442 -0.9007
 8438SOL     OW36775   3.125   1.537  10.072  0.1444 -0.7021 -0.0229
 8438SOL    HW136776   3.112   1.626  10.038  2.2606 -0.1743  0.5191
 8438SOL    HW236777   3.054   1.497  10.023  0.6890 -2.0020  0.2601
 8439SOL     OW36778   4.508   3.208   7.580 -0.0526 -0.4327  0.7438
 8439SOL    HW136779   4.489   3.170   7.665 -1.9434 -0.6531  0.2234
 8439SOL    HW236780   4.422   3.241   7.554  0.2864 -0.2554 -0.1641
 8440SOL     OW36781   2.714   2.087   6.602  0.6449  0.0788  0.2345
 8440SOL    HW136782   2.663   2.035   6.540 -0.5508  2.3100 -0.6541
 8440SOL    HW236783   2.657   2.164   6.594 -1.1683 -1.5084 -1.8101
 8441SOL     OW36784   1.528   0.703   6.311  0.4769  0.0131 -0.5697
 8441SOL    HW136785   1.525   0.722   6.405  0.0219 -0.0771 -0.5682
 8441SOL    HW236786   1.527   0.793   6.280 -0.5893  0.0580 -0.3855
 8442SOL     OW36787   2.248   1.710  12.437 -0.7422  0.4825 -0.3301
 8442SOL    HW136788   2.275   1.688  12.527 -1.2947  2.6676  0.3815
 8442SOL    HW236789   2.329   1.696  12.388 -1.6007  0.3867 -1.7189
 8443SOL     OW36790   3.017   2.515   4.189 -0.1009 -0.1269 -0.0493
 8443SOL    HW136791   3.015   2.535   4.283  0.5910  2.4805 -0.5901
 8443SOL    HW236792   2.965   2.587   4.152  1.5354  2.3453  2.4761
 8444SOL     OW36793   0.924   2.195   4.002  0.3005  0.1529  0.2742
 8444SOL    HW136794   0.834   2.162   4.006 -0.0493  1.1006  0.3353
 8444SOL    HW236795   0.947   2.149   4.082 -0.3118  0.4798  0.6449
 8445SOL     OW36796   4.280   2.055   0.062 -0.2142 -0.1054 -0.3481
 8445SOL    HW136797   4.284   2.149   0.080  1.0034 -0.5090  1.4714
 8445SOL    HW236798   4.244   2.046  17.673 -0.1407 -1.1429 -0.2768
 8446SOL     OW36799   2.245   2.265   9.428 -0.3286  0.6814 -0.0287
 8446SOL    HW136800   2.328   2.309   9.410 -0.3100 -0.0313 -1.7052
 8446SOL    HW236801   2.195   2.304   9.357  1.1274 -0.4793 -1.6676
 8447SOL     OW36802   0.232   3.857   4.675  0.0096  0.7469  0.0459
 8447SOL    HW136803   0.244   3.893   4.587 -1.7528 -2.1797 -1.4114
 8447SOL    HW236804   0.170   3.919   4.711  1.4574  2.5149 -0.5017
 8448SOL     OW36805   1.157   2.041   4.904 -0.7479 -0.3429  0.2153
 8448SOL    HW136806   1.131   2.130   4.926 -0.7732 -0.0129 -1.1498
 8448SOL    HW236807   1.252   2.053   4.901 -0.6491 -1.4217 -0.8972
 8449SOL     OW36808   2.635   2.374  10.322  0.2674  0.3655 -0.7500
 8449SOL    HW136809   2.673   2.286  10.324  1.6563  0.9847  0.1341
 8449SOL    HW236810   2.603   2.387  10.411  0.9832 -0.3947 -0.3851
 8450SOL     OW36811   3.638   4.102  16.226  0.3624 -0.1678  0.6409
 8450SOL    HW136812   3.722   4.105  16.181  0.7384 -4.2618  1.0526
 8450SOL    HW236813   3.643   4.017  16.270 -1.8570 -0.6918 -0.1273
 8451SOL     OW36814   3.850   3.495   9.357  0.1726 -0.3354 -0.4619
 8451SOL    HW136815   3.831   3.489   9.450 -0.1923  0.6781 -0.4738
 8451SOL    HW236816   3.770   3.465   9.315 -1.5101  0.7669  1.9848
 8452SOL     OW36817   3.296   4.016  12.460 -0.2770  0.0321  0.1948
 8452SOL    HW136818   3.379   4.043  12.498 -0.8446  0.1373  1.3603
 8452SOL    HW236819   3.281   4.092  12.404  1.8174  2.0605  2.3899
 8453SOL     OW36820   4.136   0.024   3.669 -0.6481  0.4290  0.6744
 8453SOL    HW136821   4.187   0.103   3.685 -1.2954  1.1922 -0.9547
 8453SOL    HW236822   4.201   4.680   3.650 -0.3605 -0.0700  3.5686
 8454SOL     OW36823   4.659   3.524   2.367 -0.2154  0.6777  0.1265
 8454SOL    HW136824   4.660   3.430   2.350 -2.0845  0.7150 -0.2387
 8454SOL    HW236825   4.601   3.527   2.444 -0.3572  2.0330 -0.0202
 8455SOL     OW36826   0.946   0.603   6.655 -0.2806 -0.4980  0.0126
 8455SOL    HW136827   0.861   0.622   6.615 -1.2346  0.0698  2.2939
 8455SOL    HW236828   0.931   0.631   6.746 -1.4489 -1.1971  0.0267
 8456SOL     OW36829   2.605   1.236   2.593  0.4669 -0.6460  0.5481
 8456SOL    HW136830   2.581   1.319   2.552  2.8046 -0.9931 -1.4695
 8456SOL    HW236831   2.559   1.239   2.677 -0.5920 -1.9770  0.0210
 8457SOL     OW36832   0.708   1.744   9.082  0.9516  0.2026 -0.2501
 8457SOL    HW136833   0.707   1.836   9.110 -0.0955  0.6097 -1.5654
 8457SOL    HW236834   0.802   1.726   9.092  1.2029  1.0408 -1.0086
 8458SOL     OW36835   0.189   4.694  16.970  0.1021 -0.5424  0.3440
 8458SOL    HW136836   0.160   4.707  17.060 -1.9954 -3.9482  0.1614
 8458SOL    HW236837   0.176   4.599  16.965  1.1095 -0.6329 -0.5641
 8459SOL     OW36838   2.703   1.426   7.118 -0.4183  0.1442  0.0159
 8459SOL    HW136839   2.783   1.374   7.114 -0.9873 -0.7328 -0.1820
 8459SOL    HW236840   2.649   1.365   7.067  1.6252 -0.0917 -1.8770
 8460SOL     OW36841   1.470   4.052   6.529  0.4879 -0.7818 -0.1208
 8460SOL    HW136842   1.478   3.969   6.575 -1.1628 -0.9980 -0.2143
 8460SOL    HW236843   1.436   4.106   6.601  1.5480  1.1369 -1.0547
 8461SOL     OW36844   1.057   3.643   6.219 -0.0008  0.0167 -0.0278
 8461SOL    HW136845   0.971   3.604   6.231 -0.4072  1.2622  1.1247
 8461SOL    HW236846   1.058   3.650   6.124  1.2882  0.4779  0.0124
 8462SOL     OW36847   1.088   3.704   1.011 -0.2516 -0.2006 -0.1019
 8462SOL    HW136848   0.992   3.712   1.008 -0.4290 -1.5149  1.9600
 8462SOL    HW236849   1.094   3.628   1.069  3.0960  0.8302  0.9264
 8463SOL     OW36850   2.407   1.538   3.673 -0.2422 -0.2392  0.1005
 8463SOL    HW136851   2.451   1.517   3.591 -0.0924  1.3654 -0.2348
 8463SOL    HW236852   2.435   1.472   3.737  0.0442 -0.7199 -0.5222
 8464SOL     OW36853   0.266   0.303  13.114 -0.2484 -0.0008  0.5947
 8464SOL    HW136854   0.292   0.378  13.167  3.8025 -0.1402 -1.2306
 8464SOL    HW236855   0.176   0.292  13.146 -0.7437  1.7438 -0.2271
 8465SOL     OW36856   1.501   4.020   4.341  0.1784 -0.1932  0.1010
 8465SOL    HW136857   1.507   3.990   4.431  1.0736 -0.3251 -0.0066
 8465SOL    HW236858   1.426   3.962   4.325  0.3748 -0.4483  0.1056
 8466SOL     OW36859   4.724   3.071   7.414  0.3647  0.3129  0.9670
 8466SOL    HW136860   0.039   2.998   7.461 -0.0208  0.1231  0.9992
 8466SOL    HW236861   4.652   3.096   7.472  0.7715  0.7484  1.2760
 8467SOL     OW36862   2.232   4.359   5.734  0.8575  0.5969 -0.1640
 8467SOL    HW136863   2.242   4.394   5.645  0.2331  0.3433 -0.3315
 8467SOL    HW236864   2.174   4.284   5.722  2.1583 -0.6484  1.4095
 8468SOL     OW36865   0.796   3.202  17.502 -0.0364 -0.0154  0.1294
 8468SOL    HW136866   0.784   3.272  17.565  0.3811 -1.5055  1.8552
 8468SOL    HW236867   0.710   3.200  17.460 -0.0975 -0.9552  0.2983
 8469SOL     OW36868   2.354   1.441   4.686 -0.2723  0.0275  0.4394
 8469SOL    HW136869   2.293   1.428   4.759  1.5483 -3.6469  1.2689
 8469SOL    HW236870   2.385   1.351   4.678 -1.6284 -0.4825  0.9141
 8470SOL     OW36871   0.281   1.992   2.811 -0.2177 -0.5158  0.1056
 8470SOL    HW136872   0.241   2.010   2.726 -2.0232 -0.3576  0.9820
 8470SOL    HW236873   0.275   1.897   2.815  0.3726 -0.5692 -0.3621
 8471SOL     OW36874   3.103   0.926   6.831  0.4731 -0.5739  0.0058
 8471SOL    HW136875   3.162   0.949   6.903 -1.3650  2.4017  0.5441
 8471SOL    HW236876   3.117   0.831   6.827  0.3296 -0.5669 -0.7727
 8472SOL     OW36877   2.807   0.989   8.683  0.2112 -0.3971  0.1951
 8472SOL    HW136878   2.741   1.035   8.632 -0.4066 -3.1357 -1.5243
 8472SOL    HW236879   2.785   0.897   8.668 -1.4480  0.1743 -0.7675
 8473SOL     OW36880   4.071   1.780   7.518  0.4384  0.8509  0.3549
 8473SOL    HW136881   4.165   1.774   7.534  0.2863 -0.1078  0.9023
 8473SOL    HW236882   4.040   1.822   7.598 -0.3456  0.1556  0.4250
 8474SOL     OW36883   2.471   3.593  15.934 -0.9728 -0.0210 -0.3382
 8474SOL    HW136884   2.492   3.569  15.844  2.4638  0.5025  0.3500
 8474SOL    HW236885   2.502   3.517  15.983  1.7346  0.6802 -0.9859
 8475SOL     OW36886   0.364   0.792   7.612 -0.2005 -0.0513 -0.1184
 8475SOL    HW136887   0.433   0.803   7.677 -2.2248 -0.2811  2.0639
 8475SOL    HW236888   0.350   0.698   7.621 -0.8292 -0.2450 -3.3261
 8476SOL     OW36889   2.355   1.797   7.563  0.1721 -0.0899 -0.0351
 8476SOL    HW136890   2.352   1.806   7.658 -0.7136 -1.6668  0.0822
 8476SOL    HW236891   2.291   1.857   7.526 -1.4370 -1.7220  0.0912
 8477SOL     OW36892   0.613   1.177   4.383  0.0584 -0.3005  0.3972
 8477SOL    HW136893   0.580   1.179   4.293  0.7602  0.2191  0.1493
 8477SOL    HW236894   0.690   1.234   4.386  0.6783 -1.0405 -1.7189
 8478SOL     OW36895   2.003   2.649   6.532 -0.5019 -1.0101 -0.2943
 8478SOL    HW136896   1.997   2.735   6.575 -0.0588 -1.5449  0.8482
 8478SOL    HW236897   1.993   2.672   6.440 -1.5509 -0.0383  0.0608
 8479SOL     OW36898   0.158   3.833   9.975 -0.7644 -0.2148  1.1704
 8479SOL    HW136899   0.102   3.894   9.927  0.7782  0.8241  0.6830
 8479SOL    HW236900   0.112   3.749   9.974 -0.4974 -0.3865  3.4381
 8480SOL     OW36901   3.863   0.798   2.144 -0.1416  0.2935 -0.4071
 8480SOL    HW136902   3.913   0.803   2.226  0.6028 -0.0082 -0.8463
 8480SOL    HW236903   3.771   0.806   2.169 -0.0131 -0.6547  0.3699
 8481SOL     OW36904   2.812   2.214   0.499 -0.1052  0.0795 -0.5906
 8481SOL    HW136905   2.775   2.257   0.576  0.9513 -1.1031  0.5908
 8481SOL    HW236906   2.900   2.251   0.490  0.1026 -0.6629 -1.6439
 8482SOL     OW36907   2.661   0.805   2.054 -0.0972 -0.2898  0.3270
 8482SOL    HW136908   2.638   0.717   2.084  0.7755 -0.3395  0.8641
 8482SOL    HW236909   2.749   0.781   2.025 -0.8474 -0.1136 -2.0689
 8483SOL     OW36910   2.964   3.677   7.451  0.1311 -0.0779  0.8360
 8483SOL    HW136911   2.935   3.586   7.455 -0.4148  0.0525 -0.1212
 8483SOL    HW236912   2.880   3.720   7.436  0.4701  0.1255 -0.4769
 8484SOL     OW36913   3.684   2.879  15.843  0.0113 -0.1833 -0.5019
 8484SOL    HW136914   3.626   2.931  15.898  0.7804 -0.6209  0.7133
 8484SOL    HW236915   3.634   2.797  15.848  2.0257 -1.2974  1.3264
 8485SOL     OW36916   1.730   2.798   4.880  0.2609  0.0366 -0.2826
 8485SOL    HW136917   1.768   2.884   4.899  0.5795 -0.3829  0.9730
 8485SOL    HW236918   1.642   2.793   4.916  0.0648 -0.3362 -0.8085
 8486SOL     OW36919   2.403   4.009  11.982 -0.3043 -0.4273  0.0471
 8486SOL    HW136920   2.426   3.917  11.992 -0.3485 -0.5074 -0.5758
 8486SOL    HW236921   2.414   4.053  12.066 -0.8378 -0.5242  0.1727
 8487SOL     OW36922   0.987   4.158   6.694 -0.1926 -0.0194  0.2468
 8487SOL    HW136923   0.964   4.210   6.771  0.5025 -0.2830  0.6323
 8487SOL    HW236924   0.954   4.201   6.615 -1.4216 -0.7888  0.3370
 8488SOL     OW36925   0.220   3.586   2.649  0.0236 -0.1303  0.3008
 8488SOL    HW136926   0.130   3.592   2.679 -0.3012 -0.9268 -0.5065
 8488SOL    HW236927   0.206   3.497   2.615 -4.1487  0.7335 -0.1845
 8489SOL     OW36928   2.624   4.705   3.348 -0.3811 -0.0194  0.5139
 8489SOL    HW136929   2.681   4.656   3.289  2.0960  2.7881  0.5856
 8489SOL    HW236930   2.672   4.684   3.428  0.4936 -1.8396 -0.4872
 8490SOL     OW36931   3.223   1.846   8.193  0.4711  0.0395 -0.2276
 8490SOL    HW136932   3.310   1.861   8.229  0.1393 -1.6511  1.2378
 8490SOL    HW236933   3.238   1.764   8.147 -2.2018 -0.4217 -0.2532
 8491SOL     OW36934   3.752   2.362   2.847  0.1423  0.3440 -0.0082
 8491SOL    HW136935   3.761   2.448   2.806  0.6621  0.2289 -0.1424
 8491SOL    HW236936   3.831   2.350   2.900  0.3931 -0.3051 -0.5203
 8492SOL     OW36937   1.999   2.158   6.280  0.3429 -0.0806  0.3817
 8492SOL    HW136938   2.089   2.170   6.248 -1.0729  0.5032 -3.3980
 8492SOL    HW236939   2.006   2.204   6.364  0.5284 -1.0125  0.8785
 8493SOL     OW36940   4.130   3.039  12.688 -0.3404  0.1216  1.2470
 8493SOL    HW136941   4.160   3.129  12.681  0.9666 -0.3548  0.7606
 8493SOL    HW236942   4.212   2.991  12.704 -0.3340 -0.7914 -1.6060
 8494SOL     OW36943   3.412   3.390  10.862  0.0246  0.1218 -0.3469
 8494SOL    HW136944   3.508   3.392  10.851  0.2944  0.6779  2.2024
 8494SOL    HW236945   3.398   3.481  10.885  1.9780  0.8659 -2.0629
 8495SOL     OW36946   2.724   2.651   8.037 -0.1036 -0.2112 -0.2755
 8495SOL    HW136947   2.685   2.632   8.122  0.0192  0.3441 -0.0961
 8495SOL    HW236948   2.682   2.734   8.013  0.9394  0.8808  1.7062
 8496SOL     OW36949   3.341   1.135   4.383  0.1630  0.3478  0.3950
 8496SOL    HW136950   3.259   1.159   4.340 -0.5973 -1.2594  0.9504
 8496SOL    HW236951   3.394   1.215   4.381  1.3620 -0.4736 -1.1826
 8497SOL     OW36952   2.538   2.503   2.440 -0.3525 -0.3761 -0.5554
 8497SOL    HW136953   2.542   2.436   2.509  0.5064  1.3263  1.0489
 8497SOL    HW236954   2.463   2.553   2.471 -1.0699  0.3292 -3.4004
 8498SOL     OW36955   0.563   1.395  10.503  0.8829  0.2683  0.2478
 8498SOL    HW136956   0.556   1.336  10.577  1.0646  0.3015  0.2913
 8498SOL    HW236957   0.568   1.480  10.546  1.7312  0.5707 -0.4451
 8499SOL     OW36958   2.709   2.620  11.335 -0.1905 -0.6280  0.6292
 8499SOL    HW136959   2.730   2.538  11.380  4.9027 -0.5727 -1.6951
 8499SOL    HW236960   2.617   2.627  11.362 -0.3752  1.3185 -0.4993
 8500SOL     OW36961   1.262   3.878   7.308 -0.2146 -0.4771  0.3146
 8500SOL    HW136962   1.206   3.809   7.271 -0.2330 -0.9262  1.1556
 8500SOL    HW236963   1.292   3.916   7.226 -0.4573 -0.9390  0.0081
 8501SOL     OW36964   3.368   1.089   2.701  0.7282 -0.3084  0.1952
 8501SOL    HW136965   3.349   1.122   2.789 -0.5649 -1.3034  0.2866
 8501SOL    HW236966   3.282   1.100   2.660  0.7267  1.9320  0.7750
 8502SOL     OW36967   3.638   3.220   3.892 -0.5218  0.7356 -0.0309
 8502SOL    HW136968   3.681   3.293   3.936 -2.2806  0.1609  2.6595
 8502SOL    HW236969   3.560   3.260   3.854 -0.9009  1.2435  1.2986
 8503SOL     OW36970   2.024   3.835   8.365  0.0764  0.0663 -0.0322
 8503SOL    HW136971   2.032   3.746   8.399 -0.4049 -0.3431 -0.9950
 8503SOL    HW236972   2.064   3.891   8.432 -2.1367  2.0601 -0.3819
 8504SOL     OW36973   4.467   4.588   3.923 -0.0642  0.0093  0.0705
 8504SOL    HW136974   4.421   4.604   3.841  0.4404  1.4157  0.0616
 8504SOL    HW236975   4.474   4.494   3.905 -0.5783 -0.1486  0.6885
 8505SOL     OW36976   1.257   2.948   2.301 -0.1382  0.0640 -0.0186
 8505SOL    HW136977   1.303   2.887   2.359  0.5156  0.3312 -0.2585
 8505SOL    HW236978   1.328   3.000   2.264  1.2926 -0.5115  1.8608
 8506SOL     OW36979   3.023   4.348   5.063  0.3717 -0.3440 -0.0891
 8506SOL    HW136980   3.113   4.332   5.036  0.7810  0.1233  1.0097
 8506SOL    HW236981   2.976   4.385   4.988  0.9495 -2.0953 -1.3217
 8507SOL     OW36982   2.277   4.498   2.642 -0.0377 -0.0686  0.8647
 8507SOL    HW136983   2.333   4.439   2.693  1.0304  1.8296  1.8673
 8507SOL    HW236984   2.313   4.577   2.681  0.8784  0.1244 -0.3812
 8508SOL     OW36985   4.074   4.265   5.576  0.5768 -0.0231 -0.1297
 8508SOL    HW136986   3.994   4.317   5.565  1.4624  0.6829 -3.2002
 8508SOL    HW236987   4.118   4.313   5.646 -0.1495  0.0046  0.3072
 8509SOL     OW36988   4.614   1.981   5.636 -0.2083  0.1669  0.0740
 8509SOL    HW136989   4.687   2.042   5.645 -0.2985  0.3403 -0.3655
 8509SOL    HW236990   4.560   2.009   5.709  0.7171  0.5840  0.5840
 8510SOL     OW36991   4.406   3.984   3.375  0.3111 -0.5435  0.0925
 8510SOL    HW136992   4.411   4.080   3.372 -0.8211 -0.5142 -0.8353
 8510SOL    HW236993   4.335   3.972   3.313  0.0569 -1.5721  0.5801
 8511SOL     OW36994   0.592   0.058  13.066  0.0175 -0.2537  0.1983
 8511SOL    HW136995   0.592   0.138  13.120  2.5891  0.2263 -0.4849
 8511SOL    HW236996   0.686   0.040  13.064  0.2654  1.0675 -0.4750
 8512SOL     OW36997   1.634   2.679   6.865  0.5404  0.3684 -0.6708
 8512SOL    HW136998   1.539   2.669   6.858  0.6129 -0.5472 -0.4140
 8512SOL    HW236999   1.643   2.721   6.780  2.1740 -0.7816 -1.0670
 8513SOL     OW37000   2.615   1.061  14.276  0.5295 -0.4325  0.1070
 8513SOL    HW137001   2.671   0.989  14.303  0.1903 -0.6642  0.1944
 8513SOL    HW237002   2.671   1.138  14.285  0.0711  0.2156 -2.5102
 8514SOL     OW37003   1.377   3.946  17.049  0.2395 -0.4240  0.6371
 8514SOL    HW137004   1.325   3.904  17.116 -2.5684 -0.8430 -1.8169
 8514SOL    HW237005   1.315   4.003  17.004  1.4414 -0.1418 -0.6700
 8515SOL     OW37006   2.251   2.641   3.045 -0.3938 -0.8481 -0.2051
 8515SOL    HW137007   2.327   2.651   2.988  0.9913  3.0399  2.3275
 8515SOL    HW237008   2.295   2.626   3.129  0.8182  0.5430 -0.5816
 8516SOL     OW37009   4.238   2.318   6.890  0.3408 -0.0244  0.2341
 8516SOL    HW137010   4.283   2.402   6.901 -0.1588  0.0068  1.9403
 8516SOL    HW237011   4.198   2.324   6.803  2.3021 -1.1747 -0.7473
 8517SOL     OW37012   2.082   4.421   1.584  0.3592 -0.3913  0.2891
 8517SOL    HW137013   2.139   4.499   1.585 -0.2769  0.0351  2.6564
 8517SOL    HW237014   2.115   4.379   1.504  0.0292 -0.9050  0.4262
 8518SOL     OW37015   0.220   2.026   3.870  0.3455 -0.6770  0.4607
 8518SOL    HW137016   0.165   1.964   3.918 -0.8866 -0.1096 -0.2336
 8518SOL    HW237017   0.256   1.969   3.802 -0.2678 -1.1490  0.5314
 8519SOL     OW37018   2.178   3.383  12.339  0.0244  0.2741 -0.0127
 8519SOL    HW137019   2.257   3.335  12.367 -1.1356 -0.2113  2.4699
 8519SOL    HW237020   2.111   3.371  12.407 -0.3490  0.0055 -0.4280
 8520SOL     OW37021   3.455   1.678   3.874  1.0177  0.0088 -0.2362
 8520SOL    HW137022   3.439   1.600   3.821  0.2035  0.8291 -1.1918
 8520SOL    HW237023   3.369   1.717   3.859 -0.0725 -2.5431 -0.6059
 8521SOL     OW37024   4.072   1.098  17.227 -0.0086 -0.5560  0.2431
 8521SOL    HW137025   4.041   1.067  17.142 -0.1633  1.3362 -0.3951
 8521SOL    HW237026   4.009   1.167  17.249  1.0243  0.5835 -0.3833
 8522SOL     OW37027   3.716   3.658   0.929 -0.1255 -0.2156 -0.3597
 8522SOL    HW137028   3.689   3.602   0.856  2.3616 -2.0557  0.1188
 8522SOL    HW237029   3.670   3.738   0.904  1.6935  0.6706 -0.8491
 8523SOL     OW37030   1.710   4.119   3.773  0.3595 -0.3861 -0.1628
 8523SOL    HW137031   1.620   4.094   3.795  0.0837  2.2874  1.6844
 8523SOL    HW237032   1.764   4.099   3.849 -2.4874  0.0024  1.9888
 8524SOL     OW37033   0.376   2.497   8.913 -0.0383  0.6073  0.6949
 8524SOL    HW137034   0.369   2.442   8.835 -1.7250 -1.0393  2.0001
 8524SOL    HW237035   0.297   2.476   8.963  0.4075 -1.8222  0.4087
 8525SOL     OW37036   0.659   3.824  12.551 -0.1214 -0.8153 -0.2118
 8525SOL    HW137037   0.737   3.775  12.579  0.0531 -1.5997 -2.0518
 8525SOL    HW237038   0.596   3.754  12.537 -1.0958  0.1044 -0.3808
 8526SOL     OW37039   4.721   3.650   0.687 -0.6388  0.4391 -0.5105
 8526SOL    HW137040   4.689   3.568   0.726  1.3399 -0.8643 -1.6274
 8526SOL    HW237041   0.081   3.625   0.649  0.3681  1.4561  1.0739
 8527SOL     OW37042   3.815   1.046   7.656  0.2626 -0.2150  0.6640
 8527SOL    HW137043   3.851   0.992   7.585 -1.1532  0.4933 -0.6179
 8527SOL    HW237044   3.770   1.117   7.609  1.6407  0.0633 -0.2173
 8528SOL     OW37045   2.220   2.060   8.179  0.5718  0.0869 -0.5616
 8528SOL    HW137046   2.238   1.970   8.152  0.2661 -0.3226  0.6222
 8528SOL    HW237047   2.125   2.069   8.172  0.5908  0.6892  0.0013
 8529SOL     OW37048   2.260   0.958   1.865  0.0259 -0.5936  0.2511
 8529SOL    HW137049   2.326   1.026   1.846 -1.3773  0.4768 -0.7663
 8529SOL    HW237050   2.322   0.887   1.848  1.3843  0.7199 -0.3202
 8530SOL     OW37051   2.023   2.439  13.549 -0.1137 -0.0895 -0.1932
 8530SOL    HW137052   1.945   2.485  13.580  0.5751  0.6796  0.4366
 8530SOL    HW237053   1.998   2.395  13.468  0.2370 -1.0034  0.2001
 8531SOL     OW37054   4.671   0.432   3.281 -0.6030 -0.3476  0.1428
 8531SOL    HW137055   4.623   0.374   3.221 -0.4794  0.3529 -0.6349
 8531SOL    HW237056   4.690   0.505   3.222  0.2429 -0.7750 -0.1087
 8532SOL     OW37057   3.624   0.707  14.445 -0.0019  0.5178  0.3778
 8532SOL    HW137058   3.706   0.746  14.476 -0.9686  2.2231  0.7634
 8532SOL    HW237059   3.636   0.688  14.352 -0.7492  0.8278  0.2170
 8533SOL     OW37060   3.387   4.555  10.475 -0.2073  0.6986 -0.0872
 8533SOL    HW137061   3.352   4.467  10.476  0.8224  0.2915  1.2372
 8533SOL    HW237062   3.334   4.600  10.540 -0.6131  0.3039 -0.1482
 8534SOL     OW37063   1.666   4.337   2.995  0.4574  0.2960  0.2125
 8534SOL    HW137064   1.735   4.336   2.929 -1.3372 -0.6580 -1.6716
 8534SOL    HW237065   1.670   4.251   3.037 -0.5354 -0.4643 -1.2381
 8535SOL     OW37066   2.160   1.775   2.562  0.0162 -0.0592  0.2378
 8535SOL    HW137067   2.177   1.831   2.639 -1.8221 -0.9023  1.2477
 8535SOL    HW237068   2.245   1.768   2.519  0.4037  1.3384  0.7471
 8536SOL     OW37069   0.339   3.861   7.185  0.2404 -0.2171  0.1873
 8536SOL    HW137070   0.345   3.932   7.248  2.7689  0.2542 -0.5856
 8536SOL    HW237071   0.248   3.872   7.156  1.1466 -0.6278 -2.8718
 8537SOL     OW37072   0.471   0.197   9.166  0.0828  0.3115  0.2840
 8537SOL    HW137073   0.549   0.183   9.220  0.3901 -0.6842 -0.4200
 8537SOL    HW237074   0.507   0.250   9.095  0.0264 -1.7082 -1.2457
 8538SOL     OW37075   0.394   2.484   4.691 -0.3550 -0.1200  0.1548
 8538SOL    HW137076   0.374   2.550   4.757 -1.7036 -0.4314  0.0808
 8538SOL    HW237077   0.419   2.409   4.745 -0.2629 -0.6349 -0.6008
 8539SOL     OW37078   0.108   1.230  17.332 -0.3115  0.0512  0.0265
 8539SOL    HW137079   0.069   1.284  17.401  1.6549  0.5048  0.7603
 8539SOL    HW237080   0.163   1.295  17.289  1.5701 -0.3696  1.8208
 8540SOL     OW37081   1.891   3.963  11.617 -0.2664 -0.3285  0.6580
 8540SOL    HW137082   1.934   3.883  11.587  3.1831  0.9546  2.1919
 8540SOL    HW237083   1.829   3.938  11.685 -3.3327  1.8868 -1.3095
 8541SOL     OW37084   2.009   0.362   2.535  0.2119 -0.0063 -0.3087
 8541SOL    HW137085   2.083   0.410   2.574  0.6802 -0.9560 -0.0285
 8541SOL    HW237086   2.053   0.295   2.484 -0.4869  0.6401 -1.7484
 8542SOL     OW37087   0.829   3.334   7.437  0.2343 -0.1770 -0.3070
 8542SOL    HW137088   0.902   3.384   7.402  0.7063 -1.4794 -1.1482
 8542SOL    HW237089   0.780   3.399   7.489  1.1915  0.9832 -0.8730
 8543SOL     OW37090   4.517   2.612   4.327 -0.5566 -0.4519  0.0092
 8543SOL    HW137091   4.553   2.525   4.346 -1.7138 -0.9731 -0.2381
 8543SOL    HW237092   4.541   2.655   4.410 -1.9454 -0.4998  0.4209
 8544SOL     OW37093   1.411   1.091   3.696  0.2014  0.2710 -0.4143
 8544SOL    HW137094   1.360   1.041   3.632 -2.1881  0.5589  1.2868
 8544SOL    HW237095   1.457   1.022   3.745 -0.4622 -0.5588 -0.9617
 8545SOL     OW37096   1.579   3.813   2.579 -0.0396 -0.0397  0.4598
 8545SOL    HW137097   1.636   3.739   2.558 -0.4898 -0.4716  0.7625
 8545SOL    HW237098   1.631   3.888   2.549  0.6052  0.7188  3.5099
 8546SOL     OW37099   4.576   1.210  17.689  0.3143  0.2503 -0.7276
 8546SOL    HW137100   4.527   1.276   0.039 -1.9001 -2.1878  0.3283
 8546SOL    HW237101   4.548   1.128   0.031  0.1050  1.1082  0.8531
 8547SOL     OW37102   1.283   3.878   4.293  0.1713 -0.2325 -0.0802
 8547SOL    HW137103   1.230   3.947   4.252 -0.6850 -1.3335 -0.8118
 8547SOL    HW237104   1.223   3.804   4.293  0.5322 -0.5050  1.8020
 8548SOL     OW37105   1.458   3.133   3.941 -0.1356  0.3034  0.6905
 8548SOL    HW137106   1.421   3.102   3.858  3.3811 -1.4618 -0.1906
 8548SOL    HW237107   1.424   3.067   4.001  0.5984  0.3477  1.1579
 8549SOL     OW37108   2.449   2.248   5.075 -0.6460 -0.0736  1.0367
 8549SOL    HW137109   2.412   2.300   5.004  1.0627  1.4477  1.2704
 8549SOL    HW237110   2.475   2.168   5.032 -1.5498  0.4233 -0.4240
 8550SOL     OW37111   3.609   1.044  17.007  0.2466  0.1033 -0.1402
 8550SOL    HW137112   3.624   1.016  16.917 -1.6428  2.6457 -1.2515
 8550SOL    HW237113   3.551   1.119  16.994  0.8619  0.5927 -0.0756
 8551SOL     OW37114   2.557   1.867   3.687  0.2056 -0.2891 -0.7724
 8551SOL    HW137115   2.567   1.939   3.624 -0.9636 -0.5456 -1.2457
 8551SOL    HW237116   2.614   1.899   3.757 -1.7625  0.7917  0.3076
 8552SOL     OW37117   0.277   4.433   1.947  0.3736  0.0042  0.4030
 8552SOL    HW137118   0.247   4.402   1.861 -0.9343  2.1022  0.0952
 8552SOL    HW237119   0.301   4.354   1.994  1.3864  2.0843  3.3414
 8553SOL     OW37120   4.327   1.160   3.784  0.4262 -0.0041  0.7794
 8553SOL    HW137121   4.368   1.075   3.799  1.4695  0.0838 -1.6308
 8553SOL    HW237122   4.370   1.184   3.702 -3.2093  2.4765 -0.4009
 8554SOL     OW37123   3.702   3.794  10.516 -0.3899 -0.3248 -0.1054
 8554SOL    HW137124   3.711   3.781  10.422 -1.4743 -0.0478 -0.2467
 8554SOL    HW237125   3.638   3.725  10.534  0.9988 -1.5281  0.2809
 8555SOL     OW37126   2.289   2.434  11.939 -0.1775  0.3278  0.3289
 8555SOL    HW137127   2.377   2.411  11.909 -0.8446 -1.7348  0.0063
 8555SOL    HW237128   2.267   2.488  11.863 -0.4352 -0.9621 -0.5078
 8556SOL     OW37129   4.503   3.758   3.526 -0.0135 -0.1194 -0.3802
 8556SOL    HW137130   4.558   3.706   3.468 -0.3069 -2.3846  1.3541
 8556SOL    HW237131   4.461   3.824   3.471 -0.7248 -1.4343 -1.4122
 8557SOL     OW37132   4.591   0.777   2.578  0.2657  0.0463  0.0154
 8557SOL    HW137133   4.565   0.766   2.486 -0.1479  0.2141  0.1144
 8557SOL    HW237134   4.549   0.861   2.597 -2.6847 -0.8019 -2.6875
 8558SOL     OW37135   0.815   2.417   4.963  0.0074  0.0604 -0.0979
 8558SOL    HW137136   0.755   2.366   5.016 -0.7064  0.0728 -0.8993
 8558SOL    HW237137   0.764   2.456   4.892 -0.9848 -0.2121  0.4798
 8559SOL     OW37138   3.814   3.409   4.011 -0.6090 -0.6101 -0.3340
 8559SOL    HW137139   3.898   3.389   3.970  0.2579  0.0138  1.1452
 8559SOL    HW237140   3.837   3.417   4.104  1.6400  1.4336 -1.0589
 8560SOL     OW37141   3.810   3.929  11.689  0.3843  0.3917  0.9090
 8560SOL    HW137142   3.845   3.868  11.753  1.4637 -1.3224 -1.3074
 8560SOL    HW237143   3.828   3.886  11.605 -0.0351  0.3466  0.8390
 8561SOL     OW37144   3.841   0.108   8.464  0.6205  0.8062 -0.0351
 8561SOL    HW137145   3.758   0.061   8.463  0.7234  0.6160  1.1515
 8561SOL    HW237146   3.818   0.170   8.395 -1.6155 -1.9843 -1.8211
 8562SOL     OW37147   2.358   3.942  12.436  0.1641  0.1501 -0.0798
 8562SOL    HW137148   2.283   3.974  12.486  0.0471  0.5689 -0.5210
 8562SOL    HW237149   2.348   3.995  12.357 -0.3307 -2.4819 -1.7761
 8563SOL     OW37150   0.081   4.553  11.574  0.5355 -0.3084  0.1443
 8563SOL    HW137151   0.039   4.622  11.626 -0.9554 -1.0320 -0.0853
 8563SOL    HW237152   0.170   4.585  11.590  0.4093 -0.9315  2.0446
 8564SOL     OW37153   0.837   2.910   8.950 -0.0817 -0.2169  0.1440
 8564SOL    HW137154   0.907   2.850   8.922 -1.8207 -1.3150 -1.8226
 8564SOL    HW237155   0.761   2.873   8.906 -1.6211  2.8676  0.2031
 8565SOL     OW37156   4.614   0.432  12.882 -0.3681 -0.0040  0.4097
 8565SOL    HW137157   4.669   0.467  12.812 -0.9587 -1.1603 -0.6445
 8565SOL    HW237158   4.609   0.339  12.858 -3.1519  0.4164 -0.6376
 8566SOL     OW37159   2.695   0.096   6.255 -0.1411 -0.5500 -0.0920
 8566SOL    HW137160   2.605   0.128   6.246  0.2256  0.7872  1.1479
 8566SOL    HW237161   2.744   0.130   6.180 -0.0784  0.3911  0.3877
 8567SOL     OW37162   3.044   1.850   2.371 -0.1780 -0.7367 -0.2289
 8567SOL    HW137163   3.074   1.857   2.280  1.4246  2.6765  0.5703
 8567SOL    HW237164   3.125   1.845   2.420 -1.1400 -1.5089  1.2857
 8568SOL     OW37165   3.258   0.339  17.556 -0.4401 -0.0483  0.3561
 8568SOL    HW137166   3.264   0.424  17.513 -1.2948  0.4647  1.2530
 8568SOL    HW237167   3.342   0.312  17.519  0.1784  2.5615 -0.1084
 8569SOL     OW37168   0.170   3.700   8.637  0.2096  0.1000 -0.2213
 8569SOL    HW137169   0.241   3.712   8.574 -1.7854  1.9159 -2.1188
 8569SOL    HW237170   0.207   3.647   8.707  0.5016 -1.0936 -1.2620
 8570SOL     OW37171   2.957   3.340  11.316  0.2421  0.1824  0.4128
 8570SOL    HW137172   2.879   3.290  11.292 -1.2197  2.4802  0.4196
 8570SOL    HW237173   2.984   3.287  11.391 -0.9729  0.6400  1.1778
 8571SOL     OW37174   4.419   0.893   3.031 -0.6441 -0.2932  0.1285
 8571SOL    HW137175   4.378   0.830   3.090  0.0854  0.3190  1.2958
 8571SOL    HW237176   4.347   0.922   2.974  0.6973 -1.9694 -2.4180
 8572SOL     OW37177   4.332   0.687  11.430  0.9425 -0.1404  0.0447
 8572SOL    HW137178   4.377   0.613  11.471  0.8802 -0.0049  0.3604
 8572SOL    HW237179   4.410   0.741  11.415  0.1974  1.3850  1.6249
 8573SOL     OW37180   3.927   2.366  17.061 -0.7892 -0.4232  0.2215
 8573SOL    HW137181   3.853   2.306  17.061 -0.2513 -1.0920  1.2416
 8573SOL    HW237182   3.917   2.399  16.971  1.5944  0.1258  0.1530
 8574SOL     OW37183   2.677   0.423   5.852  0.0551  0.2358  0.1184
 8574SOL    HW137184   2.589   0.392   5.830  0.3334 -1.8616  1.9286
 8574SOL    HW237185   2.664   0.443   5.945 -0.5739  1.6284 -0.2742
 8575SOL     OW37186   1.737   4.521   2.423 -0.1073  0.0600 -0.1076
 8575SOL    HW137187   1.756   4.486   2.337  2.6294 -2.1748  1.4175
 8575SOL    HW237188   1.686   4.458   2.474  1.5790 -0.2790  1.1812
 8576SOL     OW37189   0.878   0.064   6.636  0.1744 -0.0373  0.3255
 8576SOL    HW137190   0.905   4.707   6.595  0.7943 -1.8673  4.3478
 8576SOL    HW237191   0.933   0.129   6.592 -0.8790  0.0626 -0.8353
 8577SOL     OW37192   1.245   0.095   1.529 -0.1235  0.2144  0.2049
 8577SOL    HW137193   1.332   0.089   1.568 -0.4654 -0.6259  0.8355
 8577SOL    HW237194   1.256   0.044   1.448  0.4164  0.6003  0.0311
 8578SOL     OW37195   4.560   0.675   3.518  0.8114  0.2442 -0.4491
 8578SOL    HW137196   4.531   0.606   3.577  0.0974  0.3545 -0.6591
 8578SOL    HW237197   4.527   0.634   3.438  2.0164  1.4504 -1.5515
 8579SOL     OW37198   4.631   1.109   6.854 -1.0655  0.4275  0.2009
 8579SOL    HW137199   4.555   1.085   6.909  0.9506  0.1751  2.8797
 8579SOL    HW237200   4.595   1.090   6.768  1.1364  1.5258 -0.9590
 8580SOL     OW37201   1.485   4.314   5.969  0.0543 -0.3602  0.0133
 8580SOL    HW137202   1.463   4.318   5.876  0.1359  0.0658  0.0141
 8580SOL    HW237203   1.424   4.377   6.008  1.2412  0.5340  0.4002
 8581SOL     OW37204   0.142   2.452   2.060  0.2519 -0.0966 -0.3290
 8581SOL    HW137205   0.221   2.486   2.017  2.1322 -1.0230  2.4193
 8581SOL    HW237206   0.116   2.534   2.103 -0.4292  0.4937 -1.8806
 8582SOL     OW37207   3.077   2.848   6.667 -0.5187  0.0157 -0.2273
 8582SOL    HW137208   3.169   2.874   6.661 -0.0847 -1.0826  1.9081
 8582SOL    HW237209   3.025   2.892   6.599 -1.8194  0.6750  1.1898
 8583SOL     OW37210   0.882   3.487   2.798  0.1254  0.1229 -0.3808
 8583SOL    HW137211   0.909   3.569   2.757  0.1759  0.5327  0.4782
 8583SOL    HW237212   0.802   3.457   2.754  0.5199 -0.0970 -0.9528
 8584SOL     OW37213   3.007   0.825   2.435 -0.3920  0.6388  0.3963
 8584SOL    HW137214   2.985   0.874   2.355 -2.2410 -0.7010  0.0693
 8584SOL    HW237215   2.924   0.839   2.480 -1.1985 -1.5605 -0.3599
 8585SOL     OW37216   2.062   0.560   9.449  0.0380 -0.2872  0.9076
 8585SOL    HW137217   2.138   0.556   9.506  1.6543 -1.1649 -1.3008
 8585SOL    HW237218   2.005   0.623   9.493 -0.2457 -0.6935  1.1219
 8586SOL     OW37219   3.503   4.703   4.673  0.0096 -0.1565  0.1545
 8586SOL    HW137220   3.476   0.069   4.656  2.1788  0.1333 -1.8744
 8586SOL    HW237221   3.531   4.708   4.765  0.4485 -0.8427  0.0609
 8587SOL     OW37222   3.831   1.772   6.579  0.1637 -0.1065 -0.0406
 8587SOL    HW137223   3.852   1.697   6.524  1.1629  1.6648 -2.0355
 8587SOL    HW237224   3.913   1.781   6.627  0.1697  0.5612 -0.1681
 8588SOL     OW37225   0.426   1.415  16.655 -0.7747  0.0269  0.3694
 8588SOL    HW137226   0.399   1.454  16.738  1.5342  0.0474  1.1093
 8588SOL    HW237227   0.458   1.328  16.678  0.4153 -0.1265 -1.9228
 8589SOL     OW37228   3.811   1.048   9.816 -0.2288  0.8373  0.6596
 8589SOL    HW137229   3.789   1.020   9.728  0.2643  0.4496  0.6566
 8589SOL    HW237230   3.795   0.975   9.876 -0.2255  0.6092  0.3787
 8590SOL     OW37231   1.764   1.005   6.150  0.3313 -0.0613  0.6686
 8590SOL    HW137232   1.786   1.067   6.219  1.1476 -0.7956  1.0615
 8590SOL    HW237233   1.841   0.998   6.093  0.4586  0.8314  0.7379
 8591SOL     OW37234   3.633   2.117   0.451 -0.0910 -0.0238 -0.4035
 8591SOL    HW137235   3.589   2.037   0.424  1.2970  0.2791 -3.5402
 8591SOL    HW237236   3.714   2.078   0.481  1.7132  3.2631 -0.9330
 8592SOL     OW37237   0.036   3.346  11.418 -0.1684 -0.2052  0.9326
 8592SOL    HW137238   4.720   3.260  11.423  1.1940 -1.0268 -2.1898
 8592SOL    HW237239   0.062   3.365  11.328 -1.7655  0.5409  0.6358
 8593SOL     OW37240   1.109   2.157   3.515 -0.2628  0.2192 -0.3012
 8593SOL    HW137241   1.111   2.130   3.606 -0.3161 -2.3144 -1.0443
 8593SOL    HW237242   1.119   2.252   3.510 -0.0640  0.2038 -0.2014
 8594SOL     OW37243   0.418   2.712   6.803  0.5730 -0.1629 -0.5694
 8594SOL    HW137244   0.370   2.733   6.884  0.7450  2.2372 -1.0840
 8594SOL    HW237245   0.353   2.676   6.743 -1.2669  0.9294  0.7558
 8595SOL     OW37246   2.944   0.289   9.146 -0.5927 -0.0778  0.2108
 8595SOL    HW137247   3.026   0.337   9.144  0.5600 -2.0076  0.6513
 8595SOL    HW237248   2.935   0.281   9.051 -0.2457 -1.2966  0.2802
 8596SOL     OW37249   4.713   0.447  12.626  0.0077  0.3529  0.0149
 8596SOL    HW137250   4.724   0.376  12.562  2.9410  1.5158 -0.7481
 8596SOL    HW237251   0.063   0.503  12.605  0.6996 -0.7440 -0.4421
 8597SOL     OW37252   0.905   2.471   5.765 -0.0590  0.4703  0.3523
 8597SOL    HW137253   0.879   2.402   5.703  0.5764  1.1671 -0.7000
 8597SOL    HW237254   0.986   2.437   5.802  0.6922  0.7179 -1.0302
 8598SOL     OW37255   2.770   4.021   6.389 -0.2658  0.2661  0.0444
 8598SOL    HW137256   2.808   4.037   6.302  1.2847  1.5847  0.9815
 8598SOL    HW237257   2.815   4.099   6.421  1.0426 -0.3265 -0.3594
 8599SOL     OW37258   3.010   2.677  11.300 -0.9771 -0.1646  0.2199
 8599SOL    HW137259   3.039   2.762  11.335 -0.0478 -0.2052 -0.4735
 8599SOL    HW237260   2.915   2.686  11.312 -1.0567  2.4724 -2.3747
 8600SOL     OW37261   0.363   3.343   8.563 -0.1430 -0.3576  0.4295
 8600SOL    HW137262   0.353   3.411   8.496  0.1054  0.3947  1.1646
 8600SOL    HW237263   0.458   3.347   8.571 -0.1014  0.0088 -0.2228
 8601SOL     OW37264   0.988   1.098   0.380 -0.1840  0.1085 -0.1324
 8601SOL    HW137265   0.892   1.095   0.376 -0.2455  0.0253  1.5135
 8601SOL    HW237266   1.005   1.070   0.469  0.3694 -0.5633 -0.4552
 8602SOL     OW37267   1.494   4.330   2.207  0.2105 -0.0951  0.0809
 8602SOL    HW137268   1.434   4.333   2.132  2.4563  0.8751 -1.6839
 8602SOL    HW237269   1.448   4.367   2.281  0.2668  1.0264 -0.4492
 8603SOL     OW37270   3.183   0.254   3.048  0.2703 -0.7073  0.2185
 8603SOL    HW137271   3.166   0.339   3.089  2.0207 -0.3118  0.1026
 8603SOL    HW237272   3.278   0.258   3.054  0.3606 -0.7084 -1.3526
 8604SOL     OW37273   1.123   2.526  15.620 -0.0207 -0.1575 -0.6574
 8604SOL    HW137274   1.117   2.615  15.655 -1.3178 -0.9240  1.1264
 8604SOL    HW237275   1.194   2.538  15.558 -1.3451  0.3237 -2.0840
 8605SOL     OW37276   2.693   0.769   2.380 -0.2802 -0.0121 -0.2209
 8605SOL    HW137277   2.653   0.754   2.294  0.1421  1.6728 -0.7181
 8605SOL    HW237278   2.697   0.689   2.432 -1.3874  0.4694  0.6061
 8606SOL     OW37279   1.657   0.998   1.208  0.5192 -0.0726  0.1980
 8606SOL    HW137280   1.590   0.931   1.190  0.2777  0.2390 -0.0736
 8606SOL    HW237281   1.733   0.966   1.160  1.6911  3.7243 -0.4659
 8607SOL     OW37282   2.915   1.619  14.217  0.7136  0.3380 -0.2184
 8607SOL    HW137283   2.955   1.549  14.166 -1.5929 -1.9125  1.0720
 8607SOL    HW237284   2.923   1.580  14.305 -2.6176 -1.1382 -0.5684
 8608SOL     OW37285   3.755   0.891   0.576  0.6660 -0.2312  0.3786
 8608SOL    HW137286   3.712   0.864   0.657 -1.3730  2.1203  0.0851
 8608SOL    HW237287   3.680   0.897   0.518 -0.3712  2.5702  1.9983
 8609SOL     OW37288   2.038   4.306   4.570  0.2601  0.2885 -0.1896
 8609SOL    HW137289   2.043   4.357   4.650 -1.8613  1.5196 -0.8394
 8609SOL    HW237290   2.068   4.371   4.507  2.6384  0.4674  1.1269
 8610SOL     OW37291   2.583   1.481   6.202  0.2926 -0.3556 -0.1963
 8610SOL    HW137292   2.640   1.534   6.148  1.7770  0.5377  2.2578
 8610SOL    HW237293   2.645   1.411   6.222 -1.5432 -2.2627 -1.1536
 8611SOL     OW37294   0.498   2.465   6.507  0.1233  0.2163 -0.3369
 8611SOL    HW137295   0.548   2.491   6.584  1.0834 -0.5557 -0.7093
 8611SOL    HW237296   0.415   2.512   6.514  0.3451  0.7489 -1.2904
 8612SOL     OW37297   2.939   3.322   1.618  0.0277  0.0264 -0.0923
 8612SOL    HW137298   2.945   3.232   1.652  1.7166  0.7228  1.4300
 8612SOL    HW237299   3.031   3.345   1.602 -0.5224  1.7377 -0.7604
 8613SOL     OW37300   1.662   4.045  12.986 -0.2894  0.3833  0.1646
 8613SOL    HW137301   1.716   4.107  13.035 -0.0834 -1.8231  2.7442
 8613SOL    HW237302   1.706   4.041  12.901 -0.6901  1.2422 -0.0734
 8614SOL     OW37303   4.630   1.709  15.780  0.8242 -0.0046  0.2369
 8614SOL    HW137304   4.611   1.620  15.808 -1.0716  0.5315  0.6879
 8614SOL    HW237305   4.548   1.757  15.774 -0.5568 -2.4360 -0.2126
 8615SOL     OW37306   1.217   2.035   7.207 -0.2569  0.2381 -0.2011
 8615SOL    HW137307   1.312   2.028   7.195 -0.6584 -3.3276 -1.2000
 8615SOL    HW237308   1.197   1.954   7.161  1.5069 -0.0641 -0.4561
 8616SOL     OW37309   2.147   4.132   4.066 -0.0628  0.6194 -0.6934
 8616SOL    HW137310   2.171   4.218   4.033  0.8469  0.3360 -0.7609
 8616SOL    HW237311   2.058   4.121   4.032  0.5605  1.1912 -2.4957
 8617SOL     OW37312   3.679   3.626   3.137  0.6561  0.1130  0.2118
 8617SOL    HW137313   3.630   3.641   3.056  0.4636  0.4617  0.3939
 8617SOL    HW237314   3.719   3.539   3.132  2.5966  1.1652 -2.6324
 8618SOL     OW37315   3.582   1.004   4.157 -0.4497  0.4034  0.2958
 8618SOL    HW137316   3.605   1.030   4.068 -1.3702  0.1108 -0.0341
 8618SOL    HW237317   3.603   1.082   4.208  1.1454  1.4230 -1.9627
 8619SOL     OW37318   3.249   4.254   2.017  0.0843  0.3214  0.5485
 8619SOL    HW137319   3.275   4.193   2.086 -2.7012 -1.2367  0.2071
 8619SOL    HW237320   3.262   4.203   1.937 -0.7594  0.9352  0.0132
 8620SOL     OW37321   4.612   1.951  12.614 -0.2449 -0.5696 -0.4044
 8620SOL    HW137322   4.608   2.026  12.673 -0.9751 -0.3630 -0.7175
 8620SOL    HW237323   4.638   1.887  12.681  0.8534  1.2711  0.9347
 8621SOL     OW37324   0.121   0.093   4.712 -0.2864 -0.0408 -0.4687
 8621SOL    HW137325   0.034   0.113   4.677 -0.8362  0.6218  1.2515
 8621SOL    HW237326   0.158   0.181   4.722 -1.2269  0.4325 -1.1179
 8622SOL     OW37327   2.971   0.175  15.682  0.1539  0.4080  0.1091
 8622SOL    HW137328   2.995   0.223  15.602 -1.1904  0.7365 -0.1081
 8622SOL    HW237329   2.986   0.245  15.746  0.0837  1.2659 -0.8097
 8623SOL     OW37330   1.346   1.410   5.150 -0.9034 -0.1349  0.3996
 8623SOL    HW137331   1.272   1.376   5.201  0.5380 -1.7722  1.3841
 8623SOL    HW237332   1.419   1.391   5.208  0.9278 -1.0204 -2.2036
 8624SOL     OW37333   4.347   0.293   2.125  0.2632 -0.0109  0.2860
 8624SOL    HW137334   4.352   0.250   2.211 -1.6396 -1.6198 -0.4373
 8624SOL    HW237335   4.435   0.268   2.098  0.3873  2.0201 -1.1721
 8625SOL     OW37336   1.961   1.180  11.060 -0.2754  0.9363  0.3079
 8625SOL    HW137337   1.871   1.175  11.093  0.8745  1.4831  3.4765
 8625SOL    HW237338   1.956   1.151  10.969 -1.4150  0.4768  0.5189
 8626SOL     OW37339   0.566   0.713   9.203  0.3152 -0.3104  0.0007
 8626SOL    HW137340   0.540   0.696   9.113  3.0562 -1.2132 -0.6144
 8626SOL    HW237341   0.656   0.745   9.197  0.8525 -1.5199  1.7089
 8627SOL     OW37342   4.465   0.975   0.111  0.6539  0.0007  0.0479
 8627SOL    HW137343   4.417   0.920   0.049  3.2744 -0.7221 -1.3294
 8627SOL    HW237344   4.518   0.908   0.152  3.3977  1.0711 -1.7699
 8628SOL     OW37345   3.762   0.962   6.058  0.2304 -0.1189  0.6577
 8628SOL    HW137346   3.803   0.888   6.014  0.8849  0.3032  0.5464
 8628SOL    HW237347   3.835   1.006   6.102 -1.1155  1.7307  1.0435
 8629SOL     OW37348   0.020   4.301  14.472  0.3134  0.4226  0.2518
 8629SOL    HW137349   0.108   4.315  14.506  0.0259  1.4155  0.5653
 8629SOL    HW237350   0.050   4.244  14.400  1.3689  3.8940 -2.0505
 8630SOL     OW37351   1.040   2.581   5.311  0.2733 -0.1135  0.5033
 8630SOL    HW137352   1.012   2.509   5.368 -1.1232  0.1961  0.2291
 8630SOL    HW237353   1.038   2.653   5.374  0.3945  0.6198 -0.3225
 8631SOL     OW37354   4.071   3.806   9.837  0.1779  0.2247  0.3251
 8631SOL    HW137355   4.160   3.805   9.804  0.1083  2.1028  0.0768
 8631SOL    HW237356   4.100   3.811   9.928  3.3340 -1.8296 -0.6064
 8632SOL     OW37357   2.735   3.599  17.176 -0.8047  0.5451 -0.3855
 8632SOL    HW137358   2.783   3.672  17.216 -0.2233  0.4719 -0.9537
 8632SOL    HW237359   2.695   3.637  17.098 -0.7703  1.5147  0.0668
 8633SOL     OW37360   1.937   2.460   4.498 -0.2829 -0.0815  0.0025
 8633SOL    HW137361   1.982   2.544   4.502  1.4723 -0.9299 -2.2717
 8633SOL    HW237362   1.849   2.498   4.491  0.5728  1.7709 -0.7707
 8634SOL     OW37363   0.994   2.641   1.623  0.1303 -0.0635 -0.1758
 8634SOL    HW137364   1.012   2.597   1.540  0.8721  1.2680 -0.7204
 8634SOL    HW237365   1.076   2.618   1.669 -0.8792  1.2872  2.2916
 8635SOL     OW37366   4.045   2.425  17.454  0.2883  0.0133 -0.0605
 8635SOL    HW137367   4.103   2.356  17.422  0.0980 -0.4478  0.5981
 8635SOL    HW237368   3.965   2.376  17.472  1.0318 -1.1301  0.0791
 8636SOL     OW37369   3.810   4.189  13.358  0.7339 -0.3754  0.0254
 8636SOL    HW137370   3.872   4.206  13.430  1.7831  0.7609 -1.1368
 8636SOL    HW237371   3.872   4.202  13.286  0.9538  0.7608  0.4250
 8637SOL     OW37372   4.458   4.266   4.401  0.8024 -0.1169 -0.0263
 8637SOL    HW137373   4.486   4.235   4.488 -0.8317  0.1443  0.5899
 8637SOL    HW237374   4.538   4.270   4.349  2.2682 -1.7674  2.1055
 8638SOL     OW37375   0.622   0.310   6.238 -0.2621 -0.4461  0.1590
 8638SOL    HW137376   0.539   0.354   6.257 -0.4816 -1.0162  0.5386
 8638SOL    HW237377   0.682   0.335   6.308  0.8421 -0.1661 -0.8948
 8639SOL     OW37378   1.281   2.906   2.825 -0.6049  0.3887 -0.2487
 8639SOL    HW137379   1.228   2.919   2.903 -0.9600  0.5197 -0.5083
 8639SOL    HW237380   1.228   2.964   2.769  1.4553 -1.2401 -3.9053
 8640SOL     OW37381   2.280   1.802   8.068  0.4098  0.1062  0.2137
 8640SOL    HW137382   2.343   1.763   8.129  1.2398  1.8370  0.4939
 8640SOL    HW237383   2.208   1.742   8.087 -0.9849  2.0079  0.9248
 8641SOL     OW37384   4.323   4.424   0.029 -0.7754  0.4356  0.1020
 8641SOL    HW137385   4.266   4.434   0.106 -2.3376 -1.2838 -0.8496
 8641SOL    HW237386   4.380   4.352   0.052  0.1724  1.5853  1.3651
 8642SOL     OW37387   2.535   4.216  16.019 -0.6013 -0.1971 -0.1129
 8642SOL    HW137388   2.551   4.189  16.109 -2.5075  0.6754  0.4745
 8642SOL    HW237389   2.568   4.306  16.020 -0.1101 -0.3494 -1.5764
 8643SOL     OW37390   2.176   3.397  16.041  0.1417  0.1063 -0.2805
 8643SOL    HW137391   2.178   3.330  16.110 -2.1816  0.1684 -0.1668
 8643SOL    HW237392   2.251   3.364  15.992  1.7092  2.0344  0.7878
 8644SOL     OW37393   3.472   2.236   2.955  0.5302 -0.1370  0.1338
 8644SOL    HW137394   3.553   2.282   2.979  0.2393  0.4247  0.0360
 8644SOL    HW237395   3.502   2.152   2.922 -2.0367 -1.7045  1.8438
 8645SOL     OW37396   2.299   3.413   8.549  0.3358 -0.4481 -0.5241
 8645SOL    HW137397   2.295   3.455   8.463  1.2790  1.4192  0.3570
 8645SOL    HW237398   2.355   3.337   8.531  0.9648 -0.1920  0.3652
 8646SOL     OW37399   1.777   2.337   5.074 -0.3718 -0.3142  0.4110
 8646SOL    HW137400   1.845   2.381   5.024  0.8670 -2.5742  0.1130
 8646SOL    HW237401   1.831   2.272   5.119  0.9332 -0.2572 -1.0786
 8647SOL     OW37402   0.153   3.196   5.420 -0.1680  0.2718  0.1015
 8647SOL    HW137403   0.136   3.164   5.508 -1.4357 -0.6237 -0.4704
 8647SOL    HW237404   0.165   3.114   5.373 -1.8713 -0.0732  0.2700
 8648SOL     OW37405   3.490   0.508   9.740  0.3359 -0.2129 -0.4882
 8648SOL    HW137406   3.406   0.531   9.781 -0.9230 -1.9469 -2.0795
 8648SOL    HW237407   3.517   0.442   9.804 -0.6676 -1.1029 -0.9809
 8649SOL     OW37408   1.010   4.171   8.228  0.2360 -0.6733 -0.3291
 8649SOL    HW137409   0.931   4.225   8.231  0.0871 -0.7976 -1.8746
 8649SOL    HW237410   1.047   4.201   8.311 -1.4986 -0.9591  0.5330
 8650SOL     OW37411   3.678   2.339   3.128 -0.2446  0.0037 -0.3260
 8650SOL    HW137412   3.732   2.330   3.206 -0.2062  0.3256 -0.3163
 8650SOL    HW237413   3.747   2.355   3.064  1.6389 -0.7355  1.5306
 8651SOL     OW37414   2.824   4.108   0.790  0.0987  0.2196 -0.0486
 8651SOL    HW137415   2.860   4.194   0.812  1.4333 -0.2879 -0.2348
 8651SOL    HW237416   2.816   4.105   0.695 -1.1107 -0.9035  0.0958
 8652SOL     OW37417   0.354   0.380   7.943 -0.2404 -0.5446 -0.5097
 8652SOL    HW137418   0.391   0.354   7.858  1.3996  3.0006 -0.8977
 8652SOL    HW237419   0.427   0.349   7.996 -0.2045 -0.1054 -0.3064
 8653SOL     OW37420   1.633   1.275   1.661  0.2584 -0.4384  0.0405
 8653SOL    HW137421   1.655   1.227   1.581 -0.1701 -1.2794  0.4285
 8653SOL    HW237422   1.669   1.209   1.720 -2.8228 -1.7885  0.3969
 8654SOL     OW37423   3.669   1.126   7.964  0.0491 -0.7693  0.2764
 8654SOL    HW137424   3.734   1.146   7.896 -0.9760 -0.8103 -0.7020
 8654SOL    HW237425   3.645   1.038   7.937 -0.0381 -0.2172 -1.4565
 8655SOL     OW37426   0.613   1.393   0.154  0.5190  0.4310 -0.2284
 8655SOL    HW137427   0.686   1.443   0.119  0.5083  0.0873 -0.7451
 8655SOL    HW237428   0.562   1.465   0.192  0.7530 -0.3349  1.5501
 8656SOL     OW37429   4.515   2.660  15.807  0.0314 -0.2507 -0.4572
 8656SOL    HW137430   4.558   2.718  15.744 -0.7720  1.2836  0.4197
 8656SOL    HW237431   4.593   2.610  15.832  0.3270  0.1098 -0.6575
 8657SOL     OW37432   4.054   2.719   6.302  0.3387  0.1642  0.4651
 8657SOL    HW137433   4.103   2.754   6.227  0.1800 -1.6539 -0.4946
 8657SOL    HW237434   3.992   2.788   6.322 -0.5428 -0.2119 -0.9768
 8658SOL     OW37435   3.167   3.830  13.426  0.4388 -0.1936 -0.0856
 8658SOL    HW137436   3.235   3.824  13.493  1.0713  2.8100 -0.4661
 8658SOL    HW237437   3.096   3.865  13.479  0.0825  0.9896 -1.3558
 8659SOL     OW37438   1.631   0.609   2.311  0.2182 -0.2711 -0.1185
 8659SOL    HW137439   1.646   0.541   2.245  0.9721  2.5264 -2.8525
 8659SOL    HW237440   1.584   0.675   2.259 -1.4482 -0.8000  0.6921
 8660SOL     OW37441   2.129   0.161   1.874  0.7888  0.2798 -0.6262
 8660SOL    HW137442   2.213   0.116   1.872  0.4975 -0.3395  1.3673
 8660SOL    HW237443   2.143   0.206   1.958 -2.5704 -0.4429  0.3348
 8661SOL     OW37444   4.117   1.089  13.937  0.4235 -0.0823 -0.2236
 8661SOL    HW137445   4.183   1.035  13.980 -1.3276  0.6998  3.4645
 8661SOL    HW237446   4.042   1.072  13.994 -0.2149 -0.1481 -1.0827
 8662SOL     OW37447   2.278   0.808   1.574 -0.0248 -0.3962 -0.3566
 8662SOL    HW137448   2.249   0.743   1.638 -0.7864 -0.0683 -0.3751
 8662SOL    HW237449   2.216   0.784   1.506  0.1837 -1.2142 -0.2543
 8663SOL     OW37450   3.270   0.365   2.161 -0.9732 -0.8360  0.2205
 8663SOL    HW137451   3.343   0.330   2.212  0.0537  0.7267 -0.1705
 8663SOL    HW237452   3.211   0.385   2.234 -3.0066 -0.5037 -1.5249
 8664SOL     OW37453   3.714   1.748   8.785 -0.1332 -0.1354  0.0982
 8664SOL    HW137454   3.802   1.754   8.748 -0.0927  0.7279  0.3392
 8664SOL    HW237455   3.716   1.674   8.846 -1.9444 -1.4533 -1.4484
 8665SOL     OW37456   2.432   4.022   7.040  0.3071  0.0750  0.0552
 8665SOL    HW137457   2.442   3.978   7.125 -0.8782 -0.5697 -0.1350
 8665SOL    HW237458   2.459   3.957   6.975  1.3358  0.6046 -0.0540
 8666SOL     OW37459   0.357   3.694  13.309 -0.6478  0.6315 -0.0164
 8666SOL    HW137460   0.397   3.715  13.225 -0.6369 -0.2642 -0.2303
 8666SOL    HW237461   0.276   3.653  13.277  0.1307 -0.6757 -0.2768
 8667SOL     OW37462   4.303   1.582   0.250  0.8540 -0.7127 -0.3431
 8667SOL    HW137463   4.229   1.612   0.302  1.7045  0.7544  0.0172
 8667SOL    HW237464   4.381   1.601   0.302  0.8408  1.8116 -1.2257
 8668SOL     OW37465   4.006   3.609   3.010 -0.5100 -0.1711 -0.3460
 8668SOL    HW137466   3.964   3.530   2.976 -0.2784 -1.3941  2.1490
 8668SOL    HW237467   4.097   3.586   3.029 -1.2978 -3.5773 -0.5989
 8669SOL     OW37468   4.491   4.278   5.948 -0.0717  0.4880  0.3473
 8669SOL    HW137469   4.490   4.353   6.007 -1.2416  0.3485  0.5120
 8669SOL    HW237470   4.567   4.238   5.988  0.1130  1.1758  0.6919
 8670SOL     OW37471   1.097   0.107   5.544  0.4887 -0.1270  0.1972
 8670SOL    HW137472   1.013   0.152   5.535  0.7253 -0.0444 -1.5867
 8670SOL    HW237473   1.126   0.127   5.633  1.0988  0.2304 -0.0834
 8671SOL     OW37474   3.696   4.432   4.646  0.3124  0.3130 -0.3576
 8671SOL    HW137475   3.739   4.515   4.666  0.2060  0.3796 -0.4006
 8671SOL    HW237476   3.687   4.443   4.551 -2.4557 -0.6959 -0.2215
 8672SOL     OW37477   2.093   3.036   4.560  0.5014  0.5519 -0.4072
 8672SOL    HW137478   2.044   3.108   4.520 -0.2510  0.5987  0.5883
 8672SOL    HW237479   2.115   3.080   4.643 -0.1016  0.5649 -0.2520
 8673SOL     OW37480   2.675   0.072   4.407  0.2702 -0.2555  0.0004
 8673SOL    HW137481   2.749   0.030   4.363 -0.4341 -1.2302 -0.2519
 8673SOL    HW237482   2.654   0.012   4.478  1.1463  1.1379  1.4307
 8674SOL     OW37483   0.267   0.217  13.418 -0.0241  0.2776 -0.3047
 8674SOL    HW137484   0.333   0.188  13.356  0.4305 -0.3846  0.4950
 8674SOL    HW237485   0.295   0.309  13.413  3.2312 -0.6783  0.7945
 8675SOL     OW37486   4.336   0.629   6.566  0.0386 -0.2193 -0.5836
 8675SOL    HW137487   4.379   0.715   6.566  0.4999 -0.4511  0.6104
 8675SOL    HW237488   4.265   0.656   6.625  0.2091 -1.6473  0.2715
 8676SOL     OW37489   2.172   4.645   0.963  0.3991 -0.1346  0.3660
 8676SOL    HW137490   2.259   4.666   0.996  0.9648 -1.4632 -0.2747
 8676SOL    HW237491   2.170   4.561   1.009  0.7566 -0.2834  0.1116
 8677SOL     OW37492   1.449   3.105  11.220  0.4667  0.2493 -0.3555
 8677SOL    HW137493   1.517   3.156  11.175 -1.8571  3.0279 -0.7106
 8677SOL    HW237494   1.394   3.100  11.142 -1.4317  0.6201  0.9834
 8678SOL     OW37495   0.505   3.125   9.659 -0.2986  0.8812 -0.0693
 8678SOL    HW137496   0.465   3.079   9.733 -0.7324 -0.1734 -0.9655
 8678SOL    HW237497   0.588   3.077   9.660 -1.3163 -0.8057  2.5301
 8679SOL     OW37498   2.766   4.001  16.222 -0.2386  0.0943 -0.1603
 8679SOL    HW137499   2.706   4.075  16.229 -0.5676 -0.3029  1.3396
 8679SOL    HW237500   2.714   3.956  16.155 -1.9080  0.8475  0.6172
 8680SOL     OW37501   1.267   3.880  11.319  0.3833  0.2371 -0.5133
 8680SOL    HW137502   1.325   3.887  11.243  2.2368 -1.0320  0.8021
 8680SOL    HW237503   1.228   3.793  11.308 -0.8049  0.7189 -0.0651
 8681SOL     OW37504   2.932   2.082   8.823 -0.4689  0.0192 -0.5114
 8681SOL    HW137505   3.008   2.128   8.861 -2.3993  1.2446  1.8833
 8681SOL    HW237506   2.979   2.033   8.756  0.6645 -0.6746  0.8078
 8682SOL     OW37507   0.470   3.798  14.205  0.1557  0.0858 -0.6854
 8682SOL    HW137508   0.439   3.888  14.199 -0.8627 -0.3370 -1.8139
 8682SOL    HW237509   0.543   3.793  14.142  1.3693 -0.7919  0.7817
 8683SOL     OW37510   0.732   0.212  14.417  1.1779 -0.0408  0.1023
 8683SOL    HW137511   0.787   0.242  14.344  1.9455 -0.6333  0.4289
 8683SOL    HW237512   0.648   0.214  14.371  0.9467  2.6248  0.6316
 8684SOL     OW37513   3.906   1.106  16.959 -0.0685  0.1170 -0.4677
 8684SOL    HW137514   3.867   1.175  16.906 -0.4305  0.1258 -0.1835
 8684SOL    HW237515   3.836   1.082  17.020  1.2235 -0.7236  0.6911
 8685SOL     OW37516   0.401   1.926   8.091  0.2627  0.4499 -0.0598
 8685SOL    HW137517   0.440   1.845   8.059 -1.6184 -0.0069 -1.2263
 8685SOL    HW237518   0.470   1.956   8.151  0.1239  0.2226  0.2145
 8686SOL     OW37519   0.388   2.236   5.398 -0.3101 -0.8814  0.0058
 8686SOL    HW137520   0.468   2.188   5.417 -1.0177 -1.7841  0.7412
 8686SOL    HW237521   0.400   2.327   5.423 -0.5923 -0.2242 -2.2765
 8687SOL     OW37522   0.335   1.637  11.551 -0.1535 -0.1313 -0.5572
 8687SOL    HW137523   0.339   1.661  11.644  0.5638  0.2669 -0.6865
 8687SOL    HW237524   0.376   1.551  11.548 -1.4159 -0.6734 -1.8718
 8688SOL     OW37525   0.406   0.161   7.309 -0.4719  0.4167 -0.0376
 8688SOL    HW137526   0.455   0.236   7.277 -0.4673  0.9278  1.1600
 8688SOL    HW237527   0.336   0.149   7.245 -1.3078  0.5981  0.8420
 8689SOL     OW37528   2.401   2.633  14.636  0.4926 -0.0528  0.3087
 8689SOL    HW137529   2.324   2.631  14.578 -0.2772 -0.7499  1.3515
 8689SOL    HW237530   2.470   2.637  14.570 -0.1450  1.1390 -0.2858
 8690SOL     OW37531   1.804   4.154  17.011  0.0531 -0.1742 -0.0302
 8690SOL    HW137532   1.852   4.122  17.088 -0.4347  0.9068  0.7247
 8690SOL    HW237533   1.756   4.218  17.062 -0.0987  1.4165 -2.1759
 8691SOL     OW37534   1.284   1.329   5.488  0.5943  0.1035  0.3856
 8691SOL    HW137535   1.307   1.369   5.572  0.0537  0.9977  0.1225
 8691SOL    HW237536   1.201   1.375   5.471  0.1632 -0.5430  0.7749
 8692SOL     OW37537   3.377   0.909   9.123 -0.0530 -0.3122  0.0065
 8692SOL    HW137538   3.289   0.930   9.090 -1.7867 -0.8419  4.3589
 8692SOL    HW237539   3.394   0.988   9.176 -0.0519 -1.2606  1.4105
 8693SOL     OW37540   0.650   1.469   7.817  0.0353 -0.3357  0.2001
 8693SOL    HW137541   0.658   1.510   7.730 -2.2362 -2.4730 -1.0209
 8693SOL    HW237542   0.624   1.543   7.872 -0.7327 -0.3198 -0.1725
 8694SOL     OW37543   3.807   3.481   7.664 -0.2486 -0.1331 -0.1330
 8694SOL    HW137544   3.734   3.488   7.726 -1.2614 -0.2618 -1.2963
 8694SOL    HW237545   3.851   3.399   7.685 -0.1480 -0.1808 -0.5328
 8695SOL     OW37546   3.101   3.729   6.973  0.5713 -0.2397 -0.0441
 8695SOL    HW137547   3.183   3.776   6.959 -0.3669  1.7580  1.0964
 8695SOL    HW237548   3.066   3.698   6.890 -2.7988  0.0030  1.2576
 8696SOL     OW37549   4.394   1.075   3.229  0.3200  0.7388 -0.0832
 8696SOL    HW137550   4.408   1.018   3.153  0.1009  0.9262 -0.2649
 8696SOL    HW237551   4.305   1.049   3.255  0.0216  3.7596  1.9005
 8697SOL     OW37552   0.645   3.905   9.082 -0.1311 -0.2571 -0.0846
 8697SOL    HW137553   0.699   3.915   9.160 -1.5702 -1.0072  1.0073
 8697SOL    HW237554   0.582   3.975   9.093 -0.2080  0.0120 -2.1087
 8698SOL     OW37555   3.637   4.536   3.093  0.2256 -0.3678 -0.1757
 8698SOL    HW137556   3.617   4.600   3.161  0.0346  0.4287 -0.9851
 8698SOL    HW237557   3.733   4.537   3.095  0.2532 -2.3321 -0.1036
 8699SOL     OW37558   4.716   3.942   7.369 -0.0865  0.6894 -0.0296
 8699SOL    HW137559   0.042   4.004   7.421 -0.6338 -1.6427  3.3140
 8699SOL    HW237560   0.055   3.934   7.299  1.2490 -1.3969  1.4144
 8700SOL     OW37561   3.792   0.893  12.584 -0.3640 -0.7393  0.3930
 8700SOL    HW137562   3.851   0.931  12.649  2.4690  0.2583 -2.7723
 8700SOL    HW237563   3.818   0.930  12.500  0.7739 -0.6909  0.7638
 8701SOL     OW37564   4.166   2.065  17.505  0.4490  0.4246 -0.3603
 8701SOL    HW137565   4.202   2.099  17.423 -0.1388  0.7973 -0.4635
 8701SOL    HW237566   4.095   2.126  17.527 -1.7111 -1.9773 -0.6395
 8702SOL     OW37567   4.558   4.446  10.913 -0.4600  0.6349 -0.3327
 8702SOL    HW137568   4.589   4.393  10.839  1.2998  0.6024  0.4481
 8702SOL    HW237569   4.620   4.514  10.937 -2.2409  2.0828  0.1873
 8703SOL     OW37570   2.879   0.112   4.688 -0.0137  0.1401  0.0277
 8703SOL    HW137571   2.937   0.043   4.656 -0.3663 -1.1045  2.1372
 8703SOL    HW237572   2.886   0.105   4.783 -1.8225 -1.2846  0.0447
 8704SOL     OW37573   3.041   0.472   9.546 -0.0146  0.0168 -0.3410
 8704SOL    HW137574   3.022   0.417   9.622  2.6330  0.7131  0.8147
 8704SOL    HW237575   3.103   0.425   9.490  0.7258 -1.7433  1.9240
 8705SOL     OW37576   3.835   0.364  17.242 -0.1379  0.6337 -0.2546
 8705SOL    HW137577   3.769   0.315  17.193  1.4165 -1.2285 -0.5062
 8705SOL    HW237578   3.795   0.451  17.245 -1.7892 -0.2078  1.7462
 8706SOL     OW37579   0.516   2.694   7.862  0.0757 -0.2694  0.2038
 8706SOL    HW137580   0.498   2.774   7.813  1.2471 -0.5681 -0.7225
 8706SOL    HW237581   0.583   2.723   7.924 -1.5514  3.5223  0.1904
 8707SOL     OW37582   2.449   3.622   1.666  0.6937  1.0849  0.0045
 8707SOL    HW137583   2.534   3.596   1.629  0.7689  0.1188  0.8613
 8707SOL    HW237584   2.401   3.633   1.584 -1.2650 -1.0262  0.8977
 8708SOL     OW37585   0.452   3.367   9.592  0.0443  0.2698  0.0384
 8708SOL    HW137586   0.535   3.377   9.547 -0.4090 -1.3683 -1.1729
 8708SOL    HW237587   0.468   3.277   9.622  1.7744  1.0521  1.4839
 8709SOL     OW37588   1.177   1.048   4.538  0.1009  0.5188  0.0904
 8709SOL    HW137589   1.236   1.040   4.463  1.1859  0.0556  1.0109
 8709SOL    HW237590   1.179   0.960   4.575 -0.6186  0.3474 -0.2794
 8710SOL     OW37591   4.192   3.400   7.820  0.2547  0.1514 -0.1660
 8710SOL    HW137592   4.247   3.392   7.742 -1.5020  1.9961 -1.5877
 8710SOL    HW237593   4.105   3.398   7.781  1.6578 -0.1140 -3.2360
 8711SOL     OW37594   3.147   1.823   3.900 -0.1928 -0.5203  0.2492
 8711SOL    HW137595   3.156   1.908   3.857 -0.7806 -1.7523 -2.2624
 8711SOL    HW237596   3.101   1.767   3.839 -0.4204 -1.8424  1.6249
 8712SOL     OW37597   3.426   3.149   7.457 -0.3436  0.0208  0.2070
 8712SOL    HW137598   3.456   3.190   7.539  0.9296  2.4561 -1.4707
 8712SOL    HW237599   3.412   3.226   7.402  0.9459  1.1225  1.4228
 8713SOL     OW37600   2.047   0.977   4.606  0.4107  0.1620 -0.3351
 8713SOL    HW137601   2.054   0.996   4.699  0.5488 -0.5407 -0.2039
 8713SOL    HW237602   2.032   1.061   4.562  2.3181  0.6963  0.0565
 8714SOL     OW37603   2.964   3.416   2.493  0.0910  0.8964  0.3482
 8714SOL    HW137604   2.958   3.387   2.584  2.9485 -0.3993  0.1325
 8714SOL    HW237605   3.016   3.347   2.452  1.8910  1.5948  1.4415
 8715SOL     OW37606   4.566   4.531   0.905 -0.1810  0.0631 -0.2892
 8715SOL    HW137607   4.474   4.556   0.904  0.3066  1.8669 -0.0674
 8715SOL    HW237608   4.611   4.610   0.875  0.4679  0.7541  2.4915
 8716SOL     OW37609   1.677   2.491   8.764 -0.2781  0.0497  0.3954
 8716SOL    HW137610   1.721   2.555   8.820 -1.1269  1.1752 -0.2312
 8716SOL    HW237611   1.745   2.427   8.745  1.2559  0.7721  3.3985
 8717SOL     OW37612   3.501   0.259   3.102  0.2997  0.1348  0.5920
 8717SOL    HW137613   3.588   0.294   3.120 -0.2318  2.0486 -0.5458
 8717SOL    HW237614   3.510   0.209   3.022  2.5729  2.0711 -0.3718
 8718SOL     OW37615   4.644   0.460   1.144  0.0156 -0.0808  0.0930
 8718SOL    HW137616   4.551   0.465   1.168 -0.1287 -0.7101 -0.3344
 8718SOL    HW237617   4.653   0.377   1.190  0.0970 -0.7452 -1.1213
 8719SOL     OW37618   2.511   1.599   7.213 -0.2282  0.1913 -0.0990
 8719SOL    HW137619   2.598   1.567   7.189  0.8339  2.0196  1.3448
 8719SOL    HW237620   2.492   1.531   7.277  0.1536  0.0084 -0.1763
 8720SOL     OW37621   2.748   1.135   8.024  0.4768 -0.3362  0.3296
 8720SOL    HW137622   2.843   1.125   8.014  0.2987 -1.1721 -0.4599
 8720SOL    HW237623   2.745   1.227   8.051 -1.0150 -0.7551  1.6070
 8721SOL     OW37624   2.822   4.680   1.692 -0.4543  0.4110  0.5379
 8721SOL    HW137625   2.787   0.031   1.739 -1.5903  0.2053  0.0150
 8721SOL    HW237626   2.911   4.673   1.728  0.0174  0.2403 -0.6615
 8722SOL     OW37627   3.585   0.001   7.942 -0.3255 -0.0996 -0.4317
 8722SOL    HW137628   3.556   0.051   7.866  0.3326 -1.3426 -1.5207
 8722SOL    HW237629   3.644   4.666   7.895 -1.4361 -2.0219  0.5942
 8723SOL     OW37630   4.075   0.757   1.183  0.0850 -0.6320  0.0870
 8723SOL    HW137631   4.071   0.759   1.279 -0.4202  0.2193  0.0454
 8723SOL    HW237632   4.077   0.662   1.171  0.7271 -0.5508 -0.4734
 8724SOL     OW37633   3.124   3.491   6.275  0.0561 -0.2839 -0.4993
 8724SOL    HW137634   3.151   3.546   6.201  1.1446 -0.1505 -0.0012
 8724SOL    HW237635   3.113   3.562   6.338  0.7021  0.2692 -1.0164
 8725SOL     OW37636   4.250   3.555   4.261  0.4981 -0.0916 -0.2488
 8725SOL    HW137637   4.336   3.514   4.252  1.7023  2.2786  0.4823
 8725SOL    HW237638   4.246   3.593   4.349  0.0583  0.8203 -0.6634
 8726SOL     OW37639   1.698   1.086   5.333  0.4774 -0.4102 -0.5827
 8726SOL    HW137640   1.730   1.009   5.379  0.4410  0.2046  0.4698
 8726SOL    HW237641   1.653   1.042   5.261 -0.5215 -2.0520  1.0514
 8727SOL     OW37642   2.725   2.053   0.312  0.6100  0.2810  0.1483
 8727SOL    HW137643   2.788   1.985   0.336  1.0342  0.4695 -0.4243
 8727SOL    HW237644   2.735   2.109   0.389  0.6779  1.2133 -0.5408
 8728SOL     OW37645   3.001   3.187   5.912 -0.4006 -0.9101 -0.5308
 8728SOL    HW137646   2.993   3.146   5.825  1.9756 -1.4922 -0.4842
 8728SOL    HW237647   3.096   3.189   5.927 -0.5826 -3.2784  0.9071
 8729SOL     OW37648   1.231   4.595   8.516  0.5256 -0.4572 -0.4060
 8729SOL    HW137649   1.278   4.512   8.505 -0.8592 -1.3764  0.6060
 8729SOL    HW237650   1.143   4.570   8.490 -0.0634  0.7644  0.4122
 8730SOL     OW37651   2.449   0.215   6.298 -0.2055  0.3060 -0.4680
 8730SOL    HW137652   2.482   0.295   6.340 -0.5399  0.9494 -1.4196
 8730SOL    HW237653   2.354   0.226   6.303 -0.2564 -2.2625  3.8162
 8731SOL     OW37654   1.298   1.510   1.941 -0.5162 -0.5704 -0.1296
 8731SOL    HW137655   1.246   1.471   1.871 -0.9937  1.5247 -0.9152
 8731SOL    HW237656   1.382   1.524   1.899 -2.0800  2.7535 -2.1118
 8732SOL     OW37657   0.707   4.320  14.596 -0.0045  0.5614 -0.2586
 8732SOL    HW137658   0.693   4.272  14.515 -0.3494 -3.2745  2.0296
 8732SOL    HW237659   0.620   4.301  14.631  0.7463  0.1046  1.3789
 8733SOL     OW37660   2.236   3.473   6.646  0.1022  0.1508 -0.2305
 8733SOL    HW137661   2.184   3.517   6.578  0.3844  0.9544  0.0644
 8733SOL    HW237662   2.321   3.505   6.616  0.3418 -1.1489 -0.9241
 8734SOL     OW37663   0.305   1.519   3.663  0.0148  0.5785 -0.1365
 8734SOL    HW137664   0.284   1.538   3.572  2.2697 -3.7260 -1.5580
 8734SOL    HW237665   0.400   1.509   3.660 -0.1765 -1.8118  1.4314
 8735SOL     OW37666   3.912   3.627  13.527 -0.5308  0.1129  0.2917
 8735SOL    HW137667   3.857   3.627  13.448 -1.7035  0.8576  1.1080
 8735SOL    HW237668   3.856   3.576  13.586 -0.5959  0.3209  0.4080
 8736SOL     OW37669   4.266   1.497  11.361 -0.3121  0.6277 -0.0128
 8736SOL    HW137670   4.339   1.467  11.416 -1.3623 -0.9677  0.5260
 8736SOL    HW237671   4.200   1.432  11.387  0.5593  0.5364  1.9706
 8737SOL     OW37672   3.865   4.440   0.278 -0.4360  0.6626  0.1893
 8737SOL    HW137673   3.864   4.523   0.325 -1.0099 -0.6975  2.5753
 8737SOL    HW237674   3.858   4.385   0.356 -4.5294 -0.2549 -0.8189
 8738SOL     OW37675   2.624   2.135   5.322 -0.8225  0.4662 -0.4936
 8738SOL    HW137676   2.554   2.083   5.283 -1.6029  0.3105  1.1029
 8738SOL    HW237677   2.679   2.058   5.333 -0.9462  0.5798  0.9109
 8739SOL     OW37678   1.071   4.447   3.946 -0.2888  0.3267  0.1302
 8739SOL    HW137679   1.120   4.452   3.864 -3.2231 -0.5234 -1.6554
 8739SOL    HW237680   1.064   4.539   3.969  4.3774 -0.0420  3.1800
 8740SOL     OW37681   2.873   2.295   7.631  0.7001  0.4869  0.5057
 8740SOL    HW137682   2.966   2.297   7.612  0.8792  2.1886  1.5430
 8740SOL    HW237683   2.866   2.202   7.653 -1.3108  0.4131 -0.3928
 8741SOL     OW37684   3.775   0.278   0.710  0.1609  0.6873 -0.4923
 8741SOL    HW137685   3.699   0.250   0.762  1.1480 -1.3936 -0.1741
 8741SOL    HW237686   3.787   0.370   0.734 -1.6794  0.6922  0.4634
 8742SOL     OW37687   3.032   3.698   8.524  0.3418 -0.1547  0.3871
 8742SOL    HW137688   2.962   3.755   8.557 -1.2077 -0.3873 -2.4824
 8742SOL    HW237689   2.994   3.671   8.440 -3.0901  1.8144  1.3053
 8743SOL     OW37690   1.672   2.399  17.310 -0.4502 -0.0214 -0.4973
 8743SOL    HW137691   1.716   2.480  17.285  0.7829 -0.3115  0.7432
 8743SOL    HW237692   1.723   2.369  17.385  2.3197  0.7135 -2.1172
 8744SOL     OW37693   3.975   0.533  11.534 -0.0920 -0.5091  0.0765
 8744SOL    HW137694   3.885   0.559  11.554  0.0611 -0.0726  0.2052
 8744SOL    HW237695   4.023   0.547  11.616  0.5560  0.7922 -0.5188
 8745SOL     OW37696   1.124   3.269   8.616 -0.0845 -0.0056  0.0911
 8745SOL    HW137697   1.122   3.292   8.523 -0.4413 -1.0610 -0.1612
 8745SOL    HW237698   1.186   3.197   8.629 -1.1955 -0.9882 -0.0837
 8746SOL     OW37699   4.622   4.285   7.816  0.1507  0.0517 -0.7791
 8746SOL    HW137700   4.613   4.194   7.787  0.8813 -0.5903  1.0680
 8746SOL    HW237701   4.532   4.315   7.807  0.1140  0.0112 -0.5247
 8747SOL     OW37702   0.240   0.232  10.492  0.1264 -0.0889  0.4082
 8747SOL    HW137703   0.172   0.166  10.507 -0.7415  0.5035 -0.9336
 8747SOL    HW237704   0.245   0.215  10.398 -0.2633 -0.6398  0.4839
 8748SOL     OW37705   3.359   1.456   5.769 -0.2888  0.8426 -0.6702
 8748SOL    HW137706   3.264   1.470   5.770 -0.4367 -0.1863 -0.8927
 8748SOL    HW237707   3.385   1.486   5.856 -0.7524  2.4266 -1.0741
 8749SOL     OW37708   2.597   4.065  10.828  0.5851 -0.0037  0.1607
 8749SOL    HW137709   2.532   4.039  10.893 -0.5813 -0.8241 -1.3382
 8749SOL    HW237710   2.548   4.060  10.746  1.0808 -1.4991 -0.0349
 8750SOL     OW37711   4.007   3.769   8.021 -0.2723  0.6206  0.0040
 8750SOL    HW137712   3.946   3.746   7.951  0.4702 -1.9179  0.2044
 8750SOL    HW237713   4.020   3.863   8.006 -0.0120  0.7497  1.0409
 8751SOL     OW37714   0.931   2.917   1.480 -0.5119  0.1684  0.1152
 8751SOL    HW137715   0.889   2.883   1.401 -2.2648 -1.6890  1.8529
 8751SOL    HW237716   0.961   2.835   1.519 -1.3395 -0.8052 -1.2922
 8752SOL     OW37717   2.972   1.763  16.283 -0.0702  0.4038 -0.6291
 8752SOL    HW137718   2.899   1.724  16.332  0.1734 -0.4888 -0.9672
 8752SOL    HW237719   3.049   1.721  16.321 -1.2600 -0.3308  1.0017
 8753SOL     OW37720   0.259   1.643   7.677 -0.1350  0.6275  0.7712
 8753SOL    HW137721   0.258   1.601   7.764 -1.2094  0.4170  0.6493
 8753SOL    HW237722   0.210   1.724   7.689 -0.5667  0.5624 -0.5885
 8754SOL     OW37723   1.684   3.467   7.658  0.1647 -0.0207  0.5113
 8754SOL    HW137724   1.595   3.434   7.667 -1.1371  3.3701  0.1806
 8754SOL    HW237725   1.690   3.518   7.739  0.0991 -2.2989  1.9435
 8755SOL     OW37726   0.801   0.955   1.785  0.4704  0.3127 -0.3131
 8755SOL    HW137727   0.816   0.989   1.874  0.3126 -0.1929 -0.0957
 8755SOL    HW237728   0.719   0.907   1.793  1.1547 -1.1640 -2.2146
 8756SOL     OW37729   2.159   1.469   6.673 -0.1958 -0.3534 -0.1493
 8756SOL    HW137730   2.095   1.442   6.607  0.7217 -1.3250 -0.6477
 8756SOL    HW237731   2.149   1.562   6.652 -1.5106 -0.2315  0.9639
 8757SOL     OW37732   0.577   1.519   9.241  0.0329  0.0001  0.2430
 8757SOL    HW137733   0.615   1.591   9.190  0.4449 -0.4622 -0.0952
 8757SOL    HW237734   0.658   1.475   9.268 -1.0398 -2.1634 -0.1172
 8758SOL     OW37735   4.202   0.939   5.710  0.6486 -0.1636 -0.4941
 8758SOL    HW137736   4.165   0.999   5.775  0.8434 -0.5769 -0.0003
 8758SOL    HW237737   4.278   0.898   5.752 -0.0723 -1.2841 -0.2893
 8759SOL     OW37738   0.345   1.737   2.908  0.2338 -0.9099  0.6020
 8759SOL    HW137739   0.436   1.742   2.879  0.1583 -0.4006  0.4696
 8759SOL    HW237740   0.331   1.642   2.915  1.0857 -1.0737 -0.0070
 8760SOL     OW37741   1.638   2.193   9.163  0.6156 -0.1539 -0.5590
 8760SOL    HW137742   1.660   2.240   9.243  1.7348 -0.7701 -0.5014
 8760SOL    HW237743   1.589   2.265   9.124  0.0021 -0.5224 -0.4745
 8761SOL     OW37744   2.343   0.678   8.839  0.1142  0.5210 -0.2756
 8761SOL    HW137745   2.248   0.684   8.840  0.3347  3.7223  1.8626
 8761SOL    HW237746   2.354   0.583   8.847  0.5613  0.7225  1.6052
 8762SOL     OW37747   4.640   0.232  17.624  0.1875 -0.2665 -0.0800
 8762SOL    HW137748   4.603   0.161  17.677  2.8248 -1.5314  0.0369
 8762SOL    HW237749   4.625   0.190  17.539  0.2715  1.7879 -1.1005
 8763SOL     OW37750   2.907   0.043   4.947  0.7874  0.1250 -0.3588
 8763SOL    HW137751   2.969   0.096   4.998  0.3313 -0.7359  1.0854
 8763SOL    HW237752   2.818   0.058   4.977  0.3571  0.3571 -1.7517
 8764SOL     OW37753   4.507   1.804   3.285  0.0056  0.0110  0.5194
 8764SOL    HW137754   4.529   1.715   3.259 -0.5141  0.8913 -2.9761
 8764SOL    HW237755   4.585   1.849   3.252  1.8131 -2.1586  1.7914
 8765SOL     OW37756   4.260   2.691   0.887 -0.4093 -0.5916 -0.0535
 8765SOL    HW137757   4.244   2.596   0.889 -0.9805 -0.4817  0.2691
 8765SOL    HW237758   4.342   2.686   0.837  0.9492 -1.3952  2.2367
 8766SOL     OW37759   1.863   0.143   7.420  0.0969 -0.0747  0.2765
 8766SOL    HW137760   1.946   0.100   7.399 -0.7829 -2.1300  1.0265
 8766SOL    HW237761   1.832   0.157   7.331 -2.0354 -1.2756  0.8331
 8767SOL     OW37762   1.118   2.948  17.525  0.6541  0.2468 -0.4917
 8767SOL    HW137763   1.197   2.930  17.576  0.4280  0.3637 -0.1011
 8767SOL    HW237764   1.079   2.862  17.511  1.0239  0.1870 -1.1557
 8768SOL     OW37765   4.280   0.834  17.652  0.0086  0.1340  0.2694
 8768SOL    HW137766   4.244   0.877  17.575 -0.5090 -0.0361  0.4183
 8768SOL    HW237767   4.284   0.742  17.624  3.2430  0.8198 -1.6189
 8769SOL     OW37768   4.503   4.420   6.239  0.5358 -0.5921  0.9980
 8769SOL    HW137769   4.569   4.471   6.193 -2.6435  1.6066 -1.1300
 8769SOL    HW237770   4.555   4.386   6.312  0.0314  0.9352  2.0586
 8770SOL     OW37771   1.006   3.735   2.359 -0.7990  0.2577 -0.6042
 8770SOL    HW137772   0.989   3.658   2.304 -2.0072 -0.0041  0.1273
 8770SOL    HW237773   0.976   3.815   2.317  0.4766  1.1669  0.2557
 8771SOL     OW37774   2.934   1.057   4.939  0.0084 -0.3817 -0.2430
 8771SOL    HW137775   2.984   0.984   4.902 -1.2462  0.2359 -3.1002
 8771SOL    HW237776   2.909   1.114   4.866  0.3780 -2.2847 -1.8389
 8772SOL     OW37777   1.190   0.629   3.253  0.3390 -0.5867  0.1917
 8772SOL    HW137778   1.274   0.663   3.223  0.1116 -1.3389 -1.2830
 8772SOL    HW237779   1.133   0.704   3.232  1.7345  0.8027  1.3546
 8773SOL     OW37780   4.527   2.381   7.980  0.3296  0.4332  0.1943
 8773SOL    HW137781   4.568   2.311   8.029 -1.6954  0.5783  2.0860
 8773SOL    HW237782   4.599   2.444   7.981  2.5819 -2.1732  0.6048
 8774SOL     OW37783   3.551   4.557   0.151 -0.0410 -0.3753  0.4115
 8774SOL    HW137784   3.489   4.605   0.096  0.3002 -0.8319 -0.3832
 8774SOL    HW237785   3.598   4.632   0.189 -0.4249  0.5704 -0.9575
 8775SOL     OW37786   4.689   1.463   7.824 -0.3034 -0.1890  0.3389
 8775SOL    HW137787   4.648   1.478   7.739  1.5749  1.3290 -0.3031
 8775SOL    HW237788   4.692   1.548   7.869 -0.4089  0.1246 -0.2405
 8776SOL     OW37789   2.267   0.273   3.716 -0.3817  0.4111 -0.0569
 8776SOL    HW137790   2.197   0.237   3.771 -0.4317 -0.7804 -0.9049
 8776SOL    HW237791   2.343   0.225   3.748 -0.9085  0.0177  0.5948
 8777SOL     OW37792   3.929   3.589   3.679  0.2752 -0.4396  0.6835
 8777SOL    HW137793   3.879   3.516   3.642 -0.2670  0.8928 -1.2196
 8777SOL    HW237794   4.017   3.579   3.642  0.3830  2.3705  0.1581
 8778SOL     OW37795   1.694   4.715   7.589  0.6173  0.3683  0.8743
 8778SOL    HW137796   1.757   4.721   7.661  1.0748  2.0414  0.3332
 8778SOL    HW237797   1.745   0.033   7.520  0.0287 -1.3159 -0.6056
 8779SOL     OW37798   4.633   0.036   4.359  0.7668  0.0657  0.3280
 8779SOL    HW137799   4.594   0.082   4.285  2.5095 -2.3862 -2.1391
 8779SOL    HW237800   4.565   0.033   4.426  0.7414 -1.5376  0.2493
 8780SOL     OW37801   0.620   1.449   2.696  0.0566  0.1663  0.4667
 8780SOL    HW137802   0.638   1.376   2.637  2.6225 -0.0369  1.5002
 8780SOL    HW237803   0.697   1.460   2.753  0.5588  0.5892 -0.2940
 8781SOL     OW37804   4.175   3.978   9.076 -0.4821 -0.2661 -0.2937
 8781SOL    HW137805   4.259   4.021   9.093  0.1786 -1.7265  0.1668
 8781SOL    HW237806   4.154   3.947   9.164 -0.3213 -1.1116 -0.5520
 8782SOL     OW37807   4.108   0.042   8.178  0.3300  0.7381 -0.4743
 8782SOL    HW137808   4.111   4.676   8.147 -0.0964  0.6341 -0.2232
 8782SOL    HW237809   4.017   0.065   8.158 -0.1817  0.2026  1.2261
 8783SOL     OW37810   4.046   2.804  16.068  0.0348 -0.6142  0.4146
 8783SOL    HW137811   3.997   2.857  16.005 -1.1617 -1.7992  0.3494
 8783SOL    HW237812   4.121   2.770  16.019  1.9113 -0.2282  3.0267
 8784SOL     OW37813   1.593   1.964   9.020  0.3032  0.0436 -0.4099
 8784SOL    HW137814   1.643   2.023   9.077  0.9436 -1.1811  0.2989
 8784SOL    HW237815   1.619   1.998   8.934  0.0414  1.1129 -0.0569
 8785SOL     OW37816   3.825   0.477  15.785  0.1680 -0.2029  0.3210
 8785SOL    HW137817   3.817   0.530  15.864  0.6827 -0.0615  0.2776
 8785SOL    HW237818   3.816   0.549  15.724 -0.8058  0.5398  1.3487
 8786SOL     OW37819   1.034   4.194   7.900  0.4780 -0.0737 -0.1381
 8786SOL    HW137820   1.103   4.177   7.964  0.1637 -0.8770 -0.0061
 8786SOL    HW237821   1.042   4.289   7.888 -1.1728 -0.1857 -2.1318
 8787SOL     OW37822   1.384   0.344  13.004 -0.1108  0.0948  0.3273
 8787SOL    HW137823   1.373   0.387  12.919 -1.3535  1.3087  1.0936
 8787SOL    HW237824   1.420   0.415  13.056 -0.9229  0.7364  0.0169
 8788SOL     OW37825   3.725   3.942   6.383  0.8506  0.2352  0.1953
 8788SOL    HW137826   3.665   3.870   6.362  1.7543  0.0997 -1.8996
 8788SOL    HW237827   3.766   3.910   6.464 -1.1613 -0.7782  0.8126
 8789SOL     OW37828   3.668   1.293   0.269  0.1377 -0.0814  0.3115
 8789SOL    HW137829   3.750   1.329   0.234  0.2441 -1.6836 -1.0701
 8789SOL    HW237830   3.690   1.273   0.360  0.7271 -2.5457 -0.3733
 8790SOL     OW37831   0.864   2.581  16.669  0.9684 -0.0078 -0.0305
 8790SOL    HW137832   0.947   2.629  16.663  1.8930 -1.6893 -0.4707
 8790SOL    HW237833   0.879   2.494  16.632 -1.4723 -0.8986  1.1001
 8791SOL     OW37834   2.809   1.251  14.263 -0.2021  0.4306 -0.2668
 8791SOL    HW137835   2.827   1.329  14.315 -2.0386  1.6208 -1.4265
 8791SOL    HW237836   2.835   1.275  14.174 -1.5104  4.0905  0.3458
 8792SOL     OW37837   2.357   0.675   4.983  0.2876  0.3585  0.7142
 8792SOL    HW137838   2.307   0.700   5.061  0.2222  2.7331 -0.0861
 8792SOL    HW237839   2.369   0.583   5.005  0.0954  0.3866  0.9345
 8793SOL     OW37840   2.488   2.545  12.186  0.7846 -0.3310  0.3048
 8793SOL    HW137841   2.472   2.500  12.103 -0.1191  0.3427  0.1194
 8793SOL    HW237842   2.558   2.610  12.176 -2.7962  3.4832  0.1311
 8794SOL     OW37843   4.087   0.770   9.441  0.3946 -0.4570  0.1025
 8794SOL    HW137844   4.100   0.864   9.459  0.9899 -0.3490 -0.8541
 8794SOL    HW237845   4.146   0.764   9.366 -1.7382  1.3399 -1.7223
 8795SOL     OW37846   2.951   2.489  17.155  0.2125 -0.1598 -0.0371
 8795SOL    HW137847   3.000   2.515  17.233  0.7186 -0.7999 -0.1394
 8795SOL    HW237848   3.010   2.524  17.088  0.8203 -0.9466  0.0884
 8796SOL     OW37849   3.760   0.303   0.426 -0.1348 -0.0493 -0.1037
 8796SOL    HW137850   3.737   0.284   0.517  0.5793 -0.4274 -0.0093
 8796SOL    HW237851   3.840   0.353   0.441 -1.9062  2.3571  1.2755
 8797SOL     OW37852   0.083   2.583   4.425 -0.0634 -0.4293  0.3288
 8797SOL    HW137853   0.094   2.663   4.373  1.8965 -1.4269 -0.7852
 8797SOL    HW237854   0.154   2.582   4.489 -1.0101 -1.2183  1.3575
 8798SOL     OW37855   1.284   4.022   9.019 -0.3225  0.1929  0.3618
 8798SOL    HW137856   1.259   4.111   9.044  0.4385  1.6923 -4.0850
 8798SOL    HW237857   1.281   4.053   8.928 -1.4757  3.8495  1.6759
 8799SOL     OW37858   1.878   3.956   7.274 -0.5418 -0.2216  0.0619
 8799SOL    HW137859   1.906   4.028   7.217  0.7429  0.1445  1.1460
 8799SOL    HW237860   1.812   3.925   7.213  0.1723 -0.4847 -0.5845
 8800SOL     OW37861   2.928   1.134   6.864  0.4456 -0.1753 -0.4592
 8800SOL    HW137862   2.999   1.071   6.874  1.9034  1.7456  1.3815
 8800SOL    HW237863   2.853   1.076   6.869  0.2924  0.1995  1.7914
 8801SOL     OW37864   3.257   2.340  17.433 -0.1246  0.2330 -0.7176
 8801SOL    HW137865   3.276   2.312  17.522 -0.7297  3.9735  0.5780
 8801SOL    HW237866   3.182   2.286  17.411 -0.5680 -0.0857  1.6062
 8802SOL     OW37867   0.925   0.197   9.534  0.1252 -0.6359  0.3005
 8802SOL    HW137868   1.016   0.172   9.549  0.6693  0.8327 -0.6038
 8802SOL    HW237869   0.914   0.275   9.587  0.5384 -0.9162  0.7995
 8803SOL     OW37870   3.077   3.605  15.165  0.6618 -0.1003  0.0634
 8803SOL    HW137871   3.007   3.608  15.100  1.2781 -0.0491 -0.5974
 8803SOL    HW237872   3.149   3.652  15.123  0.4332 -1.6256 -2.0191
 8804SOL     OW37873   1.793   3.062   5.411 -0.7055  0.4541  0.2793
 8804SOL    HW137874   1.840   3.135   5.369  0.9283 -0.9376 -0.2822
 8804SOL    HW237875   1.720   3.043   5.352  0.4633 -1.9986 -0.3850
 8805SOL     OW37876   0.048   3.076   5.631 -0.1109  0.1520  0.2169
 8805SOL    HW137877   0.024   3.109   5.717  1.6241  1.5980  0.1431
 8805SOL    HW237878   0.055   2.982   5.647 -0.2232  0.5548  2.6316
 8806SOL     OW37879   1.746   0.956   7.047  0.1448  0.6656 -0.4214
 8806SOL    HW137880   1.745   0.867   7.083 -2.8898  0.6891 -0.4467
 8806SOL    HW237881   1.652   0.975   7.047 -0.0702 -0.3575 -0.1171
 8807SOL     OW37882   3.905   3.177  12.413 -0.5364 -0.1944 -0.1589
 8807SOL    HW137883   3.858   3.222  12.483 -1.2670 -0.4188 -0.5008
 8807SOL    HW237884   3.988   3.224  12.419 -0.4047 -0.3306 -0.9021
 8808SOL     OW37885   3.429   4.603   6.808  0.5927  0.4053  0.4773
 8808SOL    HW137886   3.437   4.640   6.896  0.2919 -0.2038  0.7604
 8808SOL    HW237887   3.502   4.645   6.762 -2.4183  1.6191 -3.1552
 8809SOL     OW37888   1.963   4.181   6.763  0.2579  0.4562 -0.3045
 8809SOL    HW137889   1.983   4.182   6.670  0.6834  2.4415 -0.2033
 8809SOL    HW237890   2.050   4.187   6.801 -0.1309  1.7588  0.4147
 8810SOL     OW37891   2.893   3.484   5.401 -0.0341 -0.0172 -0.8307
 8810SOL    HW137892   2.966   3.542   5.377  1.1088 -1.6397 -1.3298
 8810SOL    HW237893   2.883   3.516   5.490 -0.2717  0.1853 -0.9324
 8811SOL     OW37894   3.193   0.098   2.321 -0.2196 -0.2252 -0.1125
 8811SOL    HW137895   3.184   0.091   2.417 -0.9888  0.3514 -0.1459
 8811SOL    HW237896   3.287   0.113   2.317 -0.3157  0.0771 -1.0572
 8812SOL     OW37897   2.325   0.183   4.346 -0.7367  0.1097 -0.1822
 8812SOL    HW137898   2.313   0.269   4.304 -2.2642  0.2421  0.4938
 8812SOL    HW237899   2.348   0.131   4.269 -1.7063  0.9061 -1.0194
 8813SOL     OW37900   4.724   1.228  15.173  0.1598  0.4447  0.3958
 8813SOL    HW137901   4.712   1.205  15.081  2.8048 -0.0867  0.1747
 8813SOL    HW237902   0.082   1.276  15.166 -1.2006  2.5168 -1.3717
 8814SOL     OW37903   3.330   4.102   2.591 -0.1270 -0.2777 -0.2444
 8814SOL    HW137904   3.284   4.092   2.674 -0.1888 -0.1242 -0.2596
 8814SOL    HW237905   3.260   4.127   2.530  1.6303  0.0533 -2.1075
 8815SOL     OW37906   4.092   0.181   3.938  0.0661  0.8072 -0.4294
 8815SOL    HW137907   4.128   0.223   3.860  1.7198  1.0689  0.4695
 8815SOL    HW237908   4.162   0.199   4.001 -2.8736  1.1602  2.7559
 8816SOL     OW37909   1.569   1.221   8.271  0.3239 -0.1810 -0.1692
 8816SOL    HW137910   1.490   1.179   8.305 -0.7077  1.8774 -0.0051
 8816SOL    HW237911   1.581   1.174   8.188 -1.2211  1.2249 -1.1935
 8817SOL     OW37912   1.535   3.109  10.109 -0.1480  0.3037  0.1484
 8817SOL    HW137913   1.538   3.152  10.023 -1.7851 -0.3727 -0.2538
 8817SOL    HW237914   1.613   3.055  10.093  0.1397  0.0601  2.3607
 8818SOL     OW37915   2.634   1.332  14.906  0.1947 -0.2439 -0.3849
 8818SOL    HW137916   2.594   1.313  14.821 -2.1689 -0.5033  0.7733
 8818SOL    HW237917   2.609   1.419  14.937  0.2709  0.2280 -1.6769
 8819SOL     OW37918   0.359   3.862   7.922 -0.0262  0.1070  0.2965
 8819SOL    HW137919   0.324   3.900   8.002 -0.5229  1.4371 -0.5638
 8819SOL    HW237920   0.408   3.783   7.947 -0.2090  0.4196  1.6256
 8820SOL     OW37921   4.341   4.692   6.569 -0.3717 -0.5222  0.3198
 8820SOL    HW137922   4.346   4.645   6.486 -3.7258  3.4246 -2.0909
 8820SOL    HW237923   4.250   4.723   6.571  0.1741  1.0328  0.6936
 8821SOL     OW37924   3.788   3.357  17.089 -0.5447 -0.0784  0.3779
 8821SOL    HW137925   3.713   3.306  17.118 -0.1028 -0.1664  1.3717
 8821SOL    HW237926   3.857   3.320  17.143  0.3399  1.6176  0.4253
 8822SOL     OW37927   2.060   3.869   1.058 -0.0064 -0.4131  0.1873
 8822SOL    HW137928   2.136   3.916   1.025 -0.8935  0.2824 -0.8437
 8822SOL    HW237929   2.000   3.905   0.993  1.3844  2.2211  0.3650
 8823SOL     OW37930   0.815   4.022   4.032 -0.4572  0.2599  0.1522
 8823SOL    HW137931   0.834   4.114   4.015  1.6798 -0.1559  0.2884
 8823SOL    HW237932   0.765   4.000   3.954 -1.4545 -0.2633  0.9377
 8824SOL     OW37933   2.047   2.691   3.214 -0.0172  0.5058 -0.7193
 8824SOL    HW137934   2.083   2.680   3.125 -2.2292  0.5948 -1.6274
 8824SOL    HW237935   2.035   2.601   3.246 -1.4878  1.5887  1.7397
 8825SOL     OW37936   4.370   0.654   8.991 -0.0505 -0.2852 -0.5643
 8825SOL    HW137937   4.383   0.712   9.066  2.4572 -0.1475 -1.1146
 8825SOL    HW237938   4.284   0.613   9.006  0.4625 -0.8659  0.8263
 8826SOL     OW37939   0.603   2.484   3.884 -0.4887  0.0703 -0.8384
 8826SOL    HW137940   0.581   2.396   3.851 -1.4117  0.6722 -1.8443
 8826SOL    HW237941   0.697   2.474   3.896 -0.7019  0.2685  0.9835
 8827SOL     OW37942   2.653   3.925   5.048 -0.0523 -0.0454  0.0253
 8827SOL    HW137943   2.696   3.987   4.990  1.1326  1.5300  2.5748
 8827SOL    HW237944   2.561   3.950   5.054  0.4303  1.2882  1.8562
 8828SOL     OW37945   3.073   3.773   9.654  0.2444  0.3224  1.2584
 8828SOL    HW137946   3.046   3.681   9.651  1.6149 -0.1341  2.3864
 8828SOL    HW237947   3.128   3.768   9.732  0.8945  1.1520  0.8496
 8829SOL     OW37948   3.754   0.530   1.965 -0.6978  0.1088  0.8166
 8829SOL    HW137949   3.727   0.455   1.913 -1.3399  0.2656  0.9295
 8829SOL    HW237950   3.671   0.557   2.003 -0.4573 -0.6427  1.8628
 8830SOL     OW37951   1.098   2.871   4.610 -0.3043  0.0762  0.0307
 8830SOL    HW137952   1.180   2.866   4.658 -0.1083  0.0794 -0.3047
 8830SOL    HW237953   1.138   2.824   4.537 -1.6512 -0.4747 -0.3599
 8831SOL     OW37954   2.312   3.196  12.113 -0.4308  0.3930  0.1458
 8831SOL    HW137955   2.278   3.113  12.146 -2.9561  1.3054 -0.1506
 8831SOL    HW237956   2.342   3.168  12.027  1.8470  1.4335  0.5901
 8832SOL     OW37957   0.032   0.980   5.563 -0.1049  0.4459 -0.7206
 8832SOL    HW137958   4.668   0.949   5.546  0.7385 -1.7369 -1.1909
 8832SOL    HW237959   0.070   0.990   5.476 -1.9459  1.5618 -1.3807
 8833SOL     OW37960   0.636   1.669   0.229  0.3990 -0.1614  0.3071
 8833SOL    HW137961   0.699   1.628   0.171  0.8770  0.4867  0.3687
 8833SOL    HW237962   0.695   1.728   0.276 -0.1296  0.0553  0.6967
 8834SOL     OW37963   0.406   4.268  15.940 -0.1692  1.0256 -0.3818
 8834SOL    HW137964   0.429   4.194  15.996 -1.3397  0.1702 -1.0303
 8834SOL    HW237965   0.481   4.327  15.948  0.0544  0.6608  0.2009
 8835SOL     OW37966   2.875   1.628  17.618 -0.0380 -0.7902  0.1206
 8835SOL    HW137967   2.900   1.574  17.693  0.4497  1.3039  1.4916
 8835SOL    HW237968   2.819   1.697  17.655 -0.1843 -0.8822  0.0700
 8836SOL     OW37969   3.309   1.655   3.314  0.1237 -0.2619 -0.1530
 8836SOL    HW137970   3.225   1.693   3.289  0.4649 -0.9735 -2.3136
 8836SOL    HW237971   3.365   1.732   3.322  2.7957 -2.0716 -1.4942
 8837SOL     OW37972   4.599   3.976   8.125 -0.4539  0.4804  0.3272
 8837SOL    HW137973   4.556   4.042   8.179 -1.3910  0.3357 -0.2250
 8837SOL    HW237974   4.527   3.924   8.088 -1.7369  0.5065  2.8170
 8838SOL     OW37975   0.298   2.801   3.277 -0.2017 -0.6044  0.3214
 8838SOL    HW137976   0.355   2.724   3.273  2.5127  1.2302  3.3883
 8838SOL    HW237977   0.223   2.767   3.327 -1.1937  0.3998 -0.4843
 8839SOL     OW37978   1.051   0.634   4.474  0.4637 -0.0731  0.0610
 8839SOL    HW137979   0.966   0.670   4.447  1.0383  1.0272 -0.2650
 8839SOL    HW237980   1.096   0.627   4.389  0.7287  3.4766 -0.0828
 8840SOL     OW37981   0.817   4.236  17.642  0.0325  0.2002 -0.5411
 8840SOL    HW137982   0.895   4.292  17.636  0.0734  0.2523  0.5560
 8840SOL    HW237983   0.751   4.302  17.662  1.4887  2.0355 -1.7363
 8841SOL     OW37984   2.830   0.302   8.203  0.5192  0.0059  0.1720
 8841SOL    HW137985   2.764   0.235   8.183 -2.4271  2.7011  0.7125
 8841SOL    HW237986   2.775   0.376   8.177 -1.4106 -1.0076  1.3629
 8842SOL     OW37987   4.399   0.291   9.937 -0.1578 -0.7027  0.1202
 8842SOL    HW137988   4.304   0.294   9.926 -0.1116  3.2121  0.7193
 8842SOL    HW237989   4.437   0.209   9.969  0.7337 -0.4871 -0.3732
 8843SOL     OW37990   2.744   4.078  11.670 -0.1624 -0.3620  0.1773
 8843SOL    HW137991   2.728   4.155  11.724  1.1840 -0.8794  1.3053
 8843SOL    HW237992   2.762   4.008  11.733 -0.6818 -1.0659 -0.4560
 8844SOL     OW37993   3.168   4.375   4.495  0.0627  0.6123  0.0308
 8844SOL    HW137994   3.234   4.356   4.429 -1.1840 -0.7542 -0.8216
 8844SOL    HW237995   3.208   4.366   4.582  0.3883 -1.0389 -0.3011
 8845SOL     OW37996   1.363   1.379  11.639 -0.5502 -0.2984 -0.9678
 8845SOL    HW137997   1.314   1.458  11.616  0.0561  0.6353  0.9052
 8845SOL    HW237998   1.451   1.416  11.651  0.6555 -3.6830  0.7966
 8846SOL     OW37999   1.282   0.832   6.503  0.1706 -0.3993 -0.0470
 8846SOL    HW138000   1.250   0.810   6.416 -0.2080 -1.0042  0.2440
 8846SOL    HW238001   1.304   0.744   6.536  0.3333 -0.2784  0.1656
 8847SOL     OW38002   0.330   4.437   4.646  0.0512  0.2822 -0.4817
 8847SOL    HW138003   0.269   4.476   4.583 -0.0982 -0.6600 -0.9168
 8847SOL    HW238004   0.340   4.348   4.613 -0.1970 -0.6113  1.8234
 8848SOL     OW38005   3.285   0.546   9.908 -0.3676  0.3275  0.3678
 8848SOL    HW138006   3.189   0.544   9.906 -0.3848 -1.5316  3.1326
 8848SOL    HW238007   3.298   0.519   9.999  1.4255  0.5282  0.1658
 8849SOL     OW38008   2.000   1.447   1.727  0.0359  0.1425 -0.2508
 8849SOL    HW138009   1.956   1.460   1.643 -2.6592 -0.3789  1.0952
 8849SOL    HW238010   1.957   1.367   1.756 -0.8365  0.6505 -0.1430
 8850SOL     OW38011   4.238   3.721  13.598 -0.2098 -0.6215 -0.1485
 8850SOL    HW138012   4.192   3.639  13.612  2.1799 -1.6550  1.6260
 8850SOL    HW238013   4.180   3.771  13.655  1.8304  2.2730 -0.6002
 8851SOL     OW38014   0.995   2.518   2.111  0.4685  0.2867  0.5280
 8851SOL    HW138015   0.966   2.566   2.189  1.7263  0.5052  0.8526
 8851SOL    HW238016   1.035   2.582   2.052 -0.3025  0.4968  0.2288
 8852SOL     OW38017   2.756   1.245   6.247  0.2417  0.2055 -0.2278
 8852SOL    HW138018   2.753   1.153   6.221 -0.0402  0.1902 -0.1352
 8852SOL    HW238019   2.806   1.242   6.328 -0.0638 -0.9168 -0.0797
 8853SOL     OW38020   2.903   3.416   8.692 -0.0960 -0.2299 -0.1087
 8853SOL    HW138021   2.862   3.451   8.771  1.8705 -0.4548  1.0057
 8853SOL    HW238022   2.992   3.451   8.683 -0.9379  1.7043 -0.9787
 8854SOL     OW38023   4.546   0.892  10.323 -0.4881  0.6314 -0.8393
 8854SOL    HW138024   4.633   0.917  10.355 -0.3001  0.6617 -1.3712
 8854SOL    HW238025   4.566   0.810  10.277 -1.7590 -1.3595  2.1985
 8855SOL     OW38026   1.542   0.660   5.695 -0.1945  0.3465 -0.1106
 8855SOL    HW138027   1.474   0.714   5.734 -1.8500 -1.3778 -0.6292
 8855SOL    HW238028   1.552   0.695   5.606  0.4667 -1.2788 -0.6784
 8856SOL     OW38029   1.176   1.714   3.463 -0.9332 -0.0879 -0.0638
 8856SOL    HW138030   1.212   1.626   3.456  0.0874  0.4697 -1.7670
 8856SOL    HW238031   1.182   1.729   3.557 -1.4615 -0.9458  0.1108
 8857SOL     OW38032   1.041   0.582   7.672  0.4517 -0.4739 -0.4809
 8857SOL    HW138033   1.027   0.572   7.578 -1.6547 -0.4714 -0.1610
 8857SOL    HW238034   1.103   0.511   7.688  0.7618 -0.3400 -1.0668
 8858SOL     OW38035   0.572   1.689   2.538  0.1400 -0.2693 -0.0777
 8858SOL    HW138036   0.575   1.625   2.609 -2.5464  1.3645  1.5086
 8858SOL    HW238037   0.652   1.736   2.561 -1.1076  2.1844 -0.7763
 8859SOL     OW38038   0.373   1.199   4.818  0.0439  0.2039 -0.5263
 8859SOL    HW138039   0.392   1.112   4.854  0.3673  1.2162  1.7786
 8859SOL    HW238040   0.286   1.169   4.792 -0.2010  0.1584  0.3242
 8860SOL     OW38041   0.296   3.806   9.066  0.1797  0.2328 -0.2027
 8860SOL    HW138042   0.305   3.763   9.151 -2.7642 -0.7863 -0.3895
 8860SOL    HW238043   0.218   3.860   9.079  1.4991  1.8347  0.9593
 8861SOL     OW38044   0.520   4.678   7.652  0.3642  0.3332  0.1851
 8861SOL    HW138045   0.600   4.630   7.632 -0.0140 -0.0736 -0.3683
 8861SOL    HW238046   0.453   4.614   7.627  0.0141  0.6924  0.2009
 8862SOL     OW38047   3.465   1.667   4.301  0.6191 -0.0324 -0.2673
 8862SOL    HW138048   3.388   1.694   4.251  0.0446 -0.8994  0.1571
 8862SOL    HW238049   3.485   1.740   4.359  0.5935 -0.8133  0.7154
 8863SOL     OW38050   3.350   4.508   5.999 -0.1412  0.0418  0.2086
 8863SOL    HW138051   3.392   4.553   5.926 -0.5280  3.4808  2.1287
 8863SOL    HW238052   3.380   4.557   6.076 -1.5287  1.6538 -0.2718
 8864SOL     OW38053   0.938   4.473   5.576  0.7619 -0.3185 -0.7338
 8864SOL    HW138054   0.909   4.550   5.626  0.1266 -0.0484 -1.5085
 8864SOL    HW238055   0.929   4.404   5.641  1.2424  0.1863 -0.1401
 8865SOL     OW38056   0.197   0.512   3.378 -0.1293 -0.2385 -0.8583
 8865SOL    HW138057   0.119   0.471   3.341 -1.3472 -0.0786  1.5477
 8865SOL    HW238058   0.162   0.601   3.381  1.7004  0.5066 -1.8044
 8866SOL     OW38059   1.964   1.283  15.112 -0.7037  0.6322  0.2868
 8866SOL    HW138060   1.879   1.243  15.093  0.4231 -1.8295  0.3527
 8866SOL    HW238061   1.990   1.310  15.024 -0.9987  2.0713  0.6364
 8867SOL     OW38062   3.175   1.985   0.042 -0.1075 -0.0379  0.0576
 8867SOL    HW138063   3.155   1.950   0.129  0.2959 -4.6356 -1.7536
 8867SOL    HW238064   3.092   1.979  17.694 -0.8439  1.3239  1.1577
 8868SOL     OW38065   3.646   3.888   0.750  0.6292 -0.1280 -0.0040
 8868SOL    HW138066   3.646   3.857   0.659  1.4848  0.5589 -0.2349
 8868SOL    HW238067   3.694   3.971   0.752 -2.6805  1.8436 -1.4536
 8869SOL     OW38068   0.491   4.680   4.524 -0.2791  0.0133 -0.3504
 8869SOL    HW138069   0.506   4.687   4.430 -2.9439  2.4669 -0.6071
 8869SOL    HW238070   0.397   4.692   4.531 -0.4384 -1.4042 -0.0895
 8870SOL     OW38071   3.890   1.712   4.285 -0.1594  0.0305 -0.3660
 8870SOL    HW138072   3.951   1.677   4.221  0.0911  0.0701 -0.1486
 8870SOL    HW238073   3.906   1.659   4.363  0.2103  0.9559  0.1923
 8871SOL     OW38074   1.204   2.744   8.956 -0.2767 -0.0692 -0.0336
 8871SOL    HW138075   1.176   2.652   8.956 -1.7986  0.3939 -0.9715
 8871SOL    HW238076   1.299   2.739   8.963 -0.3530  1.0825  1.9746
 8872SOL     OW38077   4.062   3.677   4.934 -0.6883 -0.2304  0.3581
 8872SOL    HW138078   4.050   3.643   5.023  0.9866  1.8778  1.3915
 8872SOL    HW238079   3.984   3.732   4.928 -0.2491  0.4884  1.2514
 8873SOL     OW38080   2.646   3.244  17.047 -0.4225 -0.1770 -0.3249
 8873SOL    HW138081   2.699   3.264  16.971  0.1330  0.4867  0.2410
 8873SOL    HW238082   2.694   3.280  17.122  0.7422 -0.4888 -0.9260
 8874SOL     OW38083   3.361   4.346   2.722 -0.6462 -0.1270 -0.4104
 8874SOL    HW138084   3.340   4.290   2.647 -0.1880 -2.4072  1.1571
 8874SOL    HW238085   3.453   4.363   2.705 -1.3812  2.9238 -1.3030
 8875SOL     OW38086   0.464   1.660   7.987  1.0036  0.0424 -0.0484
 8875SOL    HW138087   0.371   1.646   7.975  1.0398 -0.5044  0.2844
 8875SOL    HW238088   0.484   1.589   8.049  1.0214  0.9419  0.9720
 8876SOL     OW38089   2.927   2.804   4.716 -0.1824 -0.6596  0.0711
 8876SOL    HW138090   2.854   2.787   4.656  0.0213 -2.2304  0.2847
 8876SOL    HW238091   3.002   2.823   4.659 -1.5942 -0.3517 -1.6897
 8877SOL     OW38092   0.497   3.492  16.965  0.8795 -0.4912  0.0628
 8877SOL    HW138093   0.553   3.445  17.026  1.0462  1.7253  1.6189
 8877SOL    HW238094   0.498   3.432  16.891 -2.1805 -0.7793  0.2657
 8878SOL     OW38095   0.227   2.150  16.575  0.2074  0.0588 -0.0657
 8878SOL    HW138096   0.216   2.238  16.610  0.6170 -1.2976  3.5170
 8878SOL    HW238097   0.322   2.145  16.590  0.4296 -0.5652 -1.6333
 8879SOL     OW38098   2.067   4.524   9.046 -0.0883 -0.4803 -0.6993
 8879SOL    HW138099   2.045   4.617   9.048  1.3066 -0.1533 -0.4872
 8879SOL    HW238100   2.009   4.488   8.979 -0.0522 -0.6702 -0.6298
 8880SOL     OW38101   4.515   4.151   4.641  0.4014 -0.7464 -0.0136
 8880SOL    HW138102   4.453   4.149   4.713 -1.2953 -2.4918 -1.5515
 8880SOL    HW238103   4.584   4.094   4.674  1.1239 -0.7558 -1.5192
 8881SOL     OW38104   1.943   3.416  16.996  0.0610  0.1569 -0.5126
 8881SOL    HW138105   1.955   3.359  16.921  1.5259 -1.2950  0.8113
 8881SOL    HW238106   1.868   3.467  16.964 -0.1835  0.0973 -0.0295
 8882SOL     OW38107   3.463   1.361  10.788  0.2900  0.1843  0.5381
 8882SOL    HW138108   3.448   1.324  10.875 -0.6466  0.4859  0.5111
 8882SOL    HW238109   3.419   1.301  10.728  3.6967 -1.3834 -0.3419
 8883SOL     OW38110   0.369   3.705   6.460  0.1315  0.0727 -0.2853
 8883SOL    HW138111   0.406   3.622   6.492 -1.1980 -0.5746 -0.4305
 8883SOL    HW238112   0.283   3.703   6.503  0.5202  5.1165  0.6448
 8884SOL     OW38113   4.681   2.210   6.037 -0.3143 -0.1186 -0.4023
 8884SOL    HW138114   4.677   2.305   6.053 -2.0645 -0.4763  1.3142
 8884SOL    HW238115   0.035   2.191   6.088 -0.4455  3.6789  1.2744
 8885SOL     OW38116   1.795   3.296   8.597  0.0062 -0.3090 -0.3236
 8885SOL    HW138117   1.712   3.316   8.553 -1.1105 -1.9007  1.0503
 8885SOL    HW238118   1.800   3.367   8.660  1.2485 -0.4047 -0.3136
 8886SOL     OW38119   0.152   3.939   4.438  0.3296 -0.7496  0.0894
 8886SOL    HW138120   0.149   3.931   4.343  1.2412 -2.3103  0.1995
 8886SOL    HW238121   0.200   4.022   4.444  1.3778 -1.4415  1.3230
 8887SOL     OW38122   0.168   2.374   5.279 -0.2494 -0.2605 -0.5029
 8887SOL    HW138123   0.229   2.393   5.208  0.4873  0.0079  0.1982
 8887SOL    HW238124   0.234   2.333   5.336 -1.1571 -1.9906 -0.6902
 8888SOL     OW38125   1.665   2.386   6.098 -0.0114 -0.1302  1.3723
 8888SOL    HW138126   1.683   2.362   6.189 -2.3689  0.3278  1.9593
 8888SOL    HW238127   1.751   2.364   6.064 -1.6162 -2.5795 -1.0969
 8889SOL     OW38128   3.450   4.457  14.712 -0.5760  0.8360  0.3022
 8889SOL    HW138129   3.493   4.520  14.654 -1.9304  0.7629 -0.7910
 8889SOL    HW238130   3.500   4.483  14.790  1.1888 -1.3305 -0.1055
 8890SOL     OW38131   4.533   1.561   0.414  0.3017 -0.0162 -0.2441
 8890SOL    HW138132   4.530   1.475   0.457 -2.3635  0.8989  1.4427
 8890SOL    HW238133   4.584   1.611   0.478  0.6066 -0.9037  0.2161
 8891SOL     OW38134   0.425   1.038   9.013  0.2287  0.2048  0.2264
 8891SOL    HW138135   0.369   0.965   9.040  0.5828 -0.6747 -1.3791
 8891SOL    HW238136   0.385   1.066   8.930 -1.9922 -1.9284  0.5695
 8892SOL     OW38137   1.471   0.582   1.832  0.2075 -0.1268  0.4327
 8892SOL    HW138138   1.449   0.502   1.784 -1.2235  0.9828 -0.7834
 8892SOL    HW238139   1.472   0.649   1.763  0.4008 -0.6956 -0.1169
 8893SOL     OW38140   0.795   3.212   0.731  0.3120  0.0194  0.0106
 8893SOL    HW138141   0.703   3.218   0.759  0.6527  1.4148  0.8498
 8893SOL    HW238142   0.771   3.199   0.639 -0.6388 -2.2347  0.5676
 8894SOL     OW38143   2.656   3.697   4.751  0.1622 -0.1756  0.0681
 8894SOL    HW138144   2.582   3.710   4.811  0.8529  1.0423  0.6542
 8894SOL    HW238145   2.654   3.780   4.704 -0.4724 -0.8656 -1.1359
 8895SOL     OW38146   3.334   0.981  10.604 -0.6797 -0.2514 -0.0245
 8895SOL    HW138147   3.337   1.074  10.584  3.1727 -0.7000 -1.4571
 8895SOL    HW238148   3.273   0.950  10.538 -1.8508 -0.5679  1.1913
 8896SOL     OW38149   1.682   3.182   7.133 -0.2471  0.2450 -0.0973
 8896SOL    HW138150   1.600   3.149   7.172 -1.8635  2.2307 -1.8348
 8896SOL    HW238151   1.752   3.158   7.193  1.1858 -0.8714 -2.2279
 8897SOL     OW38152   3.602   4.116  11.656 -0.2809 -0.0854  0.3807
 8897SOL    HW138153   3.523   4.076  11.621  0.8466  0.3390 -2.7210
 8897SOL    HW238154   3.662   4.047  11.627  0.9438  1.5396 -1.0152
 8898SOL     OW38155   2.446   0.501   3.595  0.2061  0.2667 -0.4925
 8898SOL    HW138156   2.367   0.450   3.614  0.7112 -0.3193  0.0508
 8898SOL    HW238157   2.509   0.435   3.623  1.3905  1.6302  0.0908
 8899SOL     OW38158   4.266   1.554   2.078  0.0764 -0.0960 -0.5762
 8899SOL    HW138159   4.262   1.474   2.025  0.5161 -2.2092  2.5736
 8899SOL    HW238160   4.276   1.614   2.004 -0.8325 -0.9682 -1.4076
 8900SOL     OW38161   3.818   4.440   7.968  0.0699 -0.0718  0.2529
 8900SOL    HW138162   3.777   4.378   7.907  1.3106  1.3551 -2.0631
 8900SOL    HW238163   3.742   4.473   8.017 -0.6179 -0.6389 -0.4242
 8901SOL     OW38164   1.839   3.145  13.138  0.1227  0.2331  0.0121
 8901SOL    HW138165   1.776   3.076  13.119  0.4466 -0.5295  1.6740
 8901SOL    HW238166   1.920   3.106  13.105  0.1934 -0.6068  1.1925
 8902SOL     OW38167   1.317   0.249   3.222 -0.1902  0.3937  0.3055
 8902SOL    HW138168   1.258   0.278   3.153  0.4399  1.2457  0.1172
 8902SOL    HW238169   1.329   0.331   3.270 -1.9311  0.9379 -0.1954
 8903SOL     OW38170   2.406   0.058   0.621  0.4223  0.1284  0.0105
 8903SOL    HW138171   2.470   0.059   0.692  0.4130  0.5040  0.0164
 8903SOL    HW238172   2.320   0.079   0.657  0.6316  0.8383  0.0959
 8904SOL     OW38173   4.180   0.096   5.355  0.0750  0.3220 -0.2107
 8904SOL    HW138174   4.258   0.151   5.365  0.8374 -1.1855  2.1801
 8904SOL    HW238175   4.206   0.027   5.295  1.6115 -1.4789  2.5402
 8905SOL     OW38176   3.212   0.126   8.928  0.5189 -0.1952 -0.2305
 8905SOL    HW138177   3.267   0.060   8.885 -1.5418 -2.5471  0.7040
 8905SOL    HW238178   3.154   0.166   8.865 -0.0312  2.3556  1.8986
 8906SOL     OW38179   2.543   3.402   9.283  0.3870 -0.4452 -0.0617
 8906SOL    HW138180   2.561   3.360   9.199  1.3447 -1.6699  0.7692
 8906SOL    HW238181   2.461   3.363   9.312  0.7490 -0.4410  0.9897
 8907SOL     OW38182   4.530   1.971  10.356 -0.2577 -0.1322  0.0551
 8907SOL    HW138183   4.569   2.004  10.437 -2.5596  0.9041  0.7452
 8907SOL    HW238184   4.439   2.000  10.365  0.0207  0.4832  0.9216
 8908SOL     OW38185   3.882   3.786   5.437 -0.7679 -0.0103  0.6731
 8908SOL    HW138186   3.868   3.789   5.531  0.7480  3.0608  0.8175
 8908SOL    HW238187   3.864   3.877   5.411  1.0133  0.5127  1.2837
 8909SOL     OW38188   4.062   2.150  16.785  0.0234  0.5304  0.4554
 8909SOL    HW138189   4.136   2.112  16.833 -0.7423 -0.4027  0.8900
 8909SOL    HW238190   4.105   2.200  16.716  0.6124 -1.0608 -0.3286
 8910SOL     OW38191   3.864   2.930  11.622 -0.0677 -0.0613 -0.2576
 8910SOL    HW138192   3.946   2.883  11.637  0.1101  1.2529  2.8181
 8910SOL    HW238193   3.883   3.010  11.670 -1.1728 -0.2503  0.4928
 8911SOL     OW38194   3.936   0.741  17.081  0.4961  0.1707 -0.0682
 8911SOL    HW138195   3.900   0.676  17.021 -1.7167  1.1983  0.1503
 8911SOL    HW238196   3.974   0.679  17.143 -1.6036 -1.2549 -0.2076
 8912SOL     OW38197   3.986   2.182  11.395  0.3339 -0.7198 -0.5989
 8912SOL    HW138198   3.992   2.136  11.479  3.4808 -1.1155 -1.0261
 8912SOL    HW238199   3.899   2.221  11.405  0.6982 -0.4988  1.5800
 8913SOL     OW38200   3.359   2.389  12.301 -0.0791  0.6329  0.1537
 8913SOL    HW138201   3.321   2.320  12.355  3.9114 -0.9459  0.9317
 8913SOL    HW238202   3.309   2.388  12.219 -0.7270 -0.9234  0.5748
 8914SOL     OW38203   2.261   0.129   4.819  0.0861 -0.7172 -0.8722
 8914SOL    HW138204   2.263   0.122   4.724  0.0231  0.7054 -0.9788
 8914SOL    HW238205   2.229   0.041   4.839 -1.6812 -0.2066 -1.5170
 8915SOL     OW38206   3.111   3.344   8.351  0.3081 -0.1719 -0.4371
 8915SOL    HW138207   3.148   3.388   8.428  1.5030 -1.4290 -0.2807
 8915SOL    HW238208   3.044   3.298   8.402  0.4697  2.1179  1.8434
 8916SOL     OW38209   3.448   2.309   8.547  0.3028  0.3216  0.3008
 8916SOL    HW138210   3.504   2.344   8.477 -0.0747 -0.7879 -0.5465
 8916SOL    HW238211   3.374   2.280   8.494 -0.0983 -0.5995  1.3654
 8917SOL     OW38212   0.455   1.638  10.111  0.3061 -0.0006 -0.3367
 8917SOL    HW138213   0.432   1.657  10.202 -1.6791 -3.1111 -0.1670
 8917SOL    HW238214   0.550   1.645  10.114  0.1553  1.9166 -0.4219
 8918SOL     OW38215   1.474   0.742   7.725 -0.1863  0.2922 -0.0444
 8918SOL    HW138216   1.466   0.822   7.777 -1.3009 -0.9622  1.7097
 8918SOL    HW238217   1.567   0.725   7.736 -0.4889 -0.5115  1.2494
 8919SOL     OW38218   4.235   3.796   6.842  0.2848 -0.1201  0.0889
 8919SOL    HW138219   4.201   3.708   6.855  0.5987 -0.1770  0.5441
 8919SOL    HW238220   4.232   3.832   6.931  0.8318  1.2016 -0.4237
 8920SOL     OW38221   0.490   2.176  16.593 -0.7763  0.3587 -0.5755
 8920SOL    HW138222   0.511   2.268  16.577 -0.2018  0.6117  1.5963
 8920SOL    HW238223   0.577   2.146  16.619 -0.4142  0.8098 -1.2660
 8921SOL     OW38224   4.332   0.364   2.996 -1.0185  0.2514 -0.2326
 8921SOL    HW138225   4.323   0.347   2.903  1.7309  1.8970 -0.7895
 8921SOL    HW238226   4.309   0.457   2.990 -1.1373  0.1804 -0.8474
 8922SOL     OW38227   3.869   0.442   9.391  0.0435 -0.0075  0.7768
 8922SOL    HW138228   3.816   0.513   9.356  0.2481 -0.2972 -0.1226
 8922SOL    HW238229   3.872   0.485   9.477 -0.1056  1.3274  0.1189
 8923SOL     OW38230   4.525   3.674   6.991 -0.4684  0.1961  0.3397
 8923SOL    HW138231   4.483   3.756   7.015 -1.4179  0.1021 -0.9687
 8923SOL    HW238232   4.514   3.630   7.075  0.1236  2.4738  1.6188
 8924SOL     OW38233   3.875   0.959   4.765 -0.0682  0.2300 -0.5074
 8924SOL    HW138234   3.876   1.036   4.821  1.1854 -0.9049  1.0212
 8924SOL    HW238235   3.855   0.898   4.836 -1.5327  1.3609  0.0416
 8925SOL     OW38236   3.890   2.589  17.248  0.0289  0.0263  0.4180
 8925SOL    HW138237   3.963   2.534  17.277  2.4924  1.3042 -3.3713
 8925SOL    HW238238   3.931   2.671  17.218  0.1185 -0.4555 -0.7769
 8926SOL     OW38239   2.331   4.342  10.320 -0.3918 -0.6909 -0.1284
 8926SOL    HW138240   2.294   4.298  10.244 -2.8248  0.5725  0.3233
 8926SOL    HW238241   2.401   4.391  10.277 -2.0985  1.8846  0.0513
 8927SOL     OW38242   0.632   2.066  12.406  0.0334  0.2612  0.1318
 8927SOL    HW138243   0.595   2.125  12.341 -1.3554 -0.8313 -0.0709
 8927SOL    HW238244   0.587   2.097  12.485 -0.9051 -0.3932 -0.1472
 8928SOL     OW38245   1.263   0.053  12.839 -0.0874  0.3284  0.2197
 8928SOL    HW138246   1.330   4.711  12.822  1.1239  1.4657  0.5006
 8928SOL    HW238247   1.292   0.124  12.782 -1.3175  0.2398 -0.5151
 8929SOL     OW38248   4.076   4.430   3.372 -0.4290  0.6018  0.6375
 8929SOL    HW138249   4.088   4.359   3.309 -3.7430 -0.2901  0.9834
 8929SOL    HW238250   4.033   4.389   3.448  0.7026 -1.8669 -0.0471
 8930SOL     OW38251   1.908   0.085   3.072  0.8414 -0.2901  0.0202
 8930SOL    HW138252   1.914   0.044   3.158 -1.9332 -0.4651  0.1240
 8930SOL    HW238253   1.992   0.128   3.052 -0.8087  2.0174 -1.8967
 8931SOL     OW38254   3.667   1.477   8.218  0.6552  0.0404  0.2773
 8931SOL    HW138255   3.608   1.421   8.168  1.6498 -2.5681  2.0405
 8931SOL    HW238256   3.594   1.524   8.260  1.0038 -0.0778  1.0087
 8932SOL     OW38257   0.251   1.598   3.401 -0.3462  0.0045  0.3541
 8932SOL    HW138258   0.208   1.526   3.354 -2.6395  2.5323 -1.4308
 8932SOL    HW238259   0.208   1.677   3.367  0.0285  0.5879  1.2383
 8933SOL     OW38260   3.875   3.689   3.951  0.0209 -0.3046 -0.0817
 8933SOL    HW138261   3.824   3.611   3.970 -0.3434  0.2994  1.5145
 8933SOL    HW238262   3.904   3.673   3.862  0.3967  0.6187 -0.1339
 8934SOL     OW38263   1.754   1.458  16.591 -0.1597  0.6248  0.0925
 8934SOL    HW138264   1.829   1.514  16.569  2.8636 -3.3928  0.2820
 8934SOL    HW238265   1.717   1.512  16.661 -0.0749  1.4274 -0.4839
 8935SOL     OW38266   2.465   1.467   4.964  0.1093  0.6673  0.1662
 8935SOL    HW138267   2.414   1.547   4.975  1.0680  1.3571 -0.3638
 8935SOL    HW238268   2.444   1.453   4.871  2.3007  1.4373 -0.4362
 8936SOL     OW38269   1.935   1.849   4.796  0.6409  0.5033 -0.5089
 8936SOL    HW138270   1.890   1.905   4.860  0.7377  0.8915 -0.7890
 8936SOL    HW238271   1.947   1.907   4.722 -2.8345  2.2135  0.2503
 8937SOL     OW38272   2.571   4.202  16.281  0.2277 -0.1754  0.0509
 8937SOL    HW138273   2.509   4.160  16.340 -1.0927  4.5142  1.9432
 8937SOL    HW238274   2.606   4.276  16.330 -1.9322 -0.5090  2.1165
 8938SOL     OW38275   3.793   0.536  12.713  0.1474  0.5479  0.1455
 8938SOL    HW138276   3.817   0.448  12.744 -1.1539 -0.1022 -0.6587
 8938SOL    HW238277   3.867   0.588  12.743 -0.1838  0.8929  0.3671
 8939SOL     OW38278   1.598   4.373   4.294 -0.6467  0.3424  0.2977
 8939SOL    HW138279   1.510   4.356   4.329 -0.9411 -0.1897 -0.6887
 8939SOL    HW238280   1.654   4.311   4.341 -0.8423 -0.0689 -0.0115
 8940SOL     OW38281   1.844   0.389   9.768  0.1135 -0.5212 -0.1577
 8940SOL    HW138282   1.901   0.313   9.767 -0.1924 -0.7588  0.5266
 8940SOL    HW238283   1.830   0.390   9.862 -1.5573  0.5288 -0.3978
 8941SOL     OW38284   3.749   3.580  17.214  0.7239 -0.3460 -0.0501
 8941SOL    HW138285   3.782   3.514  17.153 -1.7781 -1.4674 -0.1754
 8941SOL    HW238286   3.837   3.605  17.244 -0.3162 -0.1431  2.8322
 8942SOL     OW38287   4.641   0.805   6.860 -0.0333  0.0855 -0.6583
 8942SOL    HW138288   4.717   0.864   6.865 -1.8951  2.4295 -0.1551
 8942SOL    HW238289   4.649   0.744   6.787  0.0518 -4.0517  2.7904
 8943SOL     OW38290   0.736   3.809  16.537 -0.5085  0.5793 -0.6476
 8943SOL    HW138291   0.811   3.810  16.596 -0.7689 -2.0758 -0.2690
 8943SOL    HW238292   0.693   3.893  16.550 -0.6245  0.1022  1.9817
 8944SOL     OW38293   1.529   2.399   8.982  0.2811 -0.0157 -0.2129
 8944SOL    HW138294   1.508   2.481   9.027 -1.1807  0.2107 -1.3051
 8944SOL    HW238295   1.558   2.434   8.898 -0.0893  1.0202  0.0870
 8945SOL     OW38296   2.492   2.429   8.880  0.6398 -0.1412 -0.2603
 8945SOL    HW138297   2.474   2.455   8.970 -0.2697  2.0564 -1.0604
 8945SOL    HW238298   2.561   2.365   8.894  2.0531  1.2009 -1.0118
 8946SOL     OW38299   3.919   0.912   7.448 -0.4904  0.3147 -0.5267
 8946SOL    HW138300   3.912   0.989   7.392 -0.1284 -1.3382 -2.8453
 8946SOL    HW238301   3.920   0.833   7.394 -1.6825 -0.7566  1.0058
 8947SOL     OW38302   4.060   1.503   1.856  0.7003 -0.2809  0.2472
 8947SOL    HW138303   4.080   1.515   1.763  1.3746 -0.9057  0.3068
 8947SOL    HW238304   4.102   1.579   1.897  1.0201 -0.2614 -0.1126
 8948SOL     OW38305   2.241   1.301   3.287  0.0081  0.4094  0.3835
 8948SOL    HW138306   2.250   1.228   3.348 -0.3826  1.2568  1.4828
 8948SOL    HW238307   2.157   1.335   3.319 -1.2997 -2.1935 -0.3668
 8949SOL     OW38308   3.571   2.175   1.466  0.2606  0.1060  0.2754
 8949SOL    HW138309   3.483   2.172   1.504  0.0801 -0.9902 -0.2068
 8949SOL    HW238310   3.613   2.152   1.548 -3.9700 -2.3500  1.7758
 8950SOL     OW38311   0.207   0.411  10.686  0.3608  0.4403 -0.6359
 8950SOL    HW138312   0.225   0.342  10.622  0.6546  0.0116 -0.0863
 8950SOL    HW238313   0.296   0.399  10.717  0.8374  2.6620 -1.1282
 8951SOL     OW38314   2.766   3.327  15.276 -0.0328  0.1878 -0.1546
 8951SOL    HW138315   2.755   3.422  15.275 -2.4321 -0.0873 -0.9485
 8951SOL    HW238316   2.712   3.303  15.351  0.9378  0.0291  0.4944
 8952SOL     OW38317   0.412   0.582   5.262  0.1038 -0.2782  0.6641
 8952SOL    HW138318   0.356   0.654   5.234  2.0325  1.2116  0.7155
 8952SOL    HW238319   0.497   0.614   5.234 -0.3329 -0.6745 -1.1436
 8953SOL     OW38320   4.637   1.956  13.616  0.4199  0.4668  0.0219
 8953SOL    HW138321   4.641   2.049  13.594 -0.9510  0.1256 -1.7654
 8953SOL    HW238322   4.567   1.923  13.559  2.3444  0.1337 -2.1789
 8954SOL     OW38323   0.537   4.470  14.960 -0.2560  0.5723  0.1754
 8954SOL    HW138324   0.511   4.496  15.048 -0.8078  0.3470  0.0745
 8954SOL    HW238325   0.515   4.377  14.963  0.4633  0.4500  2.0166
 8955SOL     OW38326   3.716   0.545   6.573  0.3795  0.0929  0.2733
 8955SOL    HW138327   3.690   0.575   6.486 -2.0109  0.7086  1.1855
 8955SOL    HW238328   3.794   0.596   6.593  1.8395 -1.4203 -1.6567
 8956SOL     OW38329   1.147   0.532  10.904  0.4647  0.6358  0.2984
 8956SOL    HW138330   1.220   0.573  10.952  0.0385 -0.5134  1.9226
 8956SOL    HW238331   1.151   0.577  10.819  2.4700  0.6486  0.3907
 8957SOL     OW38332   4.472   1.063   8.911  0.0872  0.2946  0.0107
 8957SOL    HW138333   4.434   0.988   8.867  0.1083 -0.4055  1.2025
 8957SOL    HW238334   4.532   1.008   8.962 -1.5488  0.2413  1.8771
 8958SOL     OW38335   1.631   1.786   1.807 -0.4385  0.1684 -0.3175
 8958SOL    HW138336   1.546   1.797   1.850 -0.4357 -1.2525  0.0531
 8958SOL    HW238337   1.693   1.756   1.873  1.1647  2.5052 -0.7504
 8959SOL     OW38338   3.622   1.892   3.837  0.5473  0.6897  0.1542
 8959SOL    HW138339   3.574   1.810   3.848 -1.4003  2.2418  3.2091
 8959SOL    HW238340   3.708   1.863   3.866  1.1866  0.2362 -2.1721
 8960SOL     OW38341   2.070   3.586   4.431 -0.1648 -0.0920  0.9370
 8960SOL    HW138342   2.065   3.671   4.475  0.5162 -0.5890  1.9748
 8960SOL    HW238343   2.070   3.517   4.498 -0.8002  0.2708  1.3059
 8961SOL     OW38344   3.243   2.930   1.003 -0.0575 -0.7687 -0.0067
 8961SOL    HW138345   3.217   2.865   0.937 -0.0226 -1.6106  0.8174
 8961SOL    HW238346   3.268   3.002   0.945  0.3537 -1.6375 -0.9316
 8962SOL     OW38347   3.483   4.681   3.319 -0.5270 -0.0547  0.0181
 8962SOL    HW138348   3.441   0.006   3.249 -1.7516 -0.5870  0.3866
 8962SOL    HW238349   3.459   4.589   3.308 -2.1530  0.3387  0.3409
 8963SOL     OW38350   2.765   2.277   6.243  0.0780 -0.2523 -0.2668
 8963SOL    HW138351   2.680   2.238   6.262 -0.0275  0.5735  0.9909
 8963SOL    HW238352   2.740   2.355   6.193  1.4821 -0.4817 -1.2944
 8964SOL     OW38353   4.180   2.995  14.720 -0.3412 -0.2345  0.0765
 8964SOL    HW138354   4.267   2.955  14.724 -0.8676 -1.5231 -1.3358
 8964SOL    HW238355   4.176   3.046  14.640 -1.2417 -1.5958 -0.7431
 8965SOL     OW38356   3.028   1.787   4.845 -0.0061 -0.2628  0.0926
 8965SOL    HW138357   2.967   1.716   4.826 -0.3571  0.2350 -0.6303
 8965SOL    HW238358   3.043   1.766   4.937 -2.4911 -0.0230  0.5426
 8966SOL     OW38359   3.631   4.494   1.957 -0.0267 -0.4414  0.8061
 8966SOL    HW138360   3.654   4.450   1.875 -2.1869 -0.5363  0.2517
 8966SOL    HW238361   3.698   4.563   1.959  1.0216 -1.3607 -1.8975
 8967SOL     OW38362   1.762   0.323  15.202  0.2192  0.1752  0.2621
 8967SOL    HW138363   1.808   0.399  15.167  0.1935  0.5590  1.0532
 8967SOL    HW238364   1.699   0.369  15.258 -0.4327 -0.6181  0.1907
 8968SOL     OW38365   0.036   1.395  17.586  0.7806 -0.6534  0.1079
 8968SOL    HW138366   4.692   1.332  17.611 -2.6942  2.2322 -2.0718
 8968SOL    HW238367   0.024   1.457  17.658 -0.2380 -0.3530 -0.3221
 8969SOL     OW38368   3.050   2.577   7.310 -0.3139 -0.5020  0.2519
 8969SOL    HW138369   2.958   2.553   7.299 -0.5671  1.0872 -1.1336
 8969SOL    HW238370   3.098   2.495   7.318  2.0866  0.8086 -0.5478
 8970SOL     OW38371   1.489   4.504   8.783  0.2168  0.5676  0.2216
 8970SOL    HW138372   1.437   4.435   8.742  0.9224 -0.3010  0.7779
 8970SOL    HW238373   1.413   4.540   8.829  1.5351  4.3727 -0.6032
 8971SOL     OW38374   1.659   3.002   3.099  0.0255  0.0722  0.1030
 8971SOL    HW138375   1.660   2.932   3.163  0.8743 -0.7711 -0.8328
 8971SOL    HW238376   1.722   3.064   3.136  0.6567 -1.1124  0.9907
 8972SOL     OW38377   0.768   0.472   9.109 -0.0020 -0.4910 -0.0930
 8972SOL    HW138378   0.725   0.504   9.189  0.1257 -1.8266  0.5090
 8972SOL    HW238379   0.847   0.525   9.103  0.6068 -1.2844  0.9529
 8973SOL     OW38380   1.162   0.584   8.655 -0.1083  0.1090 -0.0152
 8973SOL    HW138381   1.079   0.577   8.701  0.1155  0.6878  0.4780
 8973SOL    HW238382   1.176   0.679   8.660  0.3586  0.0709 -0.5077
 8974SOL     OW38383   3.955   2.202   8.418  0.4757 -0.2669  0.2163
 8974SOL    HW138384   3.912   2.235   8.497  1.6816  4.5986 -1.1443
 8974SOL    HW238385   3.886   2.220   8.355  1.1748  1.5011 -0.0427
 8975SOL     OW38386   0.907   3.134   7.065  0.2174 -0.6762  0.2056
 8975SOL    HW138387   0.815   3.132   7.039  0.4477  1.9200 -0.7997
 8975SOL    HW238388   0.896   3.085   7.146  0.1500  0.5910  0.9646
 8976SOL     OW38389   4.323   0.908  14.102 -0.4807 -0.0062 -0.0250
 8976SOL    HW138390   4.386   0.977  14.125  0.8500 -0.8913 -0.9892
 8976SOL    HW238391   4.336   0.842  14.170  1.8149 -0.2601 -0.7209
 8977SOL     OW38392   0.208   4.509   2.999 -0.4380  0.5164 -0.4324
 8977SOL    HW138393   0.117   4.538   2.987 -0.4988  0.7546  0.5974
 8977SOL    HW238394   0.204   4.415   2.985  0.3779  0.3764  0.3114
 8978SOL     OW38395   2.035   1.758  17.338 -0.3211  0.1473 -0.2009
 8978SOL    HW138396   2.105   1.701  17.369 -0.9943 -1.3672 -1.4396
 8978SOL    HW238397   2.069   1.765  17.248  0.8481 -2.4336  0.0238
 8979SOL     OW38398   2.844   4.232   5.758  0.1023  0.3660  0.0507
 8979SOL    HW138399   2.871   4.226   5.850  0.3026 -0.6371 -0.0750
 8979SOL    HW238400   2.818   4.143   5.733  2.3581 -0.0148 -0.9965
 8980SOL     OW38401   1.332   3.089   8.660  0.2061  0.5085 -0.3970
 8980SOL    HW138402   1.392   3.077   8.586  0.1306 -2.2250 -0.0151
 8980SOL    HW238403   1.308   3.000   8.683 -1.8429  1.3608  0.7753
 8981SOL     OW38404   3.780   0.906   9.589  0.0018 -0.3158  0.2209
 8981SOL    HW138405   3.831   0.825   9.589  0.5206  0.0138 -0.8685
 8981SOL    HW238406   3.785   0.924   9.495 -1.5558 -1.7497 -0.1422
 8982SOL     OW38407   0.586   3.927  15.091  0.0533  0.9584  0.1688
 8982SOL    HW138408   0.598   3.870  15.015  0.3524  1.7101 -0.3519
 8982SOL    HW238409   0.597   3.872  15.169 -1.3819  0.4241 -0.0068
 8983SOL     OW38410   0.110   2.565   3.232  0.3061  0.0159  1.0558
 8983SOL    HW138411   0.075   2.485   3.192 -1.3990  1.5427 -0.4858
 8983SOL    HW238412   0.183   2.527   3.282  0.7617 -0.0928  0.3132
 8984SOL     OW38413   3.862   3.720   5.728  0.1738  0.1617 -0.5888
 8984SOL    HW138414   3.826   3.704   5.815  1.0102 -1.5315 -0.5415
 8984SOL    HW238415   3.941   3.667   5.733 -0.4805 -0.8214 -0.6041
 8985SOL     OW38416   3.550   1.100  15.103  0.0921 -0.2887 -0.3896
 8985SOL    HW138417   3.512   1.152  15.173 -0.8885  0.6013 -1.5858
 8985SOL    HW238418   3.557   1.013  15.142 -0.3412  1.0217  2.6029
 8986SOL     OW38419   0.464   1.794   5.326  0.6763  0.4058 -0.3703
 8986SOL    HW138420   0.410   1.848   5.383  0.1548 -1.6244  1.0657
 8986SOL    HW238421   0.401   1.809   5.256  3.1479  1.4912 -2.3945
 8987SOL     OW38422   2.798   2.755   5.684 -0.4773  0.1806 -0.3240
 8987SOL    HW138423   2.851   2.708   5.620  0.7816  1.8771 -0.5605
 8987SOL    HW238424   2.815   2.843   5.650  2.0339 -0.2618 -0.2418
 8988SOL     OW38425   2.063   2.448   8.584  0.4948  0.3731 -0.7328
 8988SOL    HW138426   2.108   2.515   8.636  2.1931 -0.2249 -1.4224
 8988SOL    HW238427   2.103   2.372   8.626  1.1036  1.7850  1.2360
 8989SOL     OW38428   2.964   0.430   8.876 -0.7187  0.1478 -0.0445
 8989SOL    HW138429   2.999   0.452   8.789 -3.4020  0.5918 -1.0065
 8989SOL    HW238430   2.887   0.389   8.838  0.5017 -0.7327 -1.5406
 8990SOL     OW38431   4.293   1.323   1.939  0.1188  0.1660  0.5238
 8990SOL    HW138432   4.272   1.238   1.977 -1.0149 -0.3591 -1.2796
 8990SOL    HW238433   4.294   1.297   1.847  0.2781 -0.1892  0.6269
 8991SOL     OW38434   3.999   0.024  12.205 -0.0842  0.2079 -0.0925
 8991SOL    HW138435   4.011   4.722  12.296 -1.3169 -1.3888 -0.4059
 8991SOL    HW238436   4.049   4.682  12.159  1.5614  1.3194  0.0612
 8992SOL     OW38437   3.886   4.344   8.284 -0.0418 -0.3173  0.4375
 8992SOL    HW138438   3.827   4.419   8.290 -1.3250 -1.3307  0.3836
 8992SOL    HW238439   3.879   4.321   8.191 -0.7665 -0.2389  0.4740
 8993SOL     OW38440   0.249   4.294   3.618  0.2425 -0.1775  0.3719
 8993SOL    HW138441   0.202   4.219   3.653  1.6886 -1.9502 -1.4427
 8993SOL    HW238442   0.338   4.260   3.629  0.0588 -1.7370 -2.7875
 8994SOL     OW38443   3.607   1.486   8.886  0.3355 -0.0264  0.3504
 8994SOL    HW138444   3.689   1.438   8.878  0.1721 -0.4216  1.0994
 8994SOL    HW238445   3.592   1.490   8.980 -1.5524 -0.9969  0.1014
 8995SOL     OW38446   3.194   3.966   8.230 -0.1843  0.5811 -0.2501
 8995SOL    HW138447   3.264   4.020   8.267  0.6014 -0.8437  0.3574
 8995SOL    HW238448   3.258   3.900   8.202 -0.5645  0.3783 -0.6277
 8996SOL     OW38449   0.799   3.275   2.622 -0.0260  0.3491  0.8025
 8996SOL    HW138450   0.894   3.283   2.621  0.0025 -0.0042  0.8532
 8996SOL    HW238451   0.775   3.226   2.701  1.2136 -0.7331  0.5025
 8997SOL     OW38452   3.668   1.264   4.806 -0.2119  0.0553  0.1202
 8997SOL    HW138453   3.694   1.262   4.714  0.0519  0.6701  0.1779
 8997SOL    HW238454   3.749   1.262   4.856 -0.1767 -1.4120  0.0092
 8998SOL     OW38455   0.809   2.576   8.340 -0.5550 -0.2744 -0.6116
 8998SOL    HW138456   0.885   2.521   8.362 -0.3006 -0.5063 -2.0406
 8998SOL    HW238457   0.783   2.555   8.250 -0.1157  0.6322 -0.9580
 8999SOL     OW38458   1.983   3.692   3.154  0.4627 -0.7726  0.6850
 8999SOL    HW138459   1.936   3.754   3.209 -0.3131 -0.2257 -0.6010
 8999SOL    HW238460   1.920   3.622   3.135 -1.6471  0.9526  1.3186
 9000SOL     OW38461   4.098   1.627   6.239 -0.6737 -0.1229  0.4694
 9000SOL    HW138462   4.091   1.560   6.306 -2.2605 -1.7432 -1.3344
 9000SOL    HW238463   4.157   1.588   6.174 -0.7716  0.2037  0.1815
 9001SOL     OW38464   1.374   2.132   2.626 -0.2617  0.3974 -0.0859
 9001SOL    HW138465   1.387   2.146   2.532 -0.4030 -1.5896 -0.3958
 9001SOL    HW238466   1.444   2.072   2.650 -0.5283 -0.7274 -2.1297
 9002SOL     OW38467   2.589   1.005   3.052 -0.6315  0.2608 -0.1389
 9002SOL    HW138468   2.562   1.085   3.007 -2.8176 -0.0534  0.6029
 9002SOL    HW238469   2.682   1.025   3.056 -0.7967  0.9875  0.1903
 9003SOL     OW38470   4.360   3.428   6.215  0.1381  0.0622 -0.1653
 9003SOL    HW138471   4.377   3.501   6.155 -0.2217 -0.9538 -1.4954
 9003SOL    HW238472   4.268   3.426   6.192  0.2683 -0.9864 -0.5973
 9004SOL     OW38473   1.606   4.195  11.270 -0.5975  0.5171  0.6982
 9004SOL    HW138474   1.513   4.171  11.276 -0.7287  1.1295  1.1638
 9004SOL    HW238475   1.623   4.242  11.351 -0.4305  0.9070  0.4388
 9005SOL     OW38476   4.152   2.921   7.071 -0.0506  0.0162  0.1812
 9005SOL    HW138477   4.165   2.966   7.154  0.8544  0.7062 -0.3325
 9005SOL    HW238478   4.075   2.971   7.041 -0.3795 -1.7477 -1.8668
 9006SOL     OW38479   2.161   2.565   5.201 -0.2626  0.1230 -0.2466
 9006SOL    HW138480   2.218   2.619   5.257  0.0550  0.9992 -1.4300
 9006SOL    HW238481   2.087   2.625   5.202  1.1735  1.9022  0.2610
 9007SOL     OW38482   0.138   4.677   3.229 -0.3097 -0.3592 -0.1527
 9007SOL    HW138483   0.043   4.682   3.235 -0.6192 -3.3001 -3.0868
 9007SOL    HW238484   0.144   4.632   3.145 -4.5227  1.7293 -1.5374
 9008SOL     OW38485   0.008   2.840  15.654  0.1296 -0.0198  0.1069
 9008SOL    HW138486   4.702   2.911  15.597  0.2254 -0.3501 -0.3592
 9008SOL    HW238487   0.080   2.805  15.602  0.0886  1.1053 -0.7131
 9009SOL     OW38488   1.895   1.169   4.073  0.1177  0.4719 -0.8109
 9009SOL    HW138489   1.927   1.124   4.151  0.3954  1.3617 -0.4146
 9009SOL    HW238490   1.820   1.220   4.103  0.1943 -1.2754  2.4268
 9010SOL     OW38491   0.117   1.721   9.408 -0.5034  0.1238 -0.2084
 9010SOL    HW138492   0.160   1.635   9.403  2.6136  1.6184  1.4000
 9010SOL    HW238493   0.074   1.719   9.323  0.5170 -0.0995 -0.7188
 9011SOL     OW38494   1.094   3.120   0.370 -0.2840 -0.3267  0.4253
 9011SOL    HW138495   1.176   3.071   0.367  0.4793  0.8399  2.1348
 9011SOL    HW238496   1.120   3.182   0.301 -0.5239  0.5990  1.1664
 9012SOL     OW38497   0.838   0.885   2.439  0.4272 -0.1738 -0.3445
 9012SOL    HW138498   0.765   0.834   2.472  0.9685 -1.2650 -0.8476
 9012SOL    HW238499   0.833   0.862   2.346  1.2663  0.3894 -0.5352
 9013SOL     OW38500   3.170   3.373   7.461 -0.0917  0.1612  0.0775
 9013SOL    HW138501   3.111   3.398   7.532  2.7015  3.2624  1.3435
 9013SOL    HW238502   3.175   3.281   7.487  0.5001 -0.2875 -1.6427
 9014SOL     OW38503   1.189   2.437   4.810  0.1279 -0.9064  0.4037
 9014SOL    HW138504   1.131   2.380   4.860  0.8615 -0.1664  2.1056
 9014SOL    HW238505   1.271   2.389   4.800  0.6645  0.3462 -1.1428
 9015SOL     OW38506   2.367   0.030   1.902 -0.1399 -0.7483  1.1167
 9015SOL    HW138507   2.404   0.042   1.989 -0.2341 -1.7313  1.2975
 9015SOL    HW238508   2.449   0.035   1.853 -0.2524 -0.0579  1.0003
 9016SOL     OW38509   1.195   3.500   9.399 -0.0394  0.2459  0.1348
 9016SOL    HW138510   1.208   3.457   9.484  1.3307 -0.8520 -0.6320
 9016SOL    HW238511   1.283   3.521   9.366  0.1055 -2.2731 -1.0757
 9017SOL     OW38512   4.132   1.130  10.760 -0.3446 -0.0453  0.7104
 9017SOL    HW138513   4.096   1.041  10.754 -0.2941 -0.0712  0.8044
 9017SOL    HW238514   4.130   1.167  10.671 -1.8058 -1.3154  0.2052
 9018SOL     OW38515   2.062   1.302   3.870 -0.6669  0.4727  0.1222
 9018SOL    HW138516   2.031   1.247   3.941 -1.2844  0.4251 -0.1790
 9018SOL    HW238517   1.985   1.358   3.857 -0.5065  0.7753  0.5051
 9019SOL     OW38518   1.420   0.567  13.191  0.0275  0.4963  0.6039
 9019SOL    HW138519   1.513   0.588  13.186 -0.2457  1.0872 -1.9636
 9019SOL    HW238520   1.375   0.638  13.238  2.6437  2.2169  0.4786
 9020SOL     OW38521   1.946   4.266   3.388 -0.2608 -0.2128  0.7976
 9020SOL    HW138522   1.964   4.188   3.337 -1.4499 -0.8938  1.4174
 9020SOL    HW238523   2.035   4.301   3.385 -0.7000  0.7200 -1.5851
 9021SOL     OW38524   1.760   1.760   3.861 -0.5507 -0.2015  0.7264
 9021SOL    HW138525   1.712   1.781   3.942  0.7734  0.7853  1.2607
 9021SOL    HW238526   1.690   1.781   3.799  0.7720 -1.1000 -1.0713
 9022SOL     OW38527   0.337   3.318   0.578 -0.4122 -0.1909  0.1589
 9022SOL    HW138528   0.247   3.286   0.570 -0.5314  0.7264 -2.0281
 9022SOL    HW238529   0.375   3.268   0.650  0.1395 -0.4609 -0.3306
 9023SOL     OW38530   3.991   1.423   2.807 -0.2770 -0.2121  0.3797
 9023SOL    HW138531   4.051   1.498   2.806 -1.2792  0.5956  1.1285
 9023SOL    HW238532   4.036   1.351   2.762  1.2353 -0.8524  2.9213
 9024SOL     OW38533   2.687   1.807   7.339  0.0151  0.5607  0.4529
 9024SOL    HW138534   2.649   1.725   7.308 -2.1189  1.7052  0.0649
 9024SOL    HW238535   2.684   1.786   7.433  0.6157  1.7428  0.7463
 9025SOL     OW38536   0.632   2.773   7.431  0.1390 -0.0890  0.5215
 9025SOL    HW138537   0.723   2.740   7.431 -0.0379 -0.5731 -0.6816
 9025SOL    HW238538   0.631   2.831   7.355  0.2714  2.6798  2.6560
 9026SOL     OW38539   3.874   3.274   4.341 -0.1364  0.2742 -0.0115
 9026SOL    HW138540   3.958   3.227   4.339 -0.7964 -0.9453  1.0950
 9026SOL    HW238541   3.910   3.362   4.351 -0.4254  0.3349  0.4969
 9027SOL     OW38542   2.614   2.696   6.759 -0.4897 -0.1365 -0.0711
 9027SOL    HW138543   2.563   2.711   6.839 -0.6116 -1.0725  0.0269
 9027SOL    HW238544   2.663   2.616   6.783  0.7591  1.0340  1.2886
 9028SOL     OW38545   1.946   3.325   5.012  0.8412 -0.0800 -0.5567
 9028SOL    HW138546   1.878   3.380   5.050 -0.7738 -1.1900 -1.8079
 9028SOL    HW238547   2.018   3.388   5.004  1.3203 -0.5100  0.2982
 9029SOL     OW38548   0.494   1.195  10.328 -0.3492 -1.0104 -0.0033
 9029SOL    HW138549   0.472   1.245  10.249  1.1483  1.0331  0.8884
 9029SOL    HW238550   0.519   1.265  10.388 -0.1652  0.0366 -1.2975
 9030SOL     OW38551   3.006   4.322   0.680 -0.2644  0.2693 -0.2043
 9030SOL    HW138552   3.038   4.338   0.591  0.0676 -3.9090 -0.8546
 9030SOL    HW238553   2.921   4.364   0.689 -1.1462 -1.8616  1.3392
 9031SOL     OW38554   0.906   4.610  16.923 -0.3755 -0.3331 -0.3564
 9031SOL    HW138555   0.927   4.548  16.854  1.4198 -1.0498  0.8201
 9031SOL    HW238556   0.948   4.693  16.900 -1.0312 -0.1496 -0.8980
 9032SOL     OW38557   3.598   0.284   6.851 -0.4146 -0.4914  0.1629
 9032SOL    HW138558   3.504   0.296   6.867  0.0168  0.8520  1.6497
 9032SOL    HW238559   3.635   0.291   6.939 -1.9915 -0.0752  0.7942
 9033SOL     OW38560   0.334   3.535  11.554  0.1601 -0.2650 -0.0047
 9033SOL    HW138561   0.341   3.587  11.474  0.8798  0.5989  0.6175
 9033SOL    HW238562   0.376   3.590  11.620 -0.5093 -2.2120  2.0390
 9034SOL     OW38563   4.506   4.233   0.070  0.3260  0.3352  0.2059
 9034SOL    HW138564   4.534   4.223  17.679 -1.9142 -1.4612 -0.3120
 9034SOL    HW238565   4.546   4.153   0.104 -0.0194  0.3837  0.7297
 9035SOL     OW38566   2.942   4.633   7.348 -0.3889 -0.0839  0.0464
 9035SOL    HW138567   2.912   4.606   7.261 -0.6926  2.0881 -0.5006
 9035SOL    HW238568   3.013   4.687   7.314  0.7932 -1.4707  0.2662
 9036SOL     OW38569   3.498   0.727   8.060 -0.9089 -0.0933  0.4896
 9036SOL    HW138570   3.430   0.782   8.098 -1.8957 -0.6080 -0.5287
 9036SOL    HW238571   3.554   0.800   8.031 -2.1656  0.9325  0.6480
 9037SOL     OW38572   2.887   2.751   0.747  0.1975  0.0487  0.0819
 9037SOL    HW138573   2.915   2.803   0.672  0.9145 -0.5708 -0.0740
 9037SOL    HW238574   2.831   2.820   0.785 -0.0135  1.0673 -2.0711
 9038SOL     OW38575   1.299   4.063   0.619  0.1065  0.1048  0.1130
 9038SOL    HW138576   1.272   3.998   0.684 -0.3869  0.8864  0.6850
 9038SOL    HW238577   1.225   4.058   0.558  1.4319 -0.8937 -1.3985
 9039SOL     OW38578   1.915   1.541   3.912 -0.4572  0.1932  0.1007
 9039SOL    HW138579   1.871   1.620   3.880 -0.8025  0.5360  1.4329
 9039SOL    HW238580   1.847   1.498   3.964  2.0437 -3.3701  0.4795
 9040SOL     OW38581   3.286   4.165  10.811 -0.4148  0.0376 -0.2203
 9040SOL    HW138582   3.221   4.170  10.881 -1.6071  1.4152 -1.3926
 9040SOL    HW238583   3.318   4.255  10.817  2.0568 -0.9200  0.6078
 9041SOL     OW38584   2.877   1.499   1.927 -0.6509  0.4987 -0.0073
 9041SOL    HW138585   2.853   1.436   1.995 -0.7491  2.2110  1.5378
 9041SOL    HW238586   2.932   1.560   1.976 -0.1893  0.0322  0.0572
 9042SOL     OW38587   2.429   1.689   2.440  0.6100 -0.1546  0.4457
 9042SOL    HW138588   2.395   1.694   2.350  0.5884 -0.2016  0.4513
 9042SOL    HW238589   2.457   1.779   2.456 -0.0826  0.5234 -2.1290
 9043SOL     OW38590   2.982   4.593   2.385  0.0745 -0.0182 -0.2305
 9043SOL    HW138591   2.968   4.502   2.410  2.8598 -1.3390 -3.4917
 9043SOL    HW238592   3.078   4.588   2.379  0.2328  2.1246  0.5340
 9044SOL     OW38593   0.320   4.225   2.104  0.7348  0.6853 -0.1175
 9044SOL    HW138594   0.406   4.196   2.072 -0.8206 -1.4809 -2.3702
 9044SOL    HW238595   0.282   4.137   2.108 -1.9819  1.8493 -0.3890
 9045SOL     OW38596   3.603   0.431   6.204  0.3909 -0.0924  0.0831
 9045SOL    HW138597   3.518   0.459   6.237  0.2215 -1.2538  0.6406
 9045SOL    HW238598   3.670   0.457   6.267 -0.4763  0.4824  0.7667
 9046SOL     OW38599   1.508   0.370   2.943 -0.5759  0.4238 -0.1230
 9046SOL    HW138600   1.482   0.280   2.963  3.6046 -0.4567  1.4425
 9046SOL    HW238601   1.598   0.344   2.924  1.2595  4.3662  3.2062
 9047SOL     OW38602   0.804   3.253   3.477  0.0359  0.0950 -0.0096
 9047SOL    HW138603   0.721   3.283   3.441  0.0410  0.3448  0.1870
 9047SOL    HW238604   0.798   3.158   3.469  0.5619 -0.0610  1.3198
 9048SOL     OW38605   1.648   4.244   2.499 -0.2051 -0.0448 -0.0973
 9048SOL    HW138606   1.623   4.247   2.407  0.8418  1.0820 -0.3431
 9048SOL    HW238607   1.561   4.240   2.539  0.0496 -0.6450  0.3974
 9049SOL     OW38608   2.088   3.170  11.587  0.3069  0.7491  0.4420
 9049SOL    HW138609   2.013   3.120  11.556 -0.3371  2.4979 -0.8581
 9049SOL    HW238610   2.078   3.184  11.681 -0.6801 -2.2749  0.7771
 9050SOL     OW38611   4.160   1.622   2.854 -0.8235 -0.7574  0.3913
 9050SOL    HW138612   4.239   1.672   2.834 -1.3622 -0.3204 -0.6536
 9050SOL    HW238613   4.184   1.581   2.937  1.8494  0.6981  0.3341
 9051SOL     OW38614   2.024   3.737  11.584  0.0782 -0.3243 -0.2569
 9051SOL    HW138615   2.111   3.729  11.545 -0.8690 -0.9743 -2.2556
 9051SOL    HW238616   1.984   3.654  11.557 -0.3842 -1.0269  2.6398
 9052SOL     OW38617   4.360   0.577   6.288 -0.1678  0.2982  0.3114
 9052SOL    HW138618   4.453   0.554   6.284 -0.1498  0.0758  2.0686
 9052SOL    HW238619   4.355   0.630   6.367 -1.0637  2.1169 -0.9505
 9053SOL     OW38620   2.862   3.354   1.077  0.1888 -0.3826  0.4281
 9053SOL    HW138621   2.890   3.445   1.071 -0.3526 -0.2603 -0.2387
 9053SOL    HW238622   2.829   3.341   1.166  3.8790 -2.6299  1.4744
 9054SOL     OW38623   4.487   1.815   6.434  0.0192 -0.0374 -0.2228
 9054SOL    HW138624   4.547   1.873   6.388 -0.2547  0.6076  0.2217
 9054SOL    HW238625   4.555   1.768   6.483 -1.4023  1.7596  3.4989
 9055SOL     OW38626   2.299   1.319   6.426  0.4306 -0.2716  0.2827
 9055SOL    HW138627   2.324   1.383   6.493  1.4667 -0.6111  0.2156
 9055SOL    HW238628   2.252   1.377   6.366  0.8857  0.8001  0.9723
 9056SOL     OW38629   3.720   4.268   5.448 -0.0430  0.0508 -0.0563
 9056SOL    HW138630   3.693   4.300   5.362  0.8298 -3.7247 -1.7392
 9056SOL    HW238631   3.726   4.346   5.503 -1.4986 -0.5793  0.9774
 9057SOL     OW38632   0.473   0.693   6.129  0.0830 -0.2913 -0.2182
 9057SOL    HW138633   0.423   0.772   6.108  0.1907  0.5822  2.7305
 9057SOL    HW238634   0.515   0.671   6.047  0.6802  0.0481 -0.0051
 9058SOL     OW38635   0.998   2.244  17.028  0.1259 -0.4639 -0.1580
 9058SOL    HW138636   0.935   2.187  17.072  0.4727  0.7516  1.8988
 9058SOL    HW238637   1.068   2.248  17.094  0.3797 -0.5828 -0.4186
 9059SOL     OW38638   4.242   2.023  10.415 -0.4735 -0.1387 -0.7298
 9059SOL    HW138639   4.234   1.929  10.430  2.5327 -0.4739 -1.2568
 9059SOL    HW238640   4.159   2.051  10.376  0.2394  2.8939 -0.0590
 9060SOL     OW38641   2.348   1.762   5.731 -0.1947  0.2607 -0.1815
 9060SOL    HW138642   2.402   1.733   5.657 -0.6922  0.7330 -0.7312
 9060SOL    HW238643   2.261   1.729   5.713  0.5633 -1.1116 -1.3689
 9061SOL     OW38644   0.234   2.911   3.570 -0.3232 -0.5488  0.3828
 9061SOL    HW138645   0.227   2.999   3.532  2.6846 -1.1109 -1.4461
 9061SOL    HW238646   0.145   2.888   3.596 -1.1065  0.7748 -1.1691
 9062SOL     OW38647   2.086   4.678   6.882  0.0824 -0.0161 -0.1791
 9062SOL    HW138648   2.172   4.646   6.855  1.1887  2.5428  0.3701
 9062SOL    HW238649   2.029   4.618   6.833  0.5472  0.1559 -0.9273
 9063SOL     OW38650   4.212   2.454   4.652  0.4536 -0.2959 -0.3439
 9063SOL    HW138651   4.240   2.461   4.561  0.7293  1.8375 -0.0963
 9063SOL    HW238652   4.124   2.422   4.636 -0.9175  2.9018  0.8185
 9064SOL     OW38653   3.953   4.298   7.420 -0.2736 -0.1044  0.4056
 9064SOL    HW138654   3.873   4.292   7.471 -0.3983  0.9814  0.3289
 9064SOL    HW238655   4.015   4.286   7.492  0.7045 -0.7417 -0.5435
 9065SOL     OW38656   3.466   2.586   6.627 -0.1222  0.7594 -0.3063
 9065SOL    HW138657   3.397   2.606   6.692 -0.4948  2.6022 -1.2724
 9065SOL    HW238658   3.512   2.514   6.670 -1.8477 -1.1855 -1.7134
 9066SOL     OW38659   3.245   0.571   3.009 -0.1163 -0.4579  0.1043
 9066SOL    HW138660   3.253   0.665   2.990 -0.7034 -0.3620  0.3556
 9066SOL    HW238661   3.264   0.550   2.918  0.8876 -1.2878  0.4994
 9067SOL     OW38662   3.942   2.411   7.372 -0.1073  0.1098  0.6872
 9067SOL    HW138663   3.849   2.407   7.347  0.3793  1.7288 -1.3349
 9067SOL    HW238664   3.932   2.454   7.457 -0.4809 -0.2592  0.8307
 9068SOL     OW38665   1.650   3.620  13.306  0.2505 -0.4317 -0.3495
 9068SOL    HW138666   1.658   3.692  13.243 -1.0041  1.2911  1.4750
 9068SOL    HW238667   1.631   3.672  13.384  2.6336  1.3603 -0.9334
 9069SOL     OW38668   2.360   2.309   8.684  0.1113  0.2728 -0.3058
 9069SOL    HW138669   2.418   2.348   8.749 -0.9528  2.2745 -0.5540
 9069SOL    HW238670   2.428   2.273   8.628  0.4119 -1.1657  0.9947
 9070SOL     OW38671   0.648   1.782   5.142 -0.2071  0.3532  0.3214
 9070SOL    HW138672   0.586   1.775   5.214  0.0141  1.0854  0.5796
 9070SOL    HW238673   0.699   1.839   5.200 -0.0450 -0.3164  0.8351
 9071SOL     OW38674   1.231   2.073  10.798  0.4903 -0.0621  0.1688
 9071SOL    HW138675   1.277   2.148  10.760  2.3076 -2.1400 -1.7700
 9071SOL    HW238676   1.295   2.036  10.859  1.2857  0.9425 -0.0655
 9072SOL     OW38677   2.061   0.540   3.108  0.1539 -0.1349 -0.4408
 9072SOL    HW138678   2.067   0.636   3.103  0.5797 -0.3547 -3.7745
 9072SOL    HW238679   2.014   0.524   3.026 -0.7522 -0.0039  0.0460
 9073SOL     OW38680   1.529   0.345  15.379  0.0228 -0.2957 -0.3860
 9073SOL    HW138681   1.472   0.413  15.416 -1.3648 -0.8127 -1.5604
 9073SOL    HW238682   1.493   0.344  15.290 -1.4185  2.7089  0.1640
 9074SOL     OW38683   3.376   1.067  14.468 -0.7320 -0.0293  1.1120
 9074SOL    HW138684   3.427   1.096  14.544  1.0297  2.7754 -1.1092
 9074SOL    HW238685   3.424   1.113  14.399 -0.3084  0.1964  1.5585
 9075SOL     OW38686   0.430   1.328  14.927  0.3400  0.1971 -0.1901
 9075SOL    HW138687   0.470   1.346  14.843 -1.1066  3.1454 -0.2477
 9075SOL    HW238688   0.504   1.340  14.986  0.6516  0.6121 -0.6730
 9076SOL     OW38689   0.585   3.374  12.846 -0.1391  0.0090 -0.2500
 9076SOL    HW138690   0.544   3.301  12.892 -0.7497  0.8416  0.5193
 9076SOL    HW238691   0.568   3.353  12.754  1.5426 -0.8779 -0.3554
 9077SOL     OW38692   3.844   4.433   1.400  0.1306  0.4474 -0.2149
 9077SOL    HW138693   3.835   4.347   1.358 -0.4295  0.4452 -0.0961
 9077SOL    HW238694   3.877   4.406   1.486  0.2043  0.2100 -0.3191
 9078SOL     OW38695   2.235   3.672  14.847  0.7821 -0.1709  0.1914
 9078SOL    HW138696   2.249   3.640  14.758 -3.0059 -0.6702 -0.2476
 9078SOL    HW238697   2.148   3.704  14.823  1.5778  1.5455 -0.3679
 9079SOL     OW38698   1.657   3.706  12.705  0.3238  0.2323  0.1943
 9079SOL    HW138699   1.712   3.659  12.767 -0.9568 -0.6855  0.6462
 9079SOL    HW238700   1.593   3.741  12.767 -0.3330 -2.2240  0.8925
 9080SOL     OW38701   2.012   4.018   1.597 -0.3996 -0.2062 -0.1643
 9080SOL    HW138702   1.969   4.044   1.515 -0.6428  0.1528  0.0827
 9080SOL    HW238703   2.009   3.923   1.588 -1.7059 -0.3080  1.6309
 9081SOL     OW38704   2.610   1.395   5.225  0.5243  0.3251  0.6521
 9081SOL    HW138705   2.560   1.417   5.146  1.8687 -0.1284 -0.3173
 9081SOL    HW238706   2.651   1.317   5.188  1.9252  1.2708  0.2240
 9082SOL     OW38707   1.597   0.955   8.407 -0.1192  0.3951 -0.3974
 9082SOL    HW138708   1.650   0.879   8.430  2.1172  1.5016 -1.8374
 9082SOL    HW238709   1.620   1.011   8.481 -0.5775  0.1735 -0.0914
 9083SOL     OW38710   1.178   0.733  13.046  0.5402  0.1688  0.5593
 9083SOL    HW138711   1.259   0.757  13.091  0.8673  2.1434 -1.0816
 9083SOL    HW238712   1.145   0.672  13.112 -2.2522  1.5537  0.4242
 9084SOL     OW38713   1.516   1.644  13.859  0.3042 -0.3477  0.5053
 9084SOL    HW138714   1.521   1.594  13.777  0.1155  1.1275 -0.4160
 9084SOL    HW238715   1.440   1.700  13.843 -0.3139 -1.0442  1.0427
 9085SOL     OW38716   1.604   3.687   8.847  0.2895  0.0682  0.0549
 9085SOL    HW138717   1.517   3.726   8.858  0.2514  0.4685 -1.6950
 9085SOL    HW238718   1.654   3.755   8.893 -0.0869  1.4032 -1.5383
 9086SOL     OW38719   2.565   4.517  12.811 -0.3301 -0.6445  0.8486
 9086SOL    HW138720   2.514   4.577  12.866 -0.9074  0.4377 -0.8641
 9086SOL    HW238721   2.600   4.456  12.876 -1.7913 -0.5763  1.6873
 9087SOL     OW38722   4.223   1.242   4.722 -0.7877  0.2331 -0.2288
 9087SOL    HW138723   4.272   1.235   4.804  0.1295 -2.6578 -1.0032
 9087SOL    HW238724   4.236   1.154   4.685  0.1449 -0.1871  1.0978
 9088SOL     OW38725   2.087   1.649   8.142  0.0348  0.1543  0.0048
 9088SOL    HW138726   2.026   1.579   8.164  0.2332 -0.1027 -0.2736
 9088SOL    HW238727   2.078   1.708   8.217 -1.9717  0.4168 -0.4507
 9089SOL     OW38728   2.096   0.906   3.843  0.1342  0.0117 -0.5974
 9089SOL    HW138729   2.109   0.841   3.913  2.2067  2.5260  1.3356
 9089SOL    HW238730   2.003   0.922   3.857  0.0943 -0.7048 -0.0467
 9090SOL     OW38731   3.497   1.682  16.340 -0.1415 -0.1346 -0.1623
 9090SOL    HW138732   3.519   1.756  16.398 -0.9475  0.2527 -0.3534
 9090SOL    HW238733   3.581   1.637  16.343  0.7900  1.7093  2.3598
 9091SOL     OW38734   2.443   1.241   1.457 -0.1680 -0.5011 -0.0324
 9091SOL    HW138735   2.485   1.306   1.513  3.6416 -2.0711 -1.0687
 9091SOL    HW238736   2.350   1.261   1.447  0.3258  2.4292  1.1391
 9092SOL     OW38737   3.144   1.797   5.875 -0.5384  0.5723  0.4240
 9092SOL    HW138738   3.176   1.842   5.797  1.5678  0.8056  1.4340
 9092SOL    HW238739   3.196   1.848   5.937  1.0235  1.1063 -1.3157
 9093SOL     OW38740   1.964   0.196   6.938 -0.2351 -0.2354  0.5531
 9093SOL    HW138741   2.041   0.140   6.942 -0.3211 -0.3689  0.3264
 9093SOL    HW238742   1.893   0.133   6.922  0.2168 -0.7577  0.6125
 9094SOL     OW38743   2.548   3.474  11.815 -0.2539 -0.9023  0.2239
 9094SOL    HW138744   2.475   3.500  11.759  0.1256  1.6425  0.8878
 9094SOL    HW238745   2.547   3.379  11.809 -2.0563 -0.8410 -0.5207
 9095SOL     OW38746   2.734   0.871   4.233 -0.0557  0.0328 -0.1563
 9095SOL    HW138747   2.742   0.825   4.316 -1.8600  0.6705  0.3690
 9095SOL    HW238748   2.823   0.899   4.208 -0.3566  2.1632  1.1142
 9096SOL     OW38749   2.018   1.366  14.587  0.5543  0.0141 -0.9144
 9096SOL    HW138750   2.020   1.335  14.497  1.7777  0.2067 -0.9584
 9096SOL    HW238751   1.935   1.413  14.595  1.5558  1.3455  1.5570
 9097SOL     OW38752   2.450   4.392   6.120  0.3705 -0.3105 -0.4609
 9097SOL    HW138753   2.432   4.484   6.103  0.7635 -0.1723 -0.1278
 9097SOL    HW238754   2.507   4.406   6.196 -2.1060  2.5644  0.8477
 9098SOL     OW38755   1.386   1.020   1.433  0.5274  0.1460  0.0514
 9098SOL    HW138756   1.309   1.058   1.390  0.8852  0.6780 -0.1106
 9098SOL    HW238757   1.369   0.929   1.410  2.4748  0.4333 -2.4330
 9099SOL     OW38758   1.821   3.482   3.024 -0.3309  0.0616  0.5033
 9099SOL    HW138759   1.841   3.542   2.952 -3.6163 -0.5741 -0.9453
 9099SOL    HW238760   1.812   3.399   2.978  3.2867 -0.3783  0.6300
 9100SOL     OW38761   0.268   3.685   5.531  0.2033 -0.3817  0.5523
 9100SOL    HW138762   0.209   3.611   5.516  2.5663 -2.1723 -0.0037
 9100SOL    HW238763   0.217   3.758   5.496 -0.9178 -0.5003  1.9695
 9101SOL     OW38764   2.926   3.044   1.687 -0.5706  0.0175 -0.3244
 9101SOL    HW138765   2.956   2.966   1.642 -1.0428  0.1089 -0.8044
 9101SOL    HW238766   2.849   3.000   1.724  1.2829 -2.1912  0.9052
 9102SOL     OW38767   3.928   2.062   3.085  0.0778  0.3574 -0.4330
 9102SOL    HW138768   3.934   1.976   3.044 -1.7717  0.5932 -1.2109
 9102SOL    HW238769   3.841   2.058   3.125 -0.5399 -0.1548 -1.8159
 9103SOL     OW38770   2.785   0.978   4.608  0.5873 -0.1061  0.4135
 9103SOL    HW138771   2.728   0.942   4.540  0.4477 -0.1035  0.5297
 9103SOL    HW238772   2.734   0.955   4.685 -0.2437  1.5258  0.3343
 9104SOL     OW38773   0.380   3.420   5.123  0.1947  0.1813  0.3413
 9104SOL    HW138774   0.414   3.395   5.038 -1.2286 -1.9810  0.3990
 9104SOL    HW238775   0.303   3.464   5.087  0.6219  1.2918  0.7606
 9105SOL     OW38776   0.583   3.684   7.506  0.8943  0.3716  0.2602
 9105SOL    HW138777   0.563   3.777   7.495 -1.7174 -0.2213 -0.0741
 9105SOL    HW238778   0.677   3.682   7.489  0.6417  0.2577 -1.1481
 9106SOL     OW38779   0.553   0.110   5.231 -0.0725  0.3272 -0.4329
 9106SOL    HW138780   0.549   0.055   5.153  0.6154  0.9526 -0.8990
 9106SOL    HW238781   0.503   0.189   5.209  1.7219  1.7035  0.4396
 9107SOL     OW38782   4.383   0.394   7.191 -1.2281  0.4251  0.0206
 9107SOL    HW138783   4.304   0.397   7.138 -1.4745  0.2747  0.3839
 9107SOL    HW238784   4.376   0.485   7.217 -0.5962  0.0649  1.4637
 9108SOL     OW38785   0.778   0.921  10.679  0.1893 -0.6291 -1.1090
 9108SOL    HW138786   0.810   1.005  10.646  0.8109 -0.2344  0.4794
 9108SOL    HW238787   0.845   0.912  10.748  1.7181  3.3462 -2.0416
 9109SOL     OW38788   2.431   3.594   1.955 -0.0010 -0.2027  0.7214
 9109SOL    HW138789   2.432   3.621   1.863 -0.4807  0.3786  0.8875
 9109SOL    HW238790   2.515   3.622   1.992  0.8165  0.6877 -1.8187
 9110SOL     OW38791   2.018   3.855   5.696  0.2118  0.2481 -0.1441
 9110SOL    HW138792   2.001   3.801   5.620 -0.1224 -2.9199  2.2006
 9110SOL    HW238793   1.941   3.824   5.743  0.7154  0.2284  0.6627
 9111SOL     OW38794   0.524   1.683   2.267 -0.0596 -1.2404  0.7375
 9111SOL    HW138795   0.607   1.684   2.220 -1.2119 -1.0825 -1.2997
 9111SOL    HW238796   0.552   1.703   2.356  1.8557  0.8492 -0.3500
 9112SOL     OW38797   4.043   0.724   1.458 -0.2383 -0.2557 -0.1388
 9112SOL    HW138798   4.077   0.688   1.540 -0.0452 -0.2136 -0.2013
 9112SOL    HW238799   3.962   0.674   1.453  0.7431 -1.9286  0.8033
 9113SOL     OW38800   2.960   1.065  14.389 -0.6919 -0.0830  0.0813
 9113SOL    HW138801   2.903   1.128  14.346 -0.2206  1.6305  1.9600
 9113SOL    HW238802   3.049   1.090  14.364 -0.0822 -2.1991  0.1361
 9114SOL     OW38803   4.674   3.376   7.303 -0.2415  0.1927  0.6681
 9114SOL    HW138804   4.680   3.306   7.367  2.0051 -0.6273 -0.4289
 9114SOL    HW238805   0.040   3.407   7.294 -0.5767  1.6769  2.3529
 9115SOL     OW38806   1.579   2.841  13.347  0.4229  0.0343 -0.5304
 9115SOL    HW138807   1.591   2.921  13.399 -2.8287  0.2362 -0.1171
 9115SOL    HW238808   1.664   2.800  13.365 -0.1706 -0.9599 -0.0277
 9116SOL     OW38809   1.803   2.315  11.466 -0.7251  0.4993  0.6092
 9116SOL    HW138810   1.868   2.368  11.421  1.0947 -0.1468  2.4525
 9116SOL    HW238811   1.835   2.322  11.556  1.6818  1.4195 -0.3405
 9117SOL     OW38812   3.366   2.352  13.882 -0.7150 -0.8069  0.2867
 9117SOL    HW138813   3.369   2.351  13.786 -2.0783 -1.2699  0.2427
 9117SOL    HW238814   3.377   2.258  13.897 -0.6840 -1.0148 -1.0825
 9118SOL     OW38815   4.671   0.659   6.563 -0.1594  0.0011 -0.1866
 9118SOL    HW138816   4.721   0.583   6.536  1.7012  0.0750  3.1140
 9118SOL    HW238817   4.596   0.611   6.597  0.0896  0.2042  0.6396
 9119SOL     OW38818   0.959   0.815  16.095 -0.1816  0.2079 -0.1132
 9119SOL    HW138819   0.995   0.902  16.076 -0.4354  0.1532 -0.8620
 9119SOL    HW238820   1.030   0.792  16.154 -1.5282  0.4303  1.5889
 9120SOL     OW38821   2.129   3.919   9.110  0.7007  0.7776  0.6272
 9120SOL    HW138822   2.219   3.940   9.136  0.6551  0.7849  0.7792
 9120SOL    HW238823   2.091   4.004   9.086 -1.2224 -0.3715 -0.3785
 9121SOL     OW38824   1.632   0.649  12.392 -0.1597 -0.0153  0.0984
 9121SOL    HW138825   1.643   0.733  12.347  0.0736 -0.1884 -0.1705
 9121SOL    HW238826   1.586   0.672  12.473  1.7663  1.0858  0.8893
 9122SOL     OW38827   2.855   1.043   3.062 -0.1870 -0.3135 -0.0588
 9122SOL    HW138828   2.892   1.071   3.146 -1.2717 -0.1074  0.3475
 9122SOL    HW238829   2.885   1.114   3.004  1.8325 -1.9342 -1.0041
 9123SOL     OW38830   2.201   2.011  17.686  0.4261 -0.6009 -0.5342
 9123SOL    HW138831   2.232   2.067   0.058 -0.4140 -1.8073  0.7710
 9123SOL    HW238832   2.272   2.021  17.622  2.6713 -0.1740  2.0243
 9124SOL     OW38833   2.975   0.730   9.145 -0.0865 -0.1907 -0.0942
 9124SOL    HW138834   3.067   0.758   9.134 -0.1879  0.3416  0.3810
 9124SOL    HW238835   2.966   0.692   9.232 -1.0177 -1.7803 -0.9005
 9125SOL     OW38836   0.378   3.448  13.131 -0.4869 -1.0353 -0.1994
 9125SOL    HW138837   0.422   3.376  13.086  2.3308  0.3620  0.2831
 9125SOL    HW238838   0.365   3.403  13.215 -0.9035  1.9337  1.3447
 9126SOL     OW38839   2.644   0.609   7.523 -1.3769  0.0729  0.1730
 9126SOL    HW138840   2.687   0.634   7.605 -0.1110 -1.1680 -0.1222
 9126SOL    HW238841   2.553   0.604   7.554 -1.4002 -2.0405 -0.2848
 9127SOL     OW38842   3.363   0.136   4.994 -0.5825  0.0225 -0.6610
 9127SOL    HW138843   3.285   0.086   5.017  0.5583 -1.0083  1.0076
 9127SOL    HW238844   3.425   0.074   4.956 -1.8182  0.2011 -2.9412
 9128SOL     OW38845   1.542   2.818   3.663 -0.1758 -0.5088 -0.1163
 9128SOL    HW138846   1.617   2.855   3.615 -0.1370 -0.5160 -0.0617
 9128SOL    HW238847   1.599   2.767   3.720  0.1127  0.1841  0.2200
 9129SOL     OW38848   3.734   0.673   6.301  0.0087  0.6313 -0.7286
 9129SOL    HW138849   3.774   0.747   6.347  3.0850  0.2650 -2.8166
 9129SOL    HW238850   3.653   0.712   6.270 -0.1942  0.8822  0.1097
 9130SOL     OW38851   4.021   2.137   4.699  0.2166  0.0170 -0.1671
 9130SOL    HW138852   4.023   2.049   4.662  0.5349 -0.7188  1.6075
 9130SOL    HW238853   4.096   2.169   4.647  1.8520  0.4880  2.4961
 9131SOL     OW38854   0.083   1.538   6.825 -0.5871 -0.1234  0.8850
 9131SOL    HW138855   0.170   1.568   6.797 -0.3206  0.0151  1.8869
 9131SOL    HW238856   0.043   1.517   6.740 -1.3796  2.8254  0.5529
 9132SOL     OW38857   3.872   1.927   7.102  0.1300  0.1781 -0.3609
 9132SOL    HW138858   3.864   1.973   7.185  1.8014  1.1285 -0.7171
 9132SOL    HW238859   3.904   1.842   7.131 -0.5404 -0.9239 -2.8428
 9133SOL     OW38860   2.859   0.528   2.987  0.3579  0.3575  0.4723
 9133SOL    HW138861   2.890   0.617   2.971 -0.2966  0.3484 -0.8932
 9133SOL    HW238862   2.861   0.530   3.083 -1.1861  1.6860  0.4711
 9134SOL     OW38863   0.858   1.256   5.717 -0.5802  0.2512 -0.0844
 9134SOL    HW138864   0.902   1.181   5.756  0.3902 -0.6960 -2.9803
 9134SOL    HW238865   0.839   1.311   5.793  0.7928  0.9611 -0.2509
 9135SOL     OW38866   1.687   0.204  14.961  0.1458  0.5657 -0.0715
 9135SOL    HW138867   1.733   0.248  15.033  1.4137  0.9261 -1.0986
 9135SOL    HW238868   1.620   0.270  14.942  1.5499  2.4800  1.5064
 9136SOL     OW38869   3.645   3.748   2.689  0.7189 -0.5909 -0.3924
 9136SOL    HW138870   3.615   3.826   2.643  0.7650  0.6050  1.5815
 9136SOL    HW238871   3.733   3.781   2.706  1.2441 -0.4815 -3.4354
 9137SOL     OW38872   3.092   3.573  10.584 -0.1891  0.4265  0.3645
 9137SOL    HW138873   3.066   3.648  10.638  3.1657  1.5101  0.4946
 9137SOL    HW238874   3.084   3.512  10.657  0.1270  0.6103  0.5554
 9138SOL     OW38875   3.167   1.117  10.922  0.2651 -0.3610 -0.2434
 9138SOL    HW138876   3.262   1.124  10.929  0.3969 -1.3350 -1.0242
 9138SOL    HW238877   3.152   1.092  11.013  0.7785  0.0839 -0.0386
 9139SOL     OW38878   3.474   2.939   9.043 -0.1999 -0.8453 -0.2635
 9139SOL    HW138879   3.546   2.942   9.105 -1.6063 -3.0567  1.4549
 9139SOL    HW238880   3.399   2.942   9.102  1.8030 -0.4680  2.2520
 9140SOL     OW38881   1.759   3.495   6.780  0.1627 -0.1093 -0.1535
 9140SOL    HW138882   1.741   3.492   6.874  0.8194 -0.5987 -0.0424
 9140SOL    HW238883   1.674   3.489   6.737  0.7839  1.4291 -1.6051
 9141SOL     OW38884   0.762   1.406  13.494  0.4370  0.4714 -0.0250
 9141SOL    HW138885   0.708   1.484  13.487  0.2003  0.1899 -1.2218
 9141SOL    HW238886   0.774   1.391  13.588  1.5275 -1.0767 -0.4060
 9142SOL     OW38887   3.418   1.857  17.692 -0.1163 -0.2501  0.5547
 9142SOL    HW138888   3.454   1.897  17.613  2.6252 -0.7013  1.5601
 9142SOL    HW238889   3.338   1.907   0.002  1.2572  1.7402  1.6902
 9143SOL     OW38890   0.505   4.576   3.796 -0.5341  0.1889 -0.2046
 9143SOL    HW138891   0.561   4.519   3.744 -0.7319 -0.5956  0.4290
 9143SOL    HW238892   0.532   4.665   3.774 -1.3630  0.6124  0.4315
 9144SOL     OW38893   3.600   1.221   9.778 -0.3833 -0.5196  0.1038
 9144SOL    HW138894   3.569   1.200   9.866 -2.0764  1.8494  0.1027
 9144SOL    HW238895   3.692   1.200   9.793 -0.4770 -1.8741 -1.3368
 9145SOL     OW38896   4.182   1.085   4.389 -0.8391 -0.0433  0.3223
 9145SOL    HW138897   4.123   1.082   4.314  0.1016 -0.0747 -0.4075
 9145SOL    HW238898   4.262   1.111   4.344 -1.4695  1.7434  0.2443
 9146SOL     OW38899   1.457   3.827   6.663 -0.1275  0.1243 -0.2815
 9146SOL    HW138900   1.366   3.797   6.660 -0.8794  2.4067 -0.3944
 9146SOL    HW238901   1.493   3.777   6.589  1.0948  0.6894 -0.0676
 9147SOL     OW38902   2.350   0.386   5.536 -0.1107 -0.2771 -0.0256
 9147SOL    HW138903   2.358   0.467   5.586 -2.0283 -0.6022  0.8205
 9147SOL    HW238904   2.444   0.369   5.526  0.2422  0.9667  1.1663
 9148SOL     OW38905   1.306   1.695  17.098 -0.2051 -0.3703  0.0620
 9148SOL    HW138906   1.267   1.609  17.113 -3.1088  0.8741 -0.3542
 9148SOL    HW238907   1.236   1.758  17.117 -0.5342 -1.3494  2.1558
 9149SOL     OW38908   3.585   4.262   4.137  0.1883 -0.2234  0.0905
 9149SOL    HW138909   3.605   4.319   4.063 -1.8709 -0.1880 -0.4367
 9149SOL    HW238910   3.650   4.288   4.202 -0.5377 -2.1148  1.6014
 9150SOL     OW38911   0.326   0.216  17.650  0.2044  0.4558 -0.1024
 9150SOL    HW138912   0.347   0.228   0.043  1.2327  0.6596 -0.3658
 9150SOL    HW238913   0.373   0.294  17.619 -1.2012  1.1254 -0.5609
 9151SOL     OW38914   0.205   3.049   7.862 -0.2858 -0.8679 -0.7461
 9151SOL    HW138915   0.234   3.104   7.789 -0.0335  0.5862  0.4546
 9151SOL    HW238916   0.187   3.112   7.931 -0.7764 -0.9428 -0.8099
 9152SOL     OW38917   3.249   2.772  14.957  0.2622  0.4044 -0.2137
 9152SOL    HW138918   3.331   2.822  14.966  0.3506  0.1050  0.6324
 9152SOL    HW238919   3.286   2.684  14.961  1.3547  0.8095 -1.1311
 9153SOL     OW38920   2.669   3.913   2.020 -0.0668  0.4802  0.3541
 9153SOL    HW138921   2.695   3.829   2.057  2.0695  0.5272 -1.0285
 9153SOL    HW238922   2.750   3.945   1.979  0.3166 -1.8612 -0.7198
 9154SOL     OW38923   1.711   0.646  13.153 -0.1288  0.2716  0.1256
 9154SOL    HW138924   1.731   0.642  13.246 -1.6063 -0.1259  0.4319
 9154SOL    HW238925   1.795   0.668  13.112 -0.3811 -0.3501 -0.7300
 9155SOL     OW38926   0.352   1.120   3.453  0.4812 -0.5108 -0.2344
 9155SOL    HW138927   0.405   1.200   3.448  0.3854 -0.6876 -4.0954
 9155SOL    HW238928   0.310   1.136   3.537  1.3751  0.6125  0.0080
 9156SOL     OW38929   3.222   1.795   4.161  0.3962  0.4077  0.0658
 9156SOL    HW138930   3.213   1.819   4.068  0.8381 -0.1694 -0.1235
 9156SOL    HW238931   3.133   1.777   4.190  0.4439  1.8772  1.1105
 9157SOL     OW38932   4.270   0.620   2.422 -0.7522 -0.1556  0.0226
 9157SOL    HW138933   4.330   0.547   2.414 -0.6763 -0.1653  0.6816
 9157SOL    HW238934   4.189   0.569   2.426  0.7602 -2.5739 -0.0656
 9158SOL     OW38935   3.930   1.476   5.995 -0.4467  0.1294  0.3355
 9158SOL    HW138936   3.843   1.509   5.976  0.4610  1.7170 -1.0525
 9158SOL    HW238937   3.971   1.464   5.909 -0.2384  1.2481  0.2859
 9159SOL     OW38938   0.072   4.615   7.156  0.5483 -0.0760  0.0956
 9159SOL    HW138939   0.112   4.699   7.132 -0.3024 -0.2998 -2.0787
 9159SOL    HW238940   0.017   4.646   7.227  0.4338  1.6950 -0.7630
 9160SOL     OW38941   0.639   2.395   2.656 -0.1567 -0.3960  0.0874
 9160SOL    HW138942   0.578   2.431   2.720  2.0637 -0.3964  2.2037
 9160SOL    HW238943   0.698   2.344   2.712 -0.0788 -1.3347 -0.8578
 9161SOL     OW38944   3.678   0.137   2.147  0.1559  0.0404  0.0090
 9161SOL    HW138945   3.760   0.102   2.114  0.5729  3.0308 -2.1029
 9161SOL    HW238946   3.637   0.172   2.068  1.7293 -0.8907 -1.2070
 9162SOL     OW38947   0.871   1.237   0.076  0.3553 -0.5220  0.1713
 9162SOL    HW138948   0.866   1.218  17.681 -0.2633 -0.9741  0.2996
 9162SOL    HW238949   0.954   1.284   0.087  1.0778 -1.7920  0.0998
 9163SOL     OW38950   0.346   2.148  10.156  0.4400  0.8723  0.5374
 9163SOL    HW138951   0.329   2.086  10.227 -0.7689 -1.5955 -1.9141
 9163SOL    HW238952   0.258   2.147  10.119  0.6989  0.5667 -0.0780
 9164SOL     OW38953   4.485   0.485   8.676  0.8082 -0.8684  0.0157
 9164SOL    HW138954   4.526   0.523   8.598 -1.6801 -0.0010 -0.8983
 9164SOL    HW238955   4.404   0.535   8.687  0.8918 -0.9551  1.0145
 9165SOL     OW38956   1.588   2.672   2.673 -0.5680 -0.0426  0.9792
 9165SOL    HW138957   1.681   2.649   2.681 -0.8823 -0.4075  3.7280
 9165SOL    HW238958   1.545   2.588   2.666 -0.8912  0.1989  0.0767
 9166SOL     OW38959   2.555   2.739  12.481 -0.0453 -0.7340 -0.5347
 9166SOL    HW138960   2.556   2.831  12.457 -0.9107  0.3511  3.5215
 9166SOL    HW238961   2.479   2.704  12.436 -1.7190  0.2797  1.5078
 9167SOL     OW38962   4.033   2.212   5.326 -0.1339 -0.0021  0.2061
 9167SOL    HW138963   3.988   2.296   5.333  0.4437  0.3730 -0.5812
 9167SOL    HW238964   3.960   2.155   5.350  0.0702  0.6252  2.3572
 9168SOL     OW38965   1.872   1.362   8.830  0.0055  0.6573 -0.0728
 9168SOL    HW138966   1.906   1.451   8.826  0.2230  0.5348 -1.0119
 9168SOL    HW238967   1.927   1.319   8.765  2.4044 -0.6105  2.8194
 9169SOL     OW38968   3.036   0.686   1.214  0.7028 -0.6047 -0.1956
 9169SOL    HW138969   3.094   0.726   1.150 -1.3416 -0.4503 -1.9455
 9169SOL    HW238970   3.079   0.713   1.296 -0.4289  0.3120  0.1011
 9170SOL     OW38971   3.161   3.975   1.720 -0.0503 -0.4549  0.1306
 9170SOL    HW138972   3.074   3.938   1.704 -0.1160  0.0612 -0.7180
 9170SOL    HW238973   3.221   3.908   1.685  0.8358  0.3671  0.0849
 9171SOL     OW38974   1.653   0.743  14.357  0.1038  0.4921 -1.0176
 9171SOL    HW138975   1.748   0.752  14.362  0.1487 -0.0432 -0.9415
 9171SOL    HW238976   1.639   0.831  14.322  3.5664 -0.1360 -4.0357
 9172SOL     OW38977   3.861   2.110   0.205  0.8860  0.3112  0.1752
 9172SOL    HW138978   3.943   2.130   0.250  1.4780  2.2833 -1.7952
 9172SOL    HW238979   3.793   2.150   0.259  2.1638 -0.4156  2.3317
 9173SOL     OW38980   1.450   2.567   0.245  0.2405 -0.0853  0.1659
 9173SOL    HW138981   1.460   2.623   0.167 -0.6803 -1.9962 -1.3213
 9173SOL    HW238982   1.362   2.596   0.272  0.3377  0.4641 -0.1024
 9174SOL     OW38983   2.270   2.148  10.694 -0.5086 -0.2808 -0.0081
 9174SOL    HW138984   2.210   2.076  10.712 -0.6424 -0.5042 -1.3601
 9174SOL    HW238985   2.355   2.104  10.688  0.1351  1.3540 -2.9740
 9175SOL     OW38986   1.459   1.311  14.745  0.0082 -0.2644 -0.0203
 9175SOL    HW138987   1.550   1.301  14.717  0.4623  0.1429  1.2816
 9175SOL    HW238988   1.445   1.395  14.702  0.9262  0.4191  1.0059
 9176SOL     OW38989   3.986   1.534  10.663  0.4501  0.2283  0.1243
 9176SOL    HW138990   3.909   1.496  10.705  0.9806 -0.5368  0.3926
 9176SOL    HW238991   4.061   1.499  10.711  0.6829  2.4281  1.3580
 9177SOL     OW38992   0.938   4.378   6.835 -0.1836 -0.2140 -0.3824
 9177SOL    HW138993   0.847   4.394   6.862  0.0223  0.1372  0.1062
 9177SOL    HW238994   0.985   4.460   6.821 -0.2448 -0.2041 -0.5329
 9178SOL     OW38995   1.719   3.390  10.564  0.4993 -0.0534  0.1923
 9178SOL    HW138996   1.658   3.461  10.544 -0.2445 -1.4721 -2.5497
 9178SOL    HW238997   1.691   3.322  10.504  0.0814 -0.5502  0.9583
 9179SOL     OW38998   0.889   3.489   8.354 -0.2165 -0.0648 -0.3169
 9179SOL    HW138999   0.815   3.453   8.305 -0.2995 -0.0916 -0.1714
 9179SOL    HW239000   0.915   3.408   8.399  0.7270 -0.3130 -1.3038
 9180SOL     OW39001   4.178   2.052   2.254  0.1947  0.6109  0.0235
 9180SOL    HW139002   4.112   1.996   2.214  1.7177 -1.2468  0.0644
 9180SOL    HW239003   4.149   2.062   2.344  3.0237  1.5544  0.8453
 9181SOL     OW39004   4.207   0.683   3.519  0.1157  0.0118 -0.0614
 9181SOL    HW139005   4.246   0.646   3.598  0.4316 -1.0439 -0.7112
 9181SOL    HW239006   4.115   0.687   3.547 -0.3254  0.7227 -1.6545
 9182SOL     OW39007   4.093   2.551   0.092 -0.2502 -0.3804  0.2215
 9182SOL    HW139008   4.043   2.566   0.011 -1.8758  1.3176  1.5425
 9182SOL    HW239009   4.028   2.576   0.158  0.2255  1.6540 -0.0870
 9183SOL     OW39010   3.586   1.768  10.110 -0.2318  0.8929  0.4972
 9183SOL    HW139011   3.544   1.838  10.059  0.9310  2.8428  2.2636
 9183SOL    HW239012   3.519   1.705  10.082  0.3443  0.1801  0.7191
 9184SOL     OW39013   2.751   1.814   2.298 -0.2247 -0.6463 -0.1064
 9184SOL    HW139014   2.781   1.800   2.209  2.2341 -0.1950  0.6458
 9184SOL    HW239015   2.829   1.840   2.346  0.1521  0.1456 -1.1586
 9185SOL     OW39016   2.929   2.995  17.582 -0.4032  0.1116 -0.3685
 9185SOL    HW139017   2.968   3.081  17.601 -1.3350  0.8847 -1.9294
 9185SOL    HW239018   2.835   3.013  17.581 -0.4148  0.2065  1.5976
 9186SOL     OW39019   1.333   1.786   1.889 -0.2128 -0.0284 -0.1678
 9186SOL    HW139020   1.305   1.785   1.798  1.0166 -0.5618 -0.5407
 9186SOL    HW239021   1.304   1.700   1.921 -2.9310 -0.2116 -3.1225
 9187SOL     OW39022   2.393   0.906   9.732 -0.1076  0.6310 -0.2628
 9187SOL    HW139023   2.353   0.973   9.787 -1.5683  0.8585 -1.6061
 9187SOL    HW239024   2.460   0.955   9.684 -0.1600  0.1795 -0.8032
 9188SOL     OW39025   0.782   4.031   7.305  0.0354 -1.0675 -0.3594
 9188SOL    HW139026   0.831   3.948   7.304 -1.1129 -1.7143 -2.0506
 9188SOL    HW239027   0.714   4.017   7.239 -0.2792  0.1228 -0.2740
 9189SOL     OW39028   1.295   2.465   6.191 -0.1763 -0.2480 -0.1951
 9189SOL    HW139029   1.324   2.403   6.258 -0.2422 -1.1193 -0.9716
 9189SOL    HW239030   1.382   2.480   6.154  0.3327 -0.0311  1.0720
 9190SOL     OW39031   1.108   2.855   4.238 -0.2634 -0.2401  0.0179
 9190SOL    HW139032   1.040   2.793   4.263  1.1119 -2.3955 -1.5438
 9190SOL    HW239033   1.175   2.829   4.301 -0.2332 -2.4685 -0.9138
 9191SOL     OW39034   1.105   4.153   1.834 -0.1576  0.2941 -0.1711
 9191SOL    HW139035   1.122   4.072   1.786 -1.3834  0.2591 -0.5541
 9191SOL    HW239036   1.097   4.218   1.764  0.4739  0.5865  0.0313
 9192SOL     OW39037   0.611   3.319   4.560 -0.1882 -0.2613  0.0278
 9192SOL    HW139038   0.528   3.362   4.578 -0.8756 -1.0434 -1.3046
 9192SOL    HW239039   0.673   3.365   4.617 -1.2642 -0.0548  1.0203
 9193SOL     OW39040   1.980   2.892   9.169  0.6961 -0.1857 -0.0844
 9193SOL    HW139041   2.003   2.983   9.147 -0.1342  0.4623  1.6757
 9193SOL    HW239042   2.056   2.848   9.207 -0.1849  1.3146  3.4523
 9194SOL     OW39043   2.271   3.282   4.448 -0.0503  0.5534 -0.1029
 9194SOL    HW139044   2.184   3.264   4.483 -0.1395  0.2140 -0.4961
 9194SOL    HW239045   2.257   3.360   4.393 -2.6059  0.6124  0.6104
 9195SOL     OW39046   4.452   0.339  15.652  0.0972 -0.2096 -0.0647
 9195SOL    HW139047   4.485   0.298  15.572  2.1930  2.3347 -0.5212
 9195SOL    HW239048   4.522   0.312  15.711 -0.4154  0.0819  0.6826
 9196SOL     OW39049   1.154   0.763   5.192 -0.0445 -0.1540 -0.0420
 9196SOL    HW139050   1.068   0.745   5.154  1.0515 -0.7268 -2.2621
 9196SOL    HW239051   1.203   0.686   5.163 -0.8299 -1.3299  1.7066
 9197SOL     OW39052   1.099   3.382  16.182 -0.5323 -0.0252  0.3323
 9197SOL    HW139053   1.180   3.397  16.231  0.0221  2.7208 -1.4539
 9197SOL    HW239054   1.039   3.452  16.207  1.3542  1.0017  2.0371
 9198SOL     OW39055   3.459   3.026   9.500  0.6666 -0.2248 -0.0757
 9198SOL    HW139056   3.431   3.016   9.591 -0.7813 -1.3460 -0.6259
 9198SOL    HW239057   3.425   2.948   9.455 -0.7160  0.0694  0.4643
 9199SOL     OW39058   3.761   2.183  14.990  0.1072  0.0041  0.1043
 9199SOL    HW139059   3.707   2.104  14.985 -1.7869  1.3212  0.0838
 9199SOL    HW239060   3.809   2.173  14.907  0.3508 -2.3870  0.5320
 9200SOL     OW39061   1.478   3.249   9.714 -0.4005  0.7965  0.2805
 9200SOL    HW139062   1.445   3.164   9.741 -2.5301  0.7316 -2.5485
 9200SOL    HW239063   1.542   3.272   9.781 -0.9011  0.9747  0.6893
 9201SOL     OW39064   3.282   2.236   0.002  0.3965 -0.3581  0.2028
 9201SOL    HW139065   3.272   2.276   0.089  0.5219 -0.2896  0.1859
 9201SOL    HW239066   3.226   2.159   0.009 -1.6460  0.9573 -1.6013
 9202SOL     OW39067   2.807   4.083   4.899 -0.1391  0.1975  0.8568
 9202SOL    HW139068   2.754   4.123   4.830 -0.5861 -1.7407  0.0523
 9202SOL    HW239069   2.880   4.047   4.849 -0.2020  0.0592  0.8627
 9203SOL     OW39070   0.346   1.035  11.665 -0.0764 -0.1573 -0.6531
 9203SOL    HW139071   0.354   1.078  11.751 -1.5401  1.4471 -1.3269
 9203SOL    HW239072   0.299   0.957  11.695  2.5550  0.1631  4.3476
 9204SOL     OW39073   1.414   2.869   0.798 -0.5792  0.3469  0.5821
 9204SOL    HW139074   1.463   2.851   0.718 -1.0608 -1.0763  0.6040
 9204SOL    HW239075   1.487   2.876   0.861 -0.8506  0.4526  0.8877
 9205SOL     OW39076   2.450   1.048   7.225  0.3714 -0.0639 -0.0312
 9205SOL    HW139077   2.391   0.974   7.208 -0.6234  0.8866 -0.7614
 9205SOL    HW239078   2.532   1.013   7.259 -0.8799 -0.3821  2.6189
 9206SOL     OW39079   2.768   0.746   7.737 -0.2364  0.0281 -0.7346
 9206SOL    HW139080   2.801   0.682   7.800 -0.6235 -1.6417 -2.2347
 9206SOL    HW239081   2.725   0.808   7.796  1.5136 -0.7309  1.3586
 9207SOL     OW39082   0.486   0.538   5.714  0.4971  0.9008  0.0290
 9207SOL    HW139083   0.406   0.591   5.702 -1.1475 -0.9157  3.1069
 9207SOL    HW239084   0.447   0.454   5.689  2.0392  0.1324  0.2667
 9208SOL     OW39085   2.500   0.949   1.551  0.1913 -0.1880 -0.0800
 9208SOL    HW139086   2.426   0.892   1.569  0.3354 -0.5674 -0.7005
 9208SOL    HW239087   2.464   1.008   1.484 -0.0672  0.0874  0.2994
 9209SOL     OW39088   3.278   1.957   5.695 -0.1776  1.0868 -0.4573
 9209SOL    HW139089   3.202   1.933   5.642 -0.9974  1.0126  0.7632
 9209SOL    HW239090   3.290   2.050   5.679 -0.5750  1.2564  0.2522
 9210SOL     OW39091   0.597   2.611  15.431 -0.0547 -0.3228 -0.1764
 9210SOL    HW139092   0.690   2.635  15.427  0.1909 -1.4680 -1.3192
 9210SOL    HW239093   0.554   2.666  15.366  2.1107 -0.6348 -1.9074
 9211SOL     OW39094   4.522   4.647  15.207 -0.1216  0.1718  0.3500
 9211SOL    HW139095   4.479   4.561  15.217  1.6115 -0.5050  1.9166
 9211SOL    HW239096   4.602   4.631  15.258  1.2909 -0.3471 -2.0394
 9212SOL     OW39097   1.505   0.952   5.143 -0.6457 -0.1733  0.0515
 9212SOL    HW139098   1.517   0.867   5.101  1.7264  1.3952 -2.4525
 9212SOL    HW239099   1.495   1.007   5.065 -0.7898 -2.3036 -1.4454
 9213SOL     OW39100   0.013   0.327   5.765 -0.4761 -0.4796  0.2467
 9213SOL    HW139101   4.718   0.238   5.737 -1.6015 -0.2763  0.3861
 9213SOL    HW239102   4.670   0.371   5.714 -1.1237 -1.6149  0.1439
 9214SOL     OW39103   4.718   2.147  15.382 -0.3261 -0.2483  0.4519
 9214SOL    HW139104   4.632   2.186  15.399 -0.4962 -0.9713  1.2667
 9214SOL    HW239105   0.013   2.123  15.472 -1.1884 -1.6864  0.2485
 9215SOL     OW39106   1.162   0.496   9.630 -0.1767 -0.0005  0.2457
 9215SOL    HW139107   1.229   0.454   9.576  2.7158  2.7200  1.7299
 9215SOL    HW239108   1.122   0.416   9.663  0.5656 -0.4841 -0.0191
 9216SOL     OW39109   2.336   1.809   7.261 -0.4532 -0.0336  0.6025
 9216SOL    HW139110   2.284   1.814   7.181  1.0021  0.9956 -0.2775
 9216SOL    HW239111   2.394   1.734   7.248  0.7716  0.6986  1.9110
 9217SOL     OW39112   3.916   2.507  14.533  0.7135  0.0503 -0.5545
 9217SOL    HW139113   3.993   2.558  14.506  0.2391  1.1327  0.1845
 9217SOL    HW239114   3.945   2.492  14.623  1.1788 -1.2324 -0.9117
 9218SOL     OW39115   2.449   2.371   4.026 -0.4695 -0.0133 -0.2259
 9218SOL    HW139116   2.483   2.315   4.096 -1.5091  1.7297  1.6854
 9218SOL    HW239117   2.379   2.416   4.072 -0.2452  0.4289 -0.3237
 9219SOL     OW39118   2.558   2.452  11.918 -0.6351  0.0514 -0.2510
 9219SOL    HW139119   2.577   2.362  11.894 -0.0930  0.3101 -0.7978
 9219SOL    HW239120   2.637   2.499  11.891 -1.2224  2.2024  1.7398
 9220SOL     OW39121   1.705   1.493  14.916  0.4931 -0.2524 -0.3650
 9220SOL    HW139122   1.659   1.536  14.844 -0.3386  0.2825  0.4940
 9220SOL    HW239123   1.731   1.561  14.978 -0.3910  0.5613 -0.8842
 9221SOL     OW39124   2.222   4.664   7.693 -0.4312  0.1858 -0.1198
 9221SOL    HW139125   2.285   4.597   7.669  0.9850  2.5204 -3.0506
 9221SOL    HW239126   2.151   4.618   7.737  0.7456 -3.0008 -1.5725
 9222SOL     OW39127   1.356   1.030   4.218 -0.9913  0.0608 -0.1731
 9222SOL    HW139128   1.431   1.088   4.222 -1.5057  0.9623 -2.9677
 9222SOL    HW239129   1.400   0.945   4.220  0.1735  0.6579 -0.3103
 9223SOL     OW39130   3.418   4.083  13.303 -0.2126 -0.1259  0.8126
 9223SOL    HW139131   3.464   4.136  13.368 -0.4182 -2.0833  2.5478
 9223SOL    HW239132   3.424   3.992  13.332 -2.1203 -0.4153  0.3326
 9224SOL     OW39133   2.226   2.960  12.221 -0.8040 -0.2801 -0.5125
 9224SOL    HW139134   2.158   3.019  12.252 -0.7721 -0.3970 -0.2219
 9224SOL    HW239135   2.196   2.880  12.265 -0.9686 -0.3051 -0.6675
 9225SOL     OW39136   0.148   0.163   6.819 -0.5692  0.1201 -0.0055
 9225SOL    HW139137   0.068   0.197   6.779  0.4996 -0.5001 -2.6464
 9225SOL    HW239138   0.207   0.158   6.744  0.8017 -0.1310  1.0877
 9226SOL     OW39139   3.554   1.836   9.093 -0.0800  0.2448  0.3843
 9226SOL    HW139140   3.621   1.777   9.127  0.3091  0.0161 -0.7569
 9226SOL    HW239141   3.497   1.846   9.168 -1.2358 -2.2964 -0.1796
 9227SOL     OW39142   0.229   2.102   6.128 -0.2196  0.1647 -0.4908
 9227SOL    HW139143   0.317   2.140   6.125 -0.4049  0.5750 -0.7025
 9227SOL    HW239144   0.235   2.083   6.221 -1.2692  2.3126  0.0247
 9228SOL     OW39145   2.567   1.298   3.184 -0.6711  1.0720 -0.0804
 9228SOL    HW139146   2.484   1.273   3.146  0.2131 -0.6723 -0.8561
 9228SOL    HW239147   2.611   1.342   3.111  0.1826  0.8150  0.2749
 9229SOL     OW39148   2.274   2.134  11.347 -0.6237  0.2448  0.6401
 9229SOL    HW139149   2.312   2.062  11.295 -1.0824  0.6764 -0.2972
 9229SOL    HW239150   2.314   2.123  11.433 -0.6490 -1.6327  0.4224
 9230SOL     OW39151   0.167   0.983   7.230 -0.1880 -0.4623 -0.1417
 9230SOL    HW139152   0.140   1.052   7.290  0.1922  0.9888 -1.6403
 9230SOL    HW239153   0.139   1.033   7.153  1.0724 -0.7695 -0.7931
 9231SOL     OW39154   3.986   1.979  15.470 -0.3040 -0.0012 -0.0254
 9231SOL    HW139155   4.041   1.939  15.402 -1.3610  0.6044 -1.2335
 9231SOL    HW239156   4.051   2.018  15.528 -3.7064  1.2802  2.8937
 9232SOL     OW39157   1.056   1.743   8.581  0.1056  0.1320 -0.5974
 9232SOL    HW139158   1.113   1.676   8.618 -2.9178 -0.8490  2.2401
 9232SOL    HW239159   0.976   1.714   8.625  0.3288 -0.9764 -0.9426
 9233SOL     OW39160   4.546   0.201   4.924  0.0993  0.1501  0.1745
 9233SOL    HW139161   4.583   0.289   4.920  1.4718 -0.2965  3.1632
 9233SOL    HW239162   4.578   0.182   5.012  0.8122  1.1480  0.1327
 9234SOL     OW39163   4.614   2.840   8.859  0.0285  0.7024  0.1234
 9234SOL    HW139164   4.552   2.822   8.789 -0.7702 -0.5265  1.1530
 9234SOL    HW239165   4.659   2.755   8.861  0.5490  1.0074  1.5937
 9235SOL     OW39166   2.935   3.831   3.066 -0.1753  0.2820 -0.2752
 9235SOL    HW139167   2.890   3.771   3.005  1.0560  1.3862 -2.2792
 9235SOL    HW239168   2.920   3.791   3.151  2.2705 -1.5683 -0.7103
 9236SOL     OW39169   4.249   4.075   4.023  0.4638 -0.0278 -0.5355
 9236SOL    HW139170   4.273   4.029   4.103  0.0437 -0.6813 -0.7847
 9236SOL    HW239171   4.272   4.004   3.963  0.9356  0.5691 -1.0673
 9237SOL     OW39172   0.896   0.218   9.079 -0.2609  0.7924 -0.9341
 9237SOL    HW139173   0.849   0.299   9.062  2.1925  1.9762 -2.0371
 9237SOL    HW239174   0.864   0.207   9.169 -0.6037 -0.6200 -1.2282
 9238SOL     OW39175   2.243   3.297  11.210 -0.0553  0.3733 -0.4077
 9238SOL    HW139176   2.267   3.345  11.289 -1.2500 -2.0086  1.4091
 9238SOL    HW239177   2.153   3.327  11.211 -0.8570 -2.0377  1.3008
 9239SOL     OW39178   3.793   0.939   9.326 -0.6016  0.5242 -0.3109
 9239SOL    HW139179   3.773   1.032   9.338  0.5626  0.5821  1.1538
 9239SOL    HW239180   3.853   0.949   9.253 -0.3109  0.5216 -0.0700
 9240SOL     OW39181   4.683   3.909   9.815 -0.3286 -0.5627  0.7525
 9240SOL    HW139182   4.624   3.983   9.799 -0.2935  0.1218  3.7789
 9240SOL    HW239183   4.650   3.850   9.748 -0.4385  0.6850 -0.2989
 9241SOL     OW39184   0.084   4.055   5.878  0.4298 -0.3723 -0.3656
 9241SOL    HW139185   0.026   4.100   5.939 -1.2280 -1.8045 -0.8691
 9241SOL    HW239186   0.165   4.104   5.883 -0.3288  0.8250  0.0682
 9242SOL     OW39187   1.518   1.244   2.194  0.3592  0.1277  0.4620
 9242SOL    HW139188   1.564   1.310   2.246  1.1225  0.3085 -0.4535
 9242SOL    HW239189   1.455   1.212   2.258  0.0569 -0.8728 -0.3297
 9243SOL     OW39190   3.848   2.235   7.825 -0.2644 -0.0317 -0.0090
 9243SOL    HW139191   3.907   2.309   7.842  1.0238 -1.1628  0.3820
 9243SOL    HW239192   3.896   2.195   7.753 -0.7893  1.6007 -1.2806
 9244SOL     OW39193   3.615   2.436   6.789  0.1114 -0.1621  0.1514
 9244SOL    HW139194   3.588   2.399   6.873 -1.5484  0.2923 -0.1807
 9244SOL    HW239195   3.710   2.428   6.790  0.0185 -1.1463  0.5836
 9245SOL     OW39196   3.522   1.802  10.616 -0.2237  0.1918 -0.5718
 9245SOL    HW139197   3.468   1.727  10.593  1.9048 -1.6194  0.2650
 9245SOL    HW239198   3.529   1.846  10.531  0.2536  0.2151 -0.5215
 9246SOL     OW39199   0.951   1.648   5.911 -0.4276  0.6449  0.1133
 9246SOL    HW139200   0.917   1.559   5.907 -1.9513  1.2794 -0.9044
 9246SOL    HW239201   0.950   1.666   6.005  0.1917  3.4668 -0.4054
 9247SOL     OW39202   0.299   4.050   5.611  0.0805 -0.1093  0.7300
 9247SOL    HW139203   0.225   3.991   5.628  0.8380 -1.2099  0.2123
 9247SOL    HW239204   0.297   4.072   5.517 -0.6796  2.6864  1.3922
 9248SOL     OW39205   4.683   0.741   4.818  0.0373  0.1431  0.4230
 9248SOL    HW139206   4.709   0.815   4.763 -1.2335 -0.1286 -0.5282
 9248SOL    HW239207   4.664   0.669   4.758 -1.5093  1.7547 -1.0222
 9249SOL     OW39208   1.098   3.192   5.101  0.2406 -0.3350 -0.3518
 9249SOL    HW139209   1.089   3.244   5.022  1.4512 -1.4970 -1.2641
 9249SOL    HW239210   1.102   3.103   5.065 -0.4131 -0.6755  0.4145
 9250SOL     OW39211   2.791   2.516   7.286 -0.3288  0.0083  0.0904
 9250SOL    HW139212   2.742   2.453   7.338  1.6263 -1.1265  0.5527
 9250SOL    HW239213   2.767   2.606   7.309  0.9413 -0.1071  1.8650
 9251SOL     OW39214   4.213   2.346   1.847 -0.1516 -0.3883  0.3460
 9251SOL    HW139215   4.279   2.320   1.910  1.9205 -0.3714 -1.8239
 9251SOL    HW239216   4.205   2.436   1.880  1.8731 -0.1181  0.0734
 9252SOL     OW39217   2.284   0.689   3.280 -0.0143  0.1732 -0.0743
 9252SOL    HW139218   2.307   0.606   3.239  2.2302  0.9618 -0.3892
 9252SOL    HW239219   2.252   0.724   3.197  2.6175 -0.6472 -1.4315
 9253SOL     OW39220   4.536   3.217   6.306  0.3774 -0.1910  0.5340
 9253SOL    HW139221   4.491   3.298   6.283 -0.0986 -0.5666  0.1106
 9253SOL    HW239222   4.474   3.200   6.377  0.2719  0.2395  0.5407
 9254SOL     OW39223   0.789   1.292   7.050 -0.2134  0.0619  0.3416
 9254SOL    HW139224   0.881   1.306   7.072 -0.7643  3.6273  0.4164
 9254SOL    HW239225   0.786   1.302   6.955 -1.3261  0.1024  0.3813
 9255SOL     OW39226   1.349   2.621   5.816 -0.3905  0.0749  0.4137
 9255SOL    HW139227   1.403   2.598   5.891  0.8591  1.2779 -0.1360
 9255SOL    HW239228   1.319   2.535   5.787  0.8106 -0.5736  1.1158
 9256SOL     OW39229   2.636   4.411   9.928 -0.1671 -0.2905 -0.0159
 9256SOL    HW139230   2.690   4.487   9.953  0.5348 -0.9943  0.5964
 9256SOL    HW239231   2.695   4.377   9.861  0.6605 -0.5768  0.8555
 9257SOL     OW39232   0.455   0.623   3.743 -0.2943 -0.0857  0.8218
 9257SOL    HW139233   0.492   0.566   3.810  1.6954  0.5534  0.2481
 9257SOL    HW239234   0.538   0.650   3.704 -0.5702 -1.7370 -0.9157
 9258SOL     OW39235   0.868   1.937   4.467  0.1886  0.3214  0.6444
 9258SOL    HW139236   0.897   1.846   4.455 -3.2403 -0.8485  1.2333
 9258SOL    HW239237   0.893   1.951   4.558 -2.8099 -2.5329  1.9218
 9259SOL     OW39238   3.189   3.293   5.270  0.0281 -0.5676  0.1383
 9259SOL    HW139239   3.120   3.291   5.337  1.6248 -1.8724  1.7260
 9259SOL    HW239240   3.166   3.364   5.210 -1.9445 -2.2073 -1.0513
 9260SOL     OW39241   3.648   2.752  11.680 -0.4142  0.4627  0.0251
 9260SOL    HW139242   3.715   2.793  11.626 -0.1460 -0.0468 -0.0262
 9260SOL    HW239243   3.671   2.782  11.768  0.6098  2.4122 -0.8952
 9261SOL     OW39244   0.033   0.865   6.414  0.2252  0.2444  0.2184
 9261SOL    HW139245   0.056   0.817   6.334 -1.0337 -2.5474  1.5532
 9261SOL    HW239246   0.008   0.794   6.473 -2.5927 -0.9388 -2.3909
 9262SOL     OW39247   3.602   3.797   8.315  0.1392 -0.2776  0.3443
 9262SOL    HW139248   3.693   3.814   8.338  0.2094  1.2358 -0.9901
 9262SOL    HW239249   3.569   3.822   8.401  0.0030  1.5664 -0.2346
 9263SOL     OW39250   4.602   4.120   9.489  0.0521 -0.4751 -0.2356
 9263SOL    HW139251   4.569   4.165   9.411  0.8262 -0.1488 -0.3841
 9263SOL    HW239252   4.692   4.106   9.459  0.3008 -1.3726  0.9194
 9264SOL     OW39253   3.772   1.664   0.775 -0.1156  0.1448  0.3097
 9264SOL    HW139254   3.697   1.717   0.749 -0.1697  0.1898  0.5555
 9264SOL    HW239255   3.804   1.691   0.861  1.5927  0.1292 -0.3246
 9265SOL     OW39256   2.077   0.688   8.218 -0.0440 -0.4220  0.5697
 9265SOL    HW139257   2.055   0.605   8.261 -2.5713 -0.6829 -1.2510
 9265SOL    HW239258   2.079   0.745   8.295  0.6640  2.1844 -1.3719
 9266SOL     OW39259   0.052   3.773   0.420  0.2763  0.4303 -0.0506
 9266SOL    HW139260   0.009   3.732   0.494 -1.1578  1.8207 -0.1059
 9266SOL    HW239261   0.147   3.776   0.431  0.4076  0.5473 -1.1486
 9267SOL     OW39262   3.040   2.351   0.530  0.6116  0.3312  0.1292
 9267SOL    HW139263   3.041   2.346   0.435 -0.2602  2.8534 -0.0184
 9267SOL    HW239264   3.078   2.438   0.546 -0.5401  0.5061  2.0080
 9268SOL     OW39265   1.092   3.166   1.295 -0.3024 -0.3773  0.3111
 9268SOL    HW139266   1.160   3.226   1.328  0.8789 -2.0340  0.8608
 9268SOL    HW239267   1.032   3.223   1.246 -1.8297 -2.6449 -0.4194
 9269SOL     OW39268   0.839   0.985   7.777  0.0716 -0.7196  0.0187
 9269SOL    HW139269   0.882   1.071   7.772  1.0543 -1.0273  2.9769
 9269SOL    HW239270   0.895   0.926   7.728 -1.4065 -2.1374  0.0463
 9270SOL     OW39271   2.720   4.201   1.636 -0.0453 -0.0878 -0.7046
 9270SOL    HW139272   2.695   4.191   1.544 -0.3121  0.1578 -0.6594
 9270SOL    HW239273   2.775   4.279   1.641  2.0033 -1.5241 -0.8315
 9271SOL     OW39274   4.651   1.622  10.862  0.3895  0.0133  0.4656
 9271SOL    HW139275   4.633   1.531  10.886 -1.9958  0.6119  0.9645
 9271SOL    HW239276   4.560   1.645  10.844 -0.0400 -2.2965 -0.3326
 9272SOL     OW39277   3.208   1.000   5.386 -0.0718 -0.0641 -0.1676
 9272SOL    HW139278   3.171   1.081   5.420  1.7472  1.6853 -2.4505
 9272SOL    HW239279   3.203   0.996   5.291  0.5915  0.0118 -0.2060
 9273SOL     OW39280   3.100   1.438  10.363 -0.4313  0.1882  0.4764
 9273SOL    HW139281   3.120   1.345  10.364 -1.6039 -0.0576  0.2768
 9273SOL    HW239282   3.116   1.461  10.272  1.7916 -0.4036  0.7143
 9274SOL     OW39283   3.847   2.557   7.581  0.2058  0.2850  0.4110
 9274SOL    HW139284   3.826   2.650   7.568 -0.9392 -0.0415 -0.0908
 9274SOL    HW239285   3.902   2.567   7.659 -1.8275  1.7314  1.6670
 9275SOL     OW39286   0.981   1.597   2.622 -0.0685 -0.1382 -0.6445
 9275SOL    HW139287   0.942   1.549   2.696  1.4085  2.3358  1.7707
 9275SOL    HW239288   1.050   1.535   2.599  1.3107  1.5511 -0.9573
 9276SOL     OW39289   0.386   4.691   9.274  0.3171  0.7290  0.2923
 9276SOL    HW139290   0.305   4.721   9.315  0.1162  4.1910 -2.6202
 9276SOL    HW239291   0.415   0.052   9.240  0.9432  0.3595 -0.1089
 9277SOL     OW39292   4.157   1.750  17.651  0.3144  0.9061 -0.5212
 9277SOL    HW139293   4.137   1.779  17.562  0.1409  0.1942 -0.7094
 9277SOL    HW239294   4.072   1.779  17.686 -0.1977 -1.5689  0.2475
 9278SOL     OW39295   2.256   1.870  10.948  0.3080  0.1888 -0.8397
 9278SOL    HW139296   2.178   1.864  10.892 -1.2449  1.2115  1.2186
 9278SOL    HW239297   2.328   1.842  10.891  1.2359  1.6919 -0.3898
 9279SOL     OW39298   1.909   4.489   5.380  0.6496  0.0261  0.0685
 9279SOL    HW139299   1.893   4.540   5.460 -0.4792 -2.5290  1.4540
 9279SOL    HW239300   1.827   4.489   5.331 -0.3155  0.5507  1.7045
 9280SOL     OW39301   3.170   3.468   8.631 -0.0246  0.0979 -0.5475
 9280SOL    HW139302   3.136   3.557   8.621 -1.1281 -0.3347 -0.7314
 9280SOL    HW239303   3.255   3.479   8.674 -0.7466 -0.0778  0.9164
 9281SOL     OW39304   2.528   0.816   8.597  0.1209 -0.5669  0.1385
 9281SOL    HW139305   2.513   0.910   8.585  1.4346 -0.2518  0.9291
 9281SOL    HW239306   2.456   0.792   8.655  2.2159 -1.9114  2.1584
 9282SOL     OW39307   1.467   1.025   2.691  0.1186  0.6467 -0.9387
 9282SOL    HW139308   1.525   1.073   2.749 -0.5091  1.9941 -1.4298
 9282SOL    HW239309   1.533   0.989   2.632  0.8514 -0.6827  0.6889
 9283SOL     OW39310   2.937   1.422   7.880 -0.2006 -0.0204  0.6234
 9283SOL    HW139311   3.004   1.358   7.856  0.8584  1.9070 -1.4426
 9283SOL    HW239312   2.935   1.485   7.809  1.7437 -1.2902 -0.5621
 9284SOL     OW39313   2.508   3.465  16.220 -0.2789 -0.4473 -0.2332
 9284SOL    HW139314   2.570   3.400  16.187  0.8870  0.1599  0.7996
 9284SOL    HW239315   2.423   3.427  16.194 -0.8065 -0.6131  1.7718
 9285SOL     OW39316   0.842   4.644   3.604 -0.3912 -0.3361  0.2121
 9285SOL    HW139317   0.832   4.667   3.696 -0.0422 -1.5473  0.5520
 9285SOL    HW239318   0.802   4.557   3.596 -0.0543 -0.4162 -0.5855
 9286SOL     OW39319   1.849   0.710   2.465  0.1293  0.1973  0.1417
 9286SOL    HW139320   1.775   0.685   2.411 -0.2717 -0.3716  0.9631
 9286SOL    HW239321   1.850   0.635   2.524  1.1828  0.2259  0.1661
 9287SOL     OW39322   0.415   2.620  17.558  0.0558 -0.1700  0.3750
 9287SOL    HW139323   0.401   2.573  17.640  1.9774  0.1563  0.8806
 9287SOL    HW239324   0.508   2.641  17.562  0.0895 -0.5476  1.5376
 9288SOL     OW39325   3.617   1.990   1.166 -0.5748 -0.0463  0.1387
 9288SOL    HW139326   3.705   1.953   1.163 -0.1116  1.1802 -1.3757
 9288SOL    HW239327   3.634   2.079   1.136  1.1267 -0.2300  0.5594
 9289SOL     OW39328   3.980   0.824   2.418 -0.4971  0.3234 -0.1328
 9289SOL    HW139329   3.946   0.735   2.428 -0.2474  0.1168 -1.1183
 9289SOL    HW239330   3.952   0.868   2.498 -0.3005 -1.1630  0.7644
 9290SOL     OW39331   4.436   0.143  14.426  0.6265  0.4281 -0.3543
 9290SOL    HW139332   4.454   0.237  14.423 -0.3005  0.6521  1.2811
 9290SOL    HW239333   4.456   0.112  14.515 -0.7624 -1.1400 -0.5861
 9291SOL     OW39334   2.974   2.174   1.184 -0.1615 -0.8762 -0.3769
 9291SOL    HW139335   2.914   2.201   1.254  0.2563 -1.8684  0.3660
 9291SOL    HW239336   3.045   2.155   1.246 -0.4814  0.7307  0.4867
 9292SOL     OW39337   2.279   0.908  13.007 -0.2557  0.3927  0.0765
 9292SOL    HW139338   2.339   0.836  13.024  1.2784  1.8897  1.0472
 9292SOL    HW239339   2.216   0.885  13.075 -0.8338  1.0770 -0.2141
 9293SOL     OW39340   2.602   2.292   4.683  0.1648 -0.1393  0.1277
 9293SOL    HW139341   2.585   2.383   4.704 -0.9187 -0.1135 -0.8887
 9293SOL    HW239342   2.670   2.269   4.747 -0.4293 -0.2440  0.7161
 9294SOL     OW39343   2.888   3.811   7.931  0.2215  1.0632 -0.0738
 9294SOL    HW139344   2.906   3.851   8.016  2.0719  1.0060 -0.4422
 9294SOL    HW239345   2.851   3.727   7.960  1.0076  0.9245  0.5401
 9295SOL     OW39346   2.722   2.922  16.729 -0.4823 -0.6942 -0.2944
 9295SOL    HW139347   2.634   2.925  16.692 -0.6066  1.4714  0.1371
 9295SOL    HW239348   2.708   2.838  16.773  0.1559 -1.5531 -1.7310
 9296SOL     OW39349   2.344   4.335  16.662 -0.7121  0.3478 -0.7699
 9296SOL    HW139350   2.336   4.406  16.726  3.3702  1.5011 -1.5608
 9296SOL    HW239351   2.353   4.392  16.586  1.3201  0.0223 -0.7550
 9297SOL     OW39352   1.198   3.846   6.356  0.7720  0.0458 -0.0990
 9297SOL    HW139353   1.154   3.854   6.440  2.1396 -2.9043  0.8981
 9297SOL    HW239354   1.141   3.787   6.306 -0.5535  0.3771  1.0276
 9298SOL     OW39355   0.764   4.096   8.061  0.3635  0.4736  0.7980
 9298SOL    HW139356   0.853   4.124   8.083  0.2676  0.1803  1.5638
 9298SOL    HW239357   0.742   4.170   8.004  0.4367  0.8191  1.2088
 9299SOL     OW39358   0.096   3.608   4.750  0.2739  0.4174 -0.4764
 9299SOL    HW139359   0.146   3.687   4.726  0.4202  0.4853  0.0536
 9299SOL    HW239360   0.063   3.588   4.663  1.4264  1.8146 -1.2465
 9300SOL     OW39361   0.062   4.323   3.890  0.4702 -0.1764 -0.1427
 9300SOL    HW139362   0.085   4.403   3.939 -0.1467  0.1420 -0.3824
 9300SOL    HW239363   0.007   4.364   3.824  1.0613 -1.8356 -1.6414
 9301SOL     OW39364   2.430   1.337   3.863  0.2818 -0.1872  0.3977
 9301SOL    HW139365   2.367   1.383   3.918  0.6248  1.1016 -0.2726
 9301SOL    HW239366   2.387   1.255   3.839  0.9860 -0.6620  0.7758
 9302SOL     OW39367   2.103   3.196   4.756  0.0732 -0.0095  0.0161
 9302SOL    HW139368   2.016   3.232   4.740 -0.4884 -0.3138  2.3746
 9302SOL    HW239369   2.158   3.267   4.787  0.3171  0.2740 -1.0992
 9303SOL     OW39370   2.779   3.609   2.400 -0.3106 -0.0779 -0.0985
 9303SOL    HW139371   2.721   3.547   2.356 -0.3643 -0.7486  0.9447
 9303SOL    HW239372   2.832   3.550   2.454 -0.9052 -0.3096  0.2270
 9304SOL     OW39373   2.141   4.388  15.372  0.3042 -0.3920 -0.0210
 9304SOL    HW139374   2.091   4.400  15.453  0.2922 -0.3184 -0.0394
 9304SOL    HW239375   2.134   4.477  15.337  0.6063 -0.9681 -1.5135
 9305SOL     OW39376   2.708   4.106  17.139  0.6874  0.4212 -0.2018
 9305SOL    HW139377   2.780   4.120  17.201 -1.6195  1.3799  2.2509
 9305SOL    HW239378   2.638   4.162  17.175 -0.0321 -0.1503 -0.7246
 9306SOL     OW39379   4.430   3.121   3.968  0.0800  0.3355 -0.0676
 9306SOL    HW139380   4.474   3.116   3.884  0.3956 -0.4921  0.1420
 9306SOL    HW239381   4.336   3.112   3.950  0.0196 -1.1177  0.9864
 9307SOL     OW39382   4.279   0.201   5.699 -0.0334 -0.0766 -0.0442
 9307SOL    HW139383   4.270   0.120   5.649 -0.6112 -0.4543  0.6747
 9307SOL    HW239384   4.199   0.193   5.751  1.0409  0.5077  1.6799
 9308SOL     OW39385   0.272   2.306   2.364 -0.4235 -0.4001  0.3551
 9308SOL    HW139386   0.303   2.345   2.446  1.5050 -0.4804 -0.3363
 9308SOL    HW239387   0.290   2.380   2.306  3.6332 -0.0957  2.0305
 9309SOL     OW39388   0.952   1.472   8.740 -0.1561 -0.0339  0.3765
 9309SOL    HW139389   0.950   1.417   8.819 -1.6776  1.6056  1.4729
 9309SOL    HW239390   0.938   1.559   8.778  2.9655  0.0951  1.2725
 9310SOL     OW39391   1.357   1.719   7.912 -0.1484 -0.0628 -0.3712
 9310SOL    HW139392   1.339   1.683   7.999  3.3084 -2.5681 -0.6916
 9310SOL    HW239393   1.290   1.672   7.862  0.1949  0.2511 -1.1136
 9311SOL     OW39394   3.341   3.128   5.060  0.3167  0.0226  0.1575
 9311SOL    HW139395   3.371   3.053   5.112  0.4607  0.2909  0.4671
 9311SOL    HW239396   3.304   3.186   5.127 -0.4086 -0.4069  0.1309
 9312SOL     OW39397   3.775   0.466   5.312 -0.3337  0.7099 -0.3494
 9312SOL    HW139398   3.836   0.417   5.366 -0.2327  0.5813 -0.5782
 9312SOL    HW239399   3.752   0.537   5.372  1.3336  0.0231  1.1016
 9313SOL     OW39400   0.126   2.362   8.555  0.3765 -0.0463 -0.7016
 9313SOL    HW139401   0.098   2.276   8.587  3.8004  0.8744  4.6780
 9313SOL    HW239402   0.085   2.368   8.468 -0.9524 -2.0501 -0.2262
 9314SOL     OW39403   1.076   3.263   9.821  0.3795 -0.2569 -0.4804
 9314SOL    HW139404   0.996   3.244   9.869 -0.2900 -0.5047 -1.7064
 9314SOL    HW239405   1.062   3.194   9.756 -3.1867  1.9733 -2.0351
 9315SOL     OW39406   2.472   4.520   1.694 -0.5172  0.3805 -0.5956
 9315SOL    HW139407   2.536   4.588   1.671 -1.1834  1.2195 -0.0005
 9315SOL    HW239408   2.468   4.467   1.615 -1.6792  2.3043 -1.8322
 9316SOL     OW39409   1.041   3.273   9.133 -0.1410  0.3169  0.3747
 9316SOL    HW139410   1.033   3.277   9.038 -0.5488  1.1985  0.4471
 9316SOL    HW239411   1.105   3.204   9.152  0.6372  0.9033 -0.0684
 9317SOL     OW39412   0.884   2.132   6.668 -0.1585 -0.1753 -0.4350
 9317SOL    HW139413   0.797   2.092   6.665  1.0616 -2.9001  0.2934
 9317SOL    HW239414   0.862   2.211   6.716 -0.2950 -0.6515  0.2951
 9318SOL     OW39415   3.352   0.608   5.543 -0.0271 -0.0696  0.4587
 9318SOL    HW139416   3.258   0.597   5.528  0.1817  0.8103 -1.4710
 9318SOL    HW239417   3.351   0.637   5.634 -1.8176  2.8758 -0.4910
 9319SOL     OW39418   0.251   4.574   3.563 -0.0286  0.0437 -0.4482
 9319SOL    HW139419   0.253   4.494   3.616  2.4851  1.2041  1.1803
 9319SOL    HW239420   0.159   4.590   3.541  0.4629  2.2238 -0.8202
 9320SOL     OW39421   0.892   3.059   7.602  0.0756  0.0826  0.0836
 9320SOL    HW139422   0.833   3.127   7.634 -0.2948 -0.2260  0.0557
 9320SOL    HW239423   0.976   3.101   7.619  0.5062  0.3236 -2.5962
 9321SOL     OW39424   0.414   4.472   7.505 -0.0591  0.4641 -0.4015
 9321SOL    HW139425   0.335   4.458   7.453  2.1529 -2.0581 -3.0825
 9321SOL    HW239426   0.402   4.397   7.564 -1.8313  0.2368 -1.0716
 9322SOL     OW39427   3.288   2.604   2.166 -0.4329 -0.2390 -0.1346
 9322SOL    HW139428   3.383   2.606   2.177 -0.4916 -0.2262  0.3822
 9322SOL    HW239429   3.262   2.681   2.216  0.3488 -0.1446  0.1200
 9323SOL     OW39430   4.526   2.171   7.780 -0.0239 -0.2940  0.3522
 9323SOL    HW139431   4.492   2.236   7.843  1.2402 -0.6510  1.3996
 9323SOL    HW239432   4.456   2.106   7.779 -2.1661  2.0079 -0.4757
 9324SOL     OW39433   3.084   1.418   7.261  0.4050  0.0018  0.0822
 9324SOL    HW139434   3.144   1.465   7.319  0.9499 -2.1717  1.2772
 9324SOL    HW239435   3.037   1.491   7.221 -1.3343 -1.3597 -0.3523
 9325SOL     OW39436   0.578   1.243   0.713 -0.0230 -0.2550 -0.2578
 9325SOL    HW139437   0.489   1.237   0.750  0.7830  1.2785  1.9563
 9325SOL    HW239438   0.580   1.163   0.662 -2.4361 -0.8358  0.5298
 9326SOL     OW39439   3.816   0.034   2.934 -0.2874  0.1910 -0.7849
 9326SOL    HW139440   3.864   0.116   2.944 -1.8163  0.9974 -0.1678
 9326SOL    HW239441   3.825   0.010   3.026  1.1450  2.7008 -0.2924
 9327SOL     OW39442   3.514   0.198   5.616  0.1996  0.4522 -0.7136
 9327SOL    HW139443   3.471   0.245   5.545 -1.0418 -0.5780 -0.6501
 9327SOL    HW239444   3.442   0.185   5.678 -0.3743  1.8137 -1.1050
 9328SOL     OW39445   2.558   3.871  16.111  0.6933  0.0318  0.0907
 9328SOL    HW139446   2.551   3.825  16.195  0.0445 -0.1642 -0.0664
 9328SOL    HW239447   2.471   3.856  16.073  0.3754  0.5034  0.6418
 9329SOL     OW39448   3.373   2.170   1.207 -0.5259  0.3823 -0.3295
 9329SOL    HW139449   3.462   2.142   1.189 -0.0334  1.4702  0.4029
 9329SOL    HW239450   3.360   2.174   1.302 -0.0760  2.1129 -0.3445
 9330SOL     OW39451   1.609   3.159   8.185  0.1480 -0.0086 -0.1427
 9330SOL    HW139452   1.562   3.152   8.102  1.8803 -3.2401 -0.8399
 9330SOL    HW239453   1.688   3.111   8.161  0.3477 -0.4867  1.4581
 9331SOL     OW39454   0.855   2.773   6.832  0.0760  0.0750 -0.3895
 9331SOL    HW139455   0.879   2.737   6.918 -0.1360  1.1813  0.1270
 9331SOL    HW239456   0.940   2.765   6.789 -0.0819  1.6481 -0.9872
 9332SOL     OW39457   1.183   2.844   3.972  0.3330 -0.3111 -0.1382
 9332SOL    HW139458   1.185   2.756   4.011 -1.8857 -0.5382 -0.5222
 9332SOL    HW239459   1.196   2.814   3.882  0.7894  0.8754 -0.4616
 9333SOL     OW39460   0.753   3.525   6.280  0.0923  0.1685  0.6348
 9333SOL    HW139461   0.692   3.519   6.206 -0.8601 -2.0004  1.6045
 9333SOL    HW239462   0.732   3.440   6.317  1.2374 -1.3581 -2.2019
 9334SOL     OW39463   3.177   2.519   3.690  0.4521  0.0582 -0.3907
 9334SOL    HW139464   3.221   2.590   3.737  0.6628 -0.0293 -0.4580
 9334SOL    HW239465   3.133   2.483   3.767  1.5359  0.6417  0.4965
 9335SOL     OW39466   4.140   3.191   4.354  0.0908 -0.7210 -0.0206
 9335SOL    HW139467   4.227   3.202   4.392  0.9353  0.7924 -2.4412
 9335SOL    HW239468   4.114   3.105   4.388  1.5960 -0.6335  1.3755
 9336SOL     OW39469   1.944   0.994   0.441 -0.8042 -0.0689 -0.2431
 9336SOL    HW139470   1.896   1.071   0.410  0.6646  0.3358 -1.5245
 9336SOL    HW239471   2.002   1.044   0.499  0.3178 -1.4986 -0.1267
 9337SOL     OW39472   1.679   4.404   7.163  0.3319  0.0767  0.7703
 9337SOL    HW139473   1.720   4.390   7.248  0.7836  0.7582  0.6610
 9337SOL    HW239474   1.753   4.434   7.111  0.6076 -2.3044 -0.1785
 9338SOL     OW39475   1.157   4.094  13.202  0.4975 -0.2624 -0.2549
 9338SOL    HW139476   1.068   4.111  13.173  1.4459  1.2181 -2.3759
 9338SOL    HW239477   1.160   4.000  13.189  0.1223 -0.2127 -0.6948
 9339SOL     OW39478   1.160   0.303   1.357  0.2375  0.5560  0.1150
 9339SOL    HW139479   1.174   0.223   1.408 -0.3097 -0.3371 -1.1325
 9339SOL    HW239480   1.241   0.306   1.307  2.0661 -1.8414  2.9492
 9340SOL     OW39481   0.946   2.333  16.555 -0.3084 -0.1133  0.3653
 9340SOL    HW139482   1.025   2.307  16.507  2.3827  2.0583  3.5624
 9340SOL    HW239483   0.980   2.302  16.640 -1.9760 -1.7791  0.4167
 9341SOL     OW39484   4.529   1.702   4.453 -0.1388  0.0972  0.5003
 9341SOL    HW139485   4.556   1.793   4.448  2.1135 -0.6678 -1.0121
 9341SOL    HW239486   4.439   1.699   4.419  0.5952 -0.7772 -1.3500
 9342SOL     OW39487   1.658   4.574   0.604  0.1092 -0.0948 -0.1286
 9342SOL    HW139488   1.599   4.515   0.558  0.1930 -0.2028 -0.0985
 9342SOL    HW239489   1.625   4.660   0.581 -0.8697  0.0765  1.8602
 9343SOL     OW39490   2.773   2.067   6.963 -0.2010 -0.5511 -0.4891
 9343SOL    HW139491   2.723   2.064   7.045  0.3918  0.5676 -0.0851
 9343SOL    HW239492   2.714   2.131   6.922 -0.2563 -0.0921  0.2900
 9344SOL     OW39493   4.609   3.545   1.945 -0.1692 -0.2949 -0.0421
 9344SOL    HW139494   4.652   3.488   1.881 -0.6766  0.1668 -0.8040
 9344SOL    HW239495   4.540   3.570   1.883 -0.1098 -0.8279 -0.3282
 9345SOL     OW39496   2.265   0.566  15.431 -0.6135 -0.2069 -0.1475
 9345SOL    HW139497   2.273   0.660  15.414  1.5611 -0.5528 -1.0440
 9345SOL    HW239498   2.182   0.557  15.384 -2.3383 -0.4673  2.9821
 9346SOL     OW39499   4.334   0.208   7.381  0.0379  0.2310 -0.3137
 9346SOL    HW139500   4.362   0.298   7.366 -2.7529  0.7047 -2.5228
 9346SOL    HW239501   4.266   0.224   7.446  1.8290  2.0758  1.1059
 9347SOL     OW39502   1.373   3.458   9.002  0.2285  0.3188  0.1114
 9347SOL    HW139503   1.287   3.463   9.043 -1.3063 -0.9616 -2.9531
 9347SOL    HW239504   1.371   3.535   8.946 -1.0105  0.3519  0.1943
 9348SOL     OW39505   2.738   3.846  11.806 -0.0080  0.1842 -0.1314
 9348SOL    HW139506   2.656   3.837  11.854  1.0401  0.6295  1.7236
 9348SOL    HW239507   2.800   3.843  11.879  0.6992 -0.1752 -0.7412
 9349SOL     OW39508   0.579   0.783   2.028  0.1600 -0.2311 -0.1594
 9349SOL    HW139509   0.655   0.812   2.078  1.3198 -3.0619 -0.2884
 9349SOL    HW239510   0.527   0.730   2.089 -1.8069 -0.0035 -1.6347
 9350SOL     OW39511   0.473   2.271   4.870 -0.3456  0.4921 -0.5698
 9350SOL    HW139512   0.526   2.208   4.919  1.2790  1.2037 -1.4256
 9350SOL    HW239513   0.411   2.224   4.815 -0.3184  1.3295 -1.3167
 9351SOL     OW39514   4.019   1.088   7.845  0.6911 -0.2243  0.6154
 9351SOL    HW139515   3.973   1.063   7.765 -1.1755  1.2538  1.2265
 9351SOL    HW239516   4.064   1.166   7.812  0.0601 -0.0854  0.0916
 9352SOL     OW39517   0.223   1.116   4.117  0.5268  0.2608  0.3767
 9352SOL    HW139518   0.189   1.122   4.206 -0.1655 -2.3691  0.2986
 9352SOL    HW239519   0.195   1.198   4.076  1.6345  0.8876  0.8926
 9353SOL     OW39520   2.031   3.061   6.881 -0.1927  0.3581 -0.3122
 9353SOL    HW139521   2.028   3.154   6.858  0.6668  0.3622 -0.4117
 9353SOL    HW239522   1.940   3.042   6.862  0.2850 -0.8951 -1.3086
 9354SOL     OW39523   1.933   1.092   3.446 -0.1442 -0.3798  0.0668
 9354SOL    HW139524   1.979   1.019   3.487  1.9051 -0.1731 -1.8211
 9354SOL    HW239525   1.942   1.069   3.353  3.3331 -0.0405  0.3170
 9355SOL     OW39526   4.224   1.327   7.368  0.1678 -0.1694 -0.7098
 9355SOL    HW139527   4.248   1.257   7.307  0.6922 -0.9349  0.3745
 9355SOL    HW239528   4.294   1.389   7.347 -0.9151  1.6611  1.0449
 9356SOL     OW39529   0.456   3.965   9.524 -0.6250 -0.6763 -0.2232
 9356SOL    HW139530   0.412   3.935   9.603 -0.2652  3.0239  1.4126
 9356SOL    HW239531   0.488   3.881   9.492  1.4976  0.5662 -1.4028
 9357SOL     OW39532   2.817   2.858   6.153  1.0964  0.3839 -0.0164
 9357SOL    HW139533   2.788   2.783   6.205  2.7520 -1.5065 -1.8265
 9357SOL    HW239534   2.909   2.834   6.139  0.9056 -0.0847 -0.4640
 9358SOL     OW39535   1.880   2.786   3.735  0.1913  0.3903 -0.0113
 9358SOL    HW139536   1.858   2.808   3.826 -0.1426  1.3967 -0.3430
 9358SOL    HW239537   1.924   2.863   3.700  0.6965 -0.3821 -1.0829
 9359SOL     OW39538   4.635   3.805   4.574  0.0095 -0.1491 -0.7980
 9359SOL    HW139539   0.004   3.822   4.561 -0.4122  1.7226 -1.3953
 9359SOL    HW239540   4.624   3.815   4.668 -0.7444 -1.9006 -0.7147
 9360SOL     OW39541   1.034   3.110   2.381  0.2795  0.2198  0.0766
 9360SOL    HW139542   1.071   3.184   2.430 -0.2600  1.7268 -1.7709
 9360SOL    HW239543   1.110   3.054   2.368  0.1853  0.4990 -1.7405
 9361SOL     OW39544   2.680   0.745   9.156 -0.3003  0.6766 -0.0350
 9361SOL    HW139545   2.756   0.711   9.108 -1.8204  0.4410 -2.2419
 9361SOL    HW239546   2.621   0.777   9.089  0.1056 -0.2564 -0.8340
 9362SOL     OW39547   2.579   2.482   8.290 -0.2843 -0.0606  0.3941
 9362SOL    HW139548   2.537   2.423   8.227 -0.7424 -0.1843  0.8203
 9362SOL    HW239549   2.540   2.456   8.373 -0.6462  1.8331  0.8122
 9363SOL     OW39550   3.387   4.426   4.679  0.0151 -0.2595 -0.1903
 9363SOL    HW139551   3.457   4.371   4.645 -1.4983 -2.9505  1.0561
 9363SOL    HW239552   3.428   4.512   4.670  0.6004 -0.5812 -0.5817
 9364SOL     OW39553   3.247   0.894  17.131 -0.2457 -0.1935 -0.2167
 9364SOL    HW139554   3.288   0.925  17.050  1.2579 -1.6706 -0.0171
 9364SOL    HW239555   3.180   0.836  17.095  0.3966 -0.3202 -1.2436
 9365SOL     OW39556   0.865   4.076   8.568  1.1652 -0.1092 -0.5181
 9365SOL    HW139557   0.793   4.111   8.621  1.4638  1.1841 -0.9792
 9365SOL    HW239558   0.809   4.048   8.495  0.6482 -2.5932  0.8075
 9366SOL     OW39559   1.806   3.644   0.916 -0.3429 -0.1522  0.4667
 9366SOL    HW139560   1.848   3.607   0.839 -0.1018 -0.0341  0.5435
 9366SOL    HW239561   1.754   3.722   0.895  1.5828  0.4136 -2.1355
 9367SOL     OW39562   1.695   2.830   2.428  0.2204  0.1566  0.8696
 9367SOL    HW139563   1.776   2.847   2.476 -0.2367  1.2230  1.2579
 9367SOL    HW239564   1.646   2.911   2.446 -0.5023  0.3296 -1.8794
 9368SOL     OW39565   4.296   2.702   4.846  0.1650  0.0830 -0.1490
 9368SOL    HW139566   4.359   2.651   4.897  1.3900  0.7672 -0.9841
 9368SOL    HW239567   4.215   2.659   4.875  0.4526 -1.2507 -1.3724
 9369SOL     OW39568   1.061   3.790   7.121  0.2577  0.5700  0.5926
 9369SOL    HW139569   0.987   3.782   7.181  1.5126 -2.0387  1.8121
 9369SOL    HW239570   1.035   3.867   7.071  0.6112  0.2729 -0.0568
 9370SOL     OW39571   4.339   4.144   6.758 -0.3371 -0.2703 -0.3541
 9370SOL    HW139572   4.412   4.162   6.818  0.5465 -2.7315 -0.7042
 9370SOL    HW239573   4.355   4.050   6.747  1.4409 -0.3541  2.8764
 9371SOL     OW39574   3.458   0.892   5.428  0.7024 -0.1001 -0.2656
 9371SOL    HW139575   3.372   0.934   5.432  0.9661  0.3861  0.2967
 9371SOL    HW239576   3.500   0.915   5.511 -1.1577  0.0828  0.6200
 9372SOL     OW39577   3.504   0.852  12.296 -0.5108  0.5962  0.0369
 9372SOL    HW139578   3.496   0.781  12.359  1.5241 -1.7782 -2.4137
 9372SOL    HW239579   3.414   0.865  12.265  0.4702  2.3225 -2.0504
 9373SOL     OW39580   2.421   1.340  15.152 -0.6198  0.4170 -0.0340
 9373SOL    HW139581   2.384   1.415  15.105  0.0831  0.7647 -0.0271
 9373SOL    HW239582   2.365   1.331  15.229  1.6378  2.9911  1.9140
 9374SOL     OW39583   0.684   4.294   1.927  0.3680 -0.4945  0.0025
 9374SOL    HW139584   0.652   4.231   1.992 -1.9995  0.0927 -0.5999
 9374SOL    HW239585   0.622   4.287   1.854  0.1986  1.8846 -0.0787
 9375SOL     OW39586   3.993   3.516   4.404  0.0612  0.4900  0.0431
 9375SOL    HW139587   3.945   3.550   4.479  1.8312  1.6074  0.6427
 9375SOL    HW239588   4.081   3.529   4.438 -0.2498  0.4309  0.8664
 9376SOL     OW39589   0.500   2.718  17.203 -0.1929  0.5592 -0.1930
 9376SOL    HW139590   0.551   2.660  17.148  1.5096  0.1173  1.8633
 9376SOL    HW239591   0.413   2.686  17.180  0.3324 -0.6598 -0.4608
 9377SOL     OW39592   2.521   2.430   3.389  0.1065 -0.3017 -0.1144
 9377SOL    HW139593   2.550   2.395   3.473 -0.3906  1.3911  0.7499
 9377SOL    HW239594   2.601   2.479   3.369 -1.1194  1.6746 -0.1807
 9378SOL     OW39595   2.882   1.419   6.885  0.7234  0.1956  0.4861
 9378SOL    HW139596   2.887   1.329   6.852 -0.3314  0.2045  0.3029
 9378SOL    HW239597   2.957   1.449   6.835 -0.4005  0.3197 -1.1286
 9379SOL     OW39598   0.874   0.028  13.068 -0.0148  0.6122  0.0357
 9379SOL    HW139599   0.964   0.043  13.096  0.0070  0.5162  0.0178
 9379SOL    HW239600   0.887   4.663  13.035 -0.6048  1.0506 -1.3598
 9380SOL     OW39601   0.822   3.139   3.100 -0.3904  0.0880 -0.5481
 9380SOL    HW139602   0.835   3.051   3.134 -0.9020  0.0533 -0.4389
 9380SOL    HW239603   0.895   3.187   3.140 -1.3983  1.5073 -0.3840
 9381SOL     OW39604   1.326   2.978   3.113 -0.8153 -0.1183  0.4302
 9381SOL    HW139605   1.256   2.921   3.143 -0.4039 -0.6154  0.4497
 9381SOL    HW239606   1.354   3.031   3.188 -3.5316  1.8579  0.0431
 9382SOL     OW39607   3.608   4.022   7.437  0.0574 -0.3959 -0.6806
 9382SOL    HW139608   3.512   4.019   7.443  0.2421 -1.7818  1.5000
 9382SOL    HW239609   3.624   3.951   7.375  1.6229 -0.0181 -0.6940
 9383SOL     OW39610   1.989   2.887   8.805  0.2302  0.5104 -0.5408
 9383SOL    HW139611   1.916   2.898   8.744 -2.7423 -1.1565  2.7011
 9383SOL    HW239612   1.989   2.968   8.856  1.4114  0.2137 -0.0680
 9384SOL     OW39613   1.879   1.317   6.955  0.0621 -0.0768  0.3782
 9384SOL    HW139614   1.873   1.229   6.991 -0.1791  0.1400  0.8641
 9384SOL    HW239615   1.973   1.334   6.954  0.0399  0.0454  0.3992
 9385SOL     OW39616   1.061   3.421   4.215 -0.6281 -0.0755 -0.0262
 9385SOL    HW139617   0.966   3.418   4.212 -0.6345  1.8863 -2.0716
 9385SOL    HW239618   1.091   3.391   4.129  1.3023 -0.0806  0.6453
 9386SOL     OW39619   2.438   1.450   7.437 -0.6314 -0.6665 -0.2046
 9386SOL    HW139620   2.427   1.358   7.413  1.2282 -0.6819 -0.9828
 9386SOL    HW239621   2.344   1.470   7.444 -0.0211  2.0131  0.4436
 9387SOL     OW39622   4.559   1.850   5.035  0.0507 -0.3097 -0.5608
 9387SOL    HW139623   4.553   1.928   4.980 -1.2184  0.7075  1.0420
 9387SOL    HW239624   4.475   1.854   5.080 -0.0065 -1.8910 -0.5223
 9388SOL     OW39625   2.997   0.061   5.396  0.2975  0.0244  0.0241
 9388SOL    HW139626   2.979   4.712   5.338  1.6589  0.3260 -0.8009
 9388SOL    HW239627   2.947   0.125   5.346  2.8897  1.5276 -0.6589
 9389SOL     OW39628   0.572   2.743  12.400 -0.9998  0.4131 -0.4730
 9389SOL    HW139629   0.584   2.805  12.327 -2.0790 -0.3413 -1.2918
 9389SOL    HW239630   0.484   2.755  12.435 -0.6777 -1.0673  0.7899
 9390SOL     OW39631   2.121   4.580   2.877 -0.2956 -0.0739 -0.3534
 9390SOL    HW139632   2.201   4.599   2.926 -1.2710 -0.8553  1.5124
 9390SOL    HW239633   2.131   4.630   2.795  0.1553 -1.1078 -0.9365
 9391SOL     OW39634   4.462   1.284   7.548 -0.2080  0.1496 -0.1311
 9391SOL    HW139635   4.390   1.259   7.490 -0.5319 -0.3663  0.4801
 9391SOL    HW239636   4.425   1.257   7.632 -0.8996 -0.9834 -0.8011
 9392SOL     OW39637   1.141   2.916   0.882  0.2586 -0.4246  0.3187
 9392SOL    HW139638   1.221   2.869   0.857 -0.5749 -1.7876  0.1699
 9392SOL    HW239639   1.158   2.932   0.974  2.6329  0.8037 -0.3216
 9393SOL     OW39640   0.307   2.460  12.334  0.0765  0.5891 -0.1402
 9393SOL    HW139641   0.388   2.485  12.379 -1.1857 -0.8051  2.8780
 9393SOL    HW239642   0.257   2.441  12.413  1.4551  0.6603  0.7534
 9394SOL     OW39643   2.886   3.282   3.744  0.3549  0.4012  0.1509
 9394SOL    HW139644   2.907   3.210   3.804 -0.5945 -1.2935 -1.5641
 9394SOL    HW239645   2.954   3.347   3.762  1.2816 -0.6612  0.5425
 9395SOL     OW39646   2.894   1.520   8.751  0.2093  0.0360  0.0743
 9395SOL    HW139647   2.958   1.526   8.823  1.0167 -3.6684 -0.3419
 9395SOL    HW239648   2.822   1.580   8.770  1.2004  1.0560  0.6063
 9396SOL     OW39649   4.030   0.601   2.603  0.1762  1.1085 -0.2177
 9396SOL    HW139650   4.096   0.670   2.600 -0.6866  1.9907  1.2927
 9396SOL    HW239651   4.085   0.546   2.658  2.0242  1.3057 -1.8825
 9397SOL     OW39652   3.673   0.825   0.319 -0.1074 -0.0857 -0.0730
 9397SOL    HW139653   3.693   0.738   0.355 -1.8839 -0.3913  0.1566
 9397SOL    HW239654   3.695   0.815   0.226  3.1617 -1.0199  0.7959
 9398SOL     OW39655   3.515   3.844   5.418 -0.0972  0.6218 -0.2436
 9398SOL    HW139656   3.428   3.885   5.427  1.7525  3.4130  4.7227
 9398SOL    HW239657   3.554   3.896   5.488  0.8520  0.0733 -0.3621
 9399SOL     OW39658   3.839   2.165   1.022  0.0630 -0.5234  0.3064
 9399SOL    HW139659   3.820   2.181   1.114  1.5026 -0.0177  0.5154
 9399SOL    HW239660   3.874   2.252   1.003  0.6220 -0.8660 -0.2549
 9400SOL     OW39661   4.038   1.029   6.114 -0.2270 -0.4462 -0.3253
 9400SOL    HW139662   4.096   1.099   6.143 -1.7064  1.0621 -1.0151
 9400SOL    HW239663   4.050   1.036   6.019 -1.5678 -0.6183 -0.5116
 9401SOL     OW39664   1.657   3.269   9.899  0.0777  0.0375  0.3086
 9401SOL    HW139665   1.689   3.285   9.988 -2.3349  0.1454  1.1359
 9401SOL    HW239666   1.698   3.183   9.891  0.9766  0.3963  1.0385
 9402SOL     OW39667   0.703   1.985   8.738  0.4913 -0.5538 -0.2699
 9402SOL    HW139668   0.674   2.014   8.652 -0.9290  0.0182  0.3988
 9402SOL    HW239669   0.712   2.066   8.788 -0.1807 -0.3598 -0.4544
 9403SOL     OW39670   3.930   0.698   4.221 -0.8668  0.2595 -0.3230
 9403SOL    HW139671   3.974   0.658   4.296 -0.4178 -0.2968 -0.8904
 9403SOL    HW239672   3.890   0.775   4.262 -0.6753  0.6521 -0.8784
 9404SOL     OW39673   2.019   4.107   6.459  0.4099 -0.5671  0.0638
 9404SOL    HW139674   2.044   4.052   6.384 -1.6909 -0.4900 -0.6798
 9404SOL    HW239675   1.949   4.145   6.407  0.1992 -0.1727  0.6401
 9405SOL     OW39676   1.246   3.877   8.496  0.3023 -0.4106 -0.6286
 9405SOL    HW139677   1.264   3.783   8.497  0.4124 -0.3743  1.3026
 9405SOL    HW239678   1.156   3.873   8.465  0.3139  3.5969 -1.1821
 9406SOL     OW39679   3.454   4.507  13.639 -0.3231 -0.0003  0.5222
 9406SOL    HW139680   3.398   4.484  13.713 -0.8906 -3.0746 -0.8608
 9406SOL    HW239681   3.431   4.600  13.636  0.0972  0.1567  2.0520
 9407SOL     OW39682   0.173   3.687   7.041  1.1479  0.8726 -0.4033
 9407SOL    HW139683   0.247   3.626   7.040 -0.7501 -1.4988  1.3667
 9407SOL    HW239684   0.137   3.664   7.127  0.6126 -1.3487 -1.2136
 9408SOL     OW39685   2.751   3.157   6.398 -0.0186 -0.6906  0.4665
 9408SOL    HW139686   2.656   3.169   6.403 -0.2898 -2.0392 -1.3537
 9408SOL    HW239687   2.763   3.179   6.490  2.6692 -0.0414 -0.0401
 9409SOL     OW39688   3.859   2.093  12.689 -0.2193 -0.6362 -0.4581
 9409SOL    HW139689   3.951   2.092  12.662  0.6166 -2.8830  2.4782
 9409SOL    HW239690   3.849   2.004  12.722  0.8258 -0.6531 -0.1806
 9410SOL     OW39691   4.227   0.957   7.662 -0.0372  0.3367  0.3261
 9410SOL    HW139692   4.172   1.029   7.633  0.4724  1.7472  2.8352
 9410SOL    HW239693   4.210   0.984   7.753 -1.6808 -1.1528  0.4731
 9411SOL     OW39694   4.408   0.072   8.585  0.1378  0.1301  0.6434
 9411SOL    HW139695   4.339   0.008   8.603  2.4294 -2.9830 -1.6944
 9411SOL    HW239696   4.409   0.067   8.490  0.6904 -2.3738  0.7724
 9412SOL     OW39697   1.575   4.520   3.691 -0.5981  0.0264  0.0248
 9412SOL    HW139698   1.627   4.442   3.674  1.8421  1.6228  0.0727
 9412SOL    HW239699   1.560   4.555   3.603 -1.3080 -0.1352  0.0833
 9413SOL     OW39700   2.217   2.466   2.816 -0.2551  0.3218 -0.2297
 9413SOL    HW139701   2.229   2.541   2.875  0.4965 -0.2609  0.3656
 9413SOL    HW239702   2.175   2.525   2.754  1.7110  1.2354 -0.6859
 9414SOL     OW39703   1.859   0.148   4.657  0.9010 -0.2922  0.3557
 9414SOL    HW139704   1.787   0.102   4.612  1.1115  2.1774 -2.4840
 9414SOL    HW239705   1.941   0.113   4.623  0.5734  2.7772 -3.6235
 9415SOL     OW39706   3.933   3.695   0.729 -0.1367 -0.0615  0.2046
 9415SOL    HW139707   4.012   3.644   0.749  1.4213  1.2157 -2.6596
 9415SOL    HW239708   3.863   3.659   0.783 -0.8260  1.4332  0.3056
 9416SOL     OW39709   3.166   4.714   7.860  0.6189  0.2208 -0.7434
 9416SOL    HW139710   3.223   0.067   7.854 -0.7407  1.4380  1.9170
 9416SOL    HW239711   3.085   0.039   7.879 -0.4827 -1.5707 -0.7899
 9417SOL     OW39712   2.182   3.450   5.956  0.1546  0.4948  0.3423
 9417SOL    HW139713   2.268   3.448   5.914  0.0014 -1.0828  0.1050
 9417SOL    HW239714   2.197   3.507   6.032 -0.8989  0.5164  0.5341
 9418SOL     OW39715   4.367   1.915   5.238  0.1062  0.3209 -0.1299
 9418SOL    HW139716   4.308   1.862   5.291  0.8540 -0.3948 -0.0084
 9418SOL    HW239717   4.406   1.979   5.297 -0.4839  2.2415 -1.8156
 9419SOL     OW39718   0.635   0.457   7.733  0.9278 -0.1864  0.2867
 9419SOL    HW139719   0.620   0.365   7.754 -0.0706 -0.0877  0.0333
 9419SOL    HW239720   0.718   0.445   7.687  0.5907 -1.9206  0.1327
 9420SOL     OW39721   4.656   4.359   6.448 -0.1048  0.3444 -0.0917
 9420SOL    HW139722   4.707   4.436   6.421  2.8884 -1.2110  1.2166
 9420SOL    HW239723   4.690   4.345   6.536 -1.5289 -1.0373  0.2338
 9421SOL     OW39724   4.480   1.886   3.895 -0.6303  0.2817  0.1556
 9421SOL    HW139725   4.451   1.892   3.986 -0.4346  2.4853  0.0680
 9421SOL    HW239726   4.445   1.963   3.850 -2.7331 -0.8981 -0.2411
 9422SOL     OW39727   1.353   3.758   8.937 -0.9457  0.2433 -0.0297
 9422SOL    HW139728   1.333   3.846   8.971  0.9086  0.3274  0.8030
 9422SOL    HW239729   1.263   3.728   8.950 -0.4922 -1.1197 -0.0810
 9423SOL     OW39730   0.829   4.554   2.784  0.1565  0.3068  0.5947
 9423SOL    HW139731   0.912   4.525   2.745  0.6216  0.8421  1.1841
 9423SOL    HW239732   0.809   4.486   2.847 -0.1653  0.0307  0.1904
 9424SOL     OW39733   3.814   2.662   4.898 -0.1198  0.2530 -0.1179
 9424SOL    HW139734   3.823   2.671   4.992 -0.3862 -1.7016  0.1030
 9424SOL    HW239735   3.906   2.655   4.875  0.2683 -1.7175  2.0913
 9425SOL     OW39736   1.507   2.633   4.415  0.6304  0.1602 -0.2159
 9425SOL    HW139737   1.552   2.717   4.418 -0.5177  0.7728 -0.2669
 9425SOL    HW239738   1.543   2.597   4.496 -2.1377  2.2410  1.9355
 9426SOL     OW39739   4.075   4.036   4.582 -0.0060 -0.6907 -0.0318
 9426SOL    HW139740   4.092   4.126   4.557 -3.8404 -0.4242 -1.7734
 9426SOL    HW239741   4.128   3.984   4.521  1.3422 -0.6586  1.1255
 9427SOL     OW39742   1.808   3.545   0.647  0.1630  0.7946  0.2784
 9427SOL    HW139743   1.899   3.527   0.624  0.3682 -1.3518  2.6843
 9427SOL    HW239744   1.773   3.604   0.581  0.6729  0.3822 -0.3563
 9428SOL     OW39745   2.936   3.973   3.806  0.2551  0.0698  0.0983
 9428SOL    HW139746   3.011   4.026   3.781  0.5755 -0.4610 -0.0560
 9428SOL    HW239747   2.940   3.999   3.898 -0.8563  0.4309  0.0512
 9429SOL     OW39748   3.757   4.256   4.935 -0.1859  0.0667  0.5870
 9429SOL    HW139749   3.847   4.281   4.952 -0.7505  2.2729  0.2999
 9429SOL    HW239750   3.749   4.191   5.005  0.8345 -0.0193  0.6140
 9430SOL     OW39751   2.383   2.701   2.794 -0.7332  0.4266  0.4062
 9430SOL    HW139752   2.476   2.722   2.799 -0.3052 -1.1381 -1.0992
 9430SOL    HW239753   2.368   2.694   2.700  0.8959  1.3815  0.0664
 9431SOL     OW39754   1.260   2.222   7.498 -0.0234 -0.5733  0.2303
 9431SOL    HW139755   1.302   2.175   7.426  1.4742 -1.1192  1.4530
 9431SOL    HW239756   1.182   2.167   7.507  0.1881 -0.6463  1.5875
 9432SOL     OW39757   2.630   2.754   7.183  0.3984  0.0591 -0.2175
 9432SOL    HW139758   2.665   2.829   7.136  1.8129  0.4523  1.4238
 9432SOL    HW239759   2.634   2.784   7.274  1.1384 -0.6210 -0.0274
 9433SOL     OW39760   0.391   3.332   5.379 -0.0888  0.7296  0.2413
 9433SOL    HW139761   0.307   3.291   5.400  0.4883 -0.6921 -0.2613
 9433SOL    HW239762   0.373   3.355   5.288  0.4447 -2.6236 -0.7122
 9434SOL     OW39763   2.047   3.390   6.371  0.1314 -0.3723  0.0747
 9434SOL    HW139764   2.003   3.412   6.289  0.0953 -1.4378 -0.1932
 9434SOL    HW239765   2.037   3.473   6.416  2.6359 -1.6518  3.0001
 9435SOL     OW39766   3.792   0.612   9.641 -0.0578  0.1302 -0.2991
 9435SOL    HW139767   3.785   0.646   9.730  0.9493 -0.1841 -0.1047
 9435SOL    HW239768   3.699   0.594   9.627  0.1861 -0.6745 -0.8324
 9436SOL     OW39769   4.266   3.936   1.985 -0.2602 -0.1541  0.2225
 9436SOL    HW139770   4.174   3.910   1.980 -0.0618 -0.7832 -0.0632
 9436SOL    HW239771   4.296   3.919   2.075  1.4172  1.7961  0.0411
 9437SOL     OW39772   2.103   2.795   0.390  0.3627  0.7120  0.7317
 9437SOL    HW139773   2.168   2.740   0.433 -1.4638 -2.0089  0.0621
 9437SOL    HW239774   2.056   2.739   0.327  2.7677  0.0535 -0.4763
 9438SOL     OW39775   3.678   3.354   3.455 -0.4788  0.1411  0.0879
 9438SOL    HW139776   3.720   3.439   3.445  2.8323 -1.8181 -2.7750
 9438SOL    HW239777   3.587   3.375   3.434 -0.2469 -0.5674 -1.6100
 9439SOL     OW39778   1.539   0.751  12.697  0.2423  0.2163 -0.1521
 9439SOL    HW139779   1.504   0.839  12.706  1.7360  0.8809 -0.8476
 9439SOL    HW239780   1.633   0.762  12.682  0.2525 -0.7824 -0.8323
 9440SOL     OW39781   4.574   1.854  17.351  0.3757 -0.0707  0.3593
 9440SOL    HW139782   4.649   1.795  17.356  1.2730  0.9824 -0.7452
 9440SOL    HW239783   4.608   1.938  17.382  1.4200 -0.4137  0.1476
 9441SOL     OW39784   0.477   0.519   4.212  0.0268 -0.2576  0.0279
 9441SOL    HW139785   0.408   0.453   4.222 -0.1383 -0.4467 -2.2724
 9441SOL    HW239786   0.509   0.505   4.123  2.1460 -1.7472  0.9951
 9442SOL     OW39787   2.324   1.238   3.030  0.3129  0.2760 -0.4679
 9442SOL    HW139788   2.321   1.146   3.055  0.5732 -0.0181 -1.4920
 9442SOL    HW239789   2.285   1.264   3.113  0.1723 -1.2456 -0.0574
 9443SOL     OW39790   2.469   0.182   3.324 -0.4835  0.1354 -0.2446
 9443SOL    HW139791   2.539   0.244   3.347 -0.0509 -0.0336 -1.0954
 9443SOL    HW239792   2.516   0.098   3.322  0.7321  0.8528 -2.4681
 9444SOL     OW39793   3.995   3.254   7.650  0.3575 -0.5245  0.0074
 9444SOL    HW139794   3.950   3.190   7.706 -1.0317  0.7233  0.2972
 9444SOL    HW239795   3.964   3.233   7.562  0.9837  0.8252 -0.5371
 9445SOL     OW39796   1.561   0.375   9.997  0.1238 -0.6520 -0.4978
 9445SOL    HW139797   1.650   0.405  10.016 -0.0447  0.3350 -1.2958
 9445SOL    HW239798   1.548   0.419   9.913 -2.6436 -0.2210  0.1404
 9446SOL     OW39799   4.614   2.822   2.900  0.2799 -0.1055  0.0381
 9446SOL    HW139800   4.659   2.758   2.844  0.6925  0.4342 -0.2419
 9446SOL    HW239801   4.536   2.775   2.929  0.4698  0.0943  0.8666
 9447SOL     OW39802   0.308   2.490   8.361 -0.1591 -0.2995 -0.4203
 9447SOL    HW139803   0.359   2.557   8.406 -1.2324  0.6029 -0.5429
 9447SOL    HW239804   0.251   2.469   8.434 -0.7272  0.4627 -0.6362
 9448SOL     OW39805   0.932   3.845  16.711 -0.2304  0.0453 -0.3157
 9448SOL    HW139806   0.914   3.787  16.785 -1.1743  0.2456 -0.3926
 9448SOL    HW239807   0.929   3.926  16.761  0.1385 -1.1989  1.7535
 9449SOL     OW39808   0.469   3.955   6.391 -0.3584  0.3061  0.3141
 9449SOL    HW139809   0.444   3.865   6.412  1.6863 -0.0874  1.0392
 9449SOL    HW239810   0.563   3.947   6.377 -0.5896 -1.2878 -0.2883
 9450SOL     OW39811   0.983   3.042   0.670 -0.0820 -0.4033  0.4640
 9450SOL    HW139812   0.928   3.107   0.712 -0.8406 -0.2098 -0.8710
 9450SOL    HW239813   1.024   3.004   0.749  1.2609 -0.8019 -0.4215
 9451SOL     OW39814   1.783   0.859   5.498 -0.1759  0.2109 -0.0775
 9451SOL    HW139815   1.697   0.843   5.538 -0.0670  1.3920  0.6130
 9451SOL    HW239816   1.797   0.775   5.454 -1.3355  1.2767 -2.4664
 9452SOL     OW39817   1.226   4.583   2.245  0.5062  0.4445 -0.5085
 9452SOL    HW139818   1.165   4.588   2.319 -1.9497  1.2604 -2.5881
 9452SOL    HW239819   1.242   4.489   2.248  0.2701  0.4406  0.6069
 9453SOL     OW39820   3.237   2.388   2.988  0.5454  0.7124 -0.2900
 9453SOL    HW139821   3.319   2.339   2.985 -0.2863 -0.5647 -2.1645
 9453SOL    HW239822   3.253   2.451   3.059  2.1677 -0.8142  0.6936
 9454SOL     OW39823   3.860   1.286   8.358 -0.2169 -0.5659 -0.3103
 9454SOL    HW139824   3.830   1.323   8.441 -1.0528  0.2333 -0.9781
 9454SOL    HW239825   3.848   1.356   8.294  2.7481  0.0110 -0.2459
 9455SOL     OW39826   3.439   0.621  11.154 -0.3159 -0.1682 -0.0461
 9455SOL    HW139827   3.456   0.556  11.086 -1.2996 -0.8464  0.3379
 9455SOL    HW239828   3.353   0.653  11.126 -0.3242  0.9078  1.2412
 9456SOL     OW39829   2.600   1.769  10.442  0.2385  0.0768 -0.2171
 9456SOL    HW139830   2.632   1.759  10.531  2.7529  3.8494 -0.6924
 9456SOL    HW239831   2.683   1.795  10.402  0.8756 -0.1638  0.9461
 9457SOL     OW39832   2.247   0.276   7.372 -0.7298 -0.2462 -0.0576
 9457SOL    HW139833   2.194   0.353   7.392 -1.2306 -0.8805  1.0204
 9457SOL    HW239834   2.264   0.241   7.460 -1.4979  0.8196  0.5055
 9458SOL     OW39835   4.546   0.757   3.232 -0.4437  0.0034 -0.3159
 9458SOL    HW139836   4.597   0.804   3.297  1.3534 -3.5672  0.8690
 9458SOL    HW239837   4.610   0.727   3.168  0.9559  2.5431 -0.0864
 9459SOL     OW39838   0.708   2.277  16.903 -0.3917 -0.0684  0.0114
 9459SOL    HW139839   0.694   2.215  16.974 -3.0034 -0.0582 -0.5214
 9459SOL    HW239840   0.776   2.232  16.852 -0.3777  1.2554 -1.1518
 9460SOL     OW39841   1.719   0.043   3.654 -0.9274 -0.6437 -0.0309
 9460SOL    HW139842   1.694   4.680   3.625  2.5836 -1.3189 -1.0197
 9460SOL    HW239843   1.673   0.094   3.587  0.7275 -2.0318 -2.2241
 9461SOL     OW39844   3.544   1.223   2.318  0.4745  0.0834  0.0023
 9461SOL    HW139845   3.627   1.196   2.357  0.2666 -1.5217 -0.6696
 9461SOL    HW239846   3.571   1.216   2.226 -1.5836 -0.2778 -0.5673
 9462SOL     OW39847   3.594   0.271   4.322  0.0668 -0.4509 -0.6479
 9462SOL    HW139848   3.583   0.251   4.229 -2.2920  0.5733 -0.5853
 9462SOL    HW239849   3.518   0.326   4.339  0.9303  0.9738 -1.3594
 9463SOL     OW39850   0.352   2.648   4.907  0.7266 -0.1239  0.0660
 9463SOL    HW139851   0.282   2.663   4.970  0.5904  1.8654 -0.5625
 9463SOL    HW239852   0.426   2.665   4.966  1.2867  2.4689 -1.4041
 9464SOL     OW39853   3.882   3.236   5.572 -0.5842  0.4357  0.0305
 9464SOL    HW139854   3.838   3.219   5.489 -0.4026 -0.9011  0.2084
 9464SOL    HW239855   3.802   3.234   5.624 -1.1611 -0.9642 -0.9125
 9465SOL     OW39856   3.811   3.983   6.886  0.2160  0.2932 -0.1405
 9465SOL    HW139857   3.829   4.013   6.975  2.5150  2.0090 -1.1806
 9465SOL    HW239858   3.824   4.066   6.841 -1.5139  0.0682 -1.0540
 9466SOL     OW39859   3.189   1.270  11.212 -0.0704  0.3093  0.5113
 9466SOL    HW139860   3.249   1.262  11.138  0.1457 -1.1747  0.8401
 9466SOL    HW239861   3.156   1.352  11.177  0.4510  0.4263  0.2947
 9467SOL     OW39862   4.285   4.569   6.321  0.2186 -0.1856 -0.3213
 9467SOL    HW139863   4.214   4.507   6.307  0.3901 -0.5804  0.5855
 9467SOL    HW239864   4.359   4.511   6.300  1.2586  1.6158 -1.7382
 9468SOL     OW39865   3.881   4.237   4.164  0.1763 -0.2497 -0.0517
 9468SOL    HW139866   3.925   4.285   4.094 -0.0922 -0.6758 -0.5125
 9468SOL    HW239867   3.859   4.157   4.117  0.3035 -0.2733 -0.0731
 9469SOL     OW39868   2.467   2.443   4.458 -0.1662 -0.2072  0.3490
 9469SOL    HW139869   2.542   2.483   4.414 -0.4967  1.3115  1.2070
 9469SOL    HW239870   2.491   2.459   4.549  3.2371  3.5283 -1.2169
 9470SOL     OW39871   3.169   0.673   1.472 -0.2195  0.1210  0.1935
 9470SOL    HW139872   3.260   0.643   1.461  0.0406  0.9274  0.1500
 9470SOL    HW239873   3.148   0.595   1.524  1.4289 -0.1056  0.5140
 9471SOL     OW39874   2.631   1.697   7.598 -0.0328  0.2559 -0.0700
 9471SOL    HW139875   2.551   1.747   7.580 -0.0325  0.0039 -0.7500
 9471SOL    HW239876   2.638   1.694   7.694  1.4896 -2.0046 -0.2358
 9472SOL     OW39877   0.478   0.462   8.892  0.3301 -0.1488 -0.2435
 9472SOL    HW139878   0.497   0.553   8.914  1.7107 -0.2652 -0.9504
 9472SOL    HW239879   0.385   0.468   8.871  0.0732  1.0907  1.2585
 9473SOL     OW39880   2.462   2.558   5.685  0.7429  0.2674 -0.3152
 9473SOL    HW139881   2.505   2.562   5.600 -0.8745 -0.7952 -1.1762
 9473SOL    HW239882   2.369   2.554   5.665  1.2988 -0.4227 -2.6851
 9474SOL     OW39883   4.711   0.842   4.026  0.3564  0.9066  0.3234
 9474SOL    HW139884   0.002   0.748   4.032 -0.6541  0.6747 -0.8444
 9474SOL    HW239885   0.057   0.858   3.964 -1.1417 -0.7545 -1.7843
 9475SOL     OW39886   1.654   4.318   3.492  0.1440 -0.0451 -0.0995
 9475SOL    HW139887   1.688   4.354   3.410 -0.3176 -0.4824 -0.4889
 9475SOL    HW239888   1.562   4.301   3.469  0.2000 -0.0362 -0.3302
 9476SOL     OW39889   2.041   0.838   2.289  0.1161 -0.0742 -0.2891
 9476SOL    HW139890   2.042   0.766   2.225  0.9072 -1.5441  1.3753
 9476SOL    HW239891   1.966   0.817   2.344  2.0614  1.4444  2.9274
 9477SOL     OW39892   4.427   2.562   6.808  0.3578  0.4910 -0.0552
 9477SOL    HW139893   4.510   2.515   6.804  0.2830  0.3533 -0.0097
 9477SOL    HW239894   4.414   2.570   6.713 -0.9575 -1.2337 -0.0342
 9478SOL     OW39895   0.015   0.182   3.399 -0.0206  0.4001  0.4010
 9478SOL    HW139896   4.709   0.132   3.324  3.3700  2.3765 -2.2735
 9478SOL    HW239897   4.724   0.269   3.364 -0.0320 -0.2818 -1.2913
 9479SOL     OW39898   2.998   0.770   8.816 -0.6774 -0.0175  0.0988
 9479SOL    HW139899   2.902   0.769   8.815 -0.6495 -0.6553 -1.6583
 9479SOL    HW239900   3.015   0.720   8.896 -1.2736  2.1741  1.5987
 9480SOL     OW39901   2.164   3.845   6.003  0.2778  0.6927 -0.2730
 9480SOL    HW139902   2.205   3.833   5.917  3.1860 -1.3079  1.3897
 9480SOL    HW239903   2.237   3.891   6.044 -1.0088  0.3065  2.4187
 9481SOL     OW39904   4.134   3.750   8.927  0.0134 -0.3113 -0.2454
 9481SOL    HW139905   4.143   3.837   8.965  0.2368 -0.0743 -0.8365
 9481SOL    HW239906   4.172   3.771   8.841 -2.3516 -1.4303 -1.5568
 9482SOL     OW39907   1.294   4.115  16.734 -0.8747 -0.1608 -0.6575
 9482SOL    HW139908   1.329   4.149  16.652 -1.6455 -1.7070 -1.6347
 9482SOL    HW239909   1.308   4.021  16.727 -2.6164 -0.4712  0.1074
 9483SOL     OW39910   4.548   1.932   0.014  0.1840  0.2661 -0.4200
 9483SOL    HW139911   4.538   1.945  17.619  0.9442  0.2894 -0.5035
 9483SOL    HW239912   4.459   1.958   0.039 -0.7453 -2.9505 -0.4863
 9484SOL     OW39913   2.052   2.272   3.942  0.6608 -0.4675  0.0075
 9484SOL    HW139914   2.013   2.201   3.995  0.1999 -0.4810 -0.3490
 9484SOL    HW239915   2.143   2.246   3.935  0.8790  0.5382 -0.8688
 9485SOL     OW39916   2.791   1.873   0.914  0.3113 -0.0096  0.1225
 9485SOL    HW139917   2.757   1.960   0.935 -0.7946  0.0162 -1.7700
 9485SOL    HW239918   2.743   1.857   0.833 -0.6556 -0.6536  0.8155
 9486SOL     OW39919   3.139   1.796  10.697  0.0044 -0.3518 -0.1365
 9486SOL    HW139920   3.056   1.765  10.662  0.8250 -1.4106 -1.1520
 9486SOL    HW239921   3.197   1.803  10.621  0.8996  0.7059  0.6380
 9487SOL     OW39922   4.266   3.481   3.026 -0.5638 -0.1917 -0.7990
 9487SOL    HW139923   4.331   3.546   3.053 -1.6547  0.5822 -0.0298
 9487SOL    HW239924   4.315   3.399   3.031  1.4087  1.1291  1.8220
 9488SOL     OW39925   1.793   2.116   9.614 -0.2675 -0.1761  0.1231
 9488SOL    HW139926   1.872   2.163   9.588  0.5739 -0.7805  1.6244
 9488SOL    HW239927   1.725   2.176   9.582 -1.4352 -1.4152  0.2824
 9489SOL     OW39928   1.138   3.840  14.265 -0.1281 -0.2393  0.2668
 9489SOL    HW139929   1.060   3.895  14.264 -2.0417 -2.9193  2.5540
 9489SOL    HW239930   1.203   3.906  14.241 -0.1239 -0.9844 -1.7435
 9490SOL     OW39931   0.562   2.938  12.227 -0.6373  0.3212  0.2329
 9490SOL    HW139932   0.518   3.009  12.180 -1.0127  2.3270  3.6774
 9490SOL    HW239933   0.655   2.959  12.232 -0.5144  0.5184 -2.5726
 9491SOL     OW39934   2.480   4.481   3.440 -0.6372 -1.0095 -0.0370
 9491SOL    HW139935   2.509   4.562   3.398 -0.4377 -0.9641  0.1879
 9491SOL    HW239936   2.506   4.413   3.377  1.6908 -1.5960  1.5333
 9492SOL     OW39937   1.026   1.336   8.523  0.1695  0.3855  0.3999
 9492SOL    HW139938   0.976   1.377   8.453  1.9004  2.7385  0.5216
 9492SOL    HW239939   0.986   1.372   8.602  0.6134  0.1036  0.7555
 9493SOL     OW39940   4.589   4.182   2.122  0.8742 -0.3260 -0.1445
 9493SOL    HW139941   4.547   4.195   2.207  0.6687 -1.4417 -0.0791
 9493SOL    HW239942   4.574   4.088   2.118 -0.6420  0.0178 -2.5014
 9494SOL     OW39943   4.115   4.447   6.003 -0.4101 -0.6620  0.0411
 9494SOL    HW139944   4.113   4.543   6.010  0.4334 -0.6806  0.6002
 9494SOL    HW239945   4.133   4.428   6.095 -0.3778  0.6007  0.3040
 9495SOL     OW39946   2.482   1.464   7.719 -0.1678 -0.1051  0.6410
 9495SOL    HW139947   2.475   1.551   7.757 -2.3305  0.6992 -1.5627
 9495SOL    HW239948   2.451   1.479   7.629  1.8079  1.0450  0.1604
 9496SOL     OW39949   0.238   3.805   3.437 -0.4107 -0.2674 -0.4167
 9496SOL    HW139950   0.204   3.843   3.356 -2.2187 -0.7557  0.1194
 9496SOL    HW239951   0.228   3.882   3.493 -1.8008 -0.8333  0.1177
 9497SOL     OW39952   2.244   3.899   6.667 -0.4791  0.2166  0.2524
 9497SOL    HW139953   2.155   3.865   6.665 -1.1674  2.0893 -0.7376
 9497SOL    HW239954   2.233   3.963   6.737  0.0948  1.5167 -0.8492
 9498SOL     OW39955   0.276   1.636   3.996 -0.5231 -0.5679  0.3795
 9498SOL    HW139956   0.330   1.676   3.928 -1.6593  0.2443 -0.0557
 9498SOL    HW239957   0.342   1.583   4.040  1.1431 -0.9184 -2.5330
 9499SOL     OW39958   4.659   2.005   6.344 -0.0044  0.2131 -0.0866
 9499SOL    HW139959   4.705   2.077   6.301 -0.1143 -0.8720 -2.0066
 9499SOL    HW239960   4.666   2.042   6.432  4.2406 -0.7832  0.0291
 9500SOL     OW39961   3.065   2.227  10.094  0.0544 -0.4365 -0.0502
 9500SOL    HW139962   3.118   2.204  10.171 -1.6822  1.2311  1.6520
 9500SOL    HW239963   3.018   2.303  10.130  0.9816 -0.5469  1.4263
 9501SOL     OW39964   2.264   4.472   5.492 -0.3761 -0.0580  0.4042
 9501SOL    HW139965   2.215   4.455   5.412 -0.1757 -1.5694  0.5967
 9501SOL    HW239966   2.352   4.469   5.453 -1.0544 -2.0161 -0.9647
 9502SOL     OW39967   3.772   1.407  10.831 -0.1185 -0.2721 -0.5147
 9502SOL    HW139968   3.698   1.372  10.781  1.1083 -2.3845 -0.8801
 9502SOL    HW239969   3.736   1.397  10.919  2.1709  0.7112  0.5100
 9503SOL     OW39970   4.486   4.582  11.336 -0.5486  0.4840 -0.0750
 9503SOL    HW139971   4.528   4.563  11.252  1.8298  1.4847  0.8699
 9503SOL    HW239972   4.504   4.500  11.382 -2.1300 -0.1731 -0.6185
 9504SOL     OW39973   2.405   2.024   7.093 -0.4465 -0.1523  0.0749
 9504SOL    HW139974   2.341   1.953   7.098 -1.1945  0.4203 -1.2666
 9504SOL    HW239975   2.353   2.091   7.137 -0.5891  0.7479 -1.4830
 9505SOL     OW39976   4.116   2.249  16.117 -0.0886  0.5156 -0.2011
 9505SOL    HW139977   4.191   2.215  16.166 -0.4557 -1.4422 -0.9970
 9505SOL    HW239978   4.053   2.178  16.130  1.2400 -0.3499  1.5914
 9506SOL     OW39979   0.817   2.730   2.681  0.1522  0.2028  0.0092
 9506SOL    HW139980   0.764   2.689   2.612  0.9687  0.4080 -0.7488
 9506SOL    HW239981   0.904   2.720   2.642  0.8195 -2.1085  2.1275
 9507SOL     OW39982   1.863   0.345   2.291 -0.2287 -0.3980  0.0391
 9507SOL    HW139983   1.875   0.325   2.384  0.5966  1.1766  0.2595
 9507SOL    HW239984   1.776   0.308   2.272 -0.0360 -0.4385 -0.7348
 9508SOL     OW39985   1.783   4.723   5.973 -0.4166  0.5478 -0.3221
 9508SOL    HW139986   1.772   0.066   6.040 -0.1943 -0.0463  0.3273
 9508SOL    HW239987   1.691   4.718   5.947 -0.1948  0.3144 -1.0521
 9509SOL     OW39988   2.872   2.471   2.713  0.2053 -0.1447 -0.2276
 9509SOL    HW139989   2.799   2.409   2.715 -1.0749  1.2794 -2.1358
 9509SOL    HW239990   2.881   2.496   2.621  0.4293  1.0847  0.1205
 9510SOL     OW39991   1.682   3.869   1.966 -0.0619  0.1028 -0.1776
 9510SOL    HW139992   1.714   3.861   1.876  0.9718  1.9755  0.0321
 9510SOL    HW239993   1.589   3.847   1.957  0.1532 -0.6227 -0.6742
 9511SOL     OW39994   3.267   3.161   7.096  0.0900 -0.4611  0.1960
 9511SOL    HW139995   3.340   3.206   7.140 -1.2969 -0.4850  2.5353
 9511SOL    HW239996   3.288   3.071   7.073 -2.4812 -1.4599  1.7157
 9512SOL     OW39997   3.309   0.915   7.854  0.1954  0.0013  0.0400
 9512SOL    HW139998   3.235   0.949   7.905  1.3241  2.1898  0.2087
 9512SOL    HW239999   3.303   0.822   7.879 -0.9216  0.0670  0.0146
 9513SOL     OW40000   1.800   1.701  17.149 -0.0280  0.0032  0.3881
 9513SOL    HW140001   1.776   1.794  17.151  0.2271  0.1690 -3.3826
 9513SOL    HW240002   1.846   1.696  17.232  0.2893 -2.0173  0.0785
 9514SOL     OW40003   1.200   0.843   1.802 -0.3915 -0.2544 -0.8479
 9514SOL    HW140004   1.161   0.898   1.734 -0.5722 -2.3117 -2.4273
 9514SOL    HW240005   1.215   0.756   1.766 -1.7340 -0.3683 -1.1334
 9515SOL     OW40006   2.261   3.892   8.800 -0.3374  0.6875 -0.3849
 9515SOL    HW140007   2.180   3.879   8.849  0.9557  0.7512  1.7389
 9515SOL    HW240008   2.272   3.987   8.809  1.4751  0.3975  0.4321
 9516SOL     OW40009   0.952   4.035  17.492  0.0714 -0.3248 -0.0048
 9516SOL    HW140010   0.893   4.106  17.518 -0.2615 -1.6163  2.7631
 9516SOL    HW240011   1.017   4.023  17.561  1.1225 -0.6772 -1.0516
 9517SOL     OW40012   1.057   2.054   3.769 -0.0858 -0.0463  0.2442
 9517SOL    HW140013   1.065   2.012   3.855 -0.9639  0.6409  0.6628
 9517SOL    HW240014   0.974   2.101   3.779 -0.6619 -0.6282 -1.9893
 9518SOL     OW40015   1.032   0.740   9.670 -0.4327  0.6462  0.2400
 9518SOL    HW140016   1.047   0.645   9.667 -2.0130  0.4398 -0.7953
 9518SOL    HW240017   1.034   0.744   9.766  2.6557  3.0905  0.0494
 9519SOL     OW40018   1.957   1.323   9.229  0.0694  0.0611 -0.2672
 9519SOL    HW140019   1.947   1.345   9.321 -2.4689  1.9077 -0.9910
 9519SOL    HW240020   1.922   1.400   9.185  0.1474  1.0068  1.3559
 9520SOL     OW40021   1.109   1.863   8.079 -0.0334 -0.2925  0.2488
 9520SOL    HW140022   1.154   1.929   8.025 -1.9136 -1.8397 -3.2343
 9520SOL    HW240023   1.038   1.918   8.113 -1.5000 -2.2609  0.3553
 9521SOL     OW40024   3.153   4.682   3.826  0.1119  0.2578  0.1925
 9521SOL    HW140025   3.198   4.655   3.746 -1.0311 -0.5917 -0.1577
 9521SOL    HW240026   3.141   0.049   3.799  1.9947  0.2196 -0.7946
 9522SOL     OW40027   2.760   1.083   7.280 -0.3158  0.6339  0.5972
 9522SOL    HW140028   2.810   1.132   7.214  1.1743 -1.8986 -0.1355
 9522SOL    HW240029   2.737   1.149   7.346 -1.9082  3.3107 -2.6502
 9523SOL     OW40030   3.201   1.562  17.687  0.2915 -0.7297  0.0097
 9523SOL    HW140031   3.292   1.531  17.697 -0.5469 -3.3909 -0.5490
 9523SOL    HW240032   3.188   1.579  17.593  2.8737 -1.3945 -0.4836
 9524SOL     OW40033   4.137   2.718  17.034  0.4144 -0.7566 -0.5846
 9524SOL    HW140034   4.195   2.723  16.958  0.9956  0.0264 -0.0921
 9524SOL    HW240035   4.146   2.801  17.081  0.4659 -0.6602 -0.7666
 9525SOL     OW40036   1.166   3.113  16.136 -0.0726 -0.3303  0.6413
 9525SOL    HW140037   1.147   3.206  16.133  0.4442 -0.2620 -0.6825
 9525SOL    HW240038   1.090   3.080  16.183 -2.3479  0.9905 -2.1249
 9526SOL     OW40039   0.727   2.237   8.828  0.7748 -0.2199  0.0865
 9526SOL    HW140040   0.697   2.284   8.751  0.4375 -1.5240 -0.5688
 9526SOL    HW240041   0.803   2.293   8.843  0.8179 -0.5260  0.9996
 9527SOL     OW40042   3.930   0.254   4.733 -0.0098  0.8951  0.2501
 9527SOL    HW140043   3.982   0.334   4.741 -0.8613  1.3344  1.5276
 9527SOL    HW240044   3.873   0.285   4.663  0.1473  1.9933  0.6148
 9528SOL     OW40045   2.788   2.435   3.784 -0.4677  0.9890  0.0613
 9528SOL    HW140046   2.849   2.402   3.851  0.6236  0.2221 -1.3040
 9528SOL    HW240047   2.850   2.442   3.711 -0.2497 -0.3217  0.1308
 9529SOL     OW40048   4.453   2.251  11.080  0.0433 -0.3183  0.0844
 9529SOL    HW140049   4.440   2.167  11.124  0.1145 -0.3535  0.0384
 9529SOL    HW240050   4.368   2.283  11.050  1.3703 -0.5705 -4.0064
 9530SOL     OW40051   0.804   1.037  12.082  0.3684 -0.1142 -0.0827
 9530SOL    HW140052   0.754   1.119  12.071  2.4423  1.3791  1.7492
 9530SOL    HW240053   0.854   1.061  12.160 -1.6485 -0.4079  1.3216
 9531SOL     OW40054   4.709   2.660   6.208  0.2149  0.5267  0.7052
 9531SOL    HW140055   4.690   2.692   6.297  0.8902 -2.2272  1.8342
 9531SOL    HW240056   4.710   2.739   6.154 -0.6111 -0.0684 -0.1767
 9532SOL     OW40057   0.278   2.174   4.709  0.4788  0.5327 -0.3698
 9532SOL    HW140058   0.208   2.222   4.666  0.0007  1.0620  1.0084
 9532SOL    HW240059   0.229   2.117   4.769  1.0377 -1.1656 -1.5193
 9533SOL     OW40060   2.534   4.500   3.705 -0.0869 -0.4781  0.4873
 9533SOL    HW140061   2.536   4.492   3.609 -1.2611 -0.1043  0.4403
 9533SOL    HW240062   2.509   4.409   3.721  0.5952 -0.7595 -0.0124
 9534SOL     OW40063   2.781   2.228  10.613 -0.2385 -0.5575  0.5358
 9534SOL    HW140064   2.791   2.138  10.643  3.9618  0.2526  1.5527
 9534SOL    HW240065   2.711   2.259  10.670 -0.0672  1.0456 -0.1385
 9535SOL     OW40066   4.438   4.505  13.449 -0.1292 -0.0788  0.0374
 9535SOL    HW140067   4.523   4.513  13.406 -0.3086  1.0452 -0.1244
 9535SOL    HW240068   4.458   4.439  13.515  2.3465 -1.1684 -1.8183
 9536SOL     OW40069   0.251   3.335   3.284  0.5814  0.2388  0.1396
 9536SOL    HW140070   0.189   3.393   3.241  0.7262 -0.4986 -1.0456
 9536SOL    HW240071   0.278   3.393   3.356  2.2619  0.1721 -0.4208
 9537SOL     OW40072   3.311   2.600  17.603  0.7370 -0.4628  0.1633
 9537SOL    HW140073   3.353   2.685  17.589  0.5017 -0.4175 -0.2736
 9537SOL    HW240074   3.381   2.538  17.584  0.6520 -0.9539  1.4322
 9538SOL     OW40075   3.227   0.454  12.281  0.8065 -0.3188  0.6559
 9538SOL    HW140076   3.213   0.532  12.226 -0.3989 -0.6130  0.5508
 9538SOL    HW240077   3.139   0.450  12.317  0.4092 -1.8534 -0.5115
 9539SOL     OW40078   3.481   0.772   9.846 -0.3210 -0.3510  0.0212
 9539SOL    HW140079   3.563   0.723   9.851  1.2006  2.2937  0.7548
 9539SOL    HW240080   3.471   0.774   9.751 -0.5292  1.3621  0.0803
 9540SOL     OW40081   3.981   0.600  10.407 -0.0630 -0.1846 -0.3470
 9540SOL    HW140082   4.020   0.609  10.319 -0.4106  0.3542 -0.4452
 9540SOL    HW240083   3.898   0.645  10.394 -0.8093 -1.4826 -0.0862
 9541SOL     OW40084   3.237   4.340   4.233  0.2006  0.4729  0.0267
 9541SOL    HW140085   3.254   4.418   4.180  1.4659  2.0508  2.8096
 9541SOL    HW240086   3.211   4.285   4.159 -0.6208 -0.9272  1.3520
 9542SOL     OW40087   4.140   1.031  15.091 -0.0725 -0.4262  0.3146
 9542SOL    HW140088   4.201   0.974  15.045  0.0958 -0.0371  0.0533
 9542SOL    HW240089   4.151   1.111  15.039  1.9712 -1.2585 -0.5283
 9543SOL     OW40090   0.599   3.057  13.752  0.2497 -0.8110 -0.3384
 9543SOL    HW140091   0.681   3.008  13.753 -0.1219 -1.4287 -0.2296
 9543SOL    HW240092   0.574   3.037  13.842 -1.7953 -0.1066 -0.7446
 9544SOL     OW40093   3.078   3.382   6.727  0.4296  0.6675 -0.0808
 9544SOL    HW140094   3.058   3.470   6.759 -0.0916  0.5872 -0.1838
 9544SOL    HW240095   3.133   3.410   6.654  1.4983 -0.5525  0.2640
 9545SOL     OW40096   0.781   0.104   3.369  0.5100 -0.2623  0.5656
 9545SOL    HW140097   0.744   0.053   3.441 -0.7105 -0.1728  0.0019
 9545SOL    HW240098   0.721   0.095   3.296  1.6634  2.4773 -0.7240
 9546SOL     OW40099   1.957   3.517  11.810  0.1170 -0.0415 -0.0132
 9546SOL    HW140100   1.868   3.501  11.778  0.1194  1.2613 -0.6463
 9546SOL    HW240101   2.012   3.502  11.733  0.5856 -3.0810  0.9083
 9547SOL     OW40102   1.532   3.914   2.266 -0.0513 -0.5389  0.5255
 9547SOL    HW140103   1.475   3.969   2.319  0.4819  0.6195 -0.0989
 9547SOL    HW240104   1.475   3.866   2.206 -3.7279  2.4572  1.6622
 9548SOL     OW40105   3.130   3.139   1.891  0.1662 -0.2298  0.1952
 9548SOL    HW140106   3.214   3.093   1.894  0.2759 -0.0496 -0.1511
 9548SOL    HW240107   3.075   3.082   1.837 -1.2104  2.2229 -1.0259
 9549SOL     OW40108   4.636   0.308   5.198 -0.0794 -0.1363  0.2635
 9549SOL    HW140109   4.699   0.329   5.129 -0.7220 -0.7609 -0.5146
 9549SOL    HW240110   4.689   0.255   5.258  0.4106 -0.0012 -0.0548
 9550SOL     OW40111   2.015   0.231   8.848 -0.3196  0.3003  0.2382
 9550SOL    HW140112   2.022   0.298   8.916 -0.3182  0.2781  0.2597
 9550SOL    HW240113   1.938   0.259   8.799  1.8474  1.4238 -2.5414
 9551SOL     OW40114   3.035   2.389  11.338  0.0659  0.1323  0.1734
 9551SOL    HW140115   3.019   2.483  11.338 -0.7565 -0.0008 -0.0649
 9551SOL    HW240116   3.119   2.374  11.381  0.3481  0.7387 -0.1694
 9552SOL     OW40117   1.299   0.571   6.177 -0.6660  0.0275 -0.1335
 9552SOL    HW140118   1.372   0.583   6.237  0.4366  0.1375 -1.4867
 9552SOL    HW240119   1.223   0.616   6.213 -0.3753 -0.2460  0.8128
 9553SOL     OW40120   0.321   3.740  15.896  0.0513  0.2614  0.3789
 9553SOL    HW140121   0.355   3.668  15.948  0.4345  0.2286  0.0889
 9553SOL    HW240122   0.290   3.804  15.961 -1.4324  1.9327 -1.9721
 9554SOL     OW40123   2.266   1.101   5.790 -0.4076 -0.0483 -0.3484
 9554SOL    HW140124   2.200   1.171   5.791 -0.8868 -0.4824 -1.7240
 9554SOL    HW240125   2.328   1.132   5.724  0.2202  0.3603  0.4365
 9555SOL     OW40126   0.468   1.952   9.475 -0.9875 -0.2300 -0.0269
 9555SOL    HW140127   0.413   1.916   9.406  0.3483 -2.7252  0.2062
 9555SOL    HW240128   0.417   1.916   9.548 -1.0702  1.7514  0.8765
 9556SOL     OW40129   1.659   2.452   4.058  0.5130  0.1789 -0.1907
 9556SOL    HW140130   1.649   2.363   4.026  1.2171 -0.9496  2.7732
 9556SOL    HW240131   1.662   2.509   3.981 -2.3822  1.8974  0.9636
 9557SOL     OW40132   1.620   1.802   4.088 -0.1308 -0.0395 -0.3272
 9557SOL    HW140133   1.527   1.781   4.083 -0.2501  0.3129  0.3970
 9557SOL    HW240134   1.632   1.885   4.134  1.3295 -0.0601 -0.6481
 9558SOL     OW40135   2.416   0.667  17.553  0.8646 -0.2325 -0.2965
 9558SOL    HW140136   2.406   0.746  17.499  4.5539  0.1941 -0.3637
 9558SOL    HW240137   2.459   0.705  17.629  3.0468 -0.1474 -1.5548
 9559SOL     OW40138   3.826   4.039  12.665 -0.3156  0.3550 -0.0827
 9559SOL    HW140139   3.766   4.098  12.711 -2.1959 -1.0330 -0.7340
 9559SOL    HW240140   3.857   3.993  12.743 -0.6954 -2.8678 -1.8452
 9560SOL     OW40141   2.500   4.059   6.394  0.7962  0.2414  0.2752
 9560SOL    HW140142   2.498   4.136   6.451 -0.7714 -0.6655  1.4215
 9560SOL    HW240143   2.595   4.049   6.391  0.6467 -1.3732  1.4182
 9561SOL     OW40144   1.576   3.909   9.456  0.3317 -0.2135  0.6874
 9561SOL    HW140145   1.621   3.835   9.414  0.1077 -0.1493  0.3327
 9561SOL    HW240146   1.649   3.954   9.498 -0.2107 -0.5695  2.0020
 9562SOL     OW40147   3.375   1.145   8.804 -0.0008 -0.0957 -0.1126
 9562SOL    HW140148   3.454   1.123   8.755  0.3114  0.4041  0.1603
 9562SOL    HW240149   3.351   1.054   8.822 -0.4135 -0.1490 -0.9298
 9563SOL     OW40150   2.751   4.367   7.917 -0.3015  0.1723  0.5216
 9563SOL    HW140151   2.700   4.352   7.996 -3.0847  1.6792 -1.0057
 9563SOL    HW240152   2.769   4.461   7.922  1.6684 -0.3346  3.0542
 9564SOL     OW40153   2.699   1.523   2.295 -0.2301 -0.0356 -0.2526
 9564SOL    HW140154   2.614   1.535   2.336 -0.1535 -2.0690  0.4740
 9564SOL    HW240155   2.721   1.616   2.281  2.3596 -0.9629 -2.4720
 9565SOL     OW40156   2.362   3.274   1.091 -0.4319  0.2101  0.8356
 9565SOL    HW140157   2.371   3.275   1.186  1.5538 -1.9747  0.6719
 9565SOL    HW240158   2.373   3.366   1.069 -2.6307  0.2931  0.1039
 9566SOL     OW40159   3.260   1.402  12.393 -1.0078 -0.4828 -0.1446
 9566SOL    HW140160   3.253   1.337  12.463  0.6800 -3.1254 -2.4014
 9566SOL    HW240161   3.172   1.394  12.356 -2.4827  0.1675  3.1625
 9567SOL     OW40162   0.466   4.462   8.626 -0.2184 -0.2550 -0.1361
 9567SOL    HW140163   0.380   4.477   8.588 -2.5696  0.1197  5.2597
 9567SOL    HW240164   0.512   4.536   8.587  1.4032 -1.2098 -0.0243
 9568SOL     OW40165   4.002   0.860   3.865 -0.6889 -0.0216  0.2715
 9568SOL    HW140166   4.041   0.830   3.947 -0.5931  0.8914  0.5684
 9568SOL    HW240167   3.983   0.951   3.888  0.2448  0.1148  0.5221
   4.72440   4.72440  17.69918
