Membrane in water
40167
    1TCq1    O1    1   3.559   0.359  11.242  0.7281 -0.0171 -0.3615
    1TCq1    C1    2   3.589   0.237  11.275  0.9457 -0.1403 -0.3273
    1TCq1    O2    3   3.660   0.159  11.213 -0.0480 -0.1830 -0.6049
    1TCq1    C2    4   3.532   0.210  11.404 -0.1187 -0.1433  0.0581
    1TCq1    C3    5   3.567   0.304  11.499  0.1756 -0.4001 -0.1806
    1TCq1    C4    6   3.554   0.275  11.634 -0.9911 -0.4228  0.2687
    1TCq1    C5    7   3.516   0.145  11.669 -0.0686 -0.8231 -1.0207
    1TCq1    C6    8   3.503   0.053  11.568 -0.1811  0.2609  0.7813
    1TCq1    C7    9   3.502   0.084  11.438  0.2506  0.2536  0.4941
    1TCq1    C8   10   3.481   4.632  11.603 -0.0581  0.1824  0.3791
    1TCq1    O4   11   3.460   4.596  11.717 -0.1594  0.0451  0.4922
    1TCq1    C9   12   3.579   0.371  11.733  0.3112  0.1058 -0.2871
    1TCq1    O5   13   3.619   0.484  11.696 -0.2527  0.4443  0.1634
    1TCq1    O6   14   3.523   0.356  11.843  0.1395  0.1778 -0.1354
    1TCq1    H1   15   3.473   0.374  11.286  1.2473  0.9614  0.3430
    1TCq1    H2   16   3.593   0.407  11.477  0.5450 -0.2851  0.7731
    1TCq1    H3   17   3.511   0.111  11.772  2.3023  0.7004 -0.4137
    1TCq1    H4   18   3.487   0.022  11.350 -0.2374 -0.9684  1.4329
    2MPD2     C   19   3.540   4.131  11.479  0.0326 -0.2806 -0.1958
    2MPD2    C1   20   3.462   4.198  11.575  0.4874  0.5750  0.2985
    2MPD2    C2   21   3.452   4.337  11.579 -0.5978 -0.0246 -0.1690
    2MPD2    C3   22   3.529   4.412  11.496  0.2675 -0.3097 -0.7230
    2MPD2    C4   23   3.595   4.348  11.396 -0.3005  1.1328  0.2159
    2MPD2    C5   24   3.602   4.208  11.390  0.2775  0.3590 -0.5531
    2MPD2     H   25   3.392   4.388  11.654  0.7831  2.9376 -1.0642
    2MPD2    H1   26   3.652   4.403  11.322  0.2542  0.2003 -0.0532
    2MPD2    H2   27   3.550   4.025  11.460  0.4021  0.0530 -1.8480
    2MPD2    H3   28   3.648   4.161  11.305  0.7480 -0.2106  0.0212
    2MPD2     N   29   3.531   4.551  11.495 -0.0366 -0.7824 -0.0314
    2MPD2    H5   30   3.583   4.598  11.423  0.1812 -1.5182 -0.3489
    2MPD2    N1   31   3.387   4.119  11.670 -0.3344 -0.2494 -0.0149
    2MPD2    H7   32   3.339   4.181  11.735  0.6877 -0.1156  0.6031
    3TCq1    O1   33   3.263   4.614  10.773  0.5563 -0.0480  0.1264
    3TCq1    C1   34   3.290   0.018  10.768  1.5217  0.0596  0.4385
    3TCq1    O2   35   3.399   0.069  10.791  0.2510  0.2692 -0.7688
    3TCq1    C2   36   3.184   0.097  10.721 -1.2466 -0.0021 -0.3537
    3TCq1    C3   37   3.203   0.209  10.645  0.1094  0.8388 -0.5575
    3TCq1    C4   38   3.100   0.299  10.632  0.9324  0.4546 -0.3495
    3TCq1    C5   39   2.984   0.277  10.694  0.1121  0.6554 -0.2590
    3TCq1    C6   40   2.968   0.173  10.776  0.1334 -0.0474  0.1626
    3TCq1    C7   41   3.066   0.078  10.787  0.1488 -0.2545  0.4936
    3TCq1    C8   42   2.865   0.170  10.879  0.1878  0.4815 -0.2134
    3TCq1    O4   43   2.868   0.071  10.950 -0.2659  0.7478 -0.3615
    3TCq1    C9   44   3.128   0.425  10.561 -0.4104 -0.1036  0.3887
    3TCq1    O5   45   3.039   0.517  10.569  0.5993 -0.0472  0.1491
    3TCq1    O6   46   3.225   0.425  10.483  0.4183 -0.0247 -0.4427
    3TCq1    H1   47   3.177   4.593  10.733  0.0748  0.2587  0.9935
    3TCq1    H2   48   3.304   0.233  10.613  0.0575 -0.0783 -1.4138
    3TCq1    H3   49   2.905   0.346  10.669 -1.2522 -0.8032  0.0055
    3TCq1    H4   50   3.067   4.713  10.849  1.5073 -0.0504  0.7610
    4MPD2     C   51   2.490   0.386  11.160 -0.4429  0.4566 -0.1578
    4MPD2    C1   52   2.557   0.484  11.078 -0.5101  0.7812  0.2631
    4MPD2    C2   53   2.648   0.443  10.985 -0.2106  0.5469  0.1575
    4MPD2    C3   54   2.689   0.309  10.977  0.6524 -0.1453 -0.0096
    4MPD2    C4   55   2.623   0.210  11.052  0.2439 -0.4854  0.2121
    4MPD2    C5   56   2.535   0.256  11.146 -0.1809  0.2824  0.0460
    4MPD2     H   57   2.705   0.505  10.916  2.1983  0.1476  1.7797
    4MPD2    H1   58   2.664   0.110  11.048  1.3442 -0.0568  0.5846
    4MPD2    H2   59   2.416   0.404  11.237  1.1331  2.4170  0.9200
    4MPD2    H3   60   2.490   0.181  11.211 -0.8792  0.7107  0.0611
    4MPD2     N   61   2.795   0.282  10.885  0.6200 -0.3889  0.2712
    4MPD2    H5   62   2.828   0.353  10.819 -0.5918  0.6658  0.8025
    4MPD2    N1   63   2.523   0.626  11.089  0.0814  0.3336 -0.3638
    4MPD2    H7   64   2.562   0.696  11.026 -0.0944  1.0977  0.3750
    5TCq1    O1   65   3.009   1.394  11.731  0.4817 -0.4382  0.1079
    5TCq1    C1   66   3.093   1.492  11.773  0.4118 -0.0100  0.3690
    5TCq1    O2   67   3.212   1.465  11.769 -0.2615 -0.1859 -0.4247
    5TCq1    C2   68   3.039   1.608  11.712 -0.6707 -0.2738 -0.3137
    5TCq1    C3   69   2.932   1.675  11.760 -0.1067 -0.4513 -0.4828
    5TCq1    C4   70   2.879   1.773  11.677 -0.2387 -0.2638 -0.4943
    5TCq1    C5   71   2.938   1.799  11.551 -0.3031  0.7338 -0.7384
    5TCq1    C6   72   3.052   1.730  11.515 -0.2100  0.3930  0.4780
    5TCq1    C7   73   3.091   1.616  11.588 -0.1480 -1.0682 -0.4101
    5TCq1    C8   74   3.126   1.746  11.391 -0.2639 -0.1802 -0.8998
    5TCq1    O4   75   3.198   1.655  11.352  0.3516  0.3628 -0.1976
    5TCq1    C9   76   2.771   1.861  11.724 -0.0059 -0.7236 -0.2716
    5TCq1    O5   77   2.725   1.939  11.636 -0.6332 -0.4002  0.1983
    5TCq1    O6   78   2.713   1.816  11.829 -0.1869  0.4109  0.4016
    5TCq1    H1   79   2.914   1.419  11.738  0.9275  0.9798  1.2688
    5TCq1    H2   80   2.904   1.671  11.865  1.2845 -0.5679 -0.1188
    5TCq1    H3   81   2.904   1.885  11.494 -2.8993  0.0154 -0.2679
    5TCq1    H4   82   3.176   1.558  11.554  0.1485 -0.9348  0.1107
    6MPD2     C   83   3.068   2.007  11.120 -0.1610  0.1235  0.2187
    6MPD2    C1   84   3.126   1.898  11.187 -0.2929 -0.2551  0.5197
    6MPD2    C2   85   3.229   1.830  11.127 -0.2220  0.4927  0.0273
    6MPD2    C3   86   3.265   1.851  10.992  0.1266  0.4964  0.0117
    6MPD2    C4   87   3.202   1.955  10.922  0.2924 -0.0330 -0.5688
    6MPD2    C5   88   3.105   2.030  10.988  0.2339 -0.9303  0.0466
    6MPD2     H   89   3.293   1.761  11.179 -0.7962 -0.3839 -0.4243
    6MPD2    H1   90   3.232   1.975  10.820  3.1714 -0.3303  0.2216
    6MPD2    H2   91   2.996   2.073  11.167  0.2430  0.7391 -0.0270
    6MPD2    H3   92   3.054   2.099  10.922  1.2978 -2.6399 -2.5416
    6MPD2     N   93   3.372   1.780  10.941 -0.4998  0.6571 -0.2352
    6MPD2    H5   94   3.428   1.727  11.007  0.2139 -0.3960 -1.6846
    6MPD2    N1   95   3.091   1.863  11.321 -0.6569 -0.6168  0.2296
    6MPD2    H7   96   3.036   1.927  11.378  3.2621  1.3447  1.7550
    7TCq1    O1   97   0.284   2.304  13.190  0.0470 -0.6021  0.3754
    7TCq1    C1   98   0.382   2.220  13.236  0.4902 -0.0634 -0.8651
    7TCq1    O2   99   0.481   2.268  13.280 -0.1589  0.1743  0.1582
    7TCq1    C2  100   0.311   2.096  13.289 -0.6452  0.6120 -0.0895
    7TCq1    C3  101   0.204   2.038  13.225 -0.0323 -0.0681 -0.5521
    7TCq1    C4  102   0.143   1.934  13.290 -0.1499  0.1716  0.5871
    7TCq1    C5  103   0.205   1.874  13.402  0.7465 -0.9997 -0.4310
    7TCq1    C6  104   0.327   1.923  13.445  0.6157  0.9651  0.4494
    7TCq1    C7  105   0.376   2.044  13.398 -0.4548 -0.1913  0.2244
    7TCq1    C8  106   0.410   1.838  13.529 -0.3065  0.1449 -1.2542
    7TCq1    O4  107   0.351   1.746  13.584 -0.1347  0.5888 -0.4683
    7TCq1    C9  108   0.021   1.872  13.237 -0.2660 -0.0752  0.3755
    7TCq1    O5  109   4.680   1.797  13.317  0.3853  0.8014 -0.5013
    7TCq1    O6  110   0.002   1.882  13.116  0.0494  0.2084  0.0955
    7TCq1    H1  111   0.204   2.257  13.161 -1.6490  3.9343 -2.3526
    7TCq1    H2  112   0.153   2.069  13.135 -0.4055  0.4516 -0.1577
    7TCq1    H3  113   0.166   1.778  13.432  0.7508 -1.1393 -0.8688
    7TCq1    H4  114   0.459   2.096  13.445 -1.6109  1.4738  0.4183
    8MPD2     C  115   0.829   1.702  13.796 -0.9632 -0.2565  0.2758
    8MPD2    C1  116   0.712   1.631  13.758  0.6853  0.0308 -0.1011
    8MPD2    C2  117   0.622   1.691  13.676 -0.4116  0.7044  0.2046
    8MPD2    C3  118   0.638   1.824  13.638 -0.2198 -0.1121 -0.2527
    8MPD2    C4  119   0.749   1.895  13.674  0.3408 -0.3885 -0.3914
    8MPD2    C5  120   0.843   1.832  13.747 -0.1168  0.1432 -0.2460
    8MPD2     H  121   0.531   1.636  13.654 -0.1169  0.2555  0.1080
    8MPD2    H1  122   0.758   2.001  13.655 -1.9438 -0.1280 -0.0884
    8MPD2    H2  123   0.915   1.676  13.856 -1.5714 -0.8202  0.8960
    8MPD2    H3  124   0.932   1.884  13.782  2.2467 -3.5112 -0.8335
    8MPD2     N  125   0.534   1.892  13.562 -0.1630  0.2530 -0.4328
    8MPD2    H5  126   0.574   1.979  13.528  2.3320 -0.6516  0.1272
    8MPD2    N1  127   0.711   1.493  13.780 -0.3925 -0.1589  0.0452
    8MPD2    H7  128   0.790   1.462  13.837  1.3833  1.7250 -1.4099
    9TCq1    O1  129   3.121   3.537  11.497 -0.4208  0.7128  0.0815
    9TCq1    C1  130   3.135   3.655  11.437 -0.8902 -0.1587  0.0032
    9TCq1    O2  131   3.175   3.667  11.322 -0.0279 -0.1124 -0.0835
    9TCq1    C2  132   3.055   3.752  11.511 -0.0136 -0.3892 -0.1130
    9TCq1    C3  133   2.958   3.725  11.602 -0.5001 -0.0786 -0.2342
    9TCq1    C4  134   2.894   3.830  11.672  0.6385  0.1613 -0.1867
    9TCq1    C5  135   2.935   3.958  11.646  0.5417  0.4336 -0.2629
    9TCq1    C6  136   3.029   3.986  11.550 -0.3088 -0.7348  0.6552
    9TCq1    C7  137   3.087   3.877  11.488  0.1856 -0.4493  0.5549
    9TCq1    C8  138   3.059   4.125  11.506  0.1792 -0.0453 -0.0247
    9TCq1    O4  139   3.128   4.132  11.404  0.3495 -0.1343 -0.3002
    9TCq1    C9  140   2.801   3.817  11.778 -0.7201  0.9661 -0.0261
    9TCq1    O5  141   2.792   3.915  11.855 -0.0802 -0.0726  0.4709
    9TCq1    O6  142   2.748   3.701  11.789 -0.0655  0.3472  0.3956
    9TCq1    H1  143   3.112   3.533  11.595  1.6409 -0.2538  0.2379
    9TCq1    H2  144   2.927   3.626  11.632 -1.9754  0.5291  0.2610
    9TCq1    H3  145   2.885   4.036  11.702 -1.0379 -0.8015  0.0589
    9TCq1    H4  146   3.165   3.901  11.417 -1.3485  1.0828 -0.5930
   10MPD2     C  147   3.114   4.408  11.486 -0.9305  0.3022 -0.0000
   10MPD2    C1  148   3.070   4.352  11.608  0.0106 -0.0259 -0.3356
   10MPD2    C2  149   3.017   4.432  11.704  0.3919 -0.2091  0.6902
   10MPD2    C3  150   3.018   4.571  11.688 -0.3682 -0.2452 -0.1531
   10MPD2    C4  151   3.074   4.631  11.572 -1.0154  0.1693 -0.2511
   10MPD2    C5  152   3.114   4.548  11.468 -0.6543 -0.5658 -0.5912
   10MPD2     H  153   2.978   4.390  11.796 -3.3554 -1.8680 -1.6503
   10MPD2    H1  154   3.076   0.014  11.556 -1.2039 -0.1433 -2.3588
   10MPD2    H2  155   3.156   4.354  11.402 -0.5829 -0.4103  0.6360
   10MPD2    H3  156   3.150   4.576  11.370  0.4984  2.0517  0.5771
   10MPD2     N  157   2.969   4.663  11.785  0.6449  0.4641 -0.0118
   10MPD2    H5  158   2.970   0.039  11.765 -1.1295  0.7843  1.4057
   10MPD2    N1  159   3.041   4.211  11.614 -0.1387  0.7891  0.8365
   10MPD2    H7  160   3.005   4.177  11.702  1.4135 -1.7772  0.4626
   11TCq1    O1  161   4.179   0.280  13.695 -0.0975 -0.3632  0.1201
   11TCq1    C1  162   4.150   0.210  13.807  0.7160 -0.0993 -0.0665
   11TCq1    O2  163   4.141   0.090  13.809 -0.6011  0.2918 -0.2347
   11TCq1    C2  164   4.127   0.292  13.922 -0.1272  0.1713 -0.5369
   11TCq1    C3  165   4.183   0.416  13.922  0.6600  0.0722 -0.7919
   11TCq1    C4  166   4.107   0.513  13.981  0.2349 -1.0122 -0.8869
   11TCq1    C5  167   4.001   0.479  14.062 -0.0318  0.0136 -0.2194
   11TCq1    C6  168   3.951   0.355  14.059  0.1733 -0.0206 -0.1439
   11TCq1    C7  169   4.015   0.254  13.987 -0.0998 -0.0775 -0.2711
   11TCq1    C8  170   3.824   0.337  14.126 -0.0244 -0.8331 -0.6630
   11TCq1    O4  171   3.786   0.430  14.200  0.6242 -0.1554  0.1237
   11TCq1    C9  172   4.146   0.652  13.972 -0.0165  0.0774  0.7537
   11TCq1    O5  173   4.258   0.668  13.917  0.2304  0.1022  0.2902
   11TCq1    O6  174   4.058   0.731  14.005  0.3335  0.9570  0.3126
   11TCq1    H1  175   4.167   0.377  13.688  0.8717 -0.3502 -1.4639
   11TCq1    H2  176   4.281   0.438  13.879  0.5080  2.2402 -0.0281
   11TCq1    H3  177   3.944   0.562  14.099  0.9548  0.0162  1.2800
   11TCq1    H4  178   3.983   0.151  13.982 -2.6711  0.7027  0.2644
   12MPD2     C  179   3.560   0.229  14.246  0.2361 -0.5198  0.0083
   12MPD2    C1  180   3.627   0.186  14.135 -0.0702  0.0304  0.1139
   12MPD2    C2  181   3.578   0.071  14.073 -0.2140  0.4499 -0.0976
   12MPD2    C3  182   3.465   4.722  14.120 -0.3148 -0.8943 -0.4839
   12MPD2    C4  183   3.404   0.039  14.235 -0.4004  0.0882 -0.6453
   12MPD2    C5  184   3.448   0.161  14.291 -0.1974  0.2550  0.3109
   12MPD2     H  185   3.633   0.046  13.983  3.1833  0.5248  1.9661
   12MPD2    H1  186   3.314   4.711  14.266  0.4658 -1.8322 -1.3523
   12MPD2    H2  187   3.609   0.309  14.299 -1.0473  1.0917 -1.2341
   12MPD2    H3  188   3.393   0.202  14.376 -0.7187  1.8825 -0.8230
   12MPD2     N  189   3.411   4.615  14.049  0.3371 -0.0280  0.3121
   12MPD2    H5  190   3.326   4.585  14.095 -0.8954  1.5187 -0.9541
   12MPD2    N1  191   3.756   0.220  14.089 -0.3011  0.1259 -0.0814
   12MPD2    H7  192   3.784   0.173  14.004  1.9145  0.5616  0.4190
   13TCq1    O1  193   3.280   0.054  10.162  0.2814 -0.4349 -0.3532
   13TCq1    C1  194   3.300   4.675  10.258  0.1685 -0.5330  0.1996
   13TCq1    O2  195   3.407   4.632  10.303  0.2873 -0.2567 -0.0472
   13TCq1    C2  196   3.167   4.628  10.283  0.5389 -0.3772  0.0941
   13TCq1    C3  197   3.073   4.618  10.186  0.2585  0.1690 -0.1363
   13TCq1    C4  198   2.949   4.561  10.201 -0.2160  0.0460 -0.3338
   13TCq1    C5  199   2.920   4.505  10.320 -0.1288 -0.1282  0.7972
   13TCq1    C6  200   3.009   4.528  10.424  0.0638 -0.1082  0.1692
   13TCq1    C7  201   3.138   4.568  10.403 -0.2334  0.8504 -0.3081
   13TCq1    C8  202   2.970   4.516  10.569  0.0897 -0.8142  0.2459
   13TCq1    O4  203   3.047   4.562  10.649 -0.1943 -0.2786  0.0557
   13TCq1    C9  204   2.852   4.573  10.097 -0.5495  0.8018 -0.3792
   13TCq1    O5  205   2.743   4.512  10.122 -0.4805  0.1999  0.3425
   13TCq1    O6  206   2.883   4.641   9.993 -0.5008  0.3520 -0.2864
   13TCq1    H1  207   3.186   0.083  10.169  0.4158 -0.0675 -0.0640
   13TCq1    H2  208   3.095   4.654  10.086  0.5035  1.8038  0.5038
   13TCq1    H3  209   2.819   4.465  10.326 -0.5189  0.7397  0.1643
   13TCq1    H4  210   3.221   4.561  10.472 -1.1506 -1.1146  0.5831
   14MPD2     C  211   2.660   4.381  10.692  0.2861  0.0708 -0.4341
   14MPD2    C1  212   2.781   4.443  10.705  0.5920 -0.2791 -0.4405
   14MPD2    C2  213   2.829   4.491  10.825  0.2169  0.3700  0.2915
   14MPD2    C3  214   2.752   4.472  10.938  0.7450 -0.5436  0.6789
   14MPD2    C4  215   2.631   4.411  10.929  0.4131  0.6028 -0.8055
   14MPD2    C5  216   2.587   4.365  10.808  0.4467  0.2382 -0.0907
   14MPD2     H  217   2.916   4.555  10.826  0.8374 -0.4856  1.8334
   14MPD2    H1  218   2.557   4.413  11.009  1.2882 -2.4303  0.0572
   14MPD2    H2  219   2.628   4.335  10.600 -0.3845 -1.1150  0.3999
   14MPD2    H3  220   2.485   4.327  10.800 -0.1947  2.2537 -1.5890
   14MPD2     N  221   2.791   4.521  11.066  0.1716 -0.0987 -0.5879
   14MPD2    H5  222   2.848   4.605  11.063  2.7247 -1.8168  0.8392
   14MPD2    N1  223   2.849   4.457  10.581  0.6201 -0.0124 -0.4296
   14MPD2    H7  224   2.793   4.420  10.505  1.8475 -1.0418 -0.8339
   15TCq1    O1  225   4.522   0.425   1.892  0.6629 -0.0940 -0.6376
   15TCq1    C1  226   4.555   0.435   2.019  0.1665 -0.0372 -0.4884
   15TCq1    O2  227   4.541   0.531   2.087 -0.0622  0.2990  0.2371
   15TCq1    C2  228   4.600   0.305   2.076  0.5779  0.7700  0.0123
   15TCq1    C3  229   4.556   0.277   2.201  0.0426 -0.5870 -0.2230
   15TCq1    C4  230   4.589   0.160   2.261  0.3030 -0.2960 -0.1680
   15TCq1    C5  231   4.662   0.072   2.186  0.1567  0.1219 -0.1638
   15TCq1    C6  232   4.703   0.102   2.057  0.2473  0.4906 -0.1797
   15TCq1    C7  233   4.669   0.217   1.996  0.4964  0.1419  0.1506
   15TCq1    C8  234   0.038   4.716   1.973 -0.2455 -0.0311 -0.2219
   15TCq1    O4  235   0.081   4.620   2.036 -0.5282 -0.5611 -0.2337
   15TCq1    C9  236   4.562   0.125   2.396 -0.9042  0.5712  0.2730
   15TCq1    O5  237   4.627   0.031   2.448 -0.9003 -0.0810  1.0470
   15TCq1    O6  238   4.491   0.208   2.460  0.2757  0.2247 -0.3905
   15TCq1    H1  239   4.547   0.341   1.847 -0.3309  0.2634 -1.8523
   15TCq1    H2  240   4.513   0.355   2.263  0.3618  0.1644 -0.9499
   15TCq1    H3  241   4.670   4.697   2.230 -0.8911  0.4608  0.7951
   15TCq1    H4  242   4.706   0.257   1.902  1.1695  0.4520  0.5447
   16MPD2     C  243   0.048   4.671   1.607  0.1762  0.4854 -0.4023
   16MPD2    C1  244   0.058   4.631   1.741 -0.1513 -0.3561  0.4199
   16MPD2    C2  245   0.093   4.500   1.768  0.2108  0.0145 -0.1185
   16MPD2    C3  246   0.120   4.415   1.661 -0.1088  0.5461  0.1538
   16MPD2    C4  247   0.095   4.454   1.530  0.8972  0.6935 -0.8877
   16MPD2    C5  248   0.062   4.582   1.504 -0.2617  0.1783 -0.3621
   16MPD2     H  249   0.104   4.471   1.871 -0.2618 -0.4154 -0.1860
   16MPD2    H1  250   0.111   4.389   1.445 -0.8481 -0.8046 -0.0665
   16MPD2    H2  251   0.036   0.050   1.576 -0.0095  1.2282  2.1668
   16MPD2    H3  252   0.043   4.614   1.402 -0.3537 -2.4340 -1.1798
   16MPD2     N  253   0.180   4.293   1.692 -0.0377 -0.4810 -0.8165
   16MPD2    H5  254   0.194   4.270   1.790  2.0323 -1.1049 -1.2668
   16MPD2    N1  255   0.026   0.008   1.838 -0.4274  0.1074  0.1479
   16MPD2    H7  256   4.705   0.092   1.802  0.4127  0.3706 -0.2974
   17TCq1    O1  257   2.334   3.016  10.130  0.0430 -0.0851 -0.3190
   17TCq1    C1  258   2.343   3.126  10.050 -0.7145 -0.5624  0.2078
   17TCq1    O2  259   2.292   3.136   9.938  0.0720  0.5407 -0.0928
   17TCq1    C2  260   2.478   3.179  10.058 -0.2847  0.5087  0.6925
   17TCq1    C3  261   2.554   3.195   9.946 -0.2770  0.3445 -0.4120
   17TCq1    C4  262   2.681   3.246   9.953 -0.0629  0.1451  0.1682
   17TCq1    C5  263   2.740   3.265  10.075  0.3994 -0.6942  0.4326
   17TCq1    C6  264   2.655   3.247  10.181  0.5497  0.1404 -0.1302
   17TCq1    C7  265   2.527   3.207  10.183  0.6047 -0.7658 -0.4567
   17TCq1    C8  266   2.700   3.297  10.312  0.4562 -0.0342  0.1605
   17TCq1    O4  267   2.640   3.263  10.413 -0.3701 -0.4343  0.4919
   17TCq1    C9  268   2.750   3.268   9.826  0.0317 -0.3153  0.5424
   17TCq1    O5  269   2.693   3.232   9.719  0.8811  0.0701  0.1047
   17TCq1    O6  270   2.872   3.292   9.836 -0.0628  1.3231  0.7788
   17TCq1    H1  271   2.402   2.994  10.197 -0.8009  1.1804  0.9559
   17TCq1    H2  272   2.523   3.180   9.843  0.0784 -0.7312 -0.3565
   17TCq1    H3  273   2.847   3.277  10.082  0.7399 -1.7869 -2.7850
   17TCq1    H4  274   2.473   3.196  10.277 -0.0790 -0.9024 -0.8610
   18MPD2     C  275   2.786   3.509  10.517 -0.6905  0.8255 -0.5865
   18MPD2    C1  276   2.835   3.496  10.389  0.3649 -0.4302 -0.3083
   18MPD2    C2  277   2.935   3.584  10.357 -1.2233  0.2568  0.4272
   18MPD2    C3  278   2.990   3.678  10.448  0.6051 -0.4829 -0.5251
   18MPD2    C4  279   2.937   3.683  10.579 -0.4394 -0.2653 -0.3214
   18MPD2    C5  280   2.832   3.599  10.605  0.1022  0.0602  0.1081
   18MPD2     H  281   2.979   3.569  10.259 -1.1447  2.4950  0.1201
   18MPD2    H1  282   2.973   3.756  10.650  0.9460 -0.6127 -0.6794
   18MPD2    H2  283   2.708   3.444  10.554  0.6792 -0.6441 -0.2720
   18MPD2    H3  284   2.802   3.583  10.708  2.4483 -0.2223  0.7563
   18MPD2     N  285   3.090   3.768  10.413 -0.1108 -0.4678 -0.0559
   18MPD2    H5  286   3.137   3.813  10.490  0.8591  1.5432 -1.8362
   18MPD2    N1  287   2.794   3.393  10.296 -0.6129 -0.9070  0.4124
   18MPD2    H7  288   2.837   3.407  10.206 -1.6795 -1.6633 -0.2050
   19TMC2    C1  289   4.451   0.094  13.735  0.3411  0.4227 -0.0987
   19TMC2    C2  290   4.452   0.105  13.604 -1.0445  0.1491 -0.1716
   19TMC2    C3  291   4.424   4.721  13.527  0.1055 -0.1879  0.3547
   19TMC2    C4  292   4.425   4.696  13.799 -0.4671  0.0743 -0.0803
   19TMC2    C5  293   4.407   4.587  13.719  0.0743  0.2704  0.0237
   19TMC2    C6  294   4.390   4.601  13.584  0.8413  0.3195 -0.0494
   19TMC2     C  295   4.518   0.198  13.815  0.5431  0.3914 -0.3304
   19TMC2     O  296   4.500   0.310  13.769  0.4115  0.8355 -0.2339
   19TMC2     H  297   4.459   0.204  13.562 -0.3710 -0.1954 -0.8739
   19TMC2    H1  298   4.420   4.689  13.907  0.4185 -1.7352 -0.1535
   19TMC2    H2  299   4.377   4.509  13.527 -2.4222 -0.0488  1.2896
   19TMC2    C7  300   4.349   4.466  13.772  0.2179  0.4001  0.2187
   19TMC2    C8  301   4.441   0.015  13.380 -0.3901 -0.8389 -0.0541
   19TMC2    O1  302   4.286   4.396  13.697  0.0947  0.0851 -0.1787
   19TMC2    O2  303   4.421   0.128  13.334  0.0494  0.4529  0.4733
   19TMC2    O5  304   4.513   4.644  13.322 -0.1624 -0.0780  0.2134
   19TMC2    H5  305   4.526   4.569  13.385  1.4785 -0.9007 -1.1106
   20MPD2     C  306   4.617   0.388  14.026  0.6708 -0.4906 -0.5283
   20MPD2    C1  307   4.627   0.248  14.034 -0.4211  0.3117 -0.1669
   20MPD2    C2  308   4.674   0.177  14.144 -0.1889  0.2320  0.2370
   20MPD2    C3  309   0.016   0.253  14.238  0.3681 -0.1853 -0.0760
   20MPD2    C4  310   0.009   0.390  14.236  0.5710  0.4882 -0.4239
   20MPD2    C5  311   4.670   0.455  14.131  0.4959 -0.6863 -0.0858
   20MPD2     H  312   4.680   0.070  14.129 -2.6181  0.2312 -0.7841
   20MPD2    H1  313   0.053   0.456  14.310 -1.0912  1.1255  0.0093
   20MPD2    H2  314   4.576   0.444  13.942 -0.4131  0.1688  0.4527
   20MPD2    H3  315   4.657   0.560  14.155 -1.0689 -0.4169 -2.1430
   20MPD2     N  316   0.090   0.194  14.337  0.0894 -0.4566  0.2047
   20MPD2    H5  317   0.142   0.264  14.389  0.8158  1.3426 -2.9654
   20MPD2    N1  318   4.560   0.159  13.943  0.4507 -0.2892 -0.2247
   20MPD2    H7  319   4.573   0.060  13.960 -3.0470 -0.6512  0.2568
   21MPD2     C  320   2.193   0.264  14.558  0.3118  0.0088  0.1892
   21MPD2    C1  321   2.193   0.129  14.594 -0.4244 -0.4824  0.4282
   21MPD2    C2  322   2.090   0.086  14.674  0.5590 -0.4467 -0.2325
   21MPD2    C3  323   1.980   0.158  14.703 -0.1590 -0.4420 -0.7596
   21MPD2    C4  324   1.980   0.289  14.660 -0.0579  0.1905  0.7467
   21MPD2    C5  325   2.093   0.335  14.597  0.3994  0.4914  0.5363
   21MPD2     H  326   2.097   4.708  14.713  0.0324 -0.5528 -0.4171
   21MPD2    H1  327   1.899   0.354  14.692 -0.3650 -0.6207  1.6124
   21MPD2    H2  328   2.269   0.312  14.498  0.2211 -2.7492 -2.1440
   21MPD2    H3  329   2.099   0.442  14.578  2.6083  0.4030  0.6739
   21MPD2     N  330   1.871   0.107  14.773  0.1128 -0.0411  0.7277
   21MPD2    H5  331   1.796   0.171  14.797 -0.8305 -0.2496 -1.6906
   21MPD2    N1  332   2.295   0.043  14.552  0.1986 -0.3421  0.4986
   21MPD2    H7  333   2.313   4.681  14.603 -2.0672 -0.5907  0.8476
   22TCq2    C1  334   1.848   4.703  14.819 -0.1341  0.6302  0.4572
   22TCq2    O2  335   1.930   4.613  14.829 -0.1168 -0.4253 -0.3754
   22TCq2    C2  336   1.727   4.690  14.887  0.5283  0.3683 -0.2235
   22TCq2    C3  337   1.727   4.628  15.011  0.5090  0.2935 -0.0805
   22TCq2    C4  338   1.629   4.668  15.090  0.0685 -0.8095  0.0749
   22TCq2    C5  339   1.518   0.017  15.048  0.3863  0.0834  0.3629
   22TCq2    C6  340   1.512   0.060  14.916 -0.0394  0.6434  0.3322
   22TCq2    C7  341   1.626   0.047  14.840  0.3814 -0.2479  0.2910
   22TCq2    C8  342   1.392   0.120  14.860  0.1247 -0.3638  0.0269
   22TCq2    O4  343   1.285   0.084  14.908 -0.3486 -0.6215 -0.1207
   22TCq2    C9  344   1.625   4.618  15.225  0.7308  0.6559  0.3286
   22TCq2    O5  345   1.562   4.690  15.308 -0.1215  0.2326 -0.1226
   22TCq2    O6  346   1.648   4.495  15.243  0.2877 -0.4322  0.1143
   22TCq2    H2  347   1.819   4.584  15.048 -0.9038  0.1526  3.2056
   22TCq2    H3  348   1.431   0.014  15.113  0.4849 -1.9807  0.4081
   22TCq2    H4  349   1.624   0.070  14.734  1.8787  0.0595  0.3293
   23MPD2     C  350   4.231   1.397  14.757 -0.1474 -0.2716  0.0735
   23MPD2    C1  351   4.146   1.372  14.870 -0.2175 -0.0344 -0.3551
   23MPD2    C2  352   4.037   1.458  14.888  0.0390 -0.1712  0.3548
   23MPD2    C3  353   4.000   1.551  14.790  0.0360 -0.2434 -0.4883
   23MPD2    C4  354   4.079   1.559  14.678 -0.1691  0.6203 -0.2858
   23MPD2    C5  355   4.195   1.490  14.663 -0.1286  0.7018 -0.2498
   23MPD2     H  356   3.976   1.454  14.978  0.2300 -1.2347  0.4320
   23MPD2    H1  357   4.053   1.619  14.592  1.6449 -0.2985 -1.4622
   23MPD2    H2  358   4.319   1.339  14.731  0.1367  0.5355 -0.7920
   23MPD2    H3  359   4.246   1.501  14.568  0.1931  2.2813  0.1020
   23MPD2     N  360   3.890   1.643  14.801  0.4246 -0.2742 -0.4665
   23MPD2    H5  361   3.887   1.706  14.722  1.7687  1.0117  0.5076
   23MPD2    N1  362   4.169   1.275  14.969 -0.4140 -0.5492 -0.0958
   23MPD2    H7  363   4.105   1.270  15.048  1.0186  0.1363  1.0973
   24TCq2    C1  364   3.784   1.630  14.886  0.3184  0.0532 -0.5890
   24TCq2    O2  365   3.766   1.549  14.981  0.0657 -0.0327 -0.1843
   24TCq2    C2  366   3.666   1.706  14.843  0.4224 -0.0081 -0.4926
   24TCq2    C3  367   3.667   1.797  14.738 -0.7545  1.0748  0.7817
   24TCq2    C4  368   3.546   1.848  14.697 -1.0104 -0.0880  0.4184
   24TCq2    C5  369   3.434   1.801  14.744 -0.0453  0.0699 -0.0359
   24TCq2    C6  370   3.432   1.708  14.843  0.1349  0.2719 -0.2944
   24TCq2    C7  371   3.547   1.658  14.894  0.0528  0.7014  0.4768
   24TCq2    C8  372   3.315   1.621  14.857  0.2711  0.2605 -0.3610
   24TCq2    O4  373   3.328   1.543  14.949 -0.1961 -0.0624  0.2744
   24TCq2    C9  374   3.540   1.937  14.581 -0.0828 -0.7595  0.0752
   24TCq2    O5  375   3.639   1.926  14.501 -0.1599 -0.3449  0.4583
   24TCq2    O6  376   3.428   1.979  14.553  0.1016  0.2324  0.0757
   24TCq2    H2  377   3.762   1.840  14.708  0.2785  0.0691  2.6053
   24TCq2    H3  378   3.337   1.837  14.709  0.1858  0.5395 -0.1989
   24TCq2    H4  379   3.545   1.574  14.962 -0.6638 -0.3062 -0.7668
   25TMC2    C1  380   2.932   3.160  11.925 -0.0300  0.0625  0.1819
   25TMC2    C2  381   3.051   3.160  11.991 -0.1564 -0.1940 -0.1259
   25TMC2    C3  382   3.049   3.217  12.116  0.6085  0.3262  0.3989
   25TMC2    C4  383   2.817   3.226  11.964 -0.1085  0.1990 -0.0559
   25TMC2    C5  384   2.822   3.276  12.087 -0.0087  0.3428 -0.1185
   25TMC2    C6  385   2.933   3.270  12.166 -0.1930  0.4257  0.4040
   25TMC2     C  386   2.934   3.076  11.810 -0.1305 -0.2766  0.4625
   25TMC2     O  387   3.024   2.999  11.786  0.5552  0.1896  0.1677
   25TMC2     H  388   3.133   3.099  11.955  0.9319  0.5469  1.1057
   25TMC2    H1  389   2.730   3.241  11.901 -0.1328 -1.8759 -0.5080
   25TMC2    H2  390   2.925   3.313  12.265  0.4379 -0.8154  1.0014
   25TMC2    C7  391   2.713   3.358  12.139  0.4429  0.1962 -0.0947
   25TMC2    C8  392   3.139   3.182  12.216  0.6737  0.3910 -0.2311
   25TMC2    O1  393   2.712   3.373  12.262 -0.8984 -0.0865 -0.3177
   25TMC2    O2  394   3.085   3.132  12.318 -0.0657  0.1577  0.2886
   25TMC2    O5  395   3.251   3.134  12.165  0.0077 -0.4172  0.2410
   25TMC2    H5  396   3.270   3.177  12.079  0.6321 -0.0413  0.5693
   26MPD2     C  397   2.677   2.846  11.428 -0.0905  0.1829 -0.9702
   26MPD2    C1  398   2.578   2.884  11.523 -0.4393 -0.4808  0.1654
   26MPD2    C2  399   2.626   2.942  11.644  0.0447 -0.0776  0.1349
   26MPD2    C3  400   2.763   2.976  11.649  0.1135  0.1221 -0.0582
   26MPD2    C4  401   2.851   2.946  11.551 -0.0604  0.3867 -0.2298
   26MPD2    C5  402   2.804   2.872  11.450 -0.4498  0.1786 -0.1330
   26MPD2     H  403   2.560   2.974  11.724  1.7706  0.9184  1.1655
   26MPD2    H1  404   2.955   2.976  11.548  0.3376 -0.9944 -0.3170
   26MPD2    H2  405   2.652   2.806  11.331 -1.5439  0.2432 -0.6166
   26MPD2    H3  406   2.876   2.849  11.373  0.7748  0.2126  1.0101
   26MPD2     N  407   2.801   3.049  11.763  0.7679 -0.2055  0.2409
   26MPD2    H5  408   2.725   3.081  11.822 -0.2697  0.5465 -1.5202
   26MPD2    N1  409   2.444   2.852  11.491 -0.5543  0.1946 -0.4497
   26MPD2    H7  410   2.436   2.803  11.403 -1.2279  1.6632 -1.1994
   27TMC2    C1  411   1.513   1.055  12.136  0.0202 -0.0646 -0.1711
   27TMC2    C2  412   1.581   1.068  12.017 -1.4360 -0.3531  0.1231
   27TMC2    C3  413   1.664   1.170  12.006  0.6116  0.2646  0.4146
   27TMC2    C4  414   1.524   1.151  12.240 -0.2839  0.3579 -0.7042
   27TMC2    C5  415   1.612   1.253  12.217 -0.0761 -0.0091  0.7270
   27TMC2    C6  416   1.691   1.259  12.105  0.4721 -0.3745  0.4127
   27TMC2     C  417   1.448   0.927  12.153  0.2517  0.5672 -0.6975
   27TMC2     O  418   1.476   0.840  12.069  0.0704  0.8233  0.0105
   27TMC2     H  419   1.556   1.007  11.930  3.4531 -2.3040  0.0939
   27TMC2    H1  420   1.476   1.136  12.335 -0.1710 -0.1768 -0.7302
   27TMC2    H2  421   1.741   1.351  12.077 -1.6292  0.6973  0.2052
   27TMC2    C7  422   1.671   1.290  12.346 -0.8963 -0.1081 -0.1599
   27TMC2    C8  423   1.692   1.221  11.876  0.2521 -0.2469  0.5440
   27TMC2    O1  424   1.593   1.290  12.442 -0.2609 -0.1931  0.1949
   27TMC2    O2  425   1.696   1.340  11.851  0.0452 -0.0059  0.2885
   27TMC2    O5  426   1.719   1.125  11.784 -0.4091  0.1083  0.0083
   27TMC2    H5  427   1.734   1.036  11.822 -0.4165  0.9202  1.8831
   28MPD2     C  428   1.174   0.574  12.418 -0.2516 -0.1189  0.2343
   28MPD2    C1  429   1.159   0.701  12.470 -0.6132  0.3910 -0.1431
   28MPD2    C2  430   1.232   0.808  12.422  0.4524 -0.5319 -0.7506
   28MPD2    C3  431   1.314   0.798  12.314  0.1559 -0.1203  0.3673
   28MPD2    C4  432   1.335   0.671  12.266 -0.3221  0.0258  0.1870
   28MPD2    C5  433   1.262   0.567  12.312 -0.3216  0.9248 -0.4177
   28MPD2     H  434   1.222   0.909  12.460  0.7810 -0.7675 -0.0472
   28MPD2    H1  435   1.408   0.659  12.187  0.3825  1.1174  0.6823
   28MPD2    H2  436   1.133   0.485  12.462  1.6198 -0.9946  0.2234
   28MPD2    H3  437   1.273   0.474  12.257 -1.9428 -0.1527  1.0845
   28MPD2     N  438   1.379   0.919  12.271  0.2616  0.7466  0.1997
   28MPD2    H5  439   1.362   1.002  12.327 -1.3031 -1.3889  2.8546
   28MPD2    N1  440   1.053   0.721  12.564  0.1611  0.3362  0.4250
   28MPD2    H7  441   0.986   0.647  12.582  1.6646 -0.5667  2.3010
   29MPD2     C  442   1.049   2.938  13.787 -0.0515 -0.1180 -0.0234
   29MPD2    C1  443   1.131   2.903  13.895  0.6753  0.4763 -0.6624
   29MPD2    C2  444   1.191   3.001  13.972  0.2618  0.1574  0.6720
   29MPD2    C3  445   1.158   3.136  13.950  0.3858 -0.0025 -0.0812
   29MPD2    C4  446   1.079   3.172  13.847  0.0631 -0.4773 -1.3696
   29MPD2    C5  447   1.024   3.075  13.771  0.0730  0.0087  0.4485
   29MPD2     H  448   1.260   2.977  14.052  1.9741 -2.3330 -1.5569
   29MPD2    H1  449   1.049   3.275  13.836  0.1900 -0.2927  0.0252
   29MPD2    H2  450   1.013   2.876  13.706  0.9240  0.9204 -1.2549
   29MPD2    H3  451   0.956   3.115  13.696  2.0075  1.1207 -0.7271
   29MPD2     N  452   1.199   3.236  14.043  0.6147  0.4562 -0.2078
   29MPD2    H5  453   1.184   3.332  14.015 -0.7190  0.7201  1.4001
   29MPD2    N1  454   1.150   2.767  13.928 -1.0562  0.2729  0.2648
   29MPD2    H7  455   1.217   2.734  13.996 -0.0131  0.5469 -0.6295
   30TCq2    C1  456   1.238   3.206  14.172 -0.2481 -0.8433 -0.4906
   30TCq2    O2  457   1.220   3.101  14.241  0.0815 -0.1374  0.2624
   30TCq2    C2  458   1.263   3.320  14.256  0.1931 -0.4941 -0.0094
   30TCq2    C3  459   1.223   3.312  14.384  0.0588  0.2301  0.0515
   30TCq2    C4  460   1.266   3.411  14.469 -0.4827  0.0705  0.4757
   30TCq2    C5  461   1.319   3.529  14.428 -0.1417  0.5417 -0.1972
   30TCq2    C6  462   1.353   3.539  14.296  0.1372  0.6478 -0.4830
   30TCq2    C7  463   1.327   3.435  14.209 -0.2820 -0.8479  1.1229
   30TCq2    C8  464   1.447   3.643  14.252 -0.6032 -0.1402  0.3951
   30TCq2    O4  465   1.523   3.625  14.157 -0.5678 -0.0579 -0.3011
   30TCq2    C9  466   1.250   3.394  14.612 -0.7917 -0.2734  0.0152
   30TCq2    O5  467   1.286   3.481  14.695  0.1277 -0.2383 -0.2571
   30TCq2    O6  468   1.183   3.287  14.645 -1.3164  0.1566 -0.3711
   30TCq2    H2  469   1.165   3.228  14.420  1.9251 -0.5876  1.1296
   30TCq2    H3  470   1.342   3.603  14.504  0.7245  0.7295 -0.6385
   30TCq2    H4  471   1.387   3.435  14.119  0.4604 -0.0360  1.6198
   31MPD2     C  472   4.179   1.879  14.752  0.5851  0.4094 -0.4306
   31MPD2    C1  473   4.064   1.949  14.788 -0.8960 -0.4970  0.7825
   31MPD2    C2  474   4.007   1.920  14.915 -0.2690 -0.3636 -0.0361
   31MPD2    C3  475   4.070   1.834  15.010  0.6709  0.0235 -1.2499
   31MPD2    C4  476   4.189   1.775  14.970 -0.1460  0.1776 -0.3238
   31MPD2    C5  477   4.245   1.795  14.849 -0.1129  0.1836 -0.0748
   31MPD2     H  478   3.921   1.977  14.949 -0.8917  0.0514 -2.2812
   31MPD2    H1  479   4.236   1.709  15.043 -1.0783  0.3325  0.4167
   31MPD2    H2  480   4.209   1.889  14.648 -0.7916 -0.9283 -0.9560
   31MPD2    H3  481   4.337   1.747  14.821 -0.6452 -1.0107  0.2499
   31MPD2     N  482   4.023   1.790  15.134  0.0454 -0.2324  0.1755
   31MPD2    H5  483   4.085   1.726  15.183 -0.1768  0.1992  1.0155
   31MPD2    N1  484   4.005   2.044  14.695 -0.0951  0.4614  0.1285
   31MPD2    H7  485   4.065   2.061  14.615  2.4489 -2.1349  1.4873
   32TCq2    C1  486   3.900   1.824  15.178  0.8503  0.0258  0.0438
   32TCq2    O2  487   3.818   1.891  15.115  0.0078  0.1854  0.5494
   32TCq2    C2  488   3.893   1.820  15.320  0.4378 -0.1115 -0.2272
   32TCq2    C3  489   3.865   1.942  15.374  0.0965  0.4374 -0.1084
   32TCq2    C4  490   3.890   1.967  15.508 -0.3633 -0.0083  0.1146
   32TCq2    C5  491   3.953   1.866  15.580  0.7877 -0.3238  0.1084
   32TCq2    C6  492   3.965   1.741  15.527  0.3643  0.0407 -0.0849
   32TCq2    C7  493   3.945   1.714  15.395 -0.1717 -0.5266 -0.3060
   32TCq2    C8  494   3.980   1.625  15.613  0.3482  0.5429 -0.0616
   32TCq2    O4  495   3.997   1.511  15.560  0.4070  0.3942 -0.3625
   32TCq2    C9  496   3.863   2.098  15.559  0.1537  0.6169  0.2612
   32TCq2    O5  497   3.904   2.111  15.678  0.2607 -0.6230 -0.1685
   32TCq2    O6  498   3.807   2.180  15.489  0.4089 -0.2223 -0.4953
   32TCq2    H2  499   3.818   2.014  15.308  1.0886 -0.4051 -1.7149
   32TCq2    H3  500   3.993   1.897  15.676  0.6583  0.3581 -0.0512
   32TCq2    H4  501   3.951   1.612  15.358 -0.1317 -0.7651  0.3441
   33MPD2     C  502   3.428   3.842   9.696 -0.1473 -0.5897 -0.0132
   33MPD2    C1  503   3.505   3.909   9.795  0.2105  0.2002 -0.2636
   33MPD2    C2  504   3.627   3.961   9.764 -0.7608 -0.1615 -0.3991
   33MPD2    C3  505   3.679   3.948   9.634 -0.5066 -1.0081 -0.3403
   33MPD2    C4  506   3.606   3.885   9.539  0.4685  0.1481 -0.2889
   33MPD2    C5  507   3.480   3.831   9.570 -0.3206 -0.3107 -0.1279
   33MPD2     H  508   3.691   4.007   9.838 -1.2052  1.4937 -1.0500
   33MPD2    H1  509   3.644   3.876   9.438 -0.7346  0.2952 -0.7518
   33MPD2    H2  510   3.329   3.804   9.717 -0.3362  0.4467  1.0107
   33MPD2    H3  511   3.429   3.783   9.488 -0.9839  0.7575 -0.3455
   33MPD2     N  512   3.798   3.994   9.590 -0.2793 -0.1565 -0.5359
   33MPD2    H5  513   3.828   3.972   9.496 -2.6430  0.4859 -1.4505
   33MPD2    N1  514   3.443   3.929   9.920  0.1381  0.1185 -0.2138
   33MPD2    H7  515   3.354   3.880   9.931 -0.1601  0.1780 -2.3217
   34TCq2    C1  516   3.875   4.088   9.650 -0.1444 -0.1971  0.4083
   34TCq2    O2  517   3.866   4.137   9.763 -0.1724  0.8820 -0.0214
   34TCq2    C2  518   3.986   4.117   9.558  0.0649  0.5769 -0.2647
   34TCq2    C3  519   3.996   4.063   9.435  0.2732 -0.0437 -0.4389
   34TCq2    C4  520   4.111   4.091   9.364 -0.0491 -0.0288  0.1058
   34TCq2    C5  521   4.205   4.179   9.413  0.4588 -0.0481 -0.2479
   34TCq2    C6  522   4.193   4.221   9.544  0.4678 -0.2531  0.4442
   34TCq2    C7  523   4.081   4.197   9.616  0.0547  0.3376  0.0828
   34TCq2    C8  524   4.248   4.353   9.542 -0.1194 -0.3756  0.3371
   34TCq2    O4  525   4.320   4.382   9.446  0.3580 -0.3191 -0.1532
   34TCq2    C9  526   4.123   4.050   9.224 -0.6010 -0.8240  0.1319
   34TCq2    O5  527   4.035   3.976   9.177 -0.0013 -0.6482 -0.4016
   34TCq2    O6  528   4.226   4.098   9.166 -0.6094  0.6022  0.0351
   34TCq2    H2  529   3.920   4.014   9.376 -1.2931  2.7143 -0.6880
   34TCq2    H3  530   4.294   4.199   9.356  0.2801  0.0921 -0.4773
   34TCq2    H4  531   4.070   4.226   9.720  3.4566  0.1156  0.5063
   35MPD2     C  532   0.769   1.792  11.725  0.1776 -0.0072  0.4361
   35MPD2    C1  533   0.750   1.660  11.762  0.3308 -0.1520 -0.5076
   35MPD2    C2  534   0.677   1.579  11.680 -0.1134 -0.0306  0.1690
   35MPD2    C3  535   0.613   1.628  11.570  0.2644 -0.2265  0.3350
   35MPD2    C4  536   0.630   1.760  11.538  0.0931 -0.5852 -0.0977
   35MPD2    C5  537   0.716   1.842  11.611 -0.3927  0.5710  0.1139
   35MPD2     H  538   0.659   1.475  11.702 -0.6378  0.2112  0.8920
   35MPD2    H1  539   0.583   1.815  11.458  0.2437 -0.5204 -0.1414
   35MPD2    H2  540   0.827   1.853  11.794  1.8771 -0.2545 -0.7587
   35MPD2    H3  541   0.718   1.949  11.592  1.8639  0.1318 -2.0819
   35MPD2     N  542   0.525   1.542  11.498 -0.2619 -0.3739  0.8338
   35MPD2    H5  543   0.509   1.452  11.541 -1.2961 -0.9851 -0.8115
   35MPD2    N1  544   0.809   1.610  11.885 -0.2021  0.4562  0.1117
   35MPD2    H7  545   0.830   1.688  11.946  0.4404 -0.7282  1.4186
   36TCq2    C1  546   0.475   1.564  11.374 -0.3771 -0.0386  0.5704
   36TCq2    O2  547   0.504   1.646  11.291  0.0029 -1.3360 -0.2287
   36TCq2    C2  548   0.361   1.475  11.350  0.2233  0.0944  0.1454
   36TCq2    C3  549   0.333   1.464  11.218 -0.4645 -0.1059  0.5268
   36TCq2    C4  550   0.235   1.377  11.171  0.6074  0.3211 -0.8130
   36TCq2    C5  551   0.192   1.285  11.265  0.2234 -0.2082 -0.2658
   36TCq2    C6  552   0.219   1.296  11.400 -0.8090 -0.8818  0.6654
   36TCq2    C7  553   0.305   1.390  11.443 -0.4172  0.1239 -0.2226
   36TCq2    C8  554   0.181   1.189  11.486  0.3195  0.0789  0.1299
   36TCq2    O4  555   0.079   1.131  11.450  1.1712 -0.0227 -0.3772
   36TCq2    C9  556   0.202   1.361  11.032 -0.0749 -0.3300 -0.5650
   36TCq2    O5  557   0.120   1.276  10.998  0.1410  0.0146 -0.4752
   36TCq2    O6  558   0.265   1.447  10.959 -0.2050 -0.1352 -0.2294
   36TCq2    H2  559   0.376   1.535  11.147 -1.5892 -1.0458 -1.0916
   36TCq2    H3  560   0.130   1.201  11.234  1.2030 -1.0057 -0.0551
   36TCq2    H4  561   0.318   1.397  11.550 -1.3431 -0.4711 -0.0651
   37TMC2    C1  562   2.361   0.699  11.489  0.6108  0.0346  0.2248
   37TMC2    C2  563   2.312   0.569  11.496  0.5053 -0.9858  0.4320
   37TMC2    C3  564   2.408   0.463  11.503 -0.0639 -0.2055 -0.0965
   37TMC2    C4  565   2.494   0.726  11.483  0.5838 -0.5613  0.1275
   37TMC2    C5  566   2.583   0.619  11.489 -0.4093 -0.3899 -0.0510
   37TMC2    C6  567   2.541   0.486  11.496  0.1083  0.3053  0.4271
   37TMC2     C  568   2.265   0.814  11.499 -0.0971 -0.3924 -0.3208
   37TMC2     O  569   2.148   0.786  11.476 -0.1875  0.2023  0.0642
   37TMC2     H  570   2.205   0.556  11.509  0.2209  0.1910 -0.6370
   37TMC2    H1  571   2.521   0.831  11.493 -2.1657  0.4747 -3.6909
   37TMC2    H2  572   2.609   0.407  11.526  0.7830  1.5550  2.2003
   37TMC2    C7  573   2.712   0.656  11.546  0.0747 -0.1261 -0.3302
   37TMC2    C8  574   2.364   0.332  11.543 -0.1108 -0.6108 -0.2118
   37TMC2    O1  575   2.721   0.773  11.587 -0.3413  0.1591 -0.0110
   37TMC2    O2  576   2.449   0.246  11.542 -0.5360 -0.1966  0.1982
   37TMC2    O5  577   2.260   0.338  11.633  0.3986  0.0845 -0.0815
   37TMC2    H5  578   2.183   0.393  11.606  0.0639 -0.7388 -0.7668
   38MPD2     C  579   2.051   1.161  11.787  0.4631  0.0800  0.2330
   38MPD2    C1  580   2.151   1.093  11.851 -0.3587 -0.8086 -0.6054
   38MPD2    C2  581   2.238   1.016  11.784  1.0508  0.3921 -0.1809
   38MPD2    C3  582   2.221   0.995  11.652  0.2761 -0.4248  0.7409
   38MPD2    C4  583   2.112   1.051  11.591  0.1822 -0.2008  0.0531
   38MPD2    C5  584   2.029   1.132  11.657  0.0248  0.1678 -0.1812
   38MPD2     H  585   2.314   0.956  11.833  0.9925  0.2200 -0.3023
   38MPD2    H1  586   2.098   1.016  11.490  0.4926 -1.7185  0.5458
   38MPD2    H2  587   1.984   1.234  11.833  2.1860  1.4855  0.5164
   38MPD2    H3  588   1.948   1.177  11.601 -1.1937 -2.5736 -0.6124
   38MPD2     N  589   2.310   0.909  11.587 -0.0119  0.9728 -0.0105
   38MPD2    H5  590   2.400   0.899  11.632  0.3196  1.8783 -0.4636
   38MPD2    N1  591   2.174   1.114  11.986 -0.1536 -0.4016  0.2357
   38MPD2    H7  592   2.252   1.067  12.031  0.0676 -1.0261 -0.7805
   39MPD2     C  593   0.938   3.439   1.869 -0.9973  0.7787 -1.1120
   39MPD2    C1  594   0.823   3.452   1.944 -0.3365  0.1763 -0.2602
   39MPD2    C2  595   0.702   3.455   1.880 -0.4111 -0.4388 -0.0244
   39MPD2    C3  596   0.694   3.421   1.746  0.3179  0.8683 -0.0460
   39MPD2    C4  597   0.810   3.402   1.676  0.2397 -0.4667  0.0124
   39MPD2    C5  598   0.927   3.412   1.740 -0.5201 -0.4085 -0.0703
   39MPD2     H  599   0.613   3.480   1.937 -0.6543 -0.4062 -0.4244
   39MPD2    H1  600   0.811   3.360   1.576  2.2103 -1.1494  0.3163
   39MPD2    H2  601   1.034   3.457   1.916 -1.6369  0.2324  0.3973
   39MPD2    H3  602   1.018   3.393   1.684  1.5617  1.4971  2.7090
   39MPD2     N  603   0.572   3.398   1.675  0.9081  0.3317 -0.0504
   39MPD2    H5  604   0.593   3.368   1.580  1.0763  2.1460 -0.5790
   39MPD2    N1  605   0.847   3.485   2.084 -0.4465 -0.6446 -0.4636
   39MPD2    H7  606   0.945   3.498   2.107 -0.5159 -0.9104 -0.0072
   40TCq2    C1  607   0.746   3.505   2.178 -0.2200  0.3933  0.5759
   40TCq2    O2  608   0.625   3.494   2.177 -0.0144  0.2193  1.1800
   40TCq2    C2  609   0.804   3.541   2.310 -0.7942 -0.2829  0.6348
   40TCq2    C3  610   0.709   3.529   2.408 -0.1365 -0.5105 -0.5581
   40TCq2    C4  611   0.755   3.526   2.531 -0.5955 -0.4641 -0.1928
   40TCq2    C5  612   0.887   3.523   2.560 -1.4842  0.5396 -0.3470
   40TCq2    C6  613   0.980   3.521   2.458 -0.3294 -0.1632 -0.1519
   40TCq2    C7  614   0.939   3.534   2.329 -0.0431  0.3986  0.0059
   40TCq2    C8  615   1.105   3.462   2.481 -0.2689 -0.1631  0.6183
   40TCq2    O4  616   1.117   3.381   2.569 -0.4402 -0.7499 -0.0746
   40TCq2    C9  617   0.666   3.523   2.649 -0.6571 -0.5760  0.5737
   40TCq2    O5  618   0.721   3.495   2.759  0.4149  0.2154 -0.2807
   40TCq2    O6  619   0.539   3.522   2.627 -0.1502  0.0346  0.1208
   40TCq2    H2  620   0.603   3.515   2.387 -0.3504  1.3577 -0.7776
   40TCq2    H3  621   0.918   3.505   2.663 -2.9681  0.8163  0.1389
   40TCq2    H4  622   1.014   3.542   2.251  0.1405  2.9369  0.4391
   41TMC2    C1  623   4.655   1.250  13.180  0.5906  0.6558  0.5409
   41TMC2    C2  624   4.543   1.325  13.165  0.6030 -0.0974 -0.3281
   41TMC2    C3  625   4.528   1.382  13.035 -0.1379  0.6250  0.7031
   41TMC2    C4  626   0.023   1.237  13.079  0.7740 -0.3692 -0.0021
   41TMC2    C5  627   0.012   1.314  12.964 -0.1874 -0.0071  0.1809
   41TMC2    C6  628   4.624   1.378  12.931  0.5657  0.4326  0.4535
   41TMC2     C  629   4.680   1.179  13.307 -0.5653  0.1562  0.0891
   41TMC2     O  630   0.047   1.103  13.324 -0.3703 -0.1838  0.5929
   41TMC2     H  631   4.453   1.310  13.224 -0.2728  0.6793 -1.4778
   41TMC2    H1  632   0.110   1.175  13.093  0.3939 -0.9355 -0.1087
   41TMC2    H2  633   4.612   1.421  12.832 -0.1111  1.2516  0.8897
   41TMC2    C7  634   0.103   1.294  12.855  0.7006 -0.4917 -0.4172
   41TMC2    C8  635   4.417   1.469  13.024  0.6267  0.1985  0.5946
   41TMC2    O1  636   0.061   1.298  12.741  0.2700  0.6574  0.2590
   41TMC2    O2  637   4.326   1.455  13.103 -0.0687 -0.0744  0.0648
   41TMC2    O5  638   4.457   1.586  12.984 -0.2465 -0.0608  0.2573
   41TMC2    H5  639   4.551   1.594  12.955 -0.0382  0.7903  1.1716
   42MPD2     C  640   4.640   1.038  13.576 -0.5192 -0.4430 -0.0174
   42MPD2    C1  641   4.595   1.167  13.537 -0.1720 -0.1278  0.3242
   42MPD2    C2  642   4.553   1.251  13.644  0.3048 -0.4895  0.3011
   42MPD2    C3  643   4.578   1.226  13.779 -0.2898  0.6671 -0.0079
   42MPD2    C4  644   4.620   1.099  13.807  0.1207 -0.4509 -0.9990
   42MPD2    C5  645   4.652   1.012  13.710 -0.4816  0.1873  0.7579
   42MPD2     H  646   4.515   1.349  13.615 -0.1405  0.0386  2.6357
   42MPD2    H1  647   4.644   1.062  13.906 -0.9023  0.2464 -0.5020
   42MPD2    H2  648   4.670   0.958  13.509  0.2723  0.3141 -0.5631
   42MPD2    H3  649   4.677   0.915  13.751 -0.0896 -0.9575 -2.2160
   42MPD2     N  650   4.565   1.314  13.890 -0.4536 -0.2929  0.0899
   42MPD2    H5  651   4.597   1.280  13.980 -0.1069  1.1397  0.5165
   42MPD2    N1  652   4.586   1.211  13.406  0.8343  0.0426  0.1816
   42MPD2    H7  653   4.532   1.295  13.391 -0.6528 -1.3924 -2.4989
   43MPD2     C  654   1.025   4.566   0.957  0.4817  0.2295  0.3352
   43MPD2    C1  655   1.099   4.514   1.055 -0.2773 -0.3345  0.5630
   43MPD2    C2  656   1.102   4.574   1.180 -0.1471  1.2098  0.1431
   43MPD2    C3  657   1.030   4.685   1.204 -0.3914 -0.1031 -0.0383
   43MPD2    C4  658   0.942   0.006   1.107  0.3228  0.7708  0.4442
   43MPD2    C5  659   0.942   4.672   0.984  0.0778  0.2786 -0.3240
   43MPD2     H  660   1.155   4.529   1.263  0.3155 -0.1369 -0.8886
   43MPD2    H1  661   0.870   0.086   1.125 -1.7078 -0.6871 -1.2063
   43MPD2    H2  662   1.010   4.527   0.857  1.0771  0.5282  0.1323
   43MPD2    H3  663   0.869   4.708   0.912  0.0520  2.5993  0.8806
   43MPD2     N  664   1.021   0.031   1.329 -0.2269  0.2414  0.3873
   43MPD2    H5  665   0.953   0.105   1.343 -1.2985 -0.4174 -1.4384
   43MPD2    N1  666   1.181   4.407   1.038 -0.2457 -0.2574 -0.3178
   43MPD2    H7  667   1.239   4.389   1.120 -1.0564 -0.4507  0.2052
   44TCq2    C1  668   1.189   0.161   1.884  0.0443 -0.0034  1.1270
   44TCq2    O2  669   1.258   0.067   1.913 -0.3052  0.3740  0.0205
   44TCq2    C2  670   1.149   0.194   1.752 -0.2774 -0.2030 -0.4418
   44TCq2    C3  671   1.083   0.308   1.726 -0.0328  0.2679 -0.6989
   44TCq2    C4  672   1.040   0.330   1.598 -0.1232  0.3695  0.1219
   44TCq2    C5  673   1.031   0.231   1.502  0.1383 -0.4281 -0.4576
   44TCq2    C6  674   1.089   0.113   1.538 -0.1127  0.0687 -0.2512
   44TCq2    C7  675   1.158   0.098   1.659  0.0437 -0.4278  0.2607
   44TCq2    C8  676   1.117   0.016   1.432  0.5187  0.6557 -0.9424
   44TCq2    O4  677   1.217   4.669   1.432  0.3124 -0.5048 -0.1250
   44TCq2    C9  678   0.988   0.455   1.560  0.9043  0.4322  0.1733
   44TCq2    O5  679   0.928   0.475   1.450 -0.0943  0.3921  0.0804
   44TCq2    O6  680   1.019   0.548   1.645  0.2662 -0.1797 -0.4721
   44TCq2    H2  681   1.107   0.395   1.787 -0.1801 -0.5567  0.5277
   44TCq2    H3  682   0.988   0.266   1.409 -0.8850  0.3476  0.3089
   44TCq2    H4  683   1.226   0.014   1.672 -0.3420 -0.9925 -1.2868
   45TMC2    C1  684   1.816   1.551   9.491  0.0043 -0.5992 -0.0724
   45TMC2    C2  685   1.831   1.591   9.360 -0.4708  0.3804 -0.5131
   45TMC2    C3  686   1.859   1.721   9.336 -0.2065  0.3639 -0.2675
   45TMC2    C4  687   1.846   1.634   9.592  0.5064  0.0853 -0.0422
   45TMC2    C5  688   1.885   1.761   9.563  0.2786  0.0694 -0.1382
   45TMC2    C6  689   1.879   1.810   9.434 -0.1760 -0.6407 -0.1520
   45TMC2     C  690   1.759   1.418   9.522  0.4699  0.4703 -0.9054
   45TMC2     O  691   1.789   1.372   9.631 -0.1818 -0.0517  0.7179
   45TMC2     H  692   1.854   1.523   9.279  2.0842  0.3982  0.1979
   45TMC2    H1  693   1.838   1.601   9.695  0.1406  1.9441  0.5328
   45TMC2    H2  694   1.904   1.907   9.392  1.5881 -2.2611 -2.8856
   45TMC2    C7  695   1.913   1.860   9.670 -0.7870  0.7426  0.7859
   45TMC2    C8  696   1.882   1.769   9.199  0.0610  0.1894  0.2824
   45TMC2    O1  697   1.931   1.815   9.784 -0.4630  0.4342  0.3113
   45TMC2    O2  698   1.933   1.879   9.177 -0.3879  0.1531 -0.6547
   45TMC2    O5  699   1.805   1.710   9.104 -0.2963  0.6346  0.2399
   45TMC2    H5  700   1.757   1.633   9.140  1.0459 -0.4527 -0.2982
   46MPD2     C  701   1.724   1.118   9.495 -0.8690 -0.2023  0.2932
   46MPD2    C1  702   1.689   1.209   9.399 -0.1757  0.2418 -0.3645
   46MPD2    C2  703   1.604   1.165   9.296 -0.1010  0.3720 -0.3857
   46MPD2    C3  704   1.546   1.042   9.287 -0.1509 -0.3156 -0.2658
   46MPD2    C4  705   1.587   0.949   9.383 -0.7827  0.3982  0.1062
   46MPD2    C5  706   1.665   0.990   9.492 -0.9685  0.3154 -0.6775
   46MPD2     H  707   1.573   1.240   9.225 -1.2592 -1.1695 -1.5000
   46MPD2    H1  708   1.554   0.846   9.391  0.1619  0.0938  0.1002
   46MPD2    H2  709   1.787   1.144   9.580 -1.3399  1.4784  0.1300
   46MPD2    H3  710   1.689   0.913   9.564 -0.8294 -0.5975 -1.6847
   46MPD2     N  711   1.462   1.015   9.178  0.5614  0.1342 -0.5108
   46MPD2    H5  712   1.447   1.094   9.115 -0.2975 -0.5276 -1.1351
   46MPD2    N1  713   1.717   1.349   9.408 -0.0678  0.2444  0.1222
   46MPD2    H7  714   1.697   1.405   9.326  1.6265 -0.6855 -0.9196
   47TMC2    C1  715   4.100   1.969   9.483 -0.4285  0.3473 -0.3808
   47TMC2    C2  716   4.092   1.900   9.362 -0.3617 -0.6241 -0.2293
   47TMC2    C3  717   3.973   1.913   9.298 -0.1121 -0.4601 -0.2921
   47TMC2    C4  718   3.996   2.041   9.536  0.3807  0.2085  0.3724
   47TMC2    C5  719   3.882   2.050   9.455  0.1205 -0.9384 -0.6860
   47TMC2    C6  720   3.859   1.979   9.341 -0.7733 -0.3115 -0.0700
   47TMC2     C  721   4.224   1.992   9.552 -0.3794 -0.3818 -0.5868
   47TMC2     O  722   4.222   2.089   9.628  0.4312 -0.1774 -0.4062
   47TMC2     H  723   4.172   1.859   9.301 -0.3614 -0.5836 -0.2565
   47TMC2    H1  724   3.993   2.090   9.632 -0.4659  0.0423  0.4273
   47TMC2    H2  725   3.768   1.989   9.283 -1.0422 -2.0872  0.0707
   47TMC2    C7  726   3.759   2.119   9.501 -0.1212  0.5424  0.3482
   47TMC2    C8  727   3.955   1.827   9.193 -0.6049  0.0780  0.5384
   47TMC2    O1  728   3.712   2.203   9.430  0.6945 -0.5177  0.2970
   47TMC2    O2  729   3.863   1.857   9.122  0.4114  0.4689 -0.0381
   47TMC2    O5  730   3.987   1.706   9.229  0.4983  0.1998  0.0004
   47TMC2    H5  731   4.071   1.706   9.279  0.3710 -1.0887  0.2091
   48MPD2     C  732   4.503   2.003   9.674  0.0556  0.0969 -0.0648
   48MPD2    C1  733   4.453   1.908   9.580  0.1694  0.1354  0.8709
   48MPD2    C2  734   4.533   1.798   9.557 -0.2717  0.0965  0.1060
   48MPD2    C3  735   4.654   1.780   9.624 -1.0684  0.8995 -0.0875
   48MPD2    C4  736   4.696   1.874   9.715  0.4249  0.4945  0.1407
   48MPD2    C5  737   4.623   1.990   9.730 -0.0647 -0.0309 -0.8479
   48MPD2     H  738   4.507   1.711   9.498 -2.5565  0.9088 -0.0661
   48MPD2    H1  739   0.060   1.870   9.778 -0.5412  2.0015  1.6101
   48MPD2    H2  740   4.445   2.090   9.705 -0.6519 -0.4577  0.1805
   48MPD2    H3  741   4.656   2.061   9.804  0.5116 -2.3800  1.1711
   48MPD2     N  742   4.716   1.651   9.606  0.2664  0.1250 -0.4294
   48MPD2    H5  743   4.676   1.588   9.538 -1.0413  1.1327 -0.6033
   48MPD2    N1  744   4.321   1.898   9.520 -0.0016  0.3830  0.3889
   48MPD2    H7  745   4.302   1.825   9.453 -1.2817  1.5270 -0.5008
   49MPD2     C  746   2.274   3.596  10.651  0.3136  0.1007 -0.2409
   49MPD2    C1  747   2.246   3.571  10.783  0.5508 -0.3681  0.5561
   49MPD2    C2  748   2.342   3.607  10.876 -0.5116  0.2223  0.7553
   49MPD2    C3  749   2.459   3.679  10.844 -0.1341  0.0833  0.1073
   49MPD2    C4  750   2.479   3.714  10.714  0.3743 -0.2869  0.6375
   49MPD2    C5  751   2.391   3.671  10.619  0.0230 -0.2731 -0.6136
   49MPD2     H  752   2.318   3.583  10.979  0.6951  0.4101  1.0804
   49MPD2    H1  753   2.568   3.768  10.687  0.7330 -0.5005  1.3797
   49MPD2    H2  754   2.223   3.565  10.561  0.9949  0.0798 -0.6215
   49MPD2    H3  755   2.420   3.686  10.516  0.6716  0.6271 -0.2953
   49MPD2     N  756   2.568   3.707  10.931 -0.0359 -0.0576 -0.3832
   49MPD2    H5  757   2.643   3.769  10.902  1.4967 -1.3602  0.8629
   49MPD2    N1  758   2.138   3.487  10.817 -0.6982  0.2754  1.2273
   49MPD2    H7  759   2.140   3.451  10.912 -0.2243  0.3163  1.2305
   50TCq2    C1  760   2.042   3.435  10.733 -0.5512  0.8369 -0.1479
   50TCq2    O2  761   2.027   3.458  10.609  0.2677 -0.3119 -0.6425
   50TCq2    C2  762   1.951   3.342  10.791  0.9437  0.0264 -0.6142
   50TCq2    C3  763   1.841   3.287  10.723  0.2529 -0.4153  0.5948
   50TCq2    C4  764   1.754   3.200  10.788 -0.7128  0.4137 -0.3537
   50TCq2    C5  765   1.770   3.179  10.926 -0.5099  0.7436  0.1506
   50TCq2    C6  766   1.879   3.233  10.992  0.2940 -0.4774  0.2236
   50TCq2    C7  767   1.971   3.314  10.925  0.4573  0.4162 -0.0863
   50TCq2    C8  768   1.885   3.200  11.133 -0.3221  0.4643 -0.3672
   50TCq2    O4  769   1.813   3.114  11.177  0.0331  0.4516  0.4856
   50TCq2    C9  770   1.660   3.122  10.712  0.1330  0.3981  0.0954
   50TCq2    O5  771   1.658   3.124  10.584  0.2646 -0.3223 -0.1832
   50TCq2    O6  772   1.592   3.044  10.779  0.0659  0.2360 -0.0957
   50TCq2    H2  773   1.836   3.290  10.614 -1.6264 -1.6049  0.6600
   50TCq2    H3  774   1.699   3.116  10.976 -0.5530 -0.0640 -0.9227
   50TCq2    H4  775   2.053   3.352  10.986  1.1585 -2.4866  0.7607
   51MPD2     C  776   3.811   2.623   1.556 -0.1561  0.0353  0.0738
   51MPD2    C1  777   3.725   2.667   1.464 -0.9868 -1.1089  0.8360
   51MPD2    C2  778   3.661   2.783   1.484 -0.1520 -0.1535 -0.2514
   51MPD2    C3  779   3.695   2.867   1.589  0.4371  0.6415 -0.0962
   51MPD2    C4  780   3.795   2.834   1.669  0.3074  0.1875 -0.4782
   51MPD2    C5  781   3.855   2.714   1.658  0.6812  0.4427 -0.4369
   51MPD2     H  782   3.588   2.818   1.412 -0.7734  0.8871  0.8890
   51MPD2    H1  783   3.829   2.901   1.747 -0.3347  0.8063 -0.7298
   51MPD2    H2  784   3.879   2.544   1.529  0.1978 -0.3624  2.1215
   51MPD2    H3  785   3.930   2.674   1.725 -0.2855 -0.2397  0.2572
   51MPD2     N  786   3.636   2.992   1.612 -0.0831  0.2658  0.3029
   51MPD2    H5  787   3.681   3.043   1.686 -0.5993  1.7360 -0.3930
   51MPD2    N1  788   3.688   2.593   1.352  0.5829  0.4615  0.2647
   51MPD2    H7  789   3.618   2.628   1.288  0.0452 -1.9713 -0.4470
   52TCq2    C1  790   3.536   3.049   1.541  0.6163  0.2227  0.8893
   52TCq2    O2  791   3.496   3.012   1.434  0.8052 -0.0127 -0.0141
   52TCq2    C2  792   3.479   3.170   1.594  0.1688 -0.1833 -0.6660
   52TCq2    C3  793   3.499   3.198   1.728  0.0818 -0.0546  0.0165
   52TCq2    C4  794   3.478   3.327   1.770  0.0362  0.4667 -0.5813
   52TCq2    C5  795   3.433   3.424   1.683  0.6942  0.7154 -0.3183
   52TCq2    C6  796   3.421   3.392   1.550  0.4781  0.1901 -0.6542
   52TCq2    C7  797   3.438   3.268   1.503  0.3014 -0.5838  0.1940
   52TCq2    C8  798   3.409   3.503   1.457  0.2423 -0.0527  0.0429
   52TCq2    O4  799   3.448   3.610   1.493 -0.4291 -0.5904 -0.4492
   52TCq2    C9  800   3.511   3.364   1.906 -0.0243 -0.5203 -0.0681
   52TCq2    O5  801   3.464   3.473   1.946  1.0568  0.8581  0.1739
   52TCq2    O6  802   3.605   3.301   1.966  0.4247  0.2319  0.4320
   52TCq2    H2  803   3.545   3.128   1.798 -1.4499 -0.8080  0.2714
   52TCq2    H3  804   3.422   3.527   1.716 -0.2431 -0.0514  1.7430
   52TCq2    H4  805   3.438   3.250   1.397  1.7262 -0.2625  0.1412
   53TMC2    C1  806   3.338   0.919  11.837 -0.4608 -0.2190 -0.2054
   53TMC2    C2  807   3.458   0.967  11.801 -0.1745  0.5241  0.5687
   53TMC2    C3  808   3.473   1.097  11.824 -0.4163  0.4016 -0.8075
   53TMC2    C4  809   3.234   0.996  11.889 -0.1930 -0.0971  0.1936
   53TMC2    C5  810   3.257   1.133  11.892 -0.2320 -0.0310 -0.5519
   53TMC2    C6  811   3.377   1.182  11.864 -0.1828  0.0246 -0.0788
   53TMC2     C  812   3.304   0.783  11.796 -0.1871  0.3094  0.2861
   53TMC2     O  813   3.405   0.713  11.797  0.4181 -0.2332 -0.0937
   53TMC2     H  814   3.535   0.903  11.758  0.6538  1.2983  0.8864
   53TMC2    H1  815   3.146   0.947  11.930 -0.2705  0.3407  0.5555
   53TMC2    H2  816   3.405   1.286  11.851  1.8576 -0.4962  0.1398
   53TMC2    C7  817   3.179   1.202  11.990  1.3140 -0.5555 -0.0930
   53TMC2    C8  818   3.593   1.152  11.762  0.6053 -0.4743 -0.5559
   53TMC2    O1  819   3.091   1.140  12.050  0.3808  0.0133  0.2013
   53TMC2    O2  820   3.641   1.101  11.664 -0.1098  0.3121  0.1159
   53TMC2    O5  821   3.657   1.231  11.851 -0.5365 -0.6718 -0.2638
   53TMC2    H5  822   3.610   1.229  11.937 -1.1577  1.8633 -0.5503
   54MPD2     C  823   3.182   0.539  11.708  0.9789 -0.3133 -0.1429
   54MPD2    C1  824   3.116   0.658  11.703 -0.2453 -0.7986  0.2439
   54MPD2    C2  825   2.992   0.676  11.647  0.0059  0.6639 -0.1176
   54MPD2    C3  826   2.939   0.567  11.585  0.9578 -0.1983 -0.4506
   54MPD2    C4  827   3.014   0.456  11.565 -0.1559  0.0948  0.2486
   54MPD2    C5  828   3.132   0.445  11.629  0.1248 -0.1938  0.5459
   54MPD2     H  829   2.945   0.773  11.647  1.0729  1.1735 -0.9432
   54MPD2    H1  830   2.977   0.363  11.525  0.9205 -0.2280 -0.0009
   54MPD2    H2  831   3.270   0.528  11.770  0.7544  0.4292  0.3128
   54MPD2    H3  832   3.188   0.354  11.612  0.8754 -0.1210  2.5585
   54MPD2     N  833   2.803   0.562  11.531 -0.0466 -0.0807 -0.4918
   54MPD2    H5  834   2.772   0.476  11.486 -0.6687  0.7167 -1.6052
   54MPD2    N1  835   3.178   0.773  11.751 -0.0142  0.1707  0.6591
   54MPD2    H7  836   3.118   0.855  11.754  0.1304  0.3093 -0.3410
   55MPD2     C  837   3.834   4.132  17.293 -0.0437  0.4904  0.7781
   55MPD2    C1  838   3.833   4.042  17.391  0.4611 -1.1246 -0.0622
   55MPD2    C2  839   3.796   4.082  17.516 -0.1442 -0.0676  0.7432
   55MPD2    C3  840   3.750   4.209  17.543 -0.1504  0.4333 -0.4243
   55MPD2    C4  841   3.749   4.296  17.440 -1.0449 -0.1094  0.3158
   55MPD2    C5  842   3.797   4.263  17.321 -0.4582 -0.4570 -0.0454
   55MPD2     H  843   3.811   4.014  17.600 -0.8884 -1.5245 -0.2953
   55MPD2    H1  844   3.710   4.396  17.448  0.4130  0.7722 -3.4888
   55MPD2    H2  845   3.867   4.107  17.193 -3.2549  2.2598 -0.7398
   55MPD2    H3  846   3.806   4.342  17.247  0.5226 -0.6212 -0.0950
   55MPD2     N  847   3.708   4.244  17.671 -1.0326 -0.3577 -0.0315
   55MPD2    H5  848   3.708   4.164   0.037  3.9457 -1.9263 -1.9760
   55MPD2    N1  849   3.869   3.910  17.365 -0.7808 -0.8338 -0.0860
   55MPD2    H7  850   3.888   3.893  17.267 -1.1448  0.2957 -0.3556
   56TCq2    C1  851   3.856   3.805  17.450  0.8339  0.6539  0.1534
   56TCq2    O2  852   3.818   3.789  17.564  0.4578  0.5016 -0.4788
   56TCq2    C2  853   3.911   3.690  17.380  0.1255 -0.5915  0.7983
   56TCq2    C3  854   3.973   3.704  17.257 -0.1246 -0.2774 -0.1766
   56TCq2    C4  855   4.069   3.622  17.210 -0.2748  0.1027 -0.3578
   56TCq2    C5  856   4.114   3.515  17.287  0.5675  0.1241 -0.2263
   56TCq2    C6  857   4.059   3.505  17.413 -0.5804  0.5372 -0.3264
   56TCq2    C7  858   3.959   3.589  17.459  0.1012  0.1529 -0.2836
   56TCq2    C8  859   4.129   3.406  17.497 -0.0968 -0.0248 -0.6261
   56TCq2    O4  860   4.229   3.351  17.450  0.8313 -0.1589  0.0290
   56TCq2    C9  861   4.124   3.639  17.082 -0.1901  0.3826  0.6236
   56TCq2    O5  862   4.199   3.546  17.038 -0.4858  0.7339  0.4872
   56TCq2    O6  863   4.086   3.742  17.018 -0.1360  0.9268 -0.0046
   56TCq2    H2  864   3.942   3.777  17.184  1.9950 -1.1730 -1.9850
   56TCq2    H3  865   4.190   3.448  17.251  0.5498 -0.1301  0.2057
   56TCq2    H4  866   3.954   3.603  17.567  0.9222 -1.5729 -0.0083
   57TMC2    C1  867   2.837   0.207  13.948 -0.6936 -0.1375 -0.4711
   57TMC2    C2  868   2.895   0.321  13.990  0.1095 -0.2398 -0.0138
   57TMC2    C3  869   3.000   0.364  13.928 -0.3985 -0.7390 -0.2813
   57TMC2    C4  870   2.894   0.126  13.858  0.6922 -0.5717 -0.4276
   57TMC2    C5  871   3.017   0.164  13.808 -0.0022  0.0372 -0.5203
   57TMC2    C6  872   3.067   0.294  13.834  0.2379 -0.1613 -0.0410
   57TMC2     C  873   2.701   0.175  13.997 -0.5680  0.0970  0.4102
   57TMC2     O  874   2.674   0.221  14.108  0.0095 -0.6396 -0.4699
   57TMC2     H  875   2.854   0.377  14.074  1.1076 -1.9957  1.6536
   57TMC2    H1  876   2.852   0.029  13.832  2.2386 -0.9884 -1.3845
   57TMC2    H2  877   3.158   0.333  13.790  0.0422  0.4221  0.0716
   57TMC2    C7  878   3.106   0.068  13.743  0.1898  0.0386  0.4132
   57TMC2    C8  879   3.069   0.484  13.988 -0.0649  0.3544  0.6353
   57TMC2    O1  880   3.225   0.082  13.760 -0.2243 -0.0377 -0.3893
   57TMC2    O2  881   2.998   0.560  14.053 -0.5251 -0.2689 -0.1763
   57TMC2    O5  882   3.182   0.431  14.042 -0.1567  0.3574  0.5326
   57TMC2    H5  883   3.218   0.351  13.998  1.0176  2.0064 -1.4821
   58MPD2     C  884   2.211   4.722  13.941 -0.0009  1.0892 -0.0297
   58MPD2    C1  885   2.271   0.067  14.045 -0.9681  0.2709 -0.2532
   58MPD2    C2  886   2.406   0.100  14.036  0.2508 -0.8677  0.3786
   58MPD2    C3  887   2.481   0.064  13.923  0.2695 -0.1236 -0.7830
   58MPD2    C4  888   2.415   0.015  13.812 -1.2909  0.2896  0.5804
   58MPD2    C5  889   2.279   4.707  13.825  0.1469  0.1975  0.1096
   58MPD2     H  890   2.446   0.153  14.121 -2.1182 -1.1120  1.6682
   58MPD2    H1  891   2.464   4.718  13.717  0.3490  1.9772  1.0503
   58MPD2    H2  892   2.104   4.702  13.941 -0.0088  1.1318 -0.0591
   58MPD2    H3  893   2.232   4.670  13.735  0.3118  1.4085 -0.4651
   58MPD2     N  894   2.621   0.098  13.908  0.4873  0.3126  0.6129
   58MPD2    H5  895   2.656   0.082  13.814 -2.6623  2.5198 -0.9432
   58MPD2    N1  896   2.220   0.142  14.151 -0.0757  0.0380 -0.1784
   58MPD2    H7  897   2.285   0.173  14.223 -0.1253 -1.3096  0.4428
   59MPD2     C  898   0.769   0.491  12.756 -0.1163 -0.3204 -0.1479
   59MPD2    C1  899   0.890   0.463  12.693 -0.1276 -0.1806  0.3322
   59MPD2    C2  900   1.015   0.479  12.756 -0.5283  0.1912  0.3990
   59MPD2    C3  901   1.022   0.528  12.887  0.0965  0.1088 -0.8739
   59MPD2    C4  902   0.900   0.572  12.949 -0.4748  0.0272  0.0265
   59MPD2    C5  903   0.780   0.552  12.882  0.4429 -0.4627  0.4285
   59MPD2     H  904   1.102   0.448  12.698  0.2961 -2.9547  3.3808
   59MPD2    H1  905   0.901   0.594  13.055 -1.7211 -1.0690  0.2667
   59MPD2    H2  906   0.670   0.461  12.725 -0.6038  1.1996 -0.0348
   59MPD2    H3  907   0.688   0.570  12.937 -0.5237  0.6405 -1.5373
   59MPD2     N  908   1.135   0.531  12.966  0.1015 -0.3234  0.2429
   59MPD2    H5  909   1.128   0.571  13.059 -0.5753 -1.1536  0.5577
   59MPD2    N1  910   0.875   0.409  12.557  0.1233 -0.3837  0.0243
   59MPD2    H7  911   0.955   0.357  12.523 -2.0284 -2.4770 -1.8790
   60TCq2    C1  912   0.753   0.402  12.483 -0.8833  0.0787 -1.1898
   60TCq2    O2  913   0.643   0.459  12.498 -0.2703 -0.2224 -0.5844
   60TCq2    C2  914   0.775   0.343  12.353 -0.4941  0.0488 -0.4646
   60TCq2    C3  915   0.671   0.270  12.293  0.2642 -0.2198  0.7104
   60TCq2    C4  916   0.671   0.268  12.157  0.1578 -0.2749  0.0590
   60TCq2    C5  917   0.762   0.325  12.070  0.6432 -0.2644 -0.1072
   60TCq2    C6  918   0.856   0.403  12.135  0.5227 -0.1877 -0.1554
   60TCq2    C7  919   0.872   0.403  12.273 -0.6443 -0.3950 -0.2008
   60TCq2    C8  920   0.948   0.479  12.056  0.1796  0.6394  0.0789
   60TCq2    O4  921   0.960   0.435  11.941 -0.0656 -0.0615 -0.2136
   60TCq2    C9  922   0.550   0.204  12.101  0.0976  0.3320  0.4569
   60TCq2    O5  923   0.479   0.144  12.180  0.7047 -0.7737  0.2022
   60TCq2    O6  924   0.527   0.225  11.976  0.2525 -0.2256 -0.8600
   60TCq2    H2  925   0.589   0.226  12.348  0.9424 -1.8856  0.3946
   60TCq2    H3  926   0.751   0.324  11.962 -1.4808 -0.6150  0.1068
   60TCq2    H4  927   0.946   0.458  12.331  0.3241 -1.5257 -0.3534
   61MPD2     C  928   0.886   1.524  14.735 -0.5315 -0.4827 -0.0274
   61MPD2    C1  929   0.831   1.634  14.798  0.4646 -0.0449 -0.6485
   61MPD2    C2  930   0.800   1.743  14.727  0.9896 -1.1086  0.2457
   61MPD2    C3  931   0.815   1.753  14.590 -0.1360 -0.1170  0.4940
   61MPD2    C4  932   0.854   1.637  14.528 -0.2224  0.2400  0.0856
   61MPD2    C5  933   0.893   1.524  14.602  0.0965  0.2173  0.1839
   61MPD2     H  934   0.748   1.819  14.785  1.1980 -0.1797 -0.7829
   61MPD2    H1  935   0.839   1.626  14.421 -3.7743  0.7280  0.5121
   61MPD2    H2  936   0.890   1.424  14.776 -1.5314  0.4587  2.3419
   61MPD2    H3  937   0.920   1.432  14.552  3.5692  1.1978  0.1953
   61MPD2     N  938   0.775   1.872  14.517  0.0947 -0.7833 -0.1130
   61MPD2    H5  939   0.781   1.872  14.416 -1.2979 -1.0996 -0.1837
   61MPD2    N1  940   0.801   1.629  14.927  0.5086  0.1298 -0.3400
   61MPD2    H7  941   0.748   1.706  14.965 -2.7107 -1.4533 -1.6557
   62TCq2    C1  942   0.840   1.539  15.025  0.5957 -0.7034  0.1626
   62TCq2    O2  943   0.899   1.433  15.010  0.3792  0.3764 -0.1237
   62TCq2    C2  944   0.789   1.578  15.163 -0.5697 -0.0515  0.5056
   62TCq2    C3  945   0.774   1.486  15.261  0.3883 -0.2330  0.3074
   62TCq2    C4  946   0.725   1.529  15.387 -0.3941 -0.3383  0.1127
   62TCq2    C5  947   0.700   1.666  15.408 -0.2112  1.1917  0.1116
   62TCq2    C6  948   0.722   1.754  15.306  0.0200 -0.0195  0.1754
   62TCq2    C7  949   0.764   1.710  15.182  0.1682  0.4488  0.6532
   62TCq2    C8  950   0.664   1.889  15.319 -0.0823 -0.7398 -0.2134
   62TCq2    O4  951   0.720   1.988  15.280 -0.3388  0.4928 -0.1621
   62TCq2    C9  952   0.715   1.436  15.494 -0.0216 -0.1271  0.3488
   62TCq2    O5  953   0.753   1.318  15.469 -0.1261  0.0011  0.5056
   62TCq2    O6  954   0.643   1.472  15.590  0.2940  0.3938 -0.1213
   62TCq2    H2  955   0.800   1.382  15.250  0.2540 -0.2209 -0.1077
   62TCq2    H3  956   0.663   1.695  15.506  1.1073  2.4607  0.2373
   62TCq2    H4  957   0.776   1.785  15.104 -0.1987 -1.1814 -0.9694
   63TMC2    C1  958   4.311   1.706  10.252  0.3564 -0.2797  0.0191
   63TMC2    C2  959   4.327   1.692  10.389 -0.5303  0.4268  0.0537
   63TMC2    C3  960   4.391   1.794  10.453 -0.6475 -0.2281 -0.0117
   63TMC2    C4  961   4.350   1.813  10.177  0.7635  0.2132  0.2787
   63TMC2    C5  962   4.417   1.909  10.247 -0.1912 -0.2782  0.4214
   63TMC2    C6  963   4.435   1.906  10.384  0.3731  0.3466  0.3692
   63TMC2     C  964   4.248   1.599  10.176  0.2472 -0.4923 -0.7191
   63TMC2     O  965   4.211   1.626  10.062 -0.1294 -0.0723  1.0597
   63TMC2     H  966   4.308   1.597  10.439  1.6858 -0.4444 -0.7776
   63TMC2    H1  967   4.331   1.827  10.071  0.6225 -2.7970 -0.1131
   63TMC2    H2  968   4.479   1.994  10.430  0.8442  1.3011 -1.9151
   63TMC2    C7  969   4.431   2.031  10.177 -0.1436  0.6233 -0.4324
   63TMC2    C8  970   4.398   1.792  10.602  0.1236 -0.1413  0.5260
   63TMC2    O1  971   4.334   2.071  10.114 -0.2180  0.2693  0.6296
   63TMC2    O2  972   4.397   1.691  10.670  0.1400 -0.2099  0.5823
   63TMC2    O5  973   4.362   1.911  10.646 -0.2421 -0.2357 -0.3231
   63TMC2    H5  974   4.360   1.982  10.579  4.0445 -0.2802 -0.5126
   64MPD2     C  975   4.189   1.111  10.037  0.2199  0.2187 -0.4965
   64MPD2    C1  976   4.265   1.119  10.153 -0.3200  0.2226  0.5834
   64MPD2    C2  977   4.277   1.231  10.223 -0.0724 -0.1003  0.0247
   64MPD2    C3  978   4.230   1.349  10.167 -0.4133  0.7663 -0.6232
   64MPD2    C4  979   4.144   1.353  10.055 -0.2755 -0.3581 -0.0887
   64MPD2    C5  980   4.124   1.228   9.998  0.2500  0.1456 -0.3128
   64MPD2     H  981   4.328   1.233  10.319 -0.6214  1.9088  0.2913
   64MPD2    H1  982   4.093   1.440  10.017 -0.8920 -0.1031  1.3230
   64MPD2    H2  983   4.167   1.019   9.985  1.3123 -0.5400  0.3823
   64MPD2    H3  984   4.060   1.233   9.912  1.1621 -0.7206 -1.0345
   64MPD2     N  985   4.262   1.474  10.235  0.2107  0.5522 -0.0402
   64MPD2    H5  986   4.289   1.474  10.333  0.3360  1.5896 -0.0705
   64MPD2    N1  987   4.348   1.016  10.203 -0.5488 -0.3072 -0.1369
   64MPD2    H7  988   4.405   1.035  10.285 -0.7574 -1.8484  0.3683
   65MPD2     C  989   0.961   1.186  15.982  0.2858  0.4440 -0.4020
   65MPD2    C1  990   0.926   1.200  15.847 -0.6566  0.5746  0.2354
   65MPD2    C2  991   0.910   1.086  15.771  0.1438 -0.2046  0.2398
   65MPD2    C3  992   0.906   0.962  15.829 -0.1453  0.4971  0.3472
   65MPD2    C4  993   0.926   0.954  15.969  0.1836 -0.4257 -0.0861
   65MPD2    C5  994   0.965   1.062  16.043  0.8966 -0.5655  0.0989
   65MPD2     H  995   0.884   1.095  15.666 -1.4960 -0.3107  0.6484
   65MPD2    H1  996   0.921   0.854  16.012 -0.0977 -0.2111  0.3781
   65MPD2    H2  997   0.980   1.264  16.055  0.0669  0.7447 -0.6705
   65MPD2    H3  998   1.003   1.039  16.142  0.7961 -1.1865 -0.0091
   65MPD2     N  999   0.879   0.844  15.757 -0.0500 -0.2698  0.4147
   65MPD2    H5 1000   0.855   0.763  15.814 -1.5900  0.2081  0.4327
   65MPD2    N1 1001   0.933   1.324  15.776 -0.1562 -0.1595 -0.3484
   65MPD2    H7 1002   0.914   1.323  15.677  0.0938  2.0851 -0.4143
   66TCq2    C1 1003   0.972   1.445  15.831 -0.2311 -0.2368  0.2108
   66TCq2    O2 1004   0.980   1.479  15.948 -0.1000 -0.9613 -0.4716
   66TCq2    C2 1005   1.006   1.542  15.728 -1.1749 -0.1494  0.3404
   66TCq2    C3 1006   1.038   1.497  15.597  0.2571 -1.0486 -0.0635
   66TCq2    C4 1007   1.047   1.601  15.502 -0.0844  0.0708 -0.1414
   66TCq2    C5 1008   1.030   1.733  15.532  0.0258  0.0507 -0.0095
   66TCq2    C6 1009   1.015   1.764  15.666  0.0430 -0.0717 -0.2426
   66TCq2    C7 1010   1.013   1.674  15.768  0.2372  0.4687 -0.9228
   66TCq2    C8 1011   1.049   1.901  15.696 -0.2884 -0.5519 -0.2818
   66TCq2    O4 1012   1.094   1.968  15.611  0.1955 -0.2259 -0.0657
   66TCq2    C9 1013   1.078   1.563  15.363 -0.0076 -0.2571  0.4115
   66TCq2    O5 1014   1.114   1.648  15.280  0.0151  0.7216  0.5510
   66TCq2    O6 1015   1.086   1.441  15.340  0.2738 -0.2908  0.0788
   66TCq2    H2 1016   1.031   1.395  15.562 -1.1882 -0.6152 -1.0934
   66TCq2    H3 1017   1.038   1.803  15.449 -1.5252 -1.0183 -1.0856
   66TCq2    H4 1018   1.007   1.697  15.873  0.3354 -1.7327 -0.4201
   67MPD2     C 1019   0.896   0.535  14.038 -0.3131  0.5021 -0.5204
   67MPD2    C1 1020   0.847   0.656  14.084  0.3773  0.7281  0.2274
   67MPD2    C2 1021   0.713   0.684  14.066  0.0916 -0.0720  0.0880
   67MPD2    C3 1022   0.627   0.599  13.994 -0.4811 -0.1646  0.7519
   67MPD2    C4 1023   0.684   0.486  13.943 -0.7900 -0.4288  0.1984
   67MPD2    C5 1024   0.812   0.459  13.959 -0.0757  0.1994 -0.8880
   67MPD2     H 1025   0.677   0.777  14.108  1.6171  1.3245 -1.6902
   67MPD2    H1 1026   0.629   0.418  13.879  1.4551  1.1102 -3.3546
   67MPD2    H2 1027   0.998   0.505  14.054 -0.3910  0.8411  0.6227
   67MPD2    H3 1028   0.862   0.380  13.905  0.9985 -1.8379  3.0397
   67MPD2     N 1029   0.487   0.613  13.968  0.0974  0.3034  0.0286
   67MPD2    H5 1030   0.435   0.530  13.943  1.7427 -0.7959  0.2831
   67MPD2    N1 1031   0.930   0.753  14.143 -0.7296 -0.1265  0.1349
   67MPD2    H7 1032   0.882   0.839  14.164 -0.6647 -0.2555  0.8148
   68TCq2    C1 1033   1.058   0.734  14.184 -0.8796  0.5505 -0.4166
   68TCq2    O2 1034   1.139   0.647  14.159 -0.2702  0.0290 -0.0091
   68TCq2    C2 1035   1.093   0.846  14.279  0.2275 -0.0821 -0.4240
   68TCq2    C3 1036   0.992   0.934  14.302  0.8976  0.1672 -0.3383
   68TCq2    C4 1037   0.995   1.000  14.416  0.2875 -0.0133  0.2555
   68TCq2    C5 1038   1.094   0.981  14.506  0.7913 -0.3029 -0.0191
   68TCq2    C6 1039   1.195   0.893  14.468 -0.2312  0.2737  0.2066
   68TCq2    C7 1040   1.203   0.829  14.354 -0.7414 -0.0445 -0.4337
   68TCq2    C8 1041   1.319   0.896  14.546  0.2797  0.5508  0.3707
   68TCq2    O4 1042   1.425   0.908  14.486 -0.0046 -0.0739 -0.8128
   68TCq2    C9 1043   0.877   1.073  14.452  0.3425  0.4457 -0.3418
   68TCq2    O5 1044   0.855   1.097  14.570  0.3325  0.4927  0.5244
   68TCq2    O6 1045   0.792   1.099  14.359 -0.4267  0.2527 -0.6531
   68TCq2    H2 1046   0.909   0.964  14.238  1.4831  0.1151 -1.1149
   68TCq2    H3 1047   1.095   1.034  14.600  1.7974 -0.3539  0.0022
   68TCq2    H4 1048   1.280   0.754  14.338 -0.2217  0.6337 -1.1025
   69TMC2    C1 1049   2.805   1.971  12.557 -0.2814 -0.5130 -0.1621
   69TMC2    C2 1050   2.674   1.948  12.518 -0.2977  0.1431  0.1590
   69TMC2    C3 1051   2.651   1.953  12.384 -0.5874  0.0038 -0.8793
   69TMC2    C4 1052   2.904   1.974  12.469 -0.5077 -1.0178  0.3273
   69TMC2    C5 1053   2.878   1.973  12.332 -0.4606 -0.3578  0.3362
   69TMC2    C6 1054   2.749   1.953  12.284 -0.3646 -0.9387  0.0382
   69TMC2     C 1055   2.823   1.931  12.694  0.8238 -0.1722  0.1779
   69TMC2     O 1056   2.740   1.846  12.737  0.5783  0.2251 -0.7535
   69TMC2     H 1057   2.596   1.947  12.593 -1.2979  0.2313 -0.8807
   69TMC2    H1 1058   3.007   1.967  12.504  0.3347  3.2657 -1.1947
   69TMC2    H2 1059   2.724   1.958  12.179  1.9367  0.1281 -0.4833
   69TMC2    C7 1060   2.996   1.951  12.248 -0.2194 -0.4899  0.7309
   69TMC2    C8 1061   2.514   1.938  12.336  0.0186 -0.2972  0.0117
   69TMC2    O1 1062   3.097   1.904  12.290  0.2360 -0.2543  0.1226
   69TMC2    O2 1063   2.423   1.961  12.414 -0.8339  0.1186  0.0599
   69TMC2    O5 1064   2.508   1.839  12.247 -0.1410  0.2137  0.2816
   69TMC2    H5 1065   2.594   1.806  12.214 -0.4568  0.0013 -0.3346
   70MPD2     C 1066   3.089   2.000  12.936  0.4224  0.1755  0.2066
   70MPD2    C1 1067   2.990   1.920  12.880  0.6781 -0.2275 -0.4953
   70MPD2    C2 1068   2.939   1.816  12.954  0.0387  0.1899  0.5706
   70MPD2    C3 1069   3.007   1.759  13.062  0.2341  0.0163 -0.0412
   70MPD2    C4 1070   3.108   1.835  13.109 -0.3219  0.2846  0.6758
   70MPD2    C5 1071   3.144   1.958  13.055  0.2391  0.3677  0.0417
   70MPD2     H 1072   2.851   1.765  12.916 -0.0960  0.6559  0.2686
   70MPD2    H1 1073   3.161   1.803  13.198  1.3733  2.0764  0.3209
   70MPD2    H2 1074   3.111   2.100  12.900  2.3846 -1.0373 -1.9980
   70MPD2    H3 1075   3.228   2.012  13.099 -0.4980  0.0161  1.8772
   70MPD2     N 1076   2.982   1.638  13.129  0.9134 -0.4011 -0.2006
   70MPD2    H5 1077   3.019   1.629  13.223 -3.7419  0.5251  1.7643
   70MPD2    N1 1078   2.944   1.966  12.748  0.0307  0.2442  0.1241
   70MPD2    H7 1079   3.002   2.039  12.708  1.4443 -0.5977  0.6154
   71TMC2    C1 1080   0.157   3.055   1.967  0.4244 -1.0618 -1.0905
   71TMC2    C2 1081   0.197   3.011   2.089 -0.7874 -0.1187  0.3310
   71TMC2    C3 1082   0.123   3.040   2.202  0.0136  0.6517  0.2219
   71TMC2    C4 1083   0.038   3.125   1.957 -0.0613  0.3079  0.5168
   71TMC2    C5 1084   4.684   3.149   2.070  0.1812  0.7474 -0.1012
   71TMC2    C6 1085   0.003   3.105   2.191  0.2226 -0.0277  0.3385
   71TMC2     C 1086   0.228   3.010   1.846 -0.0259  0.0640  0.3050
   71TMC2     O 1087   0.199   3.065   1.740 -0.1242 -0.2427  0.2956
   71TMC2     H 1088   0.301   2.980   2.097 -0.6862  0.1060 -0.1079
   71TMC2    H1 1089   0.022   3.171   1.860 -0.4404 -0.7908  0.0675
   71TMC2    H2 1090   4.667   3.121   2.280  2.0903 -2.2996  2.0023
   71TMC2    C7 1091   4.558   3.222   2.077 -0.6994  0.4186 -0.1580
   71TMC2    C8 1092   0.150   2.973   2.329 -0.0805  1.4522  0.0430
   71TMC2    O1 1093   4.532   3.281   2.186 -0.2291 -0.6653 -0.4316
   71TMC2    O2 1094   0.089   2.995   2.433 -0.2749  0.2417  0.7914
   71TMC2    O5 1095   0.234   2.873   2.310 -0.4939 -0.2630 -0.1555
   71TMC2    H5 1096   0.249   2.843   2.218  0.4894  1.4803 -0.5561
   72MPD2     C 1097   0.554   2.716   1.580 -0.1515  0.3789 -0.1879
   72MPD2    C1 1098   0.524   2.849   1.556 -0.2807 -0.1243 -0.7737
   72MPD2    C2 1099   0.445   2.915   1.648 -0.4213  0.1246  0.3458
   72MPD2    C3 1100   0.396   2.845   1.760  0.3702 -0.0080  0.8972
   72MPD2    C4 1101   0.428   2.710   1.780 -0.2024  0.0159  0.2358
   72MPD2    C5 1102   0.511   2.642   1.689 -0.1925 -0.3005  0.0137
   72MPD2     H 1103   0.433   3.023   1.640 -3.5017 -0.1823  0.7237
   72MPD2    H1 1104   0.382   2.651   1.859  0.8625  2.7575  2.8721
   72MPD2    H2 1105   0.605   2.663   1.499  0.2004 -1.2255  1.0818
   72MPD2    H3 1106   0.536   2.537   1.688  0.8494 -0.0679  1.3205
   72MPD2     N 1107   0.312   2.901   1.859  0.2627  0.1927 -0.5251
   72MPD2    H5 1108   0.307   2.840   1.940 -2.0570 -0.2317 -1.0007
   72MPD2    N1 1109   0.581   2.929   1.452 -0.0622 -0.3335  0.2720
   72MPD2    H7 1110   0.558   3.028   1.447 -0.3140 -0.3383  1.4971
   73TMC2    C1 1111   0.333   0.279  13.270  0.4021 -0.0452 -0.3312
   73TMC2    C2 1112   0.471   0.268  13.268  0.1276  0.4664 -0.1309
   73TMC2    C3 1113   0.546   0.356  13.191 -0.2052  0.0140  0.3512
   73TMC2    C4 1114   0.265   0.364  13.187  0.3864 -0.2774  0.2483
   73TMC2    C5 1115   0.340   0.451  13.109  0.2292  0.1210  0.8122
   73TMC2    C6 1116   0.475   0.444  13.112  0.0176  0.3232  0.7218
   73TMC2     C 1117   0.265   0.158  13.264 -0.5908 -0.5163 -0.7452
   73TMC2     O 1118   0.190   0.161  13.167  0.5797  0.1543 -0.2547
   73TMC2     H 1119   0.517   0.196  13.336 -3.4774 -0.6889  1.1006
   73TMC2    H1 1120   0.157   0.367  13.195  0.4692 -0.3204  1.3118
   73TMC2    H2 1121   0.526   0.520  13.054 -1.4216  0.6245 -0.1718
   73TMC2    C7 1122   0.303   0.450  12.970 -0.6364  0.3091 -0.7180
   73TMC2    C8 1123   0.687   0.387  13.221 -0.1078 -0.3574  0.4345
   73TMC2    O1 1124   0.337   0.539  12.896  0.6333  0.6028 -0.0324
   73TMC2    O2 1125   0.740   0.496  13.234  0.3206  0.2136 -0.1288
   73TMC2    O5 1126   0.743   0.275  13.263  0.1945  0.3783  0.2615
   73TMC2    H5 1127   0.706   0.197  13.215  0.3678 -0.3619  1.3501
   74MPD2     C 1128   0.210   4.383  13.312 -0.3868 -0.2220 -0.2884
   74MPD2    C1 1129   0.146   4.473  13.232  0.3766 -0.5324 -0.1319
   74MPD2    C2 1130   0.160   4.607  13.262  0.2333 -0.3830 -0.8460
   74MPD2    C3 1131   0.260   4.645  13.344 -0.8170  0.3231 -0.5685
   74MPD2    C4 1132   0.315   4.550  13.424  0.7183  0.1381  0.2480
   74MPD2    C5 1133   0.289   4.417  13.414  0.3313  0.5181 -0.0219
   74MPD2     H 1134   0.090   4.677  13.218 -0.3989  0.3060  1.2361
   74MPD2    H1 1135   0.399   4.566  13.491  1.4641 -0.3640 -0.5561
   74MPD2    H2 1136   0.186   4.278  13.298 -1.8055 -0.1843  1.8443
   74MPD2    H3 1137   0.336   4.337  13.471  2.2012  2.4102  1.1070
   74MPD2     N 1138   0.293   0.058  13.358  0.1183  0.1903 -1.1433
   74MPD2    H5 1139   0.368   0.082  13.421  1.7658 -0.9614 -2.6509
   74MPD2    N1 1140   0.064   4.445  13.124 -0.3906 -0.7179 -0.5537
   74MPD2    H7 1141   0.043   4.529  13.071  0.8259  0.7377  1.2544
   75TCq2    C1 1142   0.418   0.720  14.021 -0.0760  0.5206 -0.1184
   75TCq2    O2 1143   0.450   0.820  14.082  0.1769  0.2349 -0.4009
   75TCq2    C2 1144   0.280   0.704  14.002 -0.0122 -0.2982  0.0467
   75TCq2    C3 1145   0.205   0.778  14.091 -0.1310  0.0155  0.4713
   75TCq2    C4 1146   0.067   0.796  14.068 -0.3890  0.3279 -0.0238
   75TCq2    C5 1147   0.015   0.739  13.954 -0.7426  0.0111  0.0085
   75TCq2    C6 1148   0.100   0.683  13.856  0.1323 -0.3493 -0.4863
   75TCq2    C7 1149   0.227   0.655  13.882 -0.3202 -0.0850 -0.3474
   75TCq2    C8 1150   0.040   0.627  13.739  0.0503  0.9468  0.1388
   75TCq2    O4 1151   4.669   0.686  13.692 -0.2120  0.6755 -0.1297
   75TCq2    C9 1152   4.701   0.853  14.164  0.0116  0.5251 -0.0732
   75TCq2    O5 1153   0.023   0.918  14.261 -0.0347  0.0261 -0.6701
   75TCq2    O6 1154   4.580   0.834  14.135 -0.4857 -0.1713  0.7470
   75TCq2    H2 1155   0.247   0.827  14.178 -1.2426  1.4889  0.1786
   75TCq2    H3 1156   4.633   0.743  13.933 -1.0151 -1.7968  1.0626
   75TCq2    H4 1157   0.294   0.622  13.804 -1.2789  1.6574 -1.8986
   76MPD2     C 1158   4.106   1.396  12.106 -0.1724  0.4413 -0.6719
   76MPD2    C1 1159   3.999   1.329  12.050  0.7981 -0.2298  0.1258
   76MPD2    C2 1160   3.991   1.188  12.049 -0.0625  0.1142  0.1314
   76MPD2    C3 1161   4.098   1.114  12.100  0.0887  0.6794 -0.1731
   76MPD2    C4 1162   4.208   1.185  12.146  0.6872  0.1290 -0.0345
   76MPD2    C5 1163   4.213   1.323  12.153 -0.4455 -0.1168 -0.8652
   76MPD2     H 1164   3.910   1.138  11.996  0.9013 -1.1281 -0.1668
   76MPD2    H1 1165   4.295   1.127  12.175  0.7357  0.2028 -0.0328
   76MPD2    H2 1166   4.106   1.502  12.124  1.3998  0.2511  0.4555
   76MPD2    H3 1167   4.299   1.381  12.187  0.2692 -1.1646 -0.8972
   76MPD2     N 1168   4.098   0.972  12.109  0.0919 -0.0400  0.1794
   76MPD2    H5 1169   4.193   0.939  12.125  0.6068  3.0909  3.4681
   76MPD2    N1 1170   3.887   1.391  12.002 -0.5814 -0.6234 -0.5139
   76MPD2    H7 1171   3.825   1.342  11.939  0.1181 -1.8531 -0.2372
   77TCq2    C1 1172   3.988   0.889  12.085 -0.2836  0.5580 -0.2486
   77TCq2    O2 1173   3.874   0.920  12.083  0.5693 -0.3397 -0.2407
   77TCq2    C2 1174   4.026   0.749  12.082  0.0540  0.1297 -0.2512
   77TCq2    C3 1175   3.926   0.654  12.086  0.1998 -0.3595  0.3984
   77TCq2    C4 1176   3.952   0.526  12.057  0.1755  0.3240 -0.3556
   77TCq2    C5 1177   4.075   0.482  12.029  0.1822 -0.2929 -1.3223
   77TCq2    C6 1178   4.178   0.577  12.033 -1.2090 -1.1277 -0.2973
   77TCq2    C7 1179   4.153   0.716  12.051  0.3049 -0.3125 -0.0105
   77TCq2    C8 1180   4.311   0.538  11.985  0.4487  0.3670 -0.2525
   77TCq2    O4 1181   4.316   0.422  11.950 -0.1860 -0.2915  0.2654
   77TCq2    C9 1182   3.850   0.427  12.072 -0.2807 -0.2372  0.5521
   77TCq2    O5 1183   3.892   0.311  12.083  0.0696 -0.1959  0.1444
   77TCq2    O6 1184   3.728   0.454  12.047 -0.6664  0.0876 -0.4336
   77TCq2    H2 1185   3.825   0.686  12.109  0.9845  3.2464 -1.0507
   77TCq2    H3 1186   4.106   0.380  12.011 -0.1471 -0.3247 -1.7142
   77TCq2    H4 1187   4.227   0.788  12.019  0.3567  0.4773  1.9059
   78MPD1     C 1188   1.551   2.619   2.225  0.1395  0.3428  0.3228
   78MPD1    C1 1189   1.679   2.573   2.185 -0.1758  0.9016  0.8095
   78MPD1    C2 1190   1.710   2.575   2.048  0.1134  0.0570 -0.6131
   78MPD1    C3 1191   1.608   2.615   1.955 -0.1424  0.0263 -0.0120
   78MPD1    C4 1192   1.479   2.635   1.998  0.2070  0.2380  0.4200
   78MPD1    C5 1193   1.456   2.626   2.132  0.8908  0.7883 -0.7025
   78MPD1     H 1194   1.810   2.545   2.019  0.9733  1.1088  1.2682
   78MPD1    H1 1195   1.394   2.649   1.933  0.2215  2.2278  0.8330
   78MPD1    H2 1196   1.536   2.633   2.331  0.8268 -0.7857  0.5747
   78MPD1    H3 1197   1.352   2.635   2.159  0.5240 -0.4962 -1.6445
   78MPD1     N 1198   1.627   2.618   1.817 -0.1229 -0.2814  0.8755
   78MPD1    H5 1199   1.548   2.635   1.756 -1.4900 -1.0100  2.4183
   78MPD1    N1 1200   1.783   2.550   2.284 -1.0345 -0.5086 -0.2890
   78MPD1    H6 1201   1.745   2.524   2.374 -0.2201  3.0856  1.0916
   78MPD1    H7 1202   1.844   2.475   2.251  1.7652  0.9543  1.5616
   79TCq2    C1 1203   1.746   2.592   1.756 -0.7936 -0.0322 -0.3402
   79TCq2    O2 1204   1.853   2.549   1.800 -0.4156  0.2785  0.0873
   79TCq2    C2 1205   1.731   2.619   1.612 -0.5333  0.0748  0.5450
   79TCq2    C3 1206   1.624   2.691   1.559  0.2476  0.2876 -0.0029
   79TCq2    C4 1207   1.640   2.736   1.432 -0.2465 -0.9609 -0.1016
   79TCq2    C5 1208   1.749   2.701   1.363  0.1998  0.1566 -0.4000
   79TCq2    C6 1209   1.845   2.620   1.411 -0.4352 -0.4401  0.5183
   79TCq2    C7 1210   1.843   2.578   1.545  0.5635  0.4402 -0.4536
   79TCq2    C8 1211   1.957   2.590   1.322 -0.5560  0.1361 -0.4939
   79TCq2    O4 1212   2.057   2.544   1.375  0.8420  0.5390 -0.3642
   79TCq2    C9 1213   1.542   2.826   1.377  0.3124  0.1061 -0.1083
   79TCq2    O5 1214   1.577   2.879   1.267  0.3500  0.1065 -0.1876
   79TCq2    O6 1215   1.432   2.846   1.435  0.6582  0.8330  0.6039
   79TCq2    H2 1216   1.542   2.732   1.616  2.2334  1.2586  2.1632
   79TCq2    H3 1217   1.766   2.753   1.270  0.0263  0.8226 -0.0602
   79TCq2    H4 1218   1.912   2.504   1.585  0.0256  1.0071  1.4716
   80MPD2     C 1219   2.755   1.288  12.785 -0.2527  0.1488 -0.1874
   80MPD2    C1 1220   2.770   1.255  12.651  0.2304 -0.3602 -0.3391
   80MPD2    C2 1221   2.663   1.222  12.579  0.0881  0.4498  0.6255
   80MPD2    C3 1222   2.540   1.206  12.636  0.4892  0.2493  0.5237
   80MPD2    C4 1223   2.524   1.234  12.769 -0.0565  0.1103  0.0875
   80MPD2    C5 1224   2.630   1.276  12.845 -0.0434 -0.1567 -0.5841
   80MPD2     H 1225   2.677   1.205  12.473 -0.7984  1.8235  0.2801
   80MPD2    H1 1226   2.425   1.220  12.812  0.8769  0.1929  2.2865
   80MPD2    H2 1227   2.835   1.325  12.847 -1.6681  2.0301  0.4955
   80MPD2    H3 1228   2.616   1.303  12.949 -1.5345 -3.0542 -0.0304
   80MPD2     N 1229   2.422   1.163  12.565  0.2663 -0.5291 -0.9923
   80MPD2    H5 1230   2.338   1.134  12.615  0.8003 -1.0467 -0.3985
   80MPD2    N1 1231   2.903   1.269  12.601 -0.3117  0.1925 -0.1366
   80MPD2    H7 1232   2.974   1.324  12.647 -0.0780  0.7971 -1.2132
   81TCq2    C1 1233   2.943   1.202  12.487  0.0512  0.1387  0.3185
   81TCq2    O2 1234   2.879   1.140  12.405  0.0785  0.1030 -0.2355
   81TCq2    C2 1235   3.088   1.217  12.458  0.5560  0.0795  0.1108
   81TCq2    C3 1236   3.161   1.316  12.520  0.3542 -0.8287  0.1358
   81TCq2    C4 1237   3.296   1.313  12.504  0.7155 -0.2854  0.5837
   81TCq2    C5 1238   3.356   1.230  12.416  0.4679 -0.2436 -0.1816
   81TCq2    C6 1239   3.277   1.143  12.345 -0.9644  0.5262 -0.5892
   81TCq2    C7 1240   3.141   1.126  12.375 -0.4580 -0.1466  0.3578
   81TCq2    C8 1241   3.353   1.036  12.282 -0.1533 -0.8923  0.5742
   81TCq2    O4 1242   3.475   1.044  12.268 -0.3359  0.5102  0.7216
   81TCq2    C9 1243   3.375   1.399  12.587  0.6997  1.2203 -0.0056
   81TCq2    O5 1244   3.496   1.422  12.555  0.2032 -0.2742  0.3108
   81TCq2    O6 1245   3.325   1.425  12.701  0.6430 -0.8187  0.2382
   81TCq2    H2 1246   3.113   1.394  12.578  0.4580  1.2158 -2.5339
   81TCq2    H3 1247   3.463   1.221  12.403  0.1527 -2.5620 -1.1362
   81TCq2    H4 1248   3.078   1.054  12.324  2.6717 -0.9296 -2.3695
   82MPD2     C 1249   1.423   0.726  10.746 -0.3952 -0.3394  0.8120
   82MPD2    C1 1250   1.372   0.604  10.714  0.1390 -0.0334 -0.0432
   82MPD2    C2 1251   1.397   0.501  10.802 -0.1699  0.8539  0.1656
   82MPD2    C3 1252   1.489   0.521  10.908  0.8541 -0.4024 -0.2736
   82MPD2    C4 1253   1.556   0.645  10.922  0.3246  0.4496 -0.0151
   82MPD2    C5 1254   1.525   0.744  10.838  0.6787 -0.6956  0.0317
   82MPD2     H 1255   1.357   0.401  10.789 -2.1416  1.7207 -0.4119
   82MPD2    H1 1256   1.639   0.656  10.991 -1.0517 -0.6674  1.8267
   82MPD2    H2 1257   1.382   0.808  10.687 -1.2738 -1.5501 -0.2557
   82MPD2    H3 1258   1.576   0.837  10.859  0.6321 -0.8516  0.8511
   82MPD2     N 1259   1.526   0.426  11.003  0.4851 -0.5873 -0.3393
   82MPD2    H5 1260   1.590   0.462  11.073  0.1588 -0.5118 -0.0806
   82MPD2    N1 1261   1.277   0.599  10.615 -0.9918  0.2609  0.8038
   82MPD2    H7 1262   1.272   0.683  10.558 -1.3083  0.0930  0.5876
   83TCq2    C1 1263   1.470   0.302  11.031 -0.0244 -0.4303 -0.2057
   83TCq2    O2 1264   1.386   0.238  10.969  0.3769 -0.3382 -0.3681
   83TCq2    C2 1265   1.533   0.236  11.150  1.0291  0.4554 -0.9398
   83TCq2    C3 1266   1.665   0.247  11.194 -0.1414  0.1158  0.1496
   83TCq2    C4 1267   1.713   0.170  11.293 -0.1313  0.1155 -0.5683
   83TCq2    C5 1268   1.632   0.069  11.335 -0.6358 -0.1511 -0.3595
   83TCq2    C6 1269   1.503   0.053  11.285  0.3443  0.9481 -0.1905
   83TCq2    C7 1270   1.452   0.136  11.191 -0.2908  0.1141 -0.4162
   83TCq2    C8 1271   1.443   4.656  11.312 -0.1722 -0.7453 -0.0773
   83TCq2    O4 1272   1.466   4.608  11.424 -0.8606 -0.0007 -0.0380
   83TCq2    C9 1273   1.853   0.158  11.321  0.8498 -0.0117  0.1552
   83TCq2    O5 1274   1.933   0.242  11.260 -0.0591 -0.2804 -0.0445
   83TCq2    O6 1275   1.901   0.080  11.406 -0.6174  0.5892  0.2492
   83TCq2    H2 1276   1.736   0.318  11.153 -1.4703  1.6110  0.4217
   83TCq2    H3 1277   1.679   4.708  11.383  0.3311  2.1056  2.6592
   83TCq2    H4 1278   1.352   0.126  11.151 -0.4295  0.2451 -0.0991
   84TCq2    C1 1279   2.577   3.677  11.060  0.1517 -0.1234  0.6116
   84TCq2    O2 1280   2.494   3.626  11.129  0.7241  0.4427 -0.0702
   84TCq2    C2 1281   2.696   3.727  11.117 -0.2750  0.2404 -0.5339
   84TCq2    C3 1282   2.803   3.755  11.038  0.2479 -0.2251 -0.3507
   84TCq2    C4 1283   2.892   3.847  11.079 -0.6324 -0.4168 -0.0818
   84TCq2    C5 1284   2.877   3.903  11.204 -0.7356 -0.1908  0.0095
   84TCq2    C6 1285   2.780   3.864  11.289 -0.6345 -0.3205 -0.2426
   84TCq2    C7 1286   2.680   3.785  11.238  0.0572  0.2789  0.3185
   84TCq2    C8 1287   2.734   3.969  11.387 -0.0951 -0.2153 -0.3339
   84TCq2    O4 1288   2.784   4.080  11.387 -0.8006  0.0032 -0.0228
   84TCq2    C9 1289   3.015   3.880  11.019  0.5101  1.1076  0.5904
   84TCq2    O5 1290   3.053   3.798  10.936 -0.0342  0.6155 -0.7797
   84TCq2    O6 1291   3.083   3.972  11.064 -0.0925  0.6773  0.0130
   84TCq2    H2 1292   2.809   3.716  10.937 -1.9498 -0.9737 -0.1910
   84TCq2    H3 1293   2.945   3.979  11.243  0.5995 -1.1056 -0.5397
   84TCq2    H4 1294   2.596   3.757  11.300 -1.1787  2.7633 -0.2128
   85MPD2     C 1295   3.084   1.951  16.744  1.0842  0.3314 -0.3014
   85MPD2    C1 1296   3.073   1.921  16.606 -0.0026  0.4894 -0.4507
   85MPD2    C2 1297   3.079   2.031  16.526  0.5206 -0.1372  0.0702
   85MPD2    C3 1298   3.087   2.163  16.578 -0.3996  0.0693  0.2742
   85MPD2    C4 1299   3.086   2.187  16.714 -0.6006  0.3853  0.7228
   85MPD2    C5 1300   3.090   2.081  16.796 -0.4768 -0.6333  0.4907
   85MPD2     H 1301   3.071   2.019  16.418  2.3221  1.6222 -0.2546
   85MPD2    H1 1302   3.108   2.283  16.759  0.2225  0.9048 -0.7601
   85MPD2    H2 1303   3.089   1.875  16.822 -2.6593  0.1410 -0.2041
   85MPD2    H3 1304   3.115   2.093  16.901 -0.2326  0.8109  0.2776
   85MPD2     N 1305   3.074   2.264  16.478  0.3512  0.4821  0.0097
   85MPD2    H5 1306   3.086   2.232  16.383 -0.0956  0.4802 -0.0474
   85MPD2    N1 1307   3.062   1.791  16.548 -0.2925 -1.2495 -0.1476
   85MPD2    H7 1308   3.045   1.780  16.449 -2.8748  0.9155  0.0288
   86TCq2    C1 1309   3.040   2.393  16.507 -0.5506 -0.4423 -0.1063
   86TCq2    O2 1310   3.012   2.450  16.612 -1.0238 -0.4076 -0.0325
   86TCq2    C2 1311   3.050   2.469  16.388 -0.4276 -0.3930  0.1189
   86TCq2    C3 1312   2.963   2.571  16.352 -0.2887  0.2598  0.1667
   86TCq2    C4 1313   2.986   2.639  16.235 -0.3019 -0.0590  0.5514
   86TCq2    C5 1314   3.099   2.619  16.161 -0.1841 -1.0398  0.0568
   86TCq2    C6 1315   3.191   2.525  16.212 -0.3188  0.1405  0.1965
   86TCq2    C7 1316   3.165   2.444  16.319 -0.4834 -0.2489  0.7393
   86TCq2    C8 1317   3.304   2.488  16.134  0.5199 -0.1451  0.1360
   86TCq2    O4 1318   3.348   2.376  16.162 -0.2282 -0.5817 -0.5177
   86TCq2    C9 1319   2.888   2.729  16.188  0.4331  0.2989 -0.0889
   86TCq2    O5 1320   2.793   2.763  16.264  0.0615 -0.3338  0.4120
   86TCq2    O6 1321   2.901   2.776  16.071 -0.2187  0.1945  0.6199
   86TCq2    H2 1322   2.878   2.599  16.413 -0.5531 -2.2892  0.9726
   86TCq2    H3 1323   3.117   2.677  16.071  0.0014  4.5181  3.6785
   86TCq2    H4 1324   3.242   2.375  16.349  1.0346  0.4008 -1.5895
   87MPD2     C 1325   0.966   1.997   0.490  0.4575 -0.2283 -0.3131
   87MPD2    C1 1326   0.918   1.879   0.546 -0.4126 -0.4297 -0.0133
   87MPD2    C2 1327   0.836   1.805   0.467  0.5012 -0.2149  0.0613
   87MPD2    C3 1328   0.800   1.842   0.339 -0.0825  0.8705 -0.2010
   87MPD2    C4 1329   0.846   1.955   0.278 -0.0826  0.2314  0.4584
   87MPD2    C5 1330   0.924   2.028   0.358  0.0515  0.6465  0.4096
   87MPD2     H 1331   0.792   1.715   0.509 -0.9957  1.0575  1.2353
   87MPD2    H1 1332   0.810   1.987   0.181 -0.3370 -0.9373  0.1735
   87MPD2    H2 1333   1.035   2.063   0.542 -0.1402 -1.1798  1.6643
   87MPD2    H3 1334   0.953   2.123   0.315 -0.2706  0.7420  0.4003
   87MPD2     N 1335   0.722   1.757   0.256  0.0476  0.4035  0.0183
   87MPD2    H5 1336   0.728   1.780   0.157  0.6229  0.0096 -0.0406
   87MPD2    N1 1337   0.938   1.853   0.681 -0.0044 -0.4669 -0.5014
   87MPD2    H7 1338   1.007   1.901   0.737 -0.6657 -1.6339  1.2893
   88TCq2    C1 1339   0.854   1.773   0.762 -0.2520  0.2310 -0.6217
   88TCq2    O2 1340   0.772   1.690   0.730  0.0148 -0.1986 -0.6058
   88TCq2    C2 1341   0.910   1.761   0.897  0.1040  0.0931  0.5462
   88TCq2    C3 1342   0.989   1.861   0.955 -0.6504 -0.1735  0.4001
   88TCq2    C4 1343   1.074   1.831   1.056 -0.2265 -0.2696  0.2736
   88TCq2    C5 1344   1.085   1.699   1.104  0.4416  0.1656 -0.0336
   88TCq2    C6 1345   1.009   1.602   1.043 -0.5617  1.4829  0.8308
   88TCq2    C7 1346   0.918   1.631   0.945 -0.4247  0.3302 -0.3890
   88TCq2    C8 1347   1.054   1.460   1.040 -0.4316 -0.6336 -0.1590
   88TCq2    O4 1348   1.019   1.396   0.944 -0.3894  0.3023 -0.3750
   88TCq2    C9 1349   1.150   1.939   1.115 -0.9271 -0.3518 -0.4335
   88TCq2    O5 1350   1.155   2.049   1.053 -0.1574  0.1402  0.5017
   88TCq2    O6 1351   1.189   1.916   1.232  0.1855 -0.1763 -0.2655
   88TCq2    H2 1352   0.968   1.963   0.926 -1.6423 -0.5772 -0.2888
   88TCq2    H3 1353   1.168   1.680   1.172  0.8087 -2.1542 -1.1448
   88TCq2    H4 1354   0.866   1.553   0.891 -1.8237  1.9940 -1.4371
   89MPD2     C 1355   1.398   3.368   2.460  0.5139 -0.8144 -0.0487
   89MPD2    C1 1356   1.350   3.484   2.410 -0.0699 -0.7396  0.1417
   89MPD2    C2 1357   1.427   3.572   2.341  0.1079 -0.4838 -0.3302
   89MPD2    C3 1358   1.558   3.542   2.314  0.4105  0.6151 -0.1362
   89MPD2    C4 1359   1.607   3.419   2.358 -0.1075  0.0628 -0.3247
   89MPD2    C5 1360   1.530   3.337   2.439  0.0214 -0.2689  0.5229
   89MPD2     H 1361   1.386   3.667   2.308 -1.6288 -1.3849 -0.7905
   89MPD2    H1 1362   1.704   3.386   2.324 -0.6109 -0.6427 -1.0783
   89MPD2    H2 1363   1.338   3.314   2.533  0.0591  2.0767  1.7054
   89MPD2    H3 1364   1.569   3.243   2.475 -0.4984 -0.9676 -0.7496
   89MPD2     N 1365   1.627   3.635   2.239  0.1135 -0.5955  0.2781
   89MPD2    H5 1366   1.580   3.723   2.220  0.6253 -0.4283 -0.2144
   89MPD2    N1 1367   1.207   3.513   2.405  0.9042  0.4331  0.2002
   89MPD2    H7 1368   1.188   3.596   2.350 -0.1309  0.0758  0.0083
   90TCq2    C1 1369   1.753   3.622   2.182 -0.3757  0.4544  0.2281
   90TCq2    O2 1370   1.835   3.531   2.205 -0.0305  0.1908  0.3648
   90TCq2    C2 1371   1.788   3.735   2.112 -0.3486  0.0665 -0.2940
   90TCq2    C3 1372   1.920   3.760   2.133 -0.0164 -0.5469  0.8772
   90TCq2    C4 1373   1.981   3.872   2.080  0.0566 -0.4689  0.0006
   90TCq2    C5 1374   1.909   3.951   2.001 -0.2522  0.7956  0.1676
   90TCq2    C6 1375   1.773   3.936   1.989  0.3154 -0.1467  0.5165
   90TCq2    C7 1376   1.708   3.830   2.054 -0.5225  0.5598  0.7402
   90TCq2    C8 1377   1.696   4.004   1.880  0.4177 -0.5368  0.6694
   90TCq2    O4 1378   1.578   4.036   1.898 -0.9162 -0.1932 -0.0294
   90TCq2    C9 1379   2.118   3.910   2.115 -0.1388 -0.5255 -0.1392
   90TCq2    O5 1380   2.159   4.026   2.087 -0.2880  0.2946  0.1348
   90TCq2    O6 1381   2.186   3.815   2.149  0.0093  0.3012 -0.0506
   90TCq2    H2 1382   1.977   3.696   2.200  1.2699  1.4041  1.6507
   90TCq2    H3 1383   1.965   4.033   1.956  0.0776  1.1134  1.1519
   90TCq2    H4 1384   1.605   3.821   2.024 -0.6802  0.1835  1.3944
   91TMC2    C1 1385   3.062   3.286  16.765  0.1041  0.2556 -0.2139
   91TMC2    C2 1386   3.124   3.384  16.683  0.0756 -0.1592  0.0410
   91TMC2    C3 1387   3.036   3.444  16.596 -0.2298  1.0270 -0.7097
   91TMC2    C4 1388   2.927   3.256  16.757  1.1449  0.0489  0.3627
   91TMC2    C5 1389   2.856   3.309  16.658 -0.7345 -0.4046  0.3148
   91TMC2    C6 1390   2.906   3.407  16.579  0.1272 -0.6687  0.7785
   91TMC2     C 1391   3.150   3.174  16.794  0.4235 -0.6019  0.0030
   91TMC2     O 1392   3.102   3.100  16.878 -0.6918 -0.5343 -0.9046
   91TMC2     H 1393   3.220   3.427  16.710  0.9741 -3.2485  1.7648
   91TMC2    H1 1394   2.894   3.171  16.816 -0.0909  0.0515 -0.3229
   91TMC2    H2 1395   2.840   3.467  16.518  1.3876  0.6183  0.6847
   91TMC2    C7 1396   2.713   3.272  16.644  0.1249  0.9393 -0.5810
   91TMC2    C8 1397   3.079   3.566  16.541  0.4347 -0.3379  0.2755
   91TMC2    O1 1398   2.646   3.240  16.740 -0.2633  0.6002  0.7532
   91TMC2    O2 1399   3.000   3.651  16.513 -0.3975  0.2801  0.3590
   91TMC2    O5 1400   3.189   3.543  16.465  0.4562  0.0768 -0.2518
   91TMC2    H5 1401   3.236   3.467  16.505 -0.1237 -0.3600 -0.3921
   92MPD2     C 1402   3.375   2.994  16.858  0.2455 -0.0810 -0.5775
   92MPD2    C1 1403   3.382   3.102  16.765  0.3252  0.4315  0.0782
   92MPD2    C2 1404   3.499   3.131  16.709  1.0734 -0.3679 -0.1709
   92MPD2    C3 1405   3.610   3.060  16.728 -0.6133  0.1218  0.0604
   92MPD2    C4 1406   3.607   2.957  16.818 -0.6628  0.5103 -0.6002
   92MPD2    C5 1407   3.488   2.923  16.886 -0.0483 -0.0946  0.2803
   92MPD2     H 1408   3.502   3.212  16.637 -0.1713  0.9942  1.3017
   92MPD2    H1 1409   3.696   2.898  16.835 -1.5751 -0.5634  0.3902
   92MPD2    H2 1410   3.294   2.964  16.923  1.1012  1.3287  1.1130
   92MPD2    H3 1411   3.495   2.845  16.961  0.2030 -0.6095 -0.2708
   92MPD2     N 1412   3.720   3.108  16.661 -0.1830 -0.1052 -0.6533
   92MPD2    H5 1413   3.693   3.184  16.600  1.3181  0.4524 -0.6020
   92MPD2    N1 1414   3.276   3.185  16.737  0.4647 -0.4161  0.5151
   92MPD2    H7 1415   3.302   3.270  16.688 -0.8724 -0.7477 -0.7721
   93MPD2     C 1416   0.105   3.925  13.892 -0.1376 -0.0563  0.2541
   93MPD2    C1 1417   0.157   3.799  13.885 -0.3219  0.0689  0.9037
   93MPD2    C2 1418   0.094   3.690  13.841  0.1620 -0.4556 -0.5962
   93MPD2    C3 1419   4.687   3.712  13.794  0.4237 -0.6557  0.0240
   93MPD2    C4 1420   4.637   3.839  13.782 -0.0777 -0.5697  0.4768
   93MPD2    C5 1421   4.701   3.943  13.844 -0.1245 -0.7541 -0.1286
   93MPD2     H 1422   0.131   3.589  13.856 -1.3560 -1.4542 -3.5019
   93MPD2    H1 1423   4.550   3.862  13.722  1.0774  0.5176 -0.7790
   93MPD2    H2 1424   0.154   4.010  13.937  0.5426 -0.1102 -0.3793
   93MPD2    H3 1425   4.661   4.044  13.848 -1.3186 -1.1977 -1.1454
   93MPD2     N 1426   4.599   3.610  13.746  0.1237  0.6928  0.1608
   93MPD2    H5 1427   4.521   3.644  13.692  1.0175 -0.9013 -2.1146
   93MPD2    N1 1428   0.285   3.797  13.952 -0.2922 -1.2833  0.3666
   93MPD2    H7 1429   0.322   3.884  13.989 -0.7841 -0.9917  0.1768
   94TCq2    C1 1430   0.373   3.695  13.948  0.1180  0.4676 -0.1870
   94TCq2    O2 1431   0.369   3.594  13.879 -0.5255 -0.1942  0.1684
   94TCq2    C2 1432   0.483   3.707  14.042  0.1525  0.3833 -0.3106
   94TCq2    C3 1433   0.466   3.790  14.148 -0.1203 -0.2862 -0.1339
   94TCq2    C4 1434   0.572   3.836  14.216 -0.4108  0.0332  0.0477
   94TCq2    C5 1435   0.701   3.791  14.183 -0.8583  0.2164 -0.1691
   94TCq2    C6 1436   0.715   3.716  14.070 -0.4184 -0.2608 -0.5246
   94TCq2    C7 1437   0.612   3.669  13.994 -0.0179 -0.5675  0.1660
   94TCq2    C8 1438   0.846   3.711  14.008 -0.4696 -0.2324 -0.0727
   94TCq2    O4 1439   0.866   3.622  13.924  0.2666 -0.1099  0.1889
   94TCq2    C9 1440   0.557   3.914  14.334  0.2006  0.3411 -0.1348
   94TCq2    O5 1441   0.439   3.945  14.368  0.0300  0.3318  0.0258
   94TCq2    O6 1442   0.665   3.974  14.365  0.9575  0.3418 -0.2641
   94TCq2    H2 1443   0.367   3.808  14.190  0.4271 -1.8822  1.8539
   94TCq2    H3 1444   0.789   3.837  14.227 -0.3628  1.2994 -2.2631
   94TCq2    H4 1445   0.621   3.610  13.904  1.2212  0.8238 -0.6112
   95TMC2    C1 1446   0.204   0.220  16.188 -0.4509 -0.1206 -0.5801
   95TMC2    C2 1447   0.144   0.101  16.194  0.0472  0.0533  0.1588
   95TMC2    C3 1448   0.117   0.037  16.316 -0.7681  0.2927  0.3151
   95TMC2    C4 1449   0.224   0.290  16.304  0.5073 -0.7229 -0.2023
   95TMC2    C5 1450   0.185   0.233  16.423 -0.0314  0.6059  0.1629
   95TMC2    C6 1451   0.139   0.104  16.433  0.3766  0.5125 -0.6561
   95TMC2     C 1452   0.261   0.275  16.064 -0.1028  0.4371  0.0023
   95TMC2     O 1453   0.289   0.397  16.068  0.6567  0.5392  0.1413
   95TMC2     H 1454   0.108   0.057  16.101  1.1731 -0.4662 -0.0211
   95TMC2    H1 1455   0.274   0.386  16.298 -0.5645 -0.1256  0.6627
   95TMC2    H2 1456   0.106   0.064  16.529  1.2081 -0.1207 -0.6341
   95TMC2    C7 1457   0.202   0.317  16.543  0.0858 -0.7229 -0.5373
   95TMC2    C8 1458   0.052   4.632  16.321  0.9831 -0.3126 -0.1227
   95TMC2    O1 1459   0.254   0.426  16.518  0.2641 -0.9835  0.0223
   95TMC2    O2 1460   0.012   4.585  16.429  0.4010 -0.2169 -0.0021
   95TMC2    O5 1461   0.075   4.557  16.207  0.0516 -0.0493  0.2342
   95TMC2    H5 1462   0.151   4.599  16.161 -1.8385 -1.1533 -3.9217
   96MPD2     C 1463   0.352   0.227  15.560  0.3027 -0.6815  0.0961
   96MPD2    C1 1464   0.376   0.326  15.643  0.1296  0.7469 -0.1899
   96MPD2    C2 1465   0.351   0.307  15.776 -0.2341  0.0271  0.0423
   96MPD2    C3 1466   0.293   0.192  15.825  0.3841  0.4870 -0.0040
   96MPD2    C4 1467   0.272   0.092  15.738  0.0135 -0.6310  0.2670
   96MPD2    C5 1468   0.298   0.110  15.605 -0.6718 -0.2342  0.5890
   96MPD2     H 1469   0.371   0.396  15.835 -3.3774  0.1716  0.8441
   96MPD2    H1 1470   0.211   0.006  15.761 -0.4577 -0.5001 -0.4856
   96MPD2    H2 1471   0.377   0.233  15.454 -1.1531 -0.4989 -0.2467
   96MPD2    H3 1472   0.262   0.033  15.537 -0.8933 -1.4751  2.1098
   96MPD2     N 1473   0.253   0.182  15.963  0.0759 -0.4594 -0.3328
   96MPD2    H5 1474   0.199   0.102  15.996  2.2936 -1.9566 -0.2676
   96MPD2    N1 1475   0.445   0.435  15.596 -0.0010 -0.6378 -0.2562
   96MPD2    H7 1476   0.451   0.448  15.495  1.2469 -2.1904 -0.3748
   97MPD2     C 1477   2.427   2.920   1.228 -0.3078  0.0223  0.7587
   97MPD2    C1 1478   2.289   2.918   1.233  0.1265  0.2105 -0.5985
   97MPD2    C2 1479   2.211   2.937   1.125 -0.0901  0.2096  0.3052
   97MPD2    C3 1480   2.266   2.950   1.003  0.0985  1.0353 -0.1316
   97MPD2    C4 1481   2.403   2.943   0.992 -0.4197 -0.6198  0.4885
   97MPD2    C5 1482   2.487   2.939   1.105  0.0722 -0.4046 -0.3443
   97MPD2     H 1483   2.104   2.934   1.140 -0.0688  0.8723  0.5937
   97MPD2    H1 1484   2.457   2.934   0.899 -2.1608 -3.0819 -0.2876
   97MPD2    H2 1485   2.483   2.917   1.321 -1.1421 -0.3495  1.2460
   97MPD2    H3 1486   2.595   2.931   1.092  0.0671 -0.6403 -0.2385
   97MPD2     N 1487   2.188   2.958   0.879  0.3440 -0.1768  0.1215
   97MPD2    H5 1488   2.242   2.965   0.793  0.0516 -0.8737 -0.1231
   97MPD2    N1 1489   2.237   2.900   1.364  0.1098 -0.3844 -0.4618
   97MPD2    H7 1490   2.312   2.898   1.433  0.1065 -0.2464 -0.4558
   98TCq2    C1 1491   2.049   2.971   0.861  0.1294 -0.1616  0.1520
   98TCq2    O2 1492   1.967   2.972   0.950  0.1673  0.0057  0.2931
   98TCq2    C2 1493   2.004   3.011   0.725 -0.1634  0.2214 -0.1188
   98TCq2    C3 1494   1.867   3.036   0.710 -0.1856  0.0547 -0.1525
   98TCq2    C4 1495   1.829   3.126   0.614  0.2873 -0.1972 -0.1477
   98TCq2    C5 1496   1.920   3.188   0.538  0.6371  0.3319 -0.3389
   98TCq2    C6 1497   2.049   3.163   0.557  0.0272  0.2197 -0.0171
   98TCq2    C7 1498   2.093   3.080   0.648  0.2069  0.1325  0.3746
   98TCq2    C8 1499   2.146   3.239   0.488 -0.2762 -0.1600 -0.4129
   98TCq2    O4 1500   2.250   3.188   0.454 -1.2824  0.1486  0.2919
   98TCq2    C9 1501   1.693   3.170   0.603  0.6607 -0.0285 -0.4932
   98TCq2    O5 1502   1.620   3.118   0.687  0.1808  0.7732 -0.4361
   98TCq2    O6 1503   1.664   3.270   0.530 -1.0725  0.2576 -0.0929
   98TCq2    H2 1504   1.785   2.997   0.770 -0.0139 -1.6578 -1.0035
   98TCq2    H3 1505   1.886   3.261   0.466  1.4239 -0.1027 -1.1471
   98TCq2    H4 1506   2.200   3.063   0.652  0.0002 -0.9441  1.4475
   99MPD2     C 1507   0.985   0.110   2.354 -0.3675  0.0914 -0.3088
   99MPD2    C1 1508   0.911   0.206   2.288  0.0481  1.1215  0.2927
   99MPD2    C2 1509   0.951   0.239   2.161  0.1187  0.2185 -0.3950
   99MPD2    C3 1510   1.061   0.176   2.099 -0.1995  0.2676 -0.7156
   99MPD2    C4 1511   1.132   0.084   2.171 -0.4745  0.6307 -0.1417
   99MPD2    C5 1512   1.097   0.054   2.299 -0.3081  0.4862  0.7426
   99MPD2     H 1513   0.892   0.314   2.110 -0.2213  1.3409  1.6556
   99MPD2    H1 1514   1.220   0.041   2.123 -1.2753 -1.6857  0.5051
   99MPD2    H2 1515   0.956   0.076   2.453 -0.3570  2.7460  0.6200
   99MPD2    H3 1516   1.129   4.686   2.348 -0.1980  0.1981  0.1357
   99MPD2     N 1517   1.094   0.210   1.961  0.7008 -0.6865 -0.2306
   99MPD2    H5 1518   1.036   0.277   1.912 -1.3248 -1.3267  1.3007
   99MPD2    N1 1519   0.796   0.267   2.346 -0.1582 -0.5322 -0.3902
   99MPD2    H7 1520   0.750   0.325   2.276  0.7039 -2.2247 -2.3556
  100TCq2    C1 1521   0.758   0.278   2.479  0.1622 -0.0117 -0.0140
  100TCq2    O2 1522   0.816   0.237   2.576 -0.2385  0.2294  0.1138
  100TCq2    C2 1523   0.636   0.355   2.501  1.3296  0.1790 -0.4465
  100TCq2    C3 1524   0.630   0.416   2.622  0.0548 -0.1449  0.0117
  100TCq2    C4 1525   0.520   0.498   2.647  0.2721 -0.0024 -0.6390
  100TCq2    C5 1526   0.423   0.507   2.549 -0.4102  0.1152 -0.0694
  100TCq2    C6 1527   0.438   0.438   2.427 -0.7151 -0.3550 -0.0432
  100TCq2    C7 1528   0.543   0.351   2.406  0.7853 -0.6320 -0.0320
  100TCq2    C8 1529   0.338   0.469   2.324 -0.0904 -0.3850 -0.2861
  100TCq2    O4 1530   0.271   0.569   2.350 -0.5291 -0.5108 -0.2585
  100TCq2    C9 1531   0.512   0.588   2.756 -0.4057 -0.1222 -0.2939
  100TCq2    O5 1532   0.396   0.619   2.786 -0.4534  0.1232  0.4237
  100TCq2    O6 1533   0.610   0.593   2.837 -0.3967  0.1948 -0.2988
  100TCq2    H2 1534   0.709   0.405   2.696  0.4213  0.5619 -0.2782
  100TCq2    H3 1535   0.340   0.575   2.569  0.6734  1.4943 -0.2612
  100TCq2    H4 1536   0.556   0.278   2.327 -0.9818 -0.7712 -0.2092
  101MPD2     C 1537   2.139   0.775  13.007  1.0329 -0.0796  0.1534
  101MPD2    C1 1538   2.081   0.811  13.130  0.4625  0.1597  0.6015
  101MPD2    C2 1539   1.966   0.731  13.164  0.2870 -0.3260  0.0679
  101MPD2    C3 1540   1.919   0.626  13.088  0.3478  0.0428  0.5925
  101MPD2    C4 1541   1.991   0.584  12.978  0.2762  0.4715  0.1084
  101MPD2    C5 1542   2.094   0.666  12.934 -0.2777  0.2470 -0.3951
  101MPD2     H 1543   1.922   0.756  13.260  1.0663 -1.8257  0.8070
  101MPD2    H1 1544   1.958   0.497  12.922 -0.8058 -0.3158  1.9617
  101MPD2    H2 1545   2.212   0.844  12.966  0.5744  1.6573  2.2171
  101MPD2    H3 1546   2.145   0.626  12.847  2.7036 -0.6162  1.7671
  101MPD2     N 1547   1.792   0.571  13.122  0.5397 -0.4021  0.2636
  101MPD2    H5 1548   1.754   0.607  13.209  0.0109 -0.6821  0.1508
  101MPD2    N1 1549   2.130   0.926  13.203  0.0499 -0.7399 -0.5443
  101MPD2    H7 1550   2.210   0.972  13.161 -0.5913  0.6234 -0.2744
  102TCq2    C1 1551   2.357   1.365  13.223  0.5026 -0.0406 -0.7560
  102TCq2    O2 1552   2.376   1.307  13.117  0.1909  0.4049 -0.5202
  102TCq2    C2 1553   2.281   1.286  13.321 -0.5057 -0.3837  0.3647
  102TCq2    C3 1554   2.284   1.319  13.458 -0.4296 -0.7628 -0.5497
  102TCq2    C4 1555   2.214   1.237  13.541 -0.4127 -0.5130  0.8332
  102TCq2    C5 1556   2.150   1.127  13.495  1.0438  0.6078 -0.4300
  102TCq2    C6 1557   2.152   1.097  13.366 -0.5318  0.0731 -0.0755
  102TCq2    C7 1558   2.212   1.179  13.274 -0.2866 -0.0352  0.2885
  102TCq2    C8 1559   2.079   0.979  13.322  0.9868 -1.0805  0.4868
  102TCq2    O4 1560   1.983   0.940  13.390  0.1406  0.9282 -0.3359
  102TCq2    C9 1561   2.202   1.265  13.682 -0.9968 -0.0312 -0.5402
  102TCq2    O5 1562   2.088   1.252  13.734  0.5565 -0.0422 -0.5061
  102TCq2    O6 1563   2.303   1.318  13.740  0.1985 -0.1475  0.5712
  102TCq2    H2 1564   2.352   1.395  13.498 -1.9738 -0.6099  1.7733
  102TCq2    H3 1565   2.096   1.067  13.567  1.4068  0.9322  0.1113
  102TCq2    H4 1566   2.205   1.154  13.168 -0.1772 -1.9824  0.7477
  103TMC2    C1 1567   0.269   0.957  12.105 -0.2833  0.1481  0.5880
  103TMC2    C2 1568   0.388   0.910  12.059  0.1457  0.4169 -1.0808
  103TMC2    C3 1569   0.500   0.929  12.137 -0.3415  0.7211 -0.6138
  103TMC2    C4 1570   0.257   1.022  12.218  0.3108  0.3064  0.1745
  103TMC2    C5 1571   0.369   1.049  12.295 -0.3113 -0.0320 -0.1130
  103TMC2    C6 1572   0.496   1.014  12.248 -0.3307 -0.2648  0.1531
  103TMC2     C 1573   0.147   0.892  12.071  0.0695 -0.1719  0.4624
  103TMC2     O 1574   0.051   0.950  12.109  0.0361  0.2620  0.5084
  103TMC2     H 1575   0.407   0.865  11.962 -1.9493 -0.9745 -0.8624
  103TMC2    H1 1576   0.163   1.044  12.268 -0.0788 -1.7580  0.3586
  103TMC2    H2 1577   0.578   1.048  12.311  0.3960  0.1529 -1.0164
  103TMC2    C7 1578   0.358   1.102  12.431 -0.1612  1.1552 -0.3195
  103TMC2    C8 1579   0.628   0.935  12.071 -1.1048  0.3097  0.0874
  103TMC2    O1 1580   0.243   1.087  12.472 -0.5063 -0.3604 -0.4004
  103TMC2    O2 1581   0.725   1.001  12.096  0.1648 -0.1415  0.0079
  103TMC2    O5 1582   0.633   0.813  12.009 -0.0412  0.1217  0.4525
  103TMC2    H5 1583   0.556   0.754  12.023 -0.1541  0.6235  1.9870
  104MPD2     C 1584   0.098   0.548  11.945 -0.3122 -0.2995  0.8845
  104MPD2    C1 1585   0.058   0.673  11.987 -0.1233 -0.4542 -0.2254
  104MPD2    C2 1586   4.646   0.702  12.010  0.9828  0.7476  0.7265
  104MPD2    C3 1587   4.550   0.597  11.987  0.2463  0.1172  0.0337
  104MPD2    C4 1588   4.592   0.477  11.937 -0.1487 -0.0523  0.2918
  104MPD2    C5 1589   0.001   0.451  11.923 -0.4309  0.1143 -0.8389
  104MPD2     H 1590   4.615   0.800  12.047  0.7599  0.6830  0.7118
  104MPD2    H1 1591   4.529   0.394  11.906  0.8309 -0.4578 -0.6286
  104MPD2    H2 1592   0.201   0.520  11.925 -0.9816 -2.0711 -0.0156
  104MPD2    H3 1593   0.033   0.356  11.883 -0.7677 -0.0501 -0.7170
  104MPD2     N 1594   4.412   0.626  12.010 -0.3754 -0.3706 -0.3441
  104MPD2    H5 1595   4.379   0.719  12.035  0.6226  0.0525 -0.5939
  104MPD2    N1 1596   0.159   0.764  12.016 -0.5028  0.3235  0.8057
  104MPD2    H7 1597   0.254   0.735  11.995 -0.7563  0.2126 -0.2227
  105MPD2     C 1598   1.565   0.372   0.299  0.0795 -0.0283 -0.3133
  105MPD2    C1 1599   1.453   0.419   0.244 -0.7174  0.1526 -0.1870
  105MPD2    C2 1600   1.350   0.457   0.330 -0.6838 -0.3970  0.7307
  105MPD2    C3 1601   1.361   0.440   0.468 -0.2310 -0.4137 -0.6320
  105MPD2    C4 1602   1.465   0.364   0.511  0.5409  0.2142  0.2944
  105MPD2    C5 1603   1.561   0.332   0.424 -0.4084 -0.6225  0.8380
  105MPD2     H 1604   1.259   0.505   0.295 -0.3654 -0.2894  0.0583
  105MPD2    H1 1605   1.475   0.329   0.613  1.8291 -0.6731 -0.1296
  105MPD2    H2 1606   1.649   0.341   0.237  0.4252 -0.8515  0.5631
  105MPD2    H3 1607   1.648   0.281   0.463  0.3924 -0.1780 -0.3816
  105MPD2     N 1608   1.269   0.501   0.557  0.0790 -0.5857 -0.0174
  105MPD2    H5 1609   1.193   0.553   0.515 -0.3157 -2.0027 -1.0977
  105MPD2    N1 1610   1.434   0.428   0.101 -0.1082  0.5438  0.4102
  105MPD2    H7 1611   1.342   0.458   0.068  0.7532  0.7857 -1.7809
  106TCq2    C1 1612   1.278   0.509   0.692  0.6852 -0.4309  0.4659
  106TCq2    O2 1613   1.351   0.445   0.770  0.2909  0.6259 -0.1390
  106TCq2    C2 1614   1.167   0.582   0.745 -0.5584 -0.6058 -0.2033
  106TCq2    C3 1615   1.076   0.643   0.657 -0.5257 -0.2269  0.5431
  106TCq2    C4 1616   1.005   0.755   0.693  0.3062 -0.8814  0.1078
  106TCq2    C5 1617   1.039   0.822   0.810  0.7755 -0.3806  1.0366
  106TCq2    C6 1618   1.143   0.767   0.888  0.1180 -0.4215 -0.1268
  106TCq2    C7 1619   1.196   0.641   0.865 -0.3134 -0.2705 -1.1348
  106TCq2    C8 1620   1.170   0.828   1.019  0.8357 -0.6615 -0.8360
  106TCq2    O4 1621   1.191   0.748   1.109  0.3068  0.1879  0.0235
  106TCq2    C9 1622   0.907   0.809   0.601  0.4660  0.1735  0.0741
  106TCq2    O5 1623   0.933   0.787   0.483 -0.0868 -0.6365  0.6549
  106TCq2    O6 1624   0.828   0.901   0.635 -0.2576  0.1136 -0.1332
  106TCq2    H2 1625   1.050   0.594   0.565 -0.2107 -1.6632  1.2161
  106TCq2    H3 1626   0.991   0.918   0.824 -2.2800 -1.8055  0.3983
  106TCq2    H4 1627   1.266   0.598   0.935 -0.6353  3.0112  1.1995
  107TMC2    C1 1628   2.102   4.685  11.718 -0.6392 -0.0051 -0.1564
  107TMC2    C2 1629   2.135   0.018  11.601 -0.9720  0.3973  0.3868
  107TMC2    C3 1630   2.226   4.675  11.526 -0.8047  1.3183 -0.1424
  107TMC2    C4 1631   2.158   4.569  11.760 -0.2411 -0.3563 -0.5780
  107TMC2    C5 1632   2.246   4.502  11.675 -0.3886 -0.9457 -0.0203
  107TMC2    C6 1633   2.288   4.563  11.562  0.1045  0.4824 -0.1636
  107TMC2     C 1634   1.981   4.714  11.791  0.0873 -0.3067  0.0165
  107TMC2     O 1635   1.984   4.680  11.912  0.3843 -0.4444 -0.3431
  107TMC2     H 1636   2.093   0.114  11.571 -1.9964  0.4107  1.8443
  107TMC2    H1 1637   2.122   4.518  11.849  0.4520  0.0076 -0.0896
  107TMC2    H2 1638   2.359   4.511  11.499 -2.4558 -1.1293 -1.6846
  107TMC2    C7 1639   2.292   4.370  11.712 -0.4330 -0.1811 -0.1021
  107TMC2    C8 1640   2.283   0.009  11.411  0.1735  0.3144 -0.0368
  107TMC2    O1 1641   2.246   4.319  11.811 -0.4146 -0.5740  0.5261
  107TMC2    O2 1642   2.389   4.693  11.366 -0.1253  0.4854 -0.6142
  107TMC2    O5 1643   2.171   0.026  11.330 -0.2910 -0.0035  0.6283
  107TMC2    H5 1644   2.087   0.023  11.380 -0.9767  0.0420 -0.5182
  108MPD2     C 1645   1.693   0.152  11.659 -0.5544  0.0975 -0.0648
  108MPD2    C1 1646   1.769   0.101  11.763 -0.0145  0.2976  0.2024
  108MPD2    C2 1647   1.735   0.118  11.895 -0.1381  0.6670  0.8903
  108MPD2    C3 1648   1.610   0.179  11.918 -0.0092  0.0470  0.4141
  108MPD2    C4 1649   1.534   0.227  11.814  0.0226  0.3718 -0.0344
  108MPD2    C5 1650   1.576   0.217  11.685  0.1880 -0.1582 -0.0570
  108MPD2     H 1651   1.805   0.087  11.972  1.5190 -0.0496 -0.8905
  108MPD2    H1 1652   1.442   0.277  11.843  0.1984  0.4760  0.3511
  108MPD2    H2 1653   1.735   0.138  11.560  0.9306 -0.9395  0.7242
  108MPD2    H3 1654   1.523   0.266  11.604  0.7511  2.3725  1.1191
  108MPD2     N 1655   1.555   0.198  12.047  0.2576 -0.0979  0.5199
  108MPD2    H5 1656   1.463   0.240  12.044  0.0152 -0.4884  2.3112
  108MPD2    N1 1657   1.884   0.042  11.715 -0.6577  0.1044  0.0328
  108MPD2    H7 1658   1.900   0.046  11.615  2.4805  1.2991  0.5828
  109MPD2     C 1659   3.184   2.730   1.416  0.5478  0.3254 -1.1123
  109MPD2    C1 1660   3.054   2.757   1.438 -0.1279  0.0677  0.3004
  109MPD2    C2 1661   3.014   2.825   1.557 -0.6186 -0.2626 -0.1130
  109MPD2    C3 1662   3.112   2.861   1.652 -0.4262  0.5762  0.6237
  109MPD2    C4 1663   3.247   2.823   1.625 -0.4120  0.5142 -0.0964
  109MPD2    C5 1664   3.280   2.759   1.510  0.0142 -0.4391  0.2008
  109MPD2     H 1665   2.921   2.881   1.556 -0.9550 -0.8062  0.6239
  109MPD2    H1 1666   3.325   2.841   1.697  0.4775 -1.4484 -0.5560
  109MPD2    H2 1667   3.218   2.679   1.327 -0.2885 -0.8348 -0.7776
  109MPD2    H3 1668   3.383   2.735   1.489 -0.6340 -1.4683 -1.8695
  109MPD2     N 1669   3.089   2.938   1.770  0.1374 -0.5548  0.9425
  109MPD2    H5 1670   2.990   2.955   1.784  0.0441  0.2838 -0.6700
  109MPD2    N1 1671   2.964   2.734   1.331  0.1250  0.0368  0.3834
  109MPD2    H7 1672   2.999   2.666   1.263  0.8388 -0.5374  1.3108
  110TCq2    C1 1673   3.171   2.982   1.871  0.4962 -0.5092 -0.5024
  110TCq2    O2 1674   3.294   2.978   1.869  0.0113 -0.5894 -0.0014
  110TCq2    C2 1675   3.112   3.037   1.993 -0.3009 -0.5891 -0.5160
  110TCq2    C3 1676   3.205   3.088   2.083  0.1717  0.8856 -0.3216
  110TCq2    C4 1677   3.168   3.112   2.210 -0.1657  0.0975  0.3883
  110TCq2    C5 1678   3.055   3.077   2.262 -0.1415 -0.1119  0.4351
  110TCq2    C6 1679   2.959   3.038   2.175 -0.3934  0.1571  0.5532
  110TCq2    C7 1680   2.985   3.013   2.040  0.1566 -0.5644  0.1009
  110TCq2    C8 1681   2.823   3.001   2.228 -0.5167 -0.3970  0.0821
  110TCq2    O4 1682   2.813   3.008   2.352  0.1385  0.1459 -0.2124
  110TCq2    C9 1683   3.270   3.163   2.300  0.4975  0.1699  0.7421
  110TCq2    O5 1684   3.362   3.233   2.247 -0.6269  0.1325 -0.1710
  110TCq2    O6 1685   3.278   3.101   2.412 -0.4327 -0.4736  0.4844
  110TCq2    H2 1686   3.310   3.105   2.062  0.2947 -0.9001 -1.1226
  110TCq2    H3 1687   3.040   3.094   2.368  0.3852  0.1059  0.4729
  110TCq2    H4 1688   2.925   2.953   1.973 -2.0656  0.7740  0.9111
  111TMC2    C1 1689   1.651   1.754  11.863 -0.1577 -0.1455 -0.1368
  111TMC2    C2 1690   1.571   1.792  11.960  0.1328  0.1140  0.7657
  111TMC2    C3 1691   1.589   1.754  12.091 -0.4465 -1.0502  0.7113
  111TMC2    C4 1692   1.755   1.669  11.887  0.0387 -0.1716 -1.1354
  111TMC2    C5 1693   1.775   1.634  12.019 -0.0132  0.0851  0.1314
  111TMC2    C6 1694   1.696   1.672  12.124  0.0844  0.5406 -0.2267
  111TMC2     C 1695   1.613   1.791  11.729 -0.5737  0.1486  0.0834
  111TMC2     O 1696   1.612   1.706  11.640  0.4141 -0.2108  0.5528
  111TMC2     H 1697   1.480   1.849  11.945  1.0035  1.3187 -0.0024
  111TMC2    H1 1698   1.820   1.632  11.808 -0.0805 -2.1326 -0.3074
  111TMC2    H2 1699   1.731   1.637  12.221 -0.6267  0.8494  0.1451
  111TMC2    C7 1700   1.901   1.574  12.052 -0.1360 -0.2209 -0.2794
  111TMC2    C8 1701   1.514   1.821  12.194  0.2952  0.6783  0.1874
  111TMC2    O1 1702   1.911   1.529  12.165  0.0576 -0.0941 -0.1664
  111TMC2    O2 1703   1.419   1.893  12.167  0.2958  0.2234  0.3153
  111TMC2    O5 1704   1.570   1.803  12.317 -0.0434  0.3691 -1.0650
  111TMC2    H5 1705   1.625   1.721  12.317  3.0402  2.4052  0.3686
  112MPD2     C 1706   1.425   2.148  11.405 -0.0867 -0.3258  0.3350
  112MPD2    C1 1707   1.454   2.018  11.379 -0.5320  0.2080 -0.4814
  112MPD2    C2 1708   1.490   1.937  11.486  0.7403  0.2692 -0.0109
  112MPD2    C3 1709   1.513   1.994  11.616 -0.1585 -0.1490  0.3946
  112MPD2    C4 1710   1.489   2.131  11.632  0.1257 -0.4525 -0.4587
  112MPD2    C5 1711   1.443   2.202  11.528  0.7136 -0.1928 -0.2237
  112MPD2     H 1712   1.521   1.833  11.479 -1.3359 -0.0843 -3.8182
  112MPD2    H1 1713   1.508   2.177  11.728 -0.5918 -0.1632 -0.4516
  112MPD2    H2 1714   1.424   2.229  11.333  2.7586 -1.5383 -1.0781
  112MPD2    H3 1715   1.441   2.310  11.534  2.2336 -0.1742 -0.1241
  112MPD2     N 1716   1.566   1.920  11.727  0.2653  0.4758 -0.4475
  112MPD2    H5 1717   1.592   1.980  11.804 -0.4341  0.6632 -0.3596
  112MPD2    N1 1718   1.450   1.970  11.245 -0.0213 -0.4225 -0.2102
  112MPD2    H7 1719   1.485   1.875  11.238  1.3424 -0.0245  1.1437
  113MPD2     C 1720   0.723   0.019   2.021  0.9987 -0.0399 -0.1855
  113MPD2    C1 1721   0.722   0.088   1.898  0.8279 -0.1158 -0.3874
  113MPD2    C2 1722   0.739   0.016   1.782 -0.4263 -0.0872 -0.3365
  113MPD2    C3 1723   0.769   4.609   1.783  0.2943 -0.3137  0.8782
  113MPD2    C4 1724   0.790   4.550   1.901  0.0860  0.2765 -0.4705
  113MPD2    C5 1725   0.769   4.615   2.018  0.1259  0.1376  0.0280
  113MPD2     H 1726   0.733   0.079   1.694  1.4232 -1.3538 -1.3675
  113MPD2    H1 1727   0.836   4.452   1.904 -0.8229 -0.1858 -1.7062
  113MPD2    H2 1728   0.704   0.071   2.114 -0.7327 -1.9542  0.5169
  113MPD2    H3 1729   0.786   4.569   2.115 -2.3980  0.2735  0.5463
  113MPD2     N 1730   0.809   4.538   1.665 -0.3115 -0.0029  0.7264
  113MPD2    H5 1731   0.849   4.446   1.680  0.2342  0.1533  0.2006
  113MPD2    N1 1732   0.694   0.223   1.891  0.2403 -0.3153  0.3012
  113MPD2    H7 1733   0.694   0.267   1.800 -3.1538 -0.9724 -0.0417
  114TCq2    C1 1734   0.774   4.571   1.536 -0.4642 -0.2440  0.4132
  114TCq2    O2 1735   0.704   4.661   1.504 -0.4134  0.3474  0.2193
  114TCq2    C2 1736   0.804   4.466   1.443  0.1369  0.1351  0.1549
  114TCq2    C3 1737   0.886   4.359   1.481  0.0960  0.3872 -0.3094
  114TCq2    C4 1738   0.942   4.297   1.378  0.3043  0.0358 -0.1228
  114TCq2    C5 1739   0.901   4.307   1.243  0.7124  0.8434  0.6587
  114TCq2    C6 1740   0.810   4.405   1.210  0.1064  0.7391 -0.5382
  114TCq2    C7 1741   0.766   4.490   1.311 -0.1637  0.3544  0.8943
  114TCq2    C8 1742   0.730   4.379   1.087 -0.4310 -0.1218 -0.7997
  114TCq2    O4 1743   0.778   4.327   0.989 -0.1292 -0.3939  0.1015
  114TCq2    C9 1744   1.054   4.201   1.402  0.1276 -0.7465 -0.0314
  114TCq2    O5 1745   1.098   4.187   1.519 -0.0806 -0.4706  0.1273
  114TCq2    O6 1746   1.095   4.129   1.311 -0.0130 -0.6000  0.3841
  114TCq2    H2 1747   0.931   4.350   1.579 -2.3902  1.0840  0.8900
  114TCq2    H3 1748   0.951   4.260   1.159 -0.6606  1.3628 -0.4513
  114TCq2    H4 1749   0.712   4.581   1.288  1.6198  0.9463 -0.9444
  115TMC2    C1 1750   1.331   2.349  17.414 -0.3153 -0.9791  0.3807
  115TMC2    C2 1751   1.390   2.443  17.486 -0.1302  0.0495  0.6432
  115TMC2    C3 1752   1.341   2.568  17.471  1.1540 -0.0545 -0.3449
  115TMC2    C4 1753   1.232   2.376  17.317 -0.5286 -0.2413  0.5603
  115TMC2    C5 1754   1.186   2.504  17.309  0.7923  0.0280 -0.0968
  115TMC2    C6 1755   1.240   2.602  17.380  0.1601 -0.6698  0.1417
  115TMC2     C 1756   1.378   2.213  17.415 -0.8202  0.6441  0.0505
  115TMC2     O 1757   1.338   2.147  17.319  0.0227 -0.1944 -0.0878
  115TMC2     H 1758   1.476   2.418  17.547 -0.5810  1.1208  1.7302
  115TMC2    H1 1759   1.179   2.299  17.263 -1.7737  0.1692  1.1946
  115TMC2    H2 1760   1.209   2.702  17.352 -0.9294 -1.2903 -0.8715
  115TMC2    C7 1761   1.073   2.531  17.220  0.1240 -0.2095 -0.6203
  115TMC2    C8 1762   1.434   2.670  17.524 -0.0177 -0.4884 -1.2029
  115TMC2    O1 1763   1.018   2.427  17.174  0.1891 -0.2055 -0.5312
  115TMC2    O2 1764   1.532   2.644  17.587  0.3425  0.3980 -1.4048
  115TMC2    O5 1765   1.378   2.793  17.512  0.7133 -0.2364 -0.8773
  115TMC2    H5 1766   1.282   2.794  17.494  0.2631 -1.0347  1.4518
  116MPD2     C 1767   1.547   1.782  17.646  0.9672  0.2453 -0.0341
  116MPD2    C1 1768   1.452   1.794  17.544  0.1536 -0.8564  0.3771
  116MPD2    C2 1769   1.419   1.921  17.495  0.4174 -0.0410 -0.2621
  116MPD2    C3 1770   1.490   2.029  17.549 -0.3727 -0.1681 -0.3691
  116MPD2    C4 1771   1.584   2.007  17.648 -0.7204 -0.4160 -0.2583
  116MPD2    C5 1772   1.613   1.884  17.693  0.1832 -0.1418  0.5116
  116MPD2     H 1773   1.331   1.948  17.437  0.2050  0.4041  0.2599
  116MPD2    H1 1774   1.637   2.082   0.008 -0.9268  2.5356 -3.9786
  116MPD2    H2 1775   1.575   1.686  17.689  2.3779  1.4155  1.6233
  116MPD2    H3 1776   1.679   1.877   0.081 -0.2396 -0.7936  0.7821
  116MPD2     N 1777   1.457   2.166  17.523 -0.4155  0.2487  0.6886
  116MPD2    H5 1778   1.495   2.233  17.589 -0.2008  1.4122 -0.6126
  116MPD2    N1 1779   1.374   1.675  17.515 -0.4078  0.9818  0.2625
  116MPD2    H7 1780   1.391   1.590  17.567 -0.9147 -0.3819 -1.8014
  117TMC2    C1 1781   4.009   3.655  13.788  0.5272 -0.1034 -0.1598
  117TMC2    C2 1782   4.039   3.562  13.884 -0.8676 -0.1838 -0.0054
  117TMC2    C3 1783   4.133   3.599  13.980  0.2799  0.3900  0.1970
  117TMC2    C4 1784   4.070   3.781  13.778 -0.4043 -0.0525  0.6264
  117TMC2    C5 1785   4.158   3.807  13.881  0.1757  0.7814 -0.2793
  117TMC2    C6 1786   4.188   3.724  13.983  0.5889 -0.7334 -0.1078
  117TMC2     C 1787   3.888   3.627  13.713  0.4396  0.0292  0.2682
  117TMC2     O 1788   3.839   3.512  13.707  0.4078 -0.0857  0.3033
  117TMC2     H 1789   3.976   3.475  13.895  0.6334 -1.6361 -3.1028
  117TMC2    H1 1790   4.051   3.854  13.700 -1.9678 -1.2491 -0.1084
  117TMC2    H2 1791   4.249   3.753  14.068 -0.0220 -1.9906  0.7553
  117TMC2    C7 1792   4.194   3.946  13.884  0.2931  0.2133  0.0357
  117TMC2    C8 1793   4.222   3.499  14.026 -1.0807 -0.0447  0.4002
  117TMC2    O1 1794   4.181   4.013  13.781  0.2931  0.1794  0.2868
  117TMC2    O2 1795   4.337   3.505  13.988  0.4510 -0.4291  0.3518
  117TMC2    O5 1796   4.156   3.384  14.018  0.1185 -0.6661  0.1929
  117TMC2    H5 1797   4.065   3.393  14.054 -1.0718 -2.1929 -2.4322
  118MPD2     C 1798   4.290   4.144  14.174 -0.1833 -0.6761  0.4817
  118MPD2    C1 1799   4.264   4.129  14.035  0.4001 -0.8616  0.1585
  118MPD2    C2 1800   4.278   4.235  13.947  0.0738 -0.5682  0.5206
  118MPD2    C3 1801   4.341   4.352  13.990 -0.7777 -0.5160  0.1786
  118MPD2    C4 1802   4.387   4.359  14.118 -0.5572 -0.3859 -0.0899
  118MPD2    C5 1803   4.357   4.261  14.205 -0.4745  1.0953  0.0596
  118MPD2     H 1804   4.247   4.221  13.844  2.0297 -2.5275  0.2041
  118MPD2    H1 1805   4.431   4.453  14.148  2.0631 -1.9234  0.8689
  118MPD2    H2 1806   4.275   4.063  14.244 -2.2151 -2.0208 -1.4841
  118MPD2    H3 1807   4.387   4.283  14.308  1.5554 -0.5824 -0.1611
  118MPD2     N 1808   4.381   4.452  13.908  0.6277 -0.1324  0.2257
  118MPD2    H5 1809   4.446   4.520  13.947 -0.2393 -0.7734  2.8345
  118MPD2    N1 1810   4.226   3.994  14.006  0.0821 -0.7358 -0.2247
  118MPD2    H7 1811   4.217   3.926  14.081 -0.4473 -2.1056 -1.5235
  119MPD2     C 1812   2.424   0.575  13.919  0.2661 -0.5000  0.6222
  119MPD2    C1 1813   2.289   0.559  13.910  0.4371 -0.0705 -0.3215
  119MPD2    C2 1814   2.231   0.534  13.785  0.5529 -0.7998  0.2681
  119MPD2    C3 1815   2.306   0.523  13.672  0.1509 -0.2751  0.0781
  119MPD2    C4 1816   2.445   0.537  13.684  0.5573 -0.4327  0.5495
  119MPD2    C5 1817   2.502   0.564  13.805  0.1622  0.9631 -0.3016
  119MPD2     H 1818   2.125   0.510  13.782  0.4230 -0.2389  0.3811
  119MPD2    H1 1819   2.510   0.537  13.596 -1.3500 -1.8158 -0.8673
  119MPD2    H2 1820   2.474   0.610  14.008 -0.9553 -0.6504  1.3803
  119MPD2    H3 1821   2.609   0.576  13.815 -0.2809  3.0537  1.9441
  119MPD2     N 1822   2.253   0.514  13.541 -0.4016  0.5346 -0.6837
  119MPD2    H5 1823   2.316   0.493  13.465 -1.3422 -1.2233 -0.9986
  119MPD2    N1 1824   2.222   0.563  14.029  0.1662  0.4915 -0.2355
  119MPD2    H7 1825   2.274   0.557  14.116 -1.8748  1.9051  1.0999
  120TCq2    C1 1826   2.119   0.532  13.512  0.1786 -0.7275  0.3123
  120TCq2    O2 1827   2.028   0.570  13.584 -0.2966  0.1768 -0.3361
  120TCq2    C2 1828   2.083   0.481  13.382 -0.2886 -0.0659  0.0451
  120TCq2    C3 1829   2.182   0.455  13.290 -0.9322 -0.2643  0.4616
  120TCq2    C4 1830   2.148   0.361  13.186  0.5420 -0.4380  0.7664
  120TCq2    C5 1831   2.028   0.297  13.178 -0.4214 -0.5150 -0.2575
  120TCq2    C6 1832   1.933   0.325  13.274  0.5382 -0.0068 -0.0692
  120TCq2    C7 1833   1.957   0.418  13.374 -0.4237 -0.8516  0.0604
  120TCq2    C8 1834   1.812   0.246  13.280 -0.0219  0.7123 -0.2162
  120TCq2    O4 1835   1.761   0.200  13.182 -0.1122 -0.8657  0.1487
  120TCq2    C9 1836   2.239   0.331  13.079  0.2943  0.6339  0.1024
  120TCq2    O5 1837   2.347   0.398  13.075  0.5677 -0.4861  0.3511
  120TCq2    O6 1838   2.199   0.249  12.994 -0.2610  0.2378 -0.0401
  120TCq2    H2 1839   2.274   0.512  13.292 -1.2868  0.1954  3.9802
  120TCq2    H3 1840   1.993   0.228  13.102 -1.2774 -0.5669  0.1784
  120TCq2    H4 1841   1.884   0.428  13.454  0.2709 -0.6903  0.6749
  121TMC2    C1 1842   4.081   2.113  14.243  0.2304 -0.2601 -0.2715
  121TMC2    C2 1843   4.084   1.995  14.300 -0.2305  0.0875 -0.8244
  121TMC2    C3 1844   3.960   1.933  14.320  0.3451  0.0785 -0.0451
  121TMC2    C4 1845   3.969   2.192  14.224  0.8564  0.0396 -1.2285
  121TMC2    C5 1846   3.849   2.129  14.253 -0.3344  0.3418  0.1921
  121TMC2    C6 1847   3.844   2.005  14.300  0.8705  0.2272 -0.6385
  121TMC2     C 1848   4.203   2.171  14.207 -0.1855  0.1249 -0.6573
  121TMC2     O 1849   4.306   2.125  14.252  0.8447 -0.1581 -0.1224
  121TMC2     H 1850   4.175   1.936  14.303 -0.5247 -0.2225  2.3848
  121TMC2    H1 1851   3.980   2.284  14.167 -0.9766 -0.2053 -1.9902
  121TMC2    H2 1852   3.750   1.952  14.314  0.2286  0.9990 -2.0363
  121TMC2    C7 1853   3.732   2.199  14.210  0.9494  0.3538  0.8889
  121TMC2    C8 1854   3.954   1.800  14.364  0.3117 -0.1130 -0.8570
  121TMC2    O1 1855   3.755   2.322  14.210  0.0781 -0.3501 -0.1584
  121TMC2    O2 1856   4.042   1.718  14.352  0.2643  0.0991 -0.5118
  121TMC2    O5 1857   3.853   1.788  14.449 -0.4623  0.2908  0.1421
  121TMC2    H5 1858   3.785   1.859  14.448 -2.5616 -1.7175  0.3843
  122MPD2     C 1859   4.429   2.274  14.049 -0.0708  0.0242  0.6562
  122MPD2    C1 1860   4.302   2.287  14.013 -0.6000  0.8554 -0.0835
  122MPD2    C2 1861   4.275   2.357  13.888  0.0250  0.4735 -0.1977
  122MPD2    C3 1862   4.376   2.408  13.809 -0.2229  0.7222 -0.1754
  122MPD2    C4 1863   4.501   2.398  13.860 -0.0830  0.5658  0.3365
  122MPD2    C5 1864   4.526   2.340  13.978 -0.0660 -0.0344 -0.0017
  122MPD2     H 1865   4.176   2.362  13.845  0.5723 -0.2045 -1.4964
  122MPD2    H1 1866   4.577   2.454  13.808  0.2115 -0.6737 -0.5519
  122MPD2    H2 1867   4.458   2.220  14.138  1.8171 -0.8371 -0.4904
  122MPD2    H3 1868   4.629   2.327  14.010 -0.0196  2.7008  0.9439
  122MPD2     N 1869   4.351   2.480  13.689 -0.2715  0.0417  0.3333
  122MPD2    H5 1870   4.430   2.496  13.628 -1.8061  0.3301 -1.6070
  122MPD2    N1 1871   4.193   2.247  14.089  0.8097 -0.4941 -0.0720
  122MPD2    H7 1872   4.100   2.254  14.048  1.1222 -3.1192 -1.2697
  123MPD2     C 1873   1.930   4.251   9.721  0.9406 -0.6637 -0.8098
  123MPD2    C1 1874   1.999   4.364   9.708 -0.5744 -0.3015  0.1029
  123MPD2    C2 1875   2.142   4.366   9.698 -0.6580 -0.0708  0.1424
  123MPD2    C3 1876   2.213   4.245   9.697  0.1669 -0.1580 -0.0513
  123MPD2    C4 1877   2.136   4.130   9.708  0.9114 -0.0462 -0.1769
  123MPD2    C5 1878   1.999   4.134   9.719 -0.4632  0.4732  0.3064
  123MPD2     H 1879   2.182   4.465   9.681  1.1230 -0.5815  1.3615
  123MPD2    H1 1880   2.181   4.031   9.703 -0.3289 -0.6089 -0.2033
  123MPD2    H2 1881   1.822   4.251   9.722  0.9511  2.0886  0.9273
  123MPD2    H3 1882   1.943   4.042   9.720 -1.9066  1.3426 -0.4844
  123MPD2     N 1883   2.353   4.254   9.688  0.1303 -0.8851 -0.2247
  123MPD2    H5 1884   2.384   4.347   9.663 -0.8812 -0.6753 -0.6859
  123MPD2    N1 1885   1.925   4.485   9.695 -0.3161 -0.3246  1.2240
  123MPD2    H7 1886   1.825   4.475   9.688 -0.1724 -0.2604 -0.8216
  124TCq2    C1 1887   2.436   4.154   9.729  0.2690 -0.2375  0.7138
  124TCq2    O2 1888   2.417   4.053   9.798 -0.1638 -0.7611  0.2815
  124TCq2    C2 1889   2.571   4.197   9.720 -0.5991  0.1909  0.8595
  124TCq2    C3 1890   2.623   4.228   9.593 -0.1031  0.0941 -0.3687
  124TCq2    C4 1891   2.762   4.257   9.584  0.1714  0.2937  0.6015
  124TCq2    C5 1892   2.844   4.258   9.692 -0.2020  0.4291  0.8558
  124TCq2    C6 1893   2.781   4.227   9.811 -0.6388  0.3946 -0.0422
  124TCq2    C7 1894   2.647   4.204   9.831  0.2639 -0.0124 -1.0219
  124TCq2    C8 1895   2.859   4.221   9.934  0.2219 -0.0544  0.0850
  124TCq2    O4 1896   2.797   4.210  10.043 -0.3247 -0.3300  0.0089
  124TCq2    C9 1897   2.820   4.273   9.456  0.2555  0.0580 -0.5458
  124TCq2    O5 1898   2.739   4.283   9.359  0.1327 -0.5236  0.6953
  124TCq2    O6 1899   2.946   4.262   9.446  0.0813 -0.1446  0.0749
  124TCq2    H2 1900   2.560   4.215   9.505  0.7015 -0.2011 -0.9045
  124TCq2    H3 1901   2.947   4.285   9.671 -1.3634  3.1454 -1.4064
  124TCq2    H4 1902   2.604   4.170   9.924 -1.1831  0.5993 -1.4731
  125TMC2    C1 1903   3.021   2.524   9.406  0.2365  0.0102 -0.5246
  125TMC2    C2 1904   2.902   2.562   9.468  0.3506 -0.6863 -0.1242
  125TMC2    C3 1905   2.870   2.500   9.585 -1.4371 -0.0986  0.5644
  125TMC2    C4 1906   3.099   2.431   9.466 -0.0900  1.0033  0.1773
  125TMC2    C5 1907   3.065   2.377   9.587 -0.5192 -0.9390  0.1223
  125TMC2    C6 1908   2.945   2.400   9.644 -0.2916  0.4818 -0.4463
  125TMC2     C 1909   3.051   2.570   9.268  0.3332  0.1431 -0.3282
  125TMC2     O 1910   2.972   2.655   9.224 -0.7108  0.1620  0.5104
  125TMC2     H 1911   2.841   2.635   9.416  1.0589  0.7020  0.9917
  125TMC2    H1 1912   3.200   2.418   9.429 -0.4423  1.0587 -0.8238
  125TMC2    H2 1913   2.908   2.343   9.730 -2.3987  1.5957 -0.6011
  125TMC2    C7 1914   3.160   2.318   9.676  0.1773  0.4026  0.1976
  125TMC2    C8 1915   2.729   2.524   9.633  0.6724 -0.1748 -0.4600
  125TMC2    O1 1916   3.131   2.311   9.793  0.0724 -0.1867  0.0363
  125TMC2    O2 1917   2.626   2.537   9.565  0.4799  0.4613 -0.7589
  125TMC2    O5 1918   2.732   2.521   9.765  0.5063  0.1391 -0.4916
  125TMC2    H5 1919   2.825   2.512   9.792  0.5800 -0.5236 -0.9698
  126MPD1     C 1920   3.309   2.547   8.827 -1.2001 -0.4165 -0.3208
  126MPD1    C1 1921   3.342   2.432   8.893  0.5033  0.8812 -0.1494
  126MPD1    C2 1922   3.282   2.416   9.020  0.6935 -0.1366 -0.6902
  126MPD1    C3 1923   3.204   2.511   9.079 -0.0526 -0.5664  0.0655
  126MPD1    C4 1924   3.176   2.628   9.013  0.2485  0.4580  0.7018
  126MPD1    C5 1925   3.228   2.648   8.887 -0.7545  0.3055 -0.4087
  126MPD1     H 1926   3.293   2.326   9.079  3.1960  0.9265  0.4897
  126MPD1    H1 1927   3.107   2.708   9.034 -0.1468  0.6461 -1.2825
  126MPD1    H2 1928   3.337   2.574   8.726  1.6021 -0.2006  0.5016
  126MPD1    H3 1929   3.200   2.737   8.833  0.5210  1.3258  0.6325
  126MPD1     N 1930   3.155   2.495   9.213 -0.2821 -0.0357  0.5416
  126MPD1    H5 1931   3.188   2.415   9.266 -0.1045 -2.0587 -2.6564
  126MPD1    N1 1932   3.413   2.337   8.827 -0.1072 -0.3415  0.3339
  126MPD1    H6 1933   3.463   2.273   8.888 -0.2408 -1.3847 -0.6321
  126MPD1    H7 1934   3.476   2.378   8.759 -1.5325 -0.8419 -1.3042
  127MPD2     C 1935   0.112   0.817   9.074  0.2677 -0.2259  0.0182
  127MPD2    C1 1936   0.088   0.777   9.204  0.1087 -0.9766 -0.8477
  127MPD2    C2 1937   0.068   0.870   9.307  0.2615 -0.2456 -0.2711
  127MPD2    C3 1938   0.103   1.004   9.280 -0.2007 -0.9074  0.0257
  127MPD2    C4 1939   0.119   1.044   9.147  0.8803 -0.4619 -0.4209
  127MPD2    C5 1940   0.129   0.950   9.044  0.2861 -0.5040  0.2589
  127MPD2     H 1941   0.049   0.844   9.411 -2.3033 -1.2656 -1.0006
  127MPD2    H1 1942   0.152   1.143   9.121  1.7235 -1.0069 -1.4337
  127MPD2    H2 1943   0.128   0.746   8.993 -0.1522 -0.5458  0.2200
  127MPD2    H3 1944   0.152   0.979   8.942  0.0534 -0.0397  0.3373
  127MPD2     N 1945   0.096   1.092   9.389  0.0722 -0.3249  0.3568
  127MPD2    H5 1946   0.092   1.051   9.482 -0.5135  1.1737  0.9955
  127MPD2    N1 1947   0.057   0.640   9.229  0.0314  0.7986 -0.3398
  127MPD2    H7 1948   0.043   0.582   9.147  2.7108 -0.7217  0.2878
  128TCq2    C1 1949   0.042   0.572   9.348 -0.5233  0.2374 -0.6665
  128TCq2    O2 1950   0.083   0.605   9.460  0.2351 -0.1968  0.1380
  128TCq2    C2 1951   4.716   0.439   9.336 -0.2253  0.0011 -0.5110
  128TCq2    C3 1952   4.703   0.380   9.212  0.2319 -0.0691 -0.2137
  128TCq2    C4 1953   4.664   0.248   9.198  0.0074 -0.3457  0.0891
  128TCq2    C5 1954   4.616   0.182   9.308 -1.3239 -0.2006  0.0891
  128TCq2    C6 1955   4.617   0.253   9.426  0.0085  0.0463  0.1468
  128TCq2    C7 1956   4.674   0.375   9.445 -0.2775 -0.1985  0.0268
  128TCq2    C8 1957   4.561   0.196   9.548  0.1021  0.0249 -0.0694
  128TCq2    O4 1958   4.595   0.247   9.656  0.0720  0.4383  0.3223
  128TCq2    C9 1959   4.674   0.185   9.072 -0.5911 -0.0849  0.4318
  128TCq2    O5 1960   4.715   0.069   9.074  0.7905 -0.1154  0.6259
  128TCq2    O6 1961   4.667   0.261   8.971 -0.0062 -0.4267  0.1132
  128TCq2    H2 1962   0.035   0.415   9.126 -1.0179 -0.0256 -1.0160
  128TCq2    H3 1963   4.604   0.074   9.309  0.1454 -0.3895 -1.9780
  128TCq2    H4 1964   4.676   0.413   9.547 -0.1844  0.0268 -0.0599
  129MPD2     C 1965   2.843   2.384   1.303 -0.3739  0.3033  0.1559
  129MPD2    C1 1966   2.933   2.423   1.401  0.2306 -0.0040 -0.3676
  129MPD2    C2 1967   3.073   2.408   1.385  0.0984 -0.3322  0.6433
  129MPD2    C3 1968   3.129   2.364   1.263  0.1591 -0.4009  0.2472
  129MPD2    C4 1969   3.032   2.319   1.166  0.2993  0.5810 -0.3973
  129MPD2    C5 1970   2.897   2.331   1.190 -0.0628 -0.0580  0.1511
  129MPD2     H 1971   3.141   2.440   1.463  1.9245 -0.9138 -0.7084
  129MPD2    H1 1972   3.062   2.276   1.071  2.2831  2.3747 -0.5955
  129MPD2    H2 1973   2.736   2.377   1.317 -0.3602  0.4444  0.3353
  129MPD2    H3 1974   2.826   2.297   1.115  0.5658  2.2193 -1.4668
  129MPD2     N 1975   3.271   2.353   1.243 -0.2475  0.1570 -0.2346
  129MPD2    H5 1976   3.326   2.384   1.323 -1.1078 -0.1512  0.4653
  129MPD2    N1 1977   2.891   2.477   1.527  0.2612  0.8353 -0.0848
  129MPD2    H7 1978   2.966   2.496   1.593 -1.8412  0.5599  2.3789
  130TCq2    C1 1979   2.766   2.507   1.569 -0.2144 -0.4906 -0.1894
  130TCq2    O2 1980   2.662   2.503   1.508  0.2438  0.3300 -0.2247
  130TCq2    C2 1981   2.766   2.575   1.698 -0.3467  0.0043  0.0907
  130TCq2    C3 1982   2.875   2.593   1.780  0.3465  0.0810 -0.1561
  130TCq2    C4 1983   2.871   2.639   1.909  0.1872 -0.4000 -0.0793
  130TCq2    C5 1984   2.747   2.667   1.973  0.6523 -0.8928  0.5795
  130TCq2    C6 1985   2.640   2.641   1.886  0.0619  0.3324  0.7236
  130TCq2    C7 1986   2.652   2.605   1.755 -0.4714 -0.0516  0.3331
  130TCq2    C8 1987   2.521   2.593   1.957  0.4198 -0.4083 -0.1564
  130TCq2    O4 1988   2.416   2.576   1.895 -0.2782  0.4470 -0.4082
  130TCq2    C9 1989   3.001   2.657   1.974  0.0149 -0.6585  0.0192
  130TCq2    O5 1990   2.998   2.699   2.092  0.0659 -0.3518 -0.2423
  130TCq2    O6 1991   3.087   2.584   1.928  0.2479  0.2449 -0.4124
  130TCq2    H2 1992   2.975   2.590   1.737  0.2398 -0.3524 -0.3720
  130TCq2    H3 1993   2.747   2.707   2.073  2.3675  0.3418  0.0911
  130TCq2    H4 1994   2.564   2.573   1.699 -1.4847  3.8145 -0.2911
  131MPD2     C 1995   1.837   0.765   9.294 -0.5071  0.5902 -0.8781
  131MPD2    C1 1996   1.901   0.745   9.420 -0.1579  0.4713 -0.3863
  131MPD2    C2 1997   1.890   0.618   9.473 -0.0320  0.2761 -0.6195
  131MPD2    C3 1998   1.804   0.519   9.420  0.3864  0.1588 -0.1407
  131MPD2    C4 1999   1.731   0.556   9.305  0.5255 -0.0850  0.3473
  131MPD2    C5 2000   1.754   0.671   9.240 -0.1079 -0.6035 -0.2216
  131MPD2     H 2001   1.962   0.585   9.547  0.1095  1.0155 -0.4305
  131MPD2    H1 2002   1.672   0.478   9.259 -0.8335  0.7948  0.5997
  131MPD2    H2 2003   1.852   0.858   9.240 -1.3440  0.9414 -0.5039
  131MPD2    H3 2004   1.703   0.685   9.145  0.4414  0.6518 -0.3397
  131MPD2     N 2005   1.780   0.387   9.467 -0.7419  0.3275  0.3511
  131MPD2    H5 2006   1.717   0.327   9.416 -0.5661  0.1906  0.2950
  131MPD2    N1 2007   1.983   0.844   9.479  0.0725  0.7542  0.0481
  131MPD2    H7 2008   1.981   0.932   9.428 -0.8152  0.8791  0.2913
  132TCq2    C1 2009   2.146   1.306   9.490 -0.4482  0.5774  0.3087
  132TCq2    O2 2010   2.102   1.268   9.380 -0.0528 -0.6018  0.2895
  132TCq2    C2 2011   2.159   1.199   9.590 -0.4043  0.0211 -0.9828
  132TCq2    C3 2012   2.269   1.205   9.666  1.0062 -0.6581  0.0354
  132TCq2    C4 2013   2.293   1.088   9.733  0.5795 -0.0406 -0.2104
  132TCq2    C5 2014   2.229   0.969   9.713  0.2683 -0.0813  0.1505
  132TCq2    C6 2015   2.126   0.966   9.628  0.3651  0.3143 -0.5409
  132TCq2    C7 2016   2.087   1.087   9.568  0.7344 -0.3494  0.9246
  132TCq2    C8 2017   2.051   0.843   9.601 -0.1747  0.3244 -0.2369
  132TCq2    O4 2018   2.074   0.749   9.676 -0.0524  0.1003  0.0238
  132TCq2    C9 2019   2.403   1.089   9.828 -0.1640  0.6638  0.6542
  132TCq2    O5 2020   2.429   1.198   9.878  0.2705 -0.4527  0.4284
  132TCq2    O6 2021   2.423   0.977   9.882 -0.0908 -0.1620  0.4274
  132TCq2    H2 2022   2.332   1.292   9.683  1.2392 -0.2038 -3.1138
  132TCq2    H3 2023   2.247   0.881   9.774 -3.2156 -0.6370  0.3479
  132TCq2    H4 2024   2.010   1.095   9.492  1.2208 -1.9533  0.2585
  133MPD2     C 2025   0.965   1.698   9.083 -0.2974  0.3683  0.2161
  133MPD2    C1 2026   1.096   1.657   9.110  0.3393 -0.3485  0.4356
  133MPD2    C2 2027   1.142   1.533   9.062 -0.2539  0.3470  0.5848
  133MPD2    C3 2028   1.052   1.453   8.990  0.1380 -0.4641  0.3756
  133MPD2    C4 2029   0.933   1.504   8.962 -0.4548  0.5970 -0.0983
  133MPD2    C5 2030   0.885   1.624   9.008 -0.1670 -0.1681  0.0316
  133MPD2     H 2031   1.236   1.496   9.102  0.0960  0.8782  0.2645
  133MPD2    H1 2032   0.864   1.447   8.901  0.9206  1.4823 -2.4983
  133MPD2    H2 2033   0.925   1.790   9.125 -0.1220  1.4627 -1.9742
  133MPD2    H3 2034   0.796   1.675   8.976  0.1266  0.5719  0.3947
  133MPD2     N 2035   1.073   1.319   8.960 -0.1988  0.1255  0.4231
  133MPD2    H5 2036   0.998   1.262   8.922  0.0951  0.9437 -1.4155
  133MPD2    N1 2037   1.172   1.742   9.192 -0.8673  0.4102  0.3336
  133MPD2    H7 2038   1.128   1.828   9.223  0.4879  0.5311  1.9294
  134TCq2    C1 2039   1.306   1.730   9.221  0.3527  0.4937 -0.1607
  134TCq2    O2 2040   1.381   1.635   9.202 -0.1636 -0.2184 -0.1224
  134TCq2    C2 2041   1.361   1.843   9.298 -0.0445 -0.4244  0.3813
  134TCq2    C3 2042   1.298   1.963   9.291 -0.3149  0.2116  0.0300
  134TCq2    C4 2043   1.342   2.069   9.366 -0.4221 -0.3973  0.2498
  134TCq2    C5 2044   1.446   2.047   9.453  0.4022 -0.2149 -0.4921
  134TCq2    C6 2045   1.497   1.921   9.464  0.0885 -0.5304  0.5671
  134TCq2    C7 2046   1.460   1.817   9.388  0.5510 -0.1750  0.2436
  134TCq2    C8 2047   1.547   1.876   9.593 -0.0236 -0.9137  0.0948
  134TCq2    O4 2048   1.553   1.757   9.608 -0.2906 -0.0138  0.8660
  134TCq2    C9 2049   1.290   2.204   9.353 -0.1531  0.8506 -0.0773
  134TCq2    O5 2050   1.314   2.285   9.446 -0.2565  0.1174  0.5109
  134TCq2    O6 2051   1.195   2.218   9.275  0.3395 -0.1305 -0.1939
  134TCq2    H2 2052   1.227   1.982   9.211  0.3150 -1.7583 -0.9904
  134TCq2    H3 2053   1.485   2.134   9.505  1.3693 -0.3949 -0.9324
  134TCq2    H4 2054   1.499   1.716   9.393  0.8261 -0.1036 -0.4707
  135MPD2     C 2055   4.427   2.223   9.333 -0.2713 -0.1218 -0.1257
  135MPD2    C1 2056   4.368   2.133   9.241  0.5520  0.2918 -0.3285
  135MPD2    C2 2057   4.442   2.021   9.214  0.0125  0.2499  0.5174
  135MPD2    C3 2058   4.573   2.009   9.260 -0.7809  0.5209  1.2037
  135MPD2    C4 2059   4.625   2.094   9.354 -0.0516  0.3485  0.1672
  135MPD2    C5 2060   4.546   2.201   9.386  0.0249  0.5783 -1.0588
  135MPD2     H 2061   4.393   1.955   9.144  1.2397 -0.2743  0.1396
  135MPD2    H1 2062   4.719   2.082   9.405  1.0726  2.1106 -1.4892
  135MPD2    H2 2063   4.377   2.316   9.357 -1.4833 -0.1385 -2.6177
  135MPD2    H3 2064   4.585   2.266   9.464  0.5094 -0.3947 -0.4896
  135MPD2     N 2065   4.657   1.906   9.223 -0.4321  0.2433 -0.1251
  135MPD2    H5 2066   0.025   1.920   9.265  0.0590 -1.0406 -0.7661
  135MPD2    N1 2067   4.241   2.157   9.182 -0.1861  0.4604 -0.2129
  135MPD2    H7 2068   4.216   2.086   9.112  0.1560  0.3644 -0.2366
  136TCq2    C1 2069   4.142   2.240   9.232 -0.3285  0.4225 -0.1798
  136TCq2    O2 2070   4.145   2.298   9.339  0.0472 -0.0597 -0.6212
  136TCq2    C2 2071   4.019   2.235   9.151 -0.0103  0.0587 -0.2896
  136TCq2    C3 2072   4.018   2.221   9.015 -0.5423 -0.4256  0.1050
  136TCq2    C4 2073   3.911   2.244   8.936  0.1568 -0.8962 -0.1755
  136TCq2    C5 2074   3.800   2.304   8.988  0.2147 -0.2650  0.0021
  136TCq2    C6 2075   3.800   2.330   9.124  1.2709 -0.8361 -0.1254
  136TCq2    C7 2076   3.907   2.293   9.203 -0.4372  0.5726  0.4994
  136TCq2    C8 2077   3.725   2.443   9.175 -0.9905 -0.1343 -0.7862
  136TCq2    O4 2078   3.726   2.534   9.095 -0.0738  0.2356  0.3073
  136TCq2    C9 2079   3.925   2.218   8.804  0.0045  0.7102  0.3692
  136TCq2    O5 2080   3.817   2.208   8.742  0.0946  0.4193  0.0720
  136TCq2    O6 2081   4.041   2.208   8.762  0.2163 -0.2741  0.0694
  136TCq2    H2 2082   4.109   2.183   8.969 -0.2937  0.4174 -0.1102
  136TCq2    H3 2083   3.715   2.337   8.928  0.6081  1.5047  0.4166
  136TCq2    H4 2084   3.902   2.305   9.311 -0.0891  2.3384  0.3220
  137MPD2     C 2085   3.669   1.335   9.900 -0.8344  0.7252 -0.4032
  137MPD2    C1 2086   3.672   1.464   9.862  0.2065 -0.0109  0.2530
  137MPD2    C2 2087   3.744   1.554   9.938 -1.2226 -0.0255  0.0699
  137MPD2    C3 2088   3.820   1.520  10.051  1.0669  0.1839  0.2621
  137MPD2    C4 2089   3.818   1.387  10.085 -0.0193 -0.1897 -0.7539
  137MPD2    C5 2090   3.751   1.295  10.008  0.3293 -0.5195  0.1188
  137MPD2     H 2091   3.731   1.660   9.920 -2.4960  0.2232  2.3851
  137MPD2    H1 2092   3.873   1.344  10.168 -0.3883  1.7598  0.5042
  137MPD2    H2 2093   3.614   1.261   9.844  1.1045 -0.4248 -0.7794
  137MPD2    H3 2094   3.750   1.193  10.045 -0.3948 -0.2757  0.7614
  137MPD2     N 2095   3.886   1.613  10.134  0.1162 -0.0947  1.1834
  137MPD2    H5 2096   3.936   1.574  10.213  0.7637 -1.9499 -0.1392
  137MPD2    N1 2097   3.569   1.500   9.771  0.0313 -0.4671 -0.3625
  137MPD2    H7 2098   3.512   1.425   9.732  0.4276 -0.4319 -1.0145
  138TCq2    C1 2099   3.552   1.622   9.728 -0.4825  0.2871 -0.2486
  138TCq2    O2 2100   3.623   1.720   9.725 -0.7041  0.4941 -0.0847
  138TCq2    C2 2101   3.423   1.634   9.659 -0.3259 -0.1409  0.1272
  138TCq2    C3 2102   3.340   1.519   9.641  0.3984 -0.1268 -0.0567
  138TCq2    C4 2103   3.214   1.543   9.594 -0.1267 -0.3986  0.8732
  138TCq2    C5 2104   3.167   1.669   9.571  0.6309  0.2448 -0.4528
  138TCq2    C6 2105   3.257   1.771   9.564 -0.2055  0.0975  0.4397
  138TCq2    C7 2106   3.386   1.757   9.615 -0.6080 -0.1163  0.1327
  138TCq2    C8 2107   3.228   1.902   9.499  0.2506 -0.3288 -0.5549
  138TCq2    O4 2108   3.310   1.967   9.430 -0.2438  0.3239  0.0009
  138TCq2    C9 2109   3.120   1.437   9.581 -0.5864 -0.0105  0.4882
  138TCq2    O5 2110   3.020   1.466   9.513 -0.4395 -0.3854  0.0369
  138TCq2    O6 2111   3.164   1.320   9.591  0.4686 -0.5758 -0.1664
  138TCq2    H2 2112   3.361   1.416   9.667  0.4885 -0.2568 -0.6390
  138TCq2    H3 2113   3.073   1.680   9.520  0.8589 -1.7818 -1.3248
  138TCq2    H4 2114   3.461   1.834   9.604  2.4133 -3.4763 -3.0272
  139TMC2    C1 2115   3.432   4.685  13.257 -0.4040  0.5020  0.5877
  139TMC2    C2 2116   3.320   4.678  13.186  0.2214 -0.7250 -1.4748
  139TMC2    C3 2117   3.220   0.050  13.210 -0.4843 -0.3466 -0.2427
  139TMC2    C4 2118   3.443   0.064  13.357 -0.1871  0.2646  0.5668
  139TMC2    C5 2119   3.343   0.158  13.371 -0.0091 -0.0818 -0.3973
  139TMC2    C6 2120   3.230   0.147  13.297 -0.2949 -0.0137 -0.0977
  139TMC2     C 2121   3.539   4.591  13.216  0.6716  0.1305 -0.0918
  139TMC2     O 2122   3.500   4.501  13.141 -0.1035 -0.2761  0.5603
  139TMC2     H 2123   3.300   4.594  13.120  0.0676 -3.2273  1.7508
  139TMC2    H1 2124   3.526   0.065  13.426 -0.3924  0.1018  0.8167
  139TMC2    H2 2125   3.150   0.219  13.312  1.4505  2.0134 -0.4555
  139TMC2    C7 2126   3.347   0.258  13.472 -0.0903  0.3752  0.7945
  139TMC2    C8 2127   3.126   0.054  13.102 -0.3427  0.2674 -0.1725
  139TMC2    O1 2128   3.309   0.369  13.434  0.1200 -0.4562 -0.5665
  139TMC2    O2 2129   3.014   0.004  13.120  1.0491 -0.0055 -0.1929
  139TMC2    O5 2130   3.197   0.049  12.989  0.4092  0.0831  0.2903
  139TMC2    H5 2131   3.290   0.078  13.002 -0.1702  0.9368  2.5144
  140MPD2     C 2132   3.893   4.573  13.333  0.3201  1.2280  0.1080
  140MPD2    C1 2133   3.779   4.537  13.263 -0.2019 -0.5041  0.4223
  140MPD2    C2 2134   3.785   4.431  13.177 -0.0903 -0.0784  0.1743
  140MPD2    C3 2135   3.900   4.357  13.168  0.1403 -0.5806  0.3225
  140MPD2    C4 2136   4.015   4.389  13.243 -0.2849 -0.1810  0.0955
  140MPD2    C5 2137   4.010   4.495  13.323  0.4394 -0.5810  0.4781
  140MPD2     H 2138   3.703   4.404  13.111  0.4970  0.2792 -0.7082
  140MPD2    H1 2139   4.106   4.329  13.249  0.5442  1.1484  0.7219
  140MPD2    H2 2140   3.895   4.660  13.397  3.8024  0.8061  0.5588
  140MPD2    H3 2141   4.110   4.521  13.355 -0.0209  1.4422  0.2729
  140MPD2     N 2142   3.890   4.245  13.085  0.0880  0.5411 -0.1571
  140MPD2    H5 2143   3.798   4.227  13.045  0.1248  0.8069 -0.3589
  140MPD2    N1 2144   3.665   4.618  13.273  0.0025  0.1792  0.3771
  140MPD2    H7 2145   3.670   4.701  13.332 -0.3156 -1.6979  3.0506
  141TCq2    C1 2146   4.521   1.444  13.885  0.4725  0.2206  0.0853
  141TCq2    O2 2147   4.488   1.501  13.782 -0.4716 -0.0505 -0.8215
  141TCq2    C2 2148   4.574   1.520  14.000 -0.4492 -0.6621  0.0050
  141TCq2    C3 2149   4.596   1.455  14.121 -0.2906  0.1075 -0.7606
  141TCq2    C4 2150   4.640   1.526  14.228 -1.3329  0.3261  0.3133
  141TCq2    C5 2151   4.665   1.658  14.228 -0.1078 -0.0243  0.3630
  141TCq2    C6 2152   4.652   1.721  14.103  0.4221 -0.4386 -0.9954
  141TCq2    C7 2153   4.603   1.656  13.990 -0.1528 -0.5640  0.5685
  141TCq2    C8 2154   4.692   1.864  14.071  0.8869  0.1024 -0.2834
  141TCq2    O4 2155   4.651   1.906  13.964  0.3076  0.0146 -0.4333
  141TCq2    C9 2156   4.667   1.448  14.348 -0.4680  0.3926 -0.5316
  141TCq2    O5 2157   4.685   1.500  14.460  0.0870  0.0913 -0.1421
  141TCq2    O6 2158   4.642   1.325  14.333 -0.2700 -0.4859  0.6236
  141TCq2    H2 2159   4.582   1.347  14.124  2.4842 -0.2425 -0.1780
  141TCq2    H3 2160   4.698   1.714  14.314 -0.6113  0.4222  0.2604
  141TCq2    H4 2161   4.606   1.706  13.894 -3.9130  0.1929  0.8203
  142MPD2     C 2162   2.359   4.041  11.107 -0.3242  0.4050  0.4929
  142MPD2    C1 2163   2.367   4.025  10.970  0.0768 -0.4540  0.0580
  142MPD2    C2 2164   2.490   4.032  10.910 -0.8646 -0.5322 -0.5616
  142MPD2    C3 2165   2.605   4.072  10.978 -1.0429  0.3683  0.4241
  142MPD2    C4 2166   2.586   4.097  11.111  0.3140 -0.7193  0.2483
  142MPD2    C5 2167   2.468   4.076  11.171  0.1539 -0.3261  0.0040
  142MPD2     H 2168   2.495   4.027  10.802  1.1101  1.4271 -0.5463
  142MPD2    H1 2169   2.659   4.153  11.169  1.6898 -0.0264 -2.1807
  142MPD2    H2 2170   2.265   4.026  11.160 -0.7294  1.0517 -0.0419
  142MPD2    H3 2171   2.462   4.101  11.276 -0.3107  0.2721 -0.1666
  142MPD2     N 2172   2.727   4.098  10.922 -0.1991  0.3002  0.0551
  142MPD2    H5 2173   2.798   4.146  10.976 -1.8274  0.3789  2.1348
  142MPD2    N1 2174   2.249   3.986  10.902  0.4307  0.4167  0.4781
  142MPD2    H7 2175   2.167   3.966  10.959  1.0565 -1.2158  0.7984
  143TCq2    C1 2176   2.762   4.056  10.798 -0.2766 -0.6679  0.3246
  143TCq2    O2 2177   2.706   3.978  10.728  0.1756  0.0457  0.8387
  143TCq2    C2 2178   2.896   4.100  10.753 -0.5777 -0.0572  0.4232
  143TCq2    C3 2179   2.989   4.161  10.838 -0.5386 -0.6522 -0.0156
  143TCq2    C4 2180   3.103   4.203  10.788 -0.1672 -0.1721  0.1595
  143TCq2    C5 2181   3.132   4.192  10.656  0.1730  0.5190  0.3574
  143TCq2    C6 2182   3.036   4.140  10.569 -0.3190  0.2017  0.3027
  143TCq2    C7 2183   2.923   4.088  10.620  0.3120 -0.1265  0.7428
  143TCq2    C8 2184   3.056   4.132  10.425 -0.3025 -0.1337 -0.5773
  143TCq2    O4 2185   2.975   4.076  10.352  0.0392 -0.4055 -0.0521
  143TCq2    C9 2186   3.200   4.267  10.872  0.1208  0.0162  0.6062
  143TCq2    O5 2187   3.305   4.310  10.816  0.1844 -0.1693 -0.2816
  143TCq2    O6 2188   3.176   4.266  10.995  0.7130  0.0708 -0.5109
  143TCq2    H2 2189   2.974   4.153  10.946  3.3192  0.0600  0.5529
  143TCq2    H3 2190   3.229   4.228  10.624 -0.4555 -0.1756 -2.3521
  143TCq2    H4 2191   2.856   4.026  10.560 -0.6624 -0.5740  2.2995
  144MPD2     C 2192   0.058   3.975   0.781  0.1565  0.1417 -0.9276
  144MPD2    C1 2193   0.114   3.851   0.768 -0.1270 -0.2054  0.2772
  144MPD2    C2 2194   0.231   3.830   0.834  0.3391  0.4570  0.7539
  144MPD2    C3 2195   0.300   3.930   0.907 -0.1779 -0.4745  1.0525
  144MPD2    C4 2196   0.233   4.048   0.931  0.0550 -0.5733  0.4694
  144MPD2    C5 2197   0.116   4.070   0.863  0.7439 -0.1106  0.8831
  144MPD2     H 2198   0.272   3.730   0.827 -0.4128  0.1822  0.2806
  144MPD2    H1 2199   0.274   4.127   0.993  1.7953 -0.8783 -0.2839
  144MPD2    H2 2200   4.696   4.010   0.726 -1.3753 -0.5450  1.0099
  144MPD2    H3 2201   0.060   4.160   0.887  1.0521  0.3805 -0.1980
  144MPD2     N 2202   0.424   3.911   0.975  0.3943  0.1187 -0.8168
  144MPD2    H5 2203   0.449   3.978   1.047 -1.6971  0.5000 -0.4585
  144MPD2    N1 2204   0.052   3.743   0.699 -0.1486  0.1830 -0.5851
  144MPD2    H7 2205   0.106   3.657   0.703 -0.8048 -0.2524 -1.1158
  145TCq2    C1 2206   0.502   3.803   0.946  0.1499  1.0113  0.0082
  145TCq2    O2 2207   0.506   3.727   0.849  0.0087  0.0081 -0.0304
  145TCq2    C2 2208   0.621   3.790   1.033  0.4275 -0.0058 -1.0896
  145TCq2    C3 2209   0.720   3.698   0.999  0.5390 -0.3661  0.2258
  145TCq2    C4 2210   0.813   3.659   1.089  0.3750 -0.2419  0.3911
  145TCq2    C5 2211   0.821   3.713   1.216 -0.0311  0.0183 -0.3500
  145TCq2    C6 2212   0.727   3.803   1.246 -0.1450  0.0340 -0.0009
  145TCq2    C7 2213   0.624   3.836   1.160  0.0798 -0.1340  0.4136
  145TCq2    C8 2214   0.760   3.891   1.357 -0.3964 -0.1748 -0.6515
  145TCq2    O4 2215   0.851   3.850   1.424 -0.6914 -0.2948  0.0714
  145TCq2    C9 2216   0.918   3.573   1.051  0.8276 -0.1311 -0.4253
  145TCq2    O5 2217   0.916   3.533   0.931 -0.1302 -0.5775 -0.2457
  145TCq2    O6 2218   1.007   3.542   1.134 -0.2770 -0.4427 -0.0127
  145TCq2    H2 2219   0.708   3.636   0.911 -1.7809 -1.8232  1.5692
  145TCq2    H3 2220   0.909   3.705   1.278 -1.0281 -0.9065  0.9660
  145TCq2    H4 2221   0.541   3.900   1.189  1.5496  1.7133  0.5557
  146TMC2    C1 2222   1.424   2.280  12.270 -0.4993 -0.2209 -0.2458
  146TMC2    C2 2223   1.305   2.251  12.215  0.8665 -0.2464  0.4505
  146TMC2    C3 2224   1.314   2.200  12.082  0.3641 -0.4169  0.7593
  146TMC2    C4 2225   1.549   2.260  12.214  0.1493 -0.4879 -0.1056
  146TMC2    C5 2226   1.548   2.204  12.090 -0.2569 -0.3513 -0.7381
  146TMC2    C6 2227   1.434   2.164  12.026  0.0882  0.5777 -0.0441
  146TMC2     C 2228   1.416   2.363  12.395  0.3661  0.8941  0.2308
  146TMC2     O 2229   1.338   2.455  12.398  0.7652  0.3908 -0.4342
  146TMC2     H 2230   1.217   2.286  12.268  2.5122  3.4534  0.7328
  146TMC2    H1 2231   1.640   2.294  12.264 -1.0926 -0.3561  2.0496
  146TMC2    H2 2232   1.446   2.100  11.940 -1.6380 -1.0192  0.9011
  146TMC2    C7 2233   1.664   2.127  12.049 -0.6020 -0.2366  0.5082
  146TMC2    C8 2234   1.205   2.113  12.042 -1.0405  0.6122  0.3385
  146TMC2    O1 2235   1.674   2.099  11.930  0.0594 -0.4551  0.1109
  146TMC2    O2 2236   1.188   2.074  11.925 -0.4338 -0.2203  0.0927
  146TMC2    O5 2237   1.105   2.103  12.135  0.0569 -0.1429 -0.3018
  146TMC2    H5 2238   1.123   2.127  12.228  0.0296  1.5391 -0.7413
  147MPD2     C 2239   2.076   1.849  12.141  0.8391 -0.7976 -0.0037
  147MPD2    C1 2240   2.005   1.857  12.257 -0.2576 -0.2744 -0.7602
  147MPD2    C2 2241   1.893   1.941  12.253  0.0008 -0.3787  0.4426
  147MPD2    C3 2242   1.850   2.009  12.144  0.2868  0.4731  0.0538
  147MPD2    C4 2243   1.930   2.001  12.030  0.8535  0.3960  0.1409
  147MPD2    C5 2244   2.039   1.923  12.032  0.1703 -0.8234 -0.6051
  147MPD2     H 2245   1.839   1.957  12.345  0.8316 -2.2327  1.2674
  147MPD2    H1 2246   1.911   2.066  11.945  2.5240 -2.3089 -2.3029
  147MPD2    H2 2247   2.170   1.796  12.145  0.4554 -1.6278 -1.9932
  147MPD2    H3 2248   2.113   1.916  11.953 -0.0172  4.3413 -1.2355
  147MPD2     N 2249   1.734   2.084  12.158 -0.2180  0.1444 -0.4791
  147MPD2    H5 2250   1.682   2.088  12.245 -1.0365 -0.6385 -0.9270
  147MPD2    N1 2251   2.051   1.784  12.370 -0.3589  0.0391 -0.6134
  147MPD2    H7 2252   2.146   1.748  12.361 -0.3150 -0.0777  0.4034
  148MPD2     C 2253   1.736   1.085  10.667 -0.6450 -0.5346 -0.3973
  148MPD2    C1 2254   1.814   0.969  10.652 -0.0812 -0.2419  0.0848
  148MPD2    C2 2255   1.765   0.866  10.573  0.2082  0.4878  0.0201
  148MPD2    C3 2256   1.631   0.870  10.520  0.7000  0.3486 -0.1716
  148MPD2    C4 2257   1.561   0.991  10.536 -0.6255 -0.0701 -0.5188
  148MPD2    C5 2258   1.611   1.091  10.609  1.1691 -0.6278 -0.2434
  148MPD2     H 2259   1.827   0.779  10.554  2.7470  2.1370  0.8589
  148MPD2    H1 2260   1.455   0.993  10.513 -0.4218 -0.9923 -1.5233
  148MPD2    H2 2261   1.772   1.167  10.728 -1.7179 -0.8513  0.6470
  148MPD2    H3 2262   1.556   1.184  10.613  0.2658 -1.1420 -0.7558
  148MPD2     N 2263   1.576   0.763  10.441  0.5068 -0.1963  0.3769
  148MPD2    H5 2264   1.486   0.778  10.396  0.6590 -0.6433 -0.0778
  148MPD2    N1 2265   1.942   0.954  10.701 -0.4405  0.3391  0.0293
  148MPD2    H7 2266   1.992   0.867  10.686 -1.7412 -0.2867 -0.7274
  149TCq2    C1 2267   2.007   1.050  10.773 -0.6365 -0.3974 -0.4778
  149TCq2    O2 2268   1.980   1.169  10.788 -0.3808  0.1875 -0.0339
  149TCq2    C2 2269   2.123   0.992  10.832 -0.5761  0.2078 -0.4498
  149TCq2    C3 2270   2.239   1.063  10.823  1.2297 -0.7894  0.1842
  149TCq2    C4 2271   2.362   0.992  10.818 -0.3238  0.6523  0.7657
  149TCq2    C5 2272   2.366   0.860  10.771  1.1047  0.6171 -0.1179
  149TCq2    C6 2273   2.245   0.796  10.775  0.0473 -0.4882  0.4333
  149TCq2    C7 2274   2.129   0.855  10.816 -0.0851 -0.0933 -0.0492
  149TCq2    C8 2275   2.225   0.665  10.712  0.1167 -0.5793  0.2641
  149TCq2    O4 2276   2.111   0.630  10.696 -0.0503  0.2419  0.5910
  149TCq2    C9 2277   2.472   1.072  10.777  0.3718 -0.3826  0.9050
  149TCq2    O5 2278   2.472   1.200  10.803 -0.0487  0.1234 -0.0241
  149TCq2    O6 2279   2.556   1.015  10.701 -0.0940  0.0741  0.1499
  149TCq2    H2 2280   2.236   1.169  10.804  1.0202 -0.6849  0.7838
  149TCq2    H3 2281   2.457   0.820  10.727  0.1927 -2.1710  0.4983
  149TCq2    H4 2282   2.041   0.800  10.846 -0.1763 -0.3584 -0.7885
  150MPD2     C 2283   3.287   0.089  12.550  0.6368 -0.0925 -0.8054
  150MPD2    C1 2284   3.236   0.162  12.448 -0.0797  0.3508  0.1522
  150MPD2    C2 2285   3.267   0.300  12.438  1.1827 -0.5151 -0.4762
  150MPD2    C3 2286   3.362   0.357  12.523 -0.7008  0.7665  0.7991
  150MPD2    C4 2287   3.425   0.278  12.613  0.4710  0.4504 -0.1704
  150MPD2    C5 2288   3.378   0.148  12.641 -0.2212  0.2718 -0.4230
  150MPD2     H 2289   3.215   0.353  12.359  0.6335 -0.0153  0.2310
  150MPD2    H1 2290   3.486   0.329  12.688  0.1191  1.8653 -0.8420
  150MPD2    H2 2291   3.253   4.711  12.564  0.2876 -0.1130 -1.7901
  150MPD2    H3 2292   3.412   0.087  12.724  0.7569  0.8589 -0.3828
  150MPD2     N 2293   3.395   0.494  12.518  0.1122  0.2187 -0.2267
  150MPD2    H5 2294   3.482   0.520  12.564  0.6023  0.0146 -1.0477
  150MPD2    N1 2295   3.137   0.101  12.363  0.8389 -0.5756  0.1731
  150MPD2    H7 2296   3.104   0.006  12.378 -1.0658  0.0820  0.0445
  151TCq2    C1 2297   3.302   0.593  12.490  0.1491  0.2505 -0.5263
  151TCq2    O2 2298   3.186   0.582  12.457 -0.2567  0.4317 -0.4943
  151TCq2    C2 2299   3.355   0.733  12.518 -0.8343 -0.0892  1.1439
  151TCq2    C3 2300   3.271   0.834  12.559 -0.1795  0.5011 -0.2496
  151TCq2    C4 2301   3.324   0.931  12.628 -0.1541 -0.6777  0.6183
  151TCq2    C5 2302   3.460   0.960  12.626 -0.1729  0.1196  0.2587
  151TCq2    C6 2303   3.539   0.873  12.561 -1.1928 -0.2181 -0.1736
  151TCq2    C7 2304   3.487   0.753  12.520  1.0035  0.1589 -0.2701
  151TCq2    C8 2305   3.682   0.904  12.557  0.3358 -0.8729  0.0224
  151TCq2    O4 2306   3.712   1.022  12.562  0.1699 -0.6096 -0.0925
  151TCq2    C9 2307   3.230   1.009  12.708 -0.7043  0.2850  0.7316
  151TCq2    O5 2308   3.282   1.104  12.775 -0.1173  0.3743  0.3256
  151TCq2    O6 2309   3.107   0.975  12.717  0.3104 -0.0621  0.5665
  151TCq2    H2 2310   3.166   0.805  12.564  0.0993 -0.5472 -0.4102
  151TCq2    H3 2311   3.499   1.048  12.677 -0.9303  1.3538 -1.2921
  151TCq2    H4 2312   3.558   0.676  12.491 -1.4800 -3.3032  2.8352
  152MPD2     C 2313   2.892   0.277  12.809 -0.4476  0.0822 -0.2130
  152MPD2    C1 2314   2.967   0.385  12.756 -0.1529  0.4916 -0.8811
  152MPD2    C2 2315   2.947   0.409  12.624  0.2404 -0.5240  0.1236
  152MPD2    C3 2316   2.848   0.345  12.550  0.2268 -0.1196 -0.2598
  152MPD2    C4 2317   2.770   0.253  12.614  0.3470 -0.0052  0.2256
  152MPD2    C5 2318   2.786   0.226  12.744 -0.4535  0.4857 -0.1827
  152MPD2     H 2319   3.013   0.477  12.572  0.8766  0.3046  2.0163
  152MPD2    H1 2320   2.688   0.210  12.557 -0.3688  0.7092  0.7148
  152MPD2    H2 2321   2.920   0.235  12.905 -0.8005 -1.0630 -0.6129
  152MPD2    H3 2322   2.729   0.153  12.801  0.5461 -0.1738 -0.0247
  152MPD2     N 2323   2.834   0.381  12.416 -0.1541  0.6100 -0.0166
  152MPD2    H5 2324   2.885   0.464  12.387 -0.8277  1.0277  0.0047
  152MPD2    N1 2325   3.070   0.445  12.835 -0.3589 -0.1302  0.2226
  152MPD2    H7 2326   3.085   0.394  12.922  1.6379 -1.5872 -0.9819
  153TCq2    C1 2327   3.161   0.542  12.801  0.2129  0.3008 -0.1213
  153TCq2    O2 2328   3.137   0.647  12.742 -0.6405 -0.0510 -0.1390
  153TCq2    C2 2329   3.274   0.542  12.885  1.1068 -0.3781 -0.3304
  153TCq2    C3 2330   3.318   0.425  12.942 -0.1478 -0.1359 -0.4969
  153TCq2    C4 2331   3.443   0.414  12.997  0.0802  0.3054 -0.5403
  153TCq2    C5 2332   3.528   0.521  13.006 -0.0597 -0.6919 -0.9326
  153TCq2    C6 2333   3.488   0.633  12.934  0.6608 -0.5469 -0.8261
  153TCq2    C7 2334   3.365   0.648  12.871  0.3878  0.2229 -0.2082
  153TCq2    C8 2335   3.579   0.747  12.924 -0.3355  0.2377 -0.1213
  153TCq2    O4 2336   3.518   0.848  12.890  0.0248 -0.3267 -0.0600
  153TCq2    C9 2337   3.489   0.284  13.042 -0.1466 -0.0079  0.4838
  153TCq2    O5 2338   3.425   0.185  12.996 -0.1180 -0.0303 -0.5317
  153TCq2    O6 2339   3.591   0.276  13.112  0.0527 -0.0538 -0.0716
  153TCq2    H2 2340   3.257   0.337  12.928  1.3490 -1.1945 -0.3033
  153TCq2    H3 2341   3.626   0.502  13.050 -1.2619 -0.9815  1.5727
  153TCq2    H4 2342   3.342   0.741  12.820  2.1515  1.7684  1.8242
  154MPD2     C 2343   1.014   0.264   0.713 -0.3131 -0.6132  0.0479
  154MPD2    C1 2344   0.983   0.304   0.844 -0.2258 -0.2346  0.0283
  154MPD2    C2 2345   0.876   0.389   0.868  0.6699 -0.2683 -0.4518
  154MPD2    C3 2346   0.801   0.429   0.754  0.8045  0.0315  0.5784
  154MPD2    C4 2347   0.829   0.389   0.633 -0.0602  0.4324  0.5255
  154MPD2    C5 2348   0.935   0.311   0.608 -0.0377 -1.0015 -0.0478
  154MPD2     H 2349   0.850   0.411   0.971  0.8716 -1.1868 -0.2003
  154MPD2    H1 2350   0.766   0.420   0.551 -0.1088 -3.9415 -1.0872
  154MPD2    H2 2351   1.099   0.200   0.691 -0.5146 -0.9713  0.3096
  154MPD2    H3 2352   0.958   0.287   0.505 -2.4349 -0.3543 -0.7435
  154MPD2     N 2353   0.692   0.513   0.787 -0.2546 -0.8399  0.1383
  154MPD2    H5 2354   0.686   0.533   0.886 -0.7919  0.6013 -0.1926
  154MPD2    N1 2355   1.074   0.260   0.941  0.4284 -0.6548 -0.3580
  154MPD2    H7 2356   1.144   0.196   0.906  2.0548  0.5752  0.6680
  155TCq2    C1 2357   1.088   0.331   1.067 -0.1628 -0.6775  0.0848
  155TCq2    O2 2358   1.022   0.426   1.116 -0.5018  0.3034  0.0964
  155TCq2    C2 2359   1.218   0.301   1.135  0.7618 -0.1229  0.9444
  155TCq2    C3 2360   1.256   0.392   1.236  0.2201 -0.2023  0.4607
  155TCq2    C4 2361   1.348   0.348   1.329  0.2081  0.4800 -0.6239
  155TCq2    C5 2362   1.405   0.221   1.321  0.1356  0.2999 -0.3079
  155TCq2    C6 2363   1.367   0.135   1.218  0.5313  0.6642 -0.1315
  155TCq2    C7 2364   1.266   0.171   1.127  0.1987 -0.2385 -0.6601
  155TCq2    C8 2365   1.437   0.001   1.220 -0.4121 -0.6129  0.0247
  155TCq2    O4 2366   1.479   4.686   1.330  0.3100  0.1152  0.2241
  155TCq2    C9 2367   1.377   0.437   1.438  0.0494 -0.1886  0.3722
  155TCq2    O5 2368   1.306   0.540   1.452  0.3509  0.0698 -0.0945
  155TCq2    O6 2369   1.492   0.429   1.492  0.4322  0.1101 -0.2442
  155TCq2    H2 2370   1.230   0.497   1.235 -0.6075 -0.4155 -0.6677
  155TCq2    H3 2371   1.480   0.194   1.395 -0.8979  1.6367  1.2464
  155TCq2    H4 2372   1.207   0.104   1.067 -1.3338 -0.8273  1.5032
  156MPD2     C 2373   3.070   2.339  12.105 -0.3851  0.9338  0.6066
  156MPD2    C1 2374   3.199   2.290  12.116  0.7029  0.6778  0.0512
  156MPD2    C2 2375   3.242   2.236  12.235  0.0733 -0.3302 -0.0157
  156MPD2    C3 2376   3.166   2.234  12.345 -0.0841  0.1390 -0.6093
  156MPD2    C4 2377   3.043   2.294  12.343  0.2244  0.3613  0.2215
  156MPD2    C5 2378   2.999   2.344  12.223 -0.3383 -0.0764  1.0950
  156MPD2     H 2379   3.345   2.206  12.250 -0.2534 -0.3727  2.1010
  156MPD2    H1 2380   2.976   2.286  12.427 -0.0235  2.4450  0.2245
  156MPD2    H2 2381   3.028   2.379  12.013 -0.2084  1.0603  0.5810
  156MPD2    H3 2382   2.909   2.406  12.221 -0.8303 -0.8552 -1.3869
  156MPD2     N 2383   3.222   2.189  12.465 -0.2992  0.1830  0.6109
  156MPD2    H5 2384   3.317   2.155  12.454  0.2396  1.9935 -0.3441
  156MPD2    N1 2385   3.286   2.295  12.005  0.1669 -0.0420  0.0952
  156MPD2    H7 2386   3.267   2.358  11.928 -0.3288 -0.0869  0.1827
  157TCq2    C1 2387   3.418   2.247  11.995  1.0355  0.6172  0.6967
  157TCq2    O2 2388   3.479   2.168  12.068  0.1928  0.0290 -0.1289
  157TCq2    C2 2389   3.492   2.298  11.884 -0.0932  0.4062  0.8917
  157TCq2    C3 2390   3.626   2.294  11.901 -0.2605 -0.2299 -0.6857
  157TCq2    C4 2391   3.709   2.381  11.839  0.2742  0.4509 -0.0788
  157TCq2    C5 2392   3.654   2.471  11.752 -0.6262  0.3709 -0.4410
  157TCq2    C6 2393   3.519   2.465  11.724  0.9510 -0.0006 -0.1166
  157TCq2    C7 2394   3.434   2.381  11.791  0.3162 -0.3441 -0.3850
  157TCq2    C8 2395   3.463   2.579  11.659  0.4072 -0.3928  0.3261
  157TCq2    O4 2396   3.518   2.688  11.670 -0.0958 -0.2704 -0.0904
  157TCq2    C9 2397   3.849   2.366  11.852  0.7479 -0.3947  0.0163
  157TCq2    O5 2398   3.894   2.291  11.938  0.0468  0.2113  0.7451
  157TCq2    O6 2399   3.916   2.427  11.768 -0.2903 -0.1800 -0.4290
  157TCq2    H2 2400   3.666   2.222  11.970  1.2292  0.5187 -0.7693
  157TCq2    H3 2401   3.720   2.541  11.702  0.0422 -0.3661 -0.5834
  157TCq2    H4 2402   3.327   2.385  11.778  0.2758 -2.2730 -0.6750
  158TMC2    C1 2403   3.558   1.754  13.524 -0.2521 -0.3453 -0.4150
  158TMC2    C2 2404   3.557   1.888  13.476  0.1891  0.4096  0.1790
  158TMC2    C3 2405   3.439   1.924  13.419  0.4373 -0.6946  0.3724
  158TMC2    C4 2406   3.459   1.670  13.519  0.1485 -0.2104 -0.2566
  158TMC2    C5 2407   3.339   1.709  13.461 -0.3339 -0.3356  0.1534
  158TMC2    C6 2408   3.331   1.833  13.407 -0.2153 -0.2544  0.4451
  158TMC2     C 2409   3.685   1.718  13.572  0.7869  0.0250 -0.5399
  158TMC2     O 2410   3.776   1.788  13.537  0.4352 -0.5927 -0.3178
  158TMC2     H 2411   3.639   1.957  13.494 -0.7881  0.8389  3.0007
  158TMC2    H1 2412   3.466   1.566  13.550 -1.0276 -0.0592  0.5477
  158TMC2    H2 2413   3.239   1.875  13.368  0.8092  2.4826  1.0034
  158TMC2    C7 2414   3.216   1.633  13.470  0.8769 -0.4048  0.3020
  158TMC2    C8 2415   3.444   2.027  13.319  0.0387 -0.1742 -0.2049
  158TMC2    O1 2416   3.119   1.675  13.407 -0.0383 -0.2243 -0.4156
  158TMC2    O2 2417   3.496   2.135  13.321 -0.1332 -0.2025 -0.3779
  158TMC2    O5 2418   3.399   1.964  13.208  0.2948  0.1631 -0.2140
  158TMC2    H5 2419   3.404   1.866  13.215 -0.2550  0.1070 -0.5555
  159MPD2     C 2420   3.993   1.491  13.916  0.3208 -0.1748  0.0791
  159MPD2    C1 2421   3.868   1.511  13.971 -0.0301  0.4011 -0.3070
  159MPD2    C2 2422   3.771   1.549  13.886 -0.1096 -0.1572  0.4321
  159MPD2    C3 2423   3.794   1.589  13.755  0.3840  0.5583  0.2517
  159MPD2    C4 2424   3.924   1.579  13.704  0.2005 -0.2962 -0.0796
  159MPD2    C5 2425   4.018   1.518  13.787  0.1802 -0.1146  0.3419
  159MPD2     H 2426   3.674   1.564  13.933 -0.2741  1.7687 -0.5162
  159MPD2    H1 2427   3.948   1.618  13.605 -1.0483 -1.2687 -0.7687
  159MPD2    H2 2428   4.069   1.443  13.976  0.7969 -0.6665 -0.9073
  159MPD2    H3 2429   4.120   1.501  13.755 -0.1936 -1.9849  0.1547
  159MPD2     N 2430   3.683   1.630  13.678 -0.7056  0.0041  0.1291
  159MPD2    H5 2431   3.592   1.601  13.712 -0.6896  2.4072  2.2155
  159MPD2    N1 2432   3.851   1.486  14.114  0.1728  0.7365 -0.7405
  159MPD2    H7 2433   3.935   1.448  14.156  0.5526  3.1137  0.6614
  160TMC2    C1 2434   4.027   4.663   1.450  0.3872  0.0814 -0.2059
  160TMC2    C2 2435   4.149   4.608   1.461  0.4534  0.4277 -0.6059
  160TMC2    C3 2436   4.259   4.682   1.426 -0.4388  0.4965  0.0909
  160TMC2    C4 2437   4.008   0.059   1.391  0.4775 -0.1135 -0.2887
  160TMC2    C5 2438   4.119   0.139   1.364  0.6805  0.2553  0.2591
  160TMC2    C6 2439   4.242   0.091   1.391  0.2507 -0.0775 -0.3724
  160TMC2     C 2440   3.922   4.574   1.490 -0.1567  0.4692  0.3650
  160TMC2     O 2441   3.964   4.484   1.564  0.0888  0.0411  0.1500
  160TMC2     H 2442   4.172   4.509   1.499  2.3166  1.4796  1.0447
  160TMC2    H1 2443   3.907   0.088   1.365  0.7606  1.8352  0.8220
  160TMC2    H2 2444   4.332   0.149   1.378 -0.5926  0.8636 -2.1119
  160TMC2    C7 2445   4.095   0.248   1.274 -0.0253 -0.3371 -0.1185
  160TMC2    C8 2446   4.385   4.644   1.481  0.8395 -0.1236  0.5633
  160TMC2    O1 2447   3.976   0.287   1.271 -0.0548 -0.0627 -0.2069
  160TMC2    O2 2448   4.397   4.578   1.580  0.3182  0.1492 -0.1089
  160TMC2    O5 2449   4.482   4.682   1.400  0.2072 -0.4067 -0.3894
  160TMC2    H5 2450   4.446   4.723   1.319 -0.1279 -0.3680 -0.2222
  161MPD2     C 2451   3.673   4.408   1.529 -0.3692  0.3859 -0.0670
  161MPD2    C1 2452   3.688   4.517   1.450  0.0231 -0.3806 -0.1254
  161MPD2    C2 2453   3.572   4.546   1.377 -0.1106  0.4126  0.5359
  161MPD2    C3 2454   3.462   4.465   1.360 -0.0476  0.0739  0.0336
  161MPD2    C4 2455   3.455   4.356   1.440  0.3570 -0.3018 -0.5049
  161MPD2    C5 2456   3.554   4.335   1.527  0.6047 -0.3085 -0.6945
  161MPD2     H 2457   3.590   4.629   1.309  3.6027 -0.0958  0.8819
  161MPD2    H1 2458   3.375   4.283   1.441  0.1518 -0.0645  0.5068
  161MPD2    H2 2459   3.744   4.385   1.607  0.3960 -0.0512 -0.8951
  161MPD2    H3 2460   3.548   4.249   1.593 -0.8445 -0.0805 -0.5216
  161MPD2     N 2461   3.354   4.490   1.269  0.2521 -0.2287 -0.6433
  161MPD2    H5 2462   3.276   4.426   1.268  0.4777 -0.5267  0.5434
  161MPD2    N1 2463   3.793   4.605   1.446 -0.5999 -0.3140 -0.8649
  161MPD2    H7 2464   3.784   4.688   1.388 -0.9514  1.1816  1.3330
  162TMC2    C1 2465   1.951   2.111   0.876 -0.1043 -0.1394 -0.0754
  162TMC2    C2 2466   2.084   2.111   0.913 -0.8067  0.0393 -0.8887
  162TMC2    C3 2467   2.113   2.189   1.019 -0.0221  0.5155  0.3612
  162TMC2    C4 2468   1.847   2.180   0.936  0.1475 -0.1567  0.3959
  162TMC2    C5 2469   1.880   2.244   1.044  0.5968  0.1605 -0.1394
  162TMC2    C6 2470   2.006   2.238   1.096 -0.3490  0.0194  0.3964
  162TMC2     C 2471   1.912   2.008   0.777  0.4751 -0.3901 -0.2712
  162TMC2     O 2472   1.991   1.917   0.759 -0.1573  0.4519  0.0995
  162TMC2     H 2473   2.160   2.058   0.856  0.9574  1.7639 -0.1347
  162TMC2    H1 2474   1.745   2.153   0.912  0.0136  0.6555  0.0626
  162TMC2    H2 2475   2.026   2.309   1.175  0.0160  3.5518 -2.9081
  162TMC2    C7 2476   1.773   2.274   1.136 -0.7840 -0.3220 -0.1120
  162TMC2    C8 2477   2.242   2.195   1.071 -0.3297  0.0828 -0.2077
  162TMC2    O1 2478   1.668   2.303   1.081  0.0263  0.0551 -0.1421
  162TMC2    O2 2479   2.260   2.194   1.192  0.1424  0.1165  0.0958
  162TMC2    O5 2480   2.341   2.236   0.981 -0.1231  0.6337  0.2507
  162TMC2    H5 2481   2.313   2.261   0.890 -2.3870  1.8958  1.3172
  163MPD2     C 2482   1.629   1.819   0.380  0.5972 -0.1966  0.1766
  163MPD2    C1 2483   1.728   1.764   0.454  0.0701  0.6115 -0.5176
  163MPD2    C2 2484   1.793   1.834   0.551 -0.2426  0.3095  0.2466
  163MPD2    C3 2485   1.745   1.955   0.588 -0.4263  0.0423  0.1501
  163MPD2    C4 2486   1.645   2.012   0.520  0.5584  0.2608 -0.0275
  163MPD2    C5 2487   1.586   1.940   0.411  0.5005 -0.3130 -0.7099
  163MPD2     H 2488   1.874   1.782   0.601  0.2354 -1.1217 -2.0428
  163MPD2    H1 2489   1.595   2.100   0.558  0.7477 -0.0979  1.0644
  163MPD2    H2 2490   1.584   1.774   0.292 -0.4706 -0.6216  0.9349
  163MPD2    H3 2491   1.514   1.996   0.353 -0.0628 -0.0032  0.2926
  163MPD2     N 2492   1.806   2.037   0.691 -0.0296 -0.0996 -0.3157
  163MPD2    H5 2493   1.759   2.125   0.705 -3.1530 -1.9858  0.9691
  163MPD2    N1 2494   1.750   1.625   0.425 -0.0290 -0.3447 -0.4124
  163MPD2    H7 2495   1.708   1.582   0.343 -0.6751 -2.3965  1.0168
  164TCq2    C1 2496   2.406   0.664  11.153 -0.1040 -0.2154  0.0224
  164TCq2    O2 2497   2.310   0.606  11.191  0.1473 -0.6854  0.6677
  164TCq2    C2 2498   2.396   0.809  11.146  0.2016 -0.6473 -0.5174
  164TCq2    C3 2499   2.515   0.890  11.138  0.4502  0.5846 -0.6858
  164TCq2    C4 2500   2.504   1.023  11.146  0.4974  0.1191  1.3054
  164TCq2    C5 2501   2.380   1.078  11.165  0.1893 -0.3523 -0.0863
  164TCq2    C6 2502   2.268   0.998  11.173  0.5591 -0.3630 -0.9601
  164TCq2    C7 2503   2.270   0.860  11.156 -0.4610  0.1788 -0.1974
  164TCq2    C8 2504   2.143   1.065  11.187  0.3379  0.6028 -0.0974
  164TCq2    O4 2505   2.049   1.021  11.124  0.1117  0.0455 -0.7098
  164TCq2    C9 2506   2.619   1.111  11.148  0.1120 -0.9104 -0.4949
  164TCq2    O5 2507   2.728   1.067  11.107  0.1323  0.0867  0.4980
  164TCq2    O6 2508   2.596   1.214  11.221  0.5765  0.1016 -0.3652
  164TCq2    H2 2509   2.617   0.855  11.130  0.3963  0.2083  0.2887
  164TCq2    H3 2510   2.375   1.185  11.180  1.7120 -0.0799 -1.5536
  164TCq2    H4 2511   2.176   0.807  11.158  0.9495 -2.3588 -1.1519
  165MPD2     C 2512   3.218   3.504   1.143  0.8463  0.3503  0.3598
  165MPD2    C1 2513   3.303   3.554   1.237  0.1972  0.1583 -0.5168
  165MPD2    C2 2514   3.350   3.681   1.226 -0.3364 -0.1449 -0.9883
  165MPD2    C3 2515   3.305   3.759   1.125 -0.6761  0.1086  0.6551
  165MPD2    C4 2516   3.221   3.707   1.029  0.6913 -0.7007  0.0183
  165MPD2    C5 2517   3.175   3.582   1.040 -0.3547  0.3265  0.1410
  165MPD2     H 2518   3.409   3.732   1.302 -0.8794  0.1314 -0.7566
  165MPD2    H1 2519   3.196   3.759   0.937 -2.1396 -0.4089  0.9472
  165MPD2    H2 2520   3.172   3.407   1.155 -1.1866  1.0897 -1.3829
  165MPD2    H3 2521   3.104   3.534   0.974  1.1860 -1.1021 -0.4721
  165MPD2     N 2522   3.331   3.899   1.100  0.7273  0.0882 -0.3826
  165MPD2    H5 2523   3.275   3.950   1.032  2.0271  0.3396 -1.2747
  165MPD2    N1 2524   3.345   3.469   1.343 -0.6520  0.2441 -0.3831
  165MPD2    H7 2525   3.300   3.379   1.335 -2.5038  1.2573 -1.2869
  166TCq2    C1 2526   3.438   3.966   1.162  0.4380 -0.4518 -0.4277
  166TCq2    O2 2527   3.533   3.919   1.228 -0.1970 -0.0208  0.2263
  166TCq2    C2 2528   3.440   4.111   1.131 -0.0605 -0.1428  0.4436
  166TCq2    C3 2529   3.341   4.159   1.049 -0.0698  0.4228 -0.6620
  166TCq2    C4 2530   3.374   4.271   0.968  0.6507 -0.2553  0.1732
  166TCq2    C5 2531   3.489   4.345   0.987 -0.2892 -0.2960  0.4474
  166TCq2    C6 2532   3.578   4.296   1.079  0.1057 -0.0388  0.1551
  166TCq2    C7 2533   3.558   4.178   1.149 -0.4328 -1.0557 -0.0013
  166TCq2    C8 2534   3.704   4.357   1.108  0.0529  0.3736 -0.9860
  166TCq2    O4 2535   3.783   4.280   1.161  0.4966 -0.2190 -0.2862
  166TCq2    C9 2536   3.290   4.305   0.856  0.2410  0.1767 -0.0443
  166TCq2    O5 2537   3.185   4.238   0.842  0.4454 -0.0858 -0.3196
  166TCq2    O6 2538   3.323   4.407   0.792  0.0661  0.3187  0.3953
  166TCq2    H2 2539   3.252   4.102   1.025 -0.2069  0.7840 -1.0129
  166TCq2    H3 2540   3.514   4.433   0.929  0.6942 -0.9930 -0.2049
  166TCq2    H4 2541   3.632   4.128   1.210 -1.2996 -0.0335  1.8819
  167TMC2    C1 2542   1.877   1.094  12.985 -0.7357  0.1832 -0.0266
  167TMC2    C2 2543   1.829   1.122  13.108 -0.2410  0.2550  0.3347
  167TMC2    C3 2544   1.729   1.035  13.156 -0.0515  0.2224  0.6105
  167TMC2    C4 2545   1.846   0.979  12.914  0.6262 -0.0730  0.1476
  167TMC2    C5 2546   1.744   0.907  12.963  0.1993  0.4218 -0.2104
  167TMC2    C6 2547   1.679   0.943  13.074 -0.0109 -0.2340  0.0546
  167TMC2     C 2548   1.949   1.206  12.924  0.4339 -0.5068  0.0919
  167TMC2     O 2549   2.048   1.254  12.981 -0.5793 -0.5598 -0.6134
  167TMC2     H 2550   1.847   1.216  13.160  2.6547  0.1720 -0.5462
  167TMC2    H1 2551   1.877   0.947  12.815  2.8353  0.7122  0.5971
  167TMC2    H2 2552   1.608   0.871  13.111 -0.1244  0.1554  0.5985
  167TMC2    C7 2553   1.689   0.802  12.880  0.3473 -0.4650 -0.1906
  167TMC2    C8 2554   1.650   1.076  13.270 -0.4598  0.3145 -0.2285
  167TMC2    O1 2555   1.578   0.765  12.919  0.0184 -0.2957  0.2814
  167TMC2    O2 2556   1.680   1.060  13.388 -0.0511 -0.2620 -0.4861
  167TMC2    O5 2557   1.523   1.085  13.226 -0.1314  0.2910  0.4748
  167TMC2    H5 2558   1.511   1.087  13.129 -0.0927 -1.9496  0.4301
  168MPD2     C 2559   2.073   1.332  12.665 -0.1764  0.3971  0.3882
  168MPD2    C1 2560   1.946   1.282  12.681 -0.3467 -0.1197 -0.0042
  168MPD2    C2 2561   1.862   1.271  12.575 -0.3729 -0.2287  0.0164
  168MPD2    C3 2562   1.891   1.326  12.453  0.4201 -0.0627  0.5454
  168MPD2    C4 2563   2.013   1.385  12.443 -0.0716 -0.0995 -0.0101
  168MPD2    C5 2564   2.105   1.392  12.540  0.0527 -1.0159 -0.0796
  168MPD2     H 2565   1.762   1.232  12.587 -1.6663  3.1232  0.0203
  168MPD2    H1 2566   2.034   1.438  12.350 -0.2746  0.0436  0.0268
  168MPD2    H2 2567   2.148   1.337  12.743  0.2189 -0.8889  0.0869
  168MPD2    H3 2568   2.192   1.452  12.515 -1.7780  2.0401  0.9534
  168MPD2     N 2569   1.808   1.323  12.342  0.1252  0.4319 -0.1289
  168MPD2    H5 2570   1.849   1.340  12.251  1.8465  0.0523  0.5902
  168MPD2    N1 2571   1.899   1.221  12.798  0.2065  0.0522 -0.2038
  168MPD2    H7 2572   1.806   1.182  12.785  0.5592 -1.3814  1.4986
  169MPD1     C 2573   3.850   4.601  10.641  0.5245 -0.1825 -0.2256
  169MPD1    C1 2574   3.749   4.521  10.595  0.2193 -0.4642  0.0456
  169MPD1    C2 2575   3.787   4.433  10.489 -0.3325 -0.0390  0.9510
  169MPD1    C3 2576   3.917   4.404  10.457 -0.9820  0.6704  0.5833
  169MPD1    C4 2577   4.018   4.474  10.516  0.1480  0.3396 -0.0496
  169MPD1    C5 2578   3.978   4.578  10.603 -0.3432 -0.4164 -0.0872
  169MPD1     H 2579   3.706   4.375  10.448  0.7053  0.1746 -1.4016
  169MPD1    H1 2580   4.123   4.462  10.490  0.8679  2.2802  1.9691
  169MPD1    H2 2581   3.818   4.676  10.713  0.8289 -0.8771  0.6445
  169MPD1    H3 2582   4.049   4.638  10.658 -2.4182  1.7669  0.2309
  169MPD1     N 2583   3.938   4.306  10.358 -0.7142 -0.0522  0.3774
  169MPD1    H5 2584   3.858   4.261  10.315 -1.9400  1.2333  1.3442
  169MPD1    N1 2585   3.613   4.551  10.624  0.3477 -0.2529  0.2491
  169MPD1    H6 2586   3.541   4.482  10.605 -1.7940  1.5889  1.5561
  169MPD1    H7 2587   3.594   4.594  10.715  0.4450  0.0344  0.1349
  170MPD1     C 2588   2.855   2.943  13.157  0.6293  0.1267 -0.4053
  170MPD1    C1 2589   2.758   3.045  13.150 -0.3712 -0.4964 -0.5037
  170MPD1    C2 2590   2.727   3.110  13.266  0.0018  0.0648  0.2676
  170MPD1    C3 2591   2.769   3.054  13.385 -0.7096 -0.3860 -0.7087
  170MPD1    C4 2592   2.840   2.931  13.387 -0.3999 -0.3641 -0.1709
  170MPD1    C5 2593   2.892   2.887  13.268  0.0108 -0.2486  0.6503
  170MPD1     H 2594   2.658   3.194  13.264 -0.3265 -0.2150 -0.2603
  170MPD1    H1 2595   2.879   2.877  13.472 -1.5215 -1.0561 -0.0895
  170MPD1    H2 2596   2.879   2.897  13.061  2.6461 -0.4418  0.3873
  170MPD1    H3 2597   2.958   2.801  13.269 -0.4684 -0.6705 -3.5138
  170MPD1     N 2598   2.724   3.116  13.499  0.7054 -0.3803 -0.0138
  170MPD1    H5 2599   2.664   3.197  13.490  2.5744  1.1428  1.1755
  170MPD1    N1 2600   2.729   3.099  13.021  0.2051 -0.8969  0.3202
  170MPD1    H6 2601   2.636   3.141  13.024  1.1489  1.0849  1.4874
  170MPD1    H7 2602   2.734   3.025  12.951  1.3625  0.0528 -0.5843
  171MPD1     C 2603   0.789   4.552  15.406  0.1824 -0.1914  0.0454
  171MPD1    C1 2604   0.718   4.436  15.440 -0.3594  0.2958  0.6157
  171MPD1    C2 2605   0.754   4.363  15.553 -0.1807 -0.0997 -0.4742
  171MPD1    C3 2606   0.863   4.402  15.630  0.3729 -0.2662 -0.7232
  171MPD1    C4 2607   0.936   4.512  15.590  0.3621  0.2201  0.9216
  171MPD1    C5 2608   0.892   4.587  15.482  0.0491 -0.2546  0.5603
  171MPD1     H 2609   0.688   4.282  15.584  0.4096 -0.3782  0.0546
  171MPD1    H1 2610   1.013   4.544  15.659 -1.5289  1.2399  2.5673
  171MPD1    H2 2611   0.762   4.611  15.320  0.7116 -0.0603 -0.0291
  171MPD1    H3 2612   0.943   4.682  15.473  0.8035 -0.7209 -0.1450
  171MPD1     N 2613   0.916   4.326  15.738  0.1767  0.5496  0.5364
  171MPD1    H5 2614   1.010   4.350  15.767 -0.2389  3.7590 -0.8368
  171MPD1    N1 2615   0.599   4.404  15.382  1.4175 -0.1951 -0.3192
  171MPD1    H6 2616   0.589   4.303  15.378 -3.4671  0.3167 -0.5756
  171MPD1    H7 2617   0.590   4.432  15.285 -1.6952 -1.9407 -0.5150
  172MPD1     C 2618   0.325   3.208   0.661 -0.4778  0.9476 -0.2536
  172MPD1    C1 2619   0.284   3.268   0.541 -0.1747  0.2514 -0.2701
  172MPD1    C2 2620   0.309   3.401   0.528 -0.6280 -0.1188 -0.3862
  172MPD1    C3 2621   0.380   3.473   0.623 -0.1055 -0.1933  0.5700
  172MPD1    C4 2622   0.436   3.409   0.739  0.4875  0.4465  0.8215
  172MPD1    C5 2623   0.390   3.283   0.753  0.1108  0.4671  0.3517
  172MPD1     H 2624   0.268   3.452   0.442 -1.4027  1.0835  0.7083
  172MPD1    H1 2625   0.484   3.468   0.817 -1.7354  1.6100  1.3026
  172MPD1    H2 2626   0.311   3.103   0.682  1.5036  0.5330 -0.9393
  172MPD1    H3 2627   0.424   3.223   0.837 -1.4322 -0.5095  0.2682
  172MPD1     N 2628   0.404   3.614   0.605 -0.4811  0.0332 -0.5179
  172MPD1    H5 2629   0.458   3.667   0.673  0.8329 -1.0379 -0.7227
  172MPD1    N1 2630   0.194   3.207   0.455  0.0044 -0.4281 -0.3999
  172MPD1    H6 2631   0.206   3.235   0.358 -0.2372  0.2439 -0.2321
  172MPD1    H7 2632   0.194   3.105   0.457  0.7541 -0.4172  0.0414
  173MPD1     C 2633   2.143   4.263  14.562 -0.2705  0.3831  0.2810
  173MPD1    C1 2634   2.019   4.300  14.594 -0.7742  0.5650  0.3119
  173MPD1    C2 2635   1.922   4.200  14.615  0.0908 -1.0742 -0.1695
  173MPD1    C3 2636   1.949   4.071  14.581 -0.1110 -0.2706  0.3712
  173MPD1    C4 2637   2.078   4.033  14.542 -0.1785 -0.0786  0.3524
  173MPD1    C5 2638   2.172   4.132  14.524 -0.2341  0.7800  0.1241
  173MPD1     H 2639   1.823   4.225  14.652  0.4975  0.2394  0.0340
  173MPD1    H1 2640   2.106   3.930  14.523  1.5137  0.7033 -1.3200
  173MPD1    H2 2641   2.224   4.333  14.544  0.7366 -0.8142  0.1582
  173MPD1    H3 2642   2.270   4.106  14.486  0.5938  4.0860  0.0158
  173MPD1     N 2643   1.842   3.980  14.592  0.6533 -0.1056 -0.3601
  173MPD1    H5 2644   1.753   4.015  14.625 -0.9115 -1.4349 -3.1691
  173MPD1    N1 2645   1.993   4.436  14.608  0.4882  0.1291 -0.6002
  173MPD1    H6 2646   1.952   4.463  14.697  1.1415  1.6382 -0.7696
  173MPD1    H7 2647   2.076   4.494  14.603  0.9941 -0.5581 -0.2182
  174MPD1     C 2648   1.567   3.088  14.111  0.2800  0.7348  0.3656
  174MPD1    C1 2649   1.544   3.070  14.246 -0.1430  0.9703  0.2671
  174MPD1    C2 2650   1.576   3.166  14.336 -0.0411  0.2892 -0.1426
  174MPD1    C3 2651   1.623   3.294  14.293  0.4446 -0.6784 -0.5137
  174MPD1    C4 2652   1.656   3.301  14.160 -0.5926  0.4859  0.1512
  174MPD1    C5 2653   1.625   3.201  14.068  0.3670 -0.0608  0.1514
  174MPD1     H 2654   1.561   3.148  14.442 -3.1920 -3.1938 -1.1694
  174MPD1    H1 2655   1.707   3.390  14.126  0.0791 -0.6843 -1.8750
  174MPD1    H2 2656   1.526   3.020  14.037  0.9913 -1.1562  1.6945
  174MPD1    H3 2657   1.653   3.219  13.965  0.2399  2.1238  0.5068
  174MPD1     N 2658   1.661   3.405  14.369 -0.6353 -0.2878 -0.8855
  174MPD1    H5 2659   1.687   3.489  14.319  0.5393 -0.4214 -0.5045
  174MPD1    N1 2660   1.480   2.959  14.288  0.0805 -0.2446  0.4703
  174MPD1    H6 2661   1.382   2.972  14.264  0.6379 -0.5299 -1.9979
  174MPD1    H7 2662   1.487   2.933  14.386 -1.2986  0.6120  0.7990
  175MPD1     C 2663   0.214   4.178  15.722  0.5401  0.3110 -0.1130
  175MPD1    C1 2664   0.345   4.155  15.763  0.2315 -0.0883  0.0229
  175MPD1    C2 2665   0.360   4.069  15.872 -0.0135  0.4394  0.8237
  175MPD1    C3 2666   0.254   4.009  15.935 -0.3549  0.3330  0.4572
  175MPD1    C4 2667   0.126   4.043  15.895  0.0080  0.1424 -0.2375
  175MPD1    C5 2668   0.107   4.126  15.792 -0.0758 -0.3749  0.5810
  175MPD1     H 2669   0.461   4.069  15.913 -0.4481  0.6020  1.9084
  175MPD1    H1 2670   0.034   4.015  15.944 -1.1802 -0.9825 -3.1561
  175MPD1    H2 2671   0.196   4.249  15.643  1.6956  3.1556  2.1500
  175MPD1    H3 2672   0.007   4.147  15.754  0.4173 -1.9544 -1.6075
  175MPD1     N 2673   0.258   3.923  16.045 -0.1800  0.7602  0.2870
  175MPD1    H5 2674   0.170   3.895  16.087  0.8459 -1.0332  1.2460
  175MPD1    N1 2675   0.448   4.242  15.718 -0.9923  0.6017  0.9200
  175MPD1    H6 2676   0.437   4.276  15.623  2.6546 -1.4908 -0.2396
  175MPD1    H7 2677   0.542   4.205  15.727 -0.9074  0.5166 -0.4145
  176MPD1     C 2678   1.938   1.037  16.849  0.6369  0.0772 -0.0179
  176MPD1    C1 2679   1.871   1.076  16.961 -0.6209 -0.3309  0.8082
  176MPD1    C2 2680   1.883   1.204  17.006  0.5718  0.2636  0.1684
  176MPD1    C3 2681   1.962   1.294  16.944  0.4925 -0.4556  0.5933
  176MPD1    C4 2682   2.038   1.246  16.840  0.8537  0.5533  0.2625
  176MPD1    C5 2683   2.021   1.121  16.784  1.2167  0.0194 -0.0551
  176MPD1     H 2684   1.840   1.242  17.098  0.6267  2.4144 -0.7000
  176MPD1    H1 2685   2.102   1.314  16.786  0.9639  0.9784  0.9222
  176MPD1    H2 2686   1.933   0.934  16.815 -2.2020 -0.1981  1.2307
  176MPD1    H3 2687   2.084   1.085  16.703  3.5013  2.8074  0.4666
  176MPD1     N 2688   1.963   1.428  16.990 -0.2923  0.8070  0.2340
  176MPD1    H5 2689   1.918   1.456  17.076 -1.2019  0.1127 -0.0158
  176MPD1    N1 2690   1.821   0.977  17.047  0.0352  0.3350 -0.5065
  176MPD1    H6 2691   1.742   1.021  17.095  0.3466  0.6803 -0.3153
  176MPD1    H7 2692   1.780   0.900  16.994 -0.0886  1.2985 -1.8187
  177MPD1     C 2693   0.426   0.800  10.109 -0.4072 -0.1101 -0.3492
  177MPD1    C1 2694   0.395   0.764   9.977  0.3169  0.2408 -0.6780
  177MPD1    C2 2695   0.357   0.862   9.886  0.4243 -0.0207  0.3693
  177MPD1    C3 2696   0.349   0.994   9.925 -0.1020 -0.0711  0.2737
  177MPD1    C4 2697   0.368   1.032  10.056  0.4217  0.6460 -0.4591
  177MPD1    C5 2698   0.403   0.929  10.142 -0.2785 -0.6983  0.2947
  177MPD1     H 2699   0.337   0.824   9.787 -3.3698  0.7031  0.8576
  177MPD1    H1 2700   0.350   1.134  10.088 -0.9320 -0.5328  2.6378
  177MPD1    H2 2701   0.469   0.731  10.180 -0.3891  0.1884 -0.0729
  177MPD1    H3 2702   0.423   0.955  10.246  0.2581  0.2275 -0.0326
  177MPD1     N 2703   0.323   1.081   9.815 -0.4063  0.8178 -0.0980
  177MPD1    H5 2704   0.309   1.046   9.720 -2.0316 -0.6213  0.6715
  177MPD1    N1 2705   0.434   0.636   9.933  0.0069 -0.1241  0.1881
  177MPD1    H6 2706   0.436   0.566  10.007  0.0021  0.8491  1.1179
  177MPD1    H7 2707   0.376   0.600   9.858 -0.7547  0.3419  0.5501
  178MPD1     C 2708   2.762   2.527   0.458  0.0935 -0.1068  0.2251
  178MPD1    C1 2709   2.652   2.561   0.377  0.1130  0.3645 -0.3924
  178MPD1    C2 2710   2.640   2.480   0.259  0.1140 -0.1307  0.1264
  178MPD1    C3 2711   2.730   2.388   0.222 -0.6164  0.4974  0.2557
  178MPD1    C4 2712   2.828   2.355   0.311  0.2352  0.0433  0.4392
  178MPD1    C5 2713   2.837   2.422   0.428 -0.3118  0.0533 -0.3112
  178MPD1     H 2714   2.558   2.497   0.191  0.9546 -3.3828 -1.7203
  178MPD1    H1 2715   2.900   2.276   0.297 -0.3546 -0.7331  1.7808
  178MPD1    H2 2716   2.773   2.589   0.546 -0.8044  1.0126 -0.4549
  178MPD1    H3 2717   2.913   2.397   0.501 -0.2991  1.0197  0.0075
  178MPD1     N 2718   2.722   2.321   0.097 -0.5679  0.1297 -0.1155
  178MPD1    H5 2719   2.807   2.271   0.072  0.3959  0.2798  2.8448
  178MPD1    N1 2720   2.548   2.652   0.420  0.2011  0.1182  0.3702
  178MPD1    H6 2721   2.498   2.678   0.335 -1.1212  0.4112  1.2548
  178MPD1    H7 2722   2.591   2.738   0.452  0.4530  1.0776 -2.4753
  179MPD1     C 2723   2.792   4.603  15.366  0.4127  0.2347 -0.5886
  179MPD1    C1 2724   2.762   4.704  15.283 -0.1371 -0.3262 -0.1058
  179MPD1    C2 2725   2.653   0.060  15.321  0.7468  0.1486  0.0989
  179MPD1    C3 2726   2.576   0.028  15.427  0.2394  0.0937  0.0934
  179MPD1    C4 2727   2.614   4.656  15.516 -0.3666 -0.2519  0.2544
  179MPD1    C5 2728   2.726   4.581  15.486  0.1339 -0.5364  0.0886
  179MPD1     H 2729   2.631   0.136  15.247 -2.0333 -0.6046  0.1696
  179MPD1    H1 2730   2.572   4.640  15.615  0.6000  1.2482  0.9112
  179MPD1    H2 2731   2.880   4.542  15.349 -0.1306 -0.9030  0.6227
  179MPD1    H3 2732   2.765   4.504  15.551 -1.6917 -1.1159  0.4987
  179MPD1     N 2733   2.461   0.105  15.465  0.7271  0.2813  0.7041
  179MPD1    H5 2734   2.403   0.056  15.532  1.0823 -2.0848 -0.7185
  179MPD1    N1 2735   2.814   4.700  15.153 -0.2477  0.1748  0.1074
  179MPD1    H6 2736   2.911   4.669  15.156 -0.6109 -0.8446  1.5262
  179MPD1    H7 2737   2.828   0.073  15.126 -0.1328  0.6606  1.9138
  180MPD1     C 2738   2.084   1.961  15.531 -0.1278 -0.6251 -0.2261
  180MPD1    C1 2739   2.156   2.035  15.434 -0.4469  0.1849  0.1025
  180MPD1    C2 2740   2.103   2.042  15.309  0.0227 -0.5132 -0.2767
  180MPD1    C3 2741   2.014   1.949  15.263 -0.3097  0.2512  0.1484
  180MPD1    C4 2742   1.966   1.855  15.345 -0.2858 -0.0991  0.2174
  180MPD1    C5 2743   1.989   1.878  15.480 -0.2726  0.1230  0.7995
  180MPD1     H 2744   2.139   2.125  15.249 -5.0514  0.3403 -2.1566
  180MPD1    H1 2745   1.890   1.781  15.329  0.4664 -0.7243 -0.4258
  180MPD1    H2 2746   2.107   1.957  15.637  0.7660 -0.2462 -0.4101
  180MPD1    H3 2747   1.946   1.807  15.550  1.2541  0.0222  1.6383
  180MPD1     N 2748   1.964   1.952  15.131  0.5035 -0.5907 -0.0128
  180MPD1    H5 2749   2.015   2.011  15.067  1.3999 -0.6297  0.6666
  180MPD1    N1 2750   2.243   2.121  15.489 -0.8813  0.1325  0.5538
  180MPD1    H6 2751   2.326   2.133  15.430  0.5049 -1.4067  2.1726
  180MPD1    H7 2752   2.290   2.086  15.572 -0.4411  1.5853  0.9183
  181MPD1     C 2753   3.497   2.978   9.794 -0.5629  0.4174 -0.6172
  181MPD1    C1 2754   3.553   3.092   9.850  0.2642 -0.0708 -0.6337
  181MPD1    C2 2755   3.676   3.134   9.783 -0.1912  0.0051 -0.2983
  181MPD1    C3 2756   3.735   3.060   9.684  0.5194 -0.3699  0.0729
  181MPD1    C4 2757   3.669   2.945   9.633  0.2601  0.4358  0.5985
  181MPD1    C5 2758   3.553   2.906   9.697  0.4233  0.4359  0.0366
  181MPD1     H 2759   3.722   3.222   9.826 -1.7585  0.0805  1.2454
  181MPD1    H1 2760   3.721   2.885   9.560 -0.0013 -0.4702  1.1591
  181MPD1    H2 2761   3.414   2.929   9.844  1.7930 -2.2067  0.7768
  181MPD1    H3 2762   3.499   2.819   9.662  0.2960 -0.0085  1.3242
  181MPD1     N 2763   3.865   3.096   9.635 -0.2093 -0.1910  0.6453
  181MPD1    H5 2764   3.896   3.045   9.552 -0.3486  1.4489 -0.4259
  181MPD1    N1 2765   3.476   3.176   9.937 -0.0362  0.0504  0.7485
  181MPD1    H6 2766   3.423   3.107   9.990  2.2087 -1.4466  1.0358
  181MPD1    H7 2767   3.552   3.217   9.991 -1.3378  1.4429  1.5402
  182MPD1     C 2768   4.689   3.591   2.102 -0.5345 -0.5685  0.4747
  182MPD1    C1 2769   0.022   3.511   2.006  0.2827  0.7093 -0.1385
  182MPD1    C2 2770   4.677   3.494   1.887 -0.2164  0.1896  0.9179
  182MPD1    C3 2771   4.553   3.548   1.862 -0.3381  0.1711  0.2053
  182MPD1    C4 2772   4.502   3.627   1.962  1.0475 -0.0327 -0.5744
  182MPD1    C5 2773   4.562   3.637   2.079  0.0467  0.1322 -0.3110
  182MPD1     H 2774   0.010   3.432   1.818 -0.4166 -0.1618  1.0670
  182MPD1    H1 2775   4.401   3.667   1.953  1.5502  1.6113  1.1570
  182MPD1    H2 2776   0.019   3.615   2.193 -0.5083 -0.6998  0.4947
  182MPD1    H3 2777   4.496   3.687   2.149 -0.0453 -0.0494 -0.2678
  182MPD1     N 2778   4.480   3.543   1.742  0.3031 -0.3241 -0.4615
  182MPD1    H5 2779   4.407   3.613   1.732 -0.2068 -0.7785  0.0388
  182MPD1    N1 2780   0.150   3.454   2.025  0.0092  0.3577 -0.1689
  182MPD1    H6 2781   0.173   3.416   2.117 -1.3706 -1.0107 -0.3754
  182MPD1    H7 2782   0.159   3.375   1.961  1.6936  0.7236 -0.3643
  183MPD1     C 2783   0.254   4.074   9.665 -0.2791  0.2935 -0.1566
  183MPD1    C1 2784   0.274   3.993   9.774  0.1408 -0.8662  0.1275
  183MPD1    C2 2785   0.279   3.861   9.741  0.1856 -0.2042  0.0912
  183MPD1    C3 2786   0.250   3.809   9.621  0.2848  0.6954  0.0986
  183MPD1    C4 2787   0.220   3.889   9.514  0.7560 -0.1586 -0.2278
  183MPD1    C5 2788   0.228   4.022   9.540 -1.1130 -0.1902  0.6177
  183MPD1     H 2789   0.315   3.787   9.812 -0.6232  1.1928  1.9735
  183MPD1    H1 2790   0.195   3.849   9.416 -0.5180 -0.1989  0.1135
  183MPD1    H2 2791   0.252   4.182   9.678  2.4291  0.4851 -1.2989
  183MPD1    H3 2792   0.216   4.083   9.452 -0.5910 -1.1553 -0.1176
  183MPD1     N 2793   0.250   3.671   9.605 -0.7648  0.0230  1.0536
  183MPD1    H5 2794   0.259   3.620   9.691  3.5652  2.0684  1.7811
  183MPD1    N1 2795   0.319   4.044   9.898  0.1375 -0.4587 -0.0406
  183MPD1    H6 2796   0.289   4.140   9.913 -2.2780 -1.0439 -1.1811
  183MPD1    H7 2797   0.276   3.985   9.969  1.5455  0.7912  1.8372
  184MPD1     C 2798   4.110   0.183  10.123 -0.8090  0.5940 -0.2675
  184MPD1    C1 2799   4.093   0.280  10.025 -0.9610  0.0288 -0.1087
  184MPD1    C2 2800   4.202   0.350   9.985 -0.0753  0.2098  0.1086
  184MPD1    C3 2801   4.336   0.326  10.032  0.1859  0.0344  0.3007
  184MPD1    C4 2802   4.345   0.232  10.131 -0.5029 -0.2328 -0.3656
  184MPD1    C5 2803   4.232   0.165  10.179 -0.3415 -0.0955  0.4080
  184MPD1     H 2804   4.184   0.430   9.914  3.3160  1.3604  0.5091
  184MPD1    H1 2805   4.443   0.219  10.175  0.3754 -0.2849 -2.3497
  184MPD1    H2 2806   4.031   0.135  10.179 -0.0631 -0.0099  0.2588
  184MPD1    H3 2807   4.235   0.099  10.265 -0.1187  1.8893  1.9054
  184MPD1     N 2808   4.449   0.403   9.989 -0.6962 -0.4285  0.0166
  184MPD1    H5 2809   4.539   0.370  10.023 -0.7163  2.7811  3.1716
  184MPD1    N1 2810   3.964   0.295   9.965  0.4131  0.3124  0.1347
  184MPD1    H6 2811   3.971   0.369   9.896  1.9043  1.0339  1.0635
  184MPD1    H7 2812   3.898   0.313  10.041 -0.0749  2.8130 -0.8760
  185MPD1     C 2813   0.388   0.014   9.579 -0.0817 -0.3258 -0.2707
  185MPD1    C1 2814   0.436   0.117   9.661 -0.8365  0.1781 -0.2993
  185MPD1    C2 2815   0.359   0.229   9.692 -0.8478  0.0974  1.1983
  185MPD1    C3 2816   0.224   0.227   9.659 -0.4455 -0.7471 -0.9645
  185MPD1    C4 2817   0.179   0.115   9.590  0.2736  0.0515  0.6005
  185MPD1    C5 2818   0.257   0.013   9.544 -0.1778  0.2341 -0.4961
  185MPD1     H 2819   0.398   0.297   9.766  2.1845 -0.8961  0.5132
  185MPD1    H1 2820   0.074   0.096   9.573  1.0404 -2.0138 -1.6249
  185MPD1    H2 2821   0.451   4.656   9.546  1.1744 -0.0286  1.3635
  185MPD1    H3 2822   0.214   4.666   9.474  0.4045  0.2016 -0.8185
  185MPD1     N 2823   0.128   0.315   9.720 -0.4059 -0.0392 -0.4339
  185MPD1    H5 2824   0.029   0.292   9.715 -0.8735  1.6877  1.1853
  185MPD1    N1 2825   0.571   0.124   9.693  0.0563  0.0239  0.1234
  185MPD1    H6 2826   0.625   0.039   9.679  2.5731  1.2211  2.5666
  185MPD1    H7 2827   0.586   0.170   9.783 -0.2716 -0.7603  0.5733
  186MPD1     C 2828   2.819   0.162  15.677  0.4334  0.2644  0.2630
  186MPD1    C1 2829   2.903   0.151  15.789 -0.6952  0.1226  0.4175
  186MPD1    C2 2830   2.886   0.247  15.889 -0.2012  0.1806 -0.0078
  186MPD1    C3 2831   2.789   0.342  15.877  0.1911 -0.6038  0.1598
  186MPD1    C4 2832   2.711   0.350  15.767  0.3560 -0.5476 -0.2786
  186MPD1    C5 2833   2.732   0.265  15.663  0.6101 -0.2054  0.3855
  186MPD1     H 2834   2.923   0.234  15.990 -0.3487  3.3657  0.4430
  186MPD1    H1 2835   2.645   0.435  15.751  0.4435 -0.0499  1.9584
  186MPD1    H2 2836   2.832   0.091  15.597 -0.1919 -0.0291  0.4200
  186MPD1    H3 2837   2.672   0.275  15.574 -0.6454 -2.6459  0.9648
  186MPD1     N 2838   2.765   0.443  15.973  0.5062  0.2256 -0.4364
  186MPD1    H5 2839   2.685   0.504  15.958 -0.1091 -0.3857  0.3812
  186MPD1    N1 2840   2.994   0.047  15.804 -0.0281 -0.3993  0.0143
  186MPD1    H6 2841   3.065   0.082  15.868  0.4167 -1.4785  0.1117
  186MPD1    H7 2842   3.036   0.014  15.717  0.7254  2.1637 -0.5970
  187MPD1     C 2843   0.857   3.732  17.210 -0.1873  0.3386 -0.0416
  187MPD1    C1 2844   0.812   3.609  17.241  0.2646 -0.2056 -0.5186
  187MPD1    C2 2845   0.903   3.506  17.251  0.0941  0.2849 -0.8356
  187MPD1    C3 2846   1.034   3.515  17.221  0.7837 -0.3492  0.0779
  187MPD1    C4 2847   1.080   3.641  17.181  0.7392  0.3564  0.1782
  187MPD1    C5 2848   0.993   3.744  17.179 -0.4566  0.3761  0.5808
  187MPD1     H 2849   0.860   3.409  17.276  0.4369  1.0172  2.6974
  187MPD1    H1 2850   1.181   3.665  17.148  0.7746 -2.3410 -1.7121
  187MPD1    H2 2851   0.799   3.823  17.205 -0.9433 -0.1480 -0.1590
  187MPD1    H3 2852   1.029   3.844  17.155  0.4476  0.7145  3.2629
  187MPD1     N 2853   1.134   3.414  17.233 -0.1347 -0.3227  0.3488
  187MPD1    H5 2854   1.227   3.437  17.199 -0.0844  0.8391  1.2737
  187MPD1    N1 2855   0.680   3.595  17.282 -0.5346 -0.1138  0.7125
  187MPD1    H6 2856   0.636   3.506  17.261  1.1983 -0.7766 -0.1877
  187MPD1    H7 2857   0.616   3.668  17.254  0.6795  0.3399 -0.9073
  188MPD1     C 2858   1.193   2.534  10.147 -0.1039  0.4893 -0.0922
  188MPD1    C1 2859   1.179   2.515  10.012  0.4191  0.6819 -0.1047
  188MPD1    C2 2860   1.205   2.386   9.963 -0.5250 -0.3662 -0.6786
  188MPD1    C3 2861   1.228   2.280  10.041 -0.1184 -0.0032 -0.3050
  188MPD1    C4 2862   1.242   2.307  10.172  0.3689 -0.3529 -0.6717
  188MPD1    C5 2863   1.233   2.430  10.221 -0.4525 -0.0001 -0.5796
  188MPD1     H 2864   1.201   2.374   9.855 -0.3832  3.5618 -1.1006
  188MPD1    H1 2865   1.268   2.224  10.236 -3.0168 -0.2101  0.8528
  188MPD1    H2 2866   1.195   2.627  10.202 -3.3426  1.1164 -1.0824
  188MPD1    H3 2867   1.238   2.465  10.323  0.5962  0.7436 -0.8806
  188MPD1     N 2868   1.260   2.147  10.003  0.4455 -0.0186  0.5855
  188MPD1    H5 2869   1.292   2.085  10.077  2.7127 -0.2556 -0.5699
  188MPD1    N1 2870   1.177   2.618   9.924 -0.4128 -0.3665  0.0318
  188MPD1    H6 2871   1.121   2.685   9.975  0.2750  0.5187 -0.3788
  188MPD1    H7 2872   1.127   2.602   9.837  0.0239 -1.4971 -0.0164
  189MPD1     C 2873   3.217   2.868   0.238  0.4909  0.3097  0.5482
  189MPD1    C1 2874   3.103   2.895   0.307 -1.0967  0.9975 -0.2145
  189MPD1    C2 2875   3.037   3.008   0.273  0.2587 -0.0078  1.0255
  189MPD1    C3 2876   3.084   3.100   0.177  0.2020 -0.4364  0.0383
  189MPD1    C4 2877   3.206   3.077   0.111 -0.0170  0.0345 -0.3331
  189MPD1    C5 2878   3.261   2.952   0.132  0.0511 -0.4813  0.7605
  189MPD1     H 2879   2.940   3.026   0.319  0.6678  2.2945  0.9925
  189MPD1    H1 2880   3.250   3.141   0.036  1.8190 -2.6303 -1.5229
  189MPD1    H2 2881   3.263   2.772   0.260  0.7636 -0.3222 -2.7447
  189MPD1    H3 2882   3.336   2.917   0.061  0.4879  2.5004 -0.2674
  189MPD1     N 2883   2.997   3.209   0.153  0.1783  0.3696 -0.5409
  189MPD1    H5 2884   2.911   3.206   0.207 -0.2023  0.0647 -1.1637
  189MPD1    N1 2885   3.040   2.800   0.390  0.3475  0.0457 -0.3517
  189MPD1    H6 2886   3.093   2.715   0.407  0.1072  0.1115  0.6994
  189MPD1    H7 2887   3.029   2.839   0.483  1.4915  0.2141 -0.2831
  190MPD1     C 2888   2.884   2.664  15.309  0.1870 -0.3799  0.5051
  190MPD1    C1 2889   2.954   2.562  15.255 -0.1788 -0.4669  0.0565
  190MPD1    C2 2890   2.940   2.432  15.318  0.1516 -0.3811  0.5586
  190MPD1    C3 2891   2.866   2.415  15.432  0.5213 -0.2236  0.4377
  190MPD1    C4 2892   2.797   2.520  15.484  0.2848  0.2000  0.3761
  190MPD1    C5 2893   2.807   2.647  15.422  0.4290  0.4467 -0.0784
  190MPD1     H 2894   2.987   2.344  15.276  1.8316 -0.4028  2.4750
  190MPD1    H1 2895   2.743   2.524  15.578  1.6791 -0.6608  1.2247
  190MPD1    H2 2896   2.891   2.766  15.271  0.1333 -0.6208 -0.1543
  190MPD1    H3 2897   2.758   2.732  15.469 -0.7625 -0.0128 -0.4892
  190MPD1     N 2898   2.867   2.286  15.489 -0.2801 -0.4075 -0.2155
  190MPD1    H5 2899   2.934   2.222  15.447 -0.9049 -0.2266 -1.5003
  190MPD1    N1 2900   3.034   2.573  15.140  0.1590  0.4782  0.1851
  190MPD1    H6 2901   3.107   2.503  15.140 -0.7966 -0.5290  0.3371
  190MPD1    H7 2902   3.075   2.665  15.129  1.4552 -0.3571 -1.8125
  191MPD1     C 2903   0.952   3.487  13.580  0.1645 -0.4640 -0.2788
  191MPD1    C1 2904   0.946   3.623  13.551 -0.6470 -0.3039 -0.1308
  191MPD1    C2 2905   0.983   3.668  13.424  0.2399 -0.2253 -0.1337
  191MPD1    C3 2906   1.037   3.582  13.333  0.7595  0.5721 -1.0210
  191MPD1    C4 2907   1.045   3.447  13.361  0.3147 -0.6095 -0.9036
  191MPD1    C5 2908   1.008   3.399  13.485 -0.4044  0.5512 -0.9261
  191MPD1     H 2909   0.970   3.768  13.384  0.2626  0.6962  2.1027
  191MPD1    H1 2910   1.070   3.373  13.286  0.2743 -1.3382 -0.1940
  191MPD1    H2 2911   0.920   3.457  13.679  1.9584  1.1350  0.7741
  191MPD1    H3 2912   1.010   3.293  13.510 -1.4533  0.8278  0.3087
  191MPD1     N 2913   1.081   3.643  13.207 -0.5663 -0.7347 -0.2214
  191MPD1    H5 2914   1.063   3.741  13.191  0.5127 -0.3592  0.8315
  191MPD1    N1 2915   0.885   3.706  13.648 -0.7847  0.1504 -0.4815
  191MPD1    H6 2916   0.783   3.702  13.639 -0.8644 -0.9987  0.8720
  191MPD1    H7 2917   0.904   3.669  13.741 -0.2721  0.4730 -0.4603
  192MPD1     C 2918   0.895   4.329  12.493 -0.6130 -0.1657  0.4423
  192MPD1    C1 2919   0.832   4.220  12.555 -0.2485  0.2898  0.2140
  192MPD1    C2 2920   0.903   4.118  12.623  1.3649 -0.1756  0.4073
  192MPD1    C3 2921   1.040   4.124  12.635  0.0622  0.2399  0.8165
  192MPD1    C4 2922   1.099   4.228  12.564  0.2305 -0.3456 -0.2552
  192MPD1    C5 2923   1.029   4.333  12.509  0.2259 -0.6592 -0.5070
  192MPD1     H 2924   0.847   4.034  12.662  0.2300  0.2538 -0.3009
  192MPD1    H1 2925   1.206   4.242  12.569  0.1749  0.1856 -0.4644
  192MPD1    H2 2926   0.842   4.407  12.439 -0.3325 -0.0715  0.3035
  192MPD1    H3 2927   1.084   4.414  12.463 -1.0900  0.2339 -0.5076
  192MPD1     N 2928   1.121   4.027  12.707 -0.2224 -0.5328  0.3004
  192MPD1    H5 2929   1.222   4.038  12.705 -0.5649  2.4387 -0.9795
  192MPD1    N1 2930   0.696   4.190  12.537 -0.3374 -0.2090 -0.2356
  192MPD1    H6 2931   0.665   4.115  12.600 -0.2384  1.1736  1.4692
  192MPD1    H7 2932   0.625   4.262  12.528  2.2029  1.9503 -2.6399
  193MPD1     C 2933   0.794   3.927  16.189 -0.2428  1.0512  0.7230
  193MPD1    C1 2934   0.782   4.062  16.184 -0.2601 -0.2376  0.5966
  193MPD1    C2 2935   0.873   4.138  16.251  0.0572 -0.2561 -0.6001
  193MPD1    C3 2936   0.984   4.083  16.313 -0.3147 -0.2370  0.1396
  193MPD1    C4 2937   1.000   3.947  16.308 -0.2386  0.0588  0.3563
  193MPD1    C5 2938   0.902   3.870  16.250 -0.4876  0.0934 -0.1170
  193MPD1     H 2939   0.860   4.246  16.249 -0.0111 -0.2090  3.3537
  193MPD1    H1 2940   1.085   3.905  16.361 -2.0641 -2.2606  1.4529
  193MPD1    H2 2941   0.720   3.859  16.150  1.0761  1.7328 -3.0059
  193MPD1    H3 2942   0.902   3.762  16.250 -0.6672  0.0921  1.9306
  193MPD1     N 2943   1.070   4.157  16.390 -0.9048 -0.0517 -0.0128
  193MPD1    H5 2944   1.128   4.104  16.454 -1.3710  1.6213  1.7833
  193MPD1    N1 2945   0.658   4.115  16.144  0.0332  0.0082 -0.5972
  193MPD1    H6 2946   0.666   4.208  16.103 -1.9354  1.2669  1.8922
  193MPD1    H7 2947   0.605   4.055  16.080  0.4133 -0.0238 -0.8814
  194MPD1     C 2948   3.706   1.262  16.567  0.0430 -0.2247 -0.1797
  194MPD1    C1 2949   3.798   1.233  16.466  0.6728 -0.4232  0.6335
  194MPD1    C2 2950   3.813   1.106  16.428  0.7217  0.0279 -0.5133
  194MPD1    C3 2951   3.739   1.008  16.484  0.7192  0.3512 -0.0458
  194MPD1    C4 2952   3.641   1.034  16.573 -0.9633 -0.3162 -0.8640
  194MPD1    C5 2953   3.628   1.165  16.615 -0.1859 -0.2653 -0.6016
  194MPD1     H 2954   3.883   1.079  16.350  0.6362 -0.2131 -0.5042
  194MPD1    H1 2955   3.584   0.953  16.619  0.1819 -2.0820 -2.5457
  194MPD1    H2 2956   3.697   1.358  16.616  0.7415 -0.9114  1.2730
  194MPD1    H3 2957   3.560   1.182  16.698 -0.1790 -0.4020 -0.5678
  194MPD1     N 2958   3.743   0.873  16.444 -0.2794  0.1350 -0.5233
  194MPD1    H5 2959   3.682   0.808  16.493 -0.7848  1.3969  0.5362
  194MPD1    N1 2960   3.883   1.339  16.432  0.7094  0.3620 -0.0173
  194MPD1    H6 2961   3.831   1.427  16.430  0.1162  0.0577  1.7074
  194MPD1    H7 2962   3.933   1.317  16.346  1.9243 -0.0230  0.7863
  195MPD1     C 2963   1.548   2.737   0.958  0.0032  0.0462 -0.9263
  195MPD1    C1 2964   1.557   2.594   0.960  0.5758  0.2947 -1.4647
  195MPD1    C2 2965   1.595   2.525   0.849 -0.2294 -0.1334  0.1311
  195MPD1    C3 2966   1.650   2.596   0.739 -0.4061 -0.1052  0.0606
  195MPD1    C4 2967   1.648   2.734   0.743 -0.4734  0.2255  0.2156
  195MPD1    C5 2968   1.591   2.806   0.851 -0.2118 -0.1162  0.2176
  195MPD1     H 2969   1.605   2.417   0.855 -2.4933 -0.4892 -2.3321
  195MPD1    H1 2970   1.675   2.798   0.660  2.1785  0.6363  1.3830
  195MPD1    H2 2971   1.520   2.798   1.043  0.1847 -1.4741  0.2311
  195MPD1    H3 2972   1.569   2.911   0.842  1.1570  0.1291 -0.2014
  195MPD1     N 2973   1.690   2.525   0.623  0.2137  0.4880  0.3528
  195MPD1    H5 2974   1.719   2.585   0.546 -1.1347  2.0500  1.0755
  195MPD1    N1 2975   1.511   2.524   1.066 -0.2181 -0.5869  0.5615
  195MPD1    H6 2976   1.507   2.591   1.142 -0.8226 -0.0789  0.0804
  195MPD1    H7 2977   1.572   2.443   1.075  0.0279 -0.2495  1.9292
  196MPD1     C 2978   0.816   2.838   0.480  0.3541  0.2665 -0.2990
  196MPD1    C1 2979   0.730   2.941   0.503 -0.3136  0.5539  0.1191
  196MPD1    C2 2980   0.711   2.974   0.635  0.2120  0.5788  0.4227
  196MPD1    C3 2981   0.781   2.911   0.741 -0.1410 -0.8274 -0.8015
  196MPD1    C4 2982   0.865   2.808   0.714  0.0252 -0.4365  0.1985
  196MPD1    C5 2983   0.885   2.781   0.586  0.0081 -0.3614 -0.5101
  196MPD1     H 2984   0.631   3.042   0.664 -0.6520  0.0787 -0.7708
  196MPD1    H1 2985   0.931   2.756   0.783  1.4393  1.0250 -0.0467
  196MPD1    H2 2986   0.841   2.803   0.381 -1.8289 -0.6390 -0.5326
  196MPD1    H3 2987   0.963   2.710   0.561  1.8766  0.3663  3.1676
  196MPD1     N 2988   0.787   2.956   0.876 -0.1337 -0.9030 -0.5479
  196MPD1    H5 2989   0.839   2.896   0.940  1.0320 -0.5517 -1.1524
  196MPD1    N1 2990   0.649   2.979   0.399 -0.0057 -0.1619 -0.2124
  196MPD1    H6 2991   0.698   2.972   0.310  1.9601  3.0926  0.6094
  196MPD1    H7 2992   0.620   3.077   0.390 -0.6338 -0.1689  1.8715
  197MPD1     C 2993   4.562   0.017  17.639 -0.2796 -0.2791  0.6247
  197MPD1    C1 2994   4.612   0.146  17.626 -0.2463 -0.9161  0.0713
  197MPD1    C2 2995   0.010   0.161  17.557  0.2572 -0.5700  0.0535
  197MPD1    C3 2996   0.067   0.058  17.489 -0.2186 -0.1416  0.4188
  197MPD1    C4 2997   0.009   4.658  17.504 -0.2216  0.2345  0.4536
  197MPD1    C5 2998   4.621   4.634  17.576 -0.5804  0.1283 -0.8116
  197MPD1     H 2999   0.057   0.259  17.560  2.3909 -1.5418 -1.8797
  197MPD1    H1 3000   0.043   4.568  17.454  1.2955  1.8795 -1.4847
  197MPD1    H2 3001   4.470   0.002  17.695 -1.0221  1.9021 -0.0397
  197MPD1    H3 3002   4.584   4.532  17.580 -0.6882  0.2213  0.7309
  197MPD1     N 3003   0.175   0.066  17.404  0.3819 -0.1218 -0.8319
  197MPD1    H5 3004   0.222   4.707  17.367 -0.0733 -0.7949  0.0894
  197MPD1    N1 3005   4.562   0.250   0.008  0.1255 -0.0459 -0.5265
  197MPD1    H6 3006   4.575   0.347  17.678  2.0460 -0.1439  0.0584
  197MPD1    H7 3007   4.467   0.237   0.044  0.7634 -2.8813  0.1333
  198MPD1     C 3008   1.582   3.141  15.582 -0.2161 -0.2890  0.6754
  198MPD1    C1 3009   1.680   3.082  15.509 -0.2577 -0.7528 -0.4092
  198MPD1    C2 3010   1.811   3.110  15.546 -0.1013 -0.8225  0.5439
  198MPD1    C3 3011   1.839   3.214  15.633 -0.3910 -0.0206  0.2421
  198MPD1    C4 3012   1.735   3.276  15.706 -0.6102 -0.2060  1.5501
  198MPD1    C5 3013   1.607   3.231  15.685  0.4618  0.9043  0.1301
  198MPD1     H 3014   1.885   3.066  15.480 -0.2105 -0.6618  0.3144
  198MPD1    H1 3015   1.754   3.341  15.790  1.1508  0.1417  0.8923
  198MPD1    H2 3016   1.481   3.103  15.568 -0.6549  1.3424 -0.5601
  198MPD1    H3 3017   1.527   3.274  15.744 -0.7097 -0.5253 -0.4221
  198MPD1     N 3018   1.968   3.240  15.672  0.4256  0.3001  0.0733
  198MPD1    H5 3019   1.980   3.309  15.746  1.5234  0.3874 -0.1896
  198MPD1    N1 3020   1.650   2.968  15.422  0.5046  0.0056 -0.6432
  198MPD1    H6 3021   1.727   2.973  15.355 -1.3286 -1.4823 -2.8460
  198MPD1    H7 3022   1.560   2.971  15.376 -0.5729 -0.2420  1.4343
  199MPD1     C 3023   4.203   3.274   8.755  0.1605  0.3466  0.8434
  199MPD1    C1 3024   4.253   3.313   8.878 -0.2644 -0.5110 -0.7675
  199MPD1    C2 3025   4.165   3.323   8.984 -0.0568  0.4488  0.3819
  199MPD1    C3 3026   4.032   3.288   8.973  0.0466  0.7735 -0.2195
  199MPD1    C4 3027   3.983   3.259   8.846  0.1634 -0.7336  0.5341
  199MPD1    C5 3028   4.068   3.259   8.739 -0.1576  0.6545 -0.3172
  199MPD1     H 3029   4.204   3.359   9.079 -0.8002 -1.0661  1.2667
  199MPD1    H1 3030   3.878   3.236   8.832  0.2660 -0.7469 -0.2357
  199MPD1    H2 3031   4.261   3.280   8.663 -0.7208 -0.7532  0.2184
  199MPD1    H3 3032   4.030   3.240   8.639  0.9441 -0.5147 -0.5105
  199MPD1     N 3033   3.935   3.282   9.080 -0.5391  0.3223 -0.0734
  199MPD1    H5 3034   3.842   3.259   9.047 -0.6842 -0.2291  0.7296
  199MPD1    N1 3035   4.384   3.358   8.887  0.5220 -0.4671  0.2698
  199MPD1    H6 3036   4.440   3.325   8.809 -1.3141 -1.0310 -0.8284
  199MPD1    H7 3037   4.434   3.353   8.975 -0.0213 -1.2012  0.5411
  200MPD1     C 3038   3.010   4.162  15.178  0.7709  0.2499 -0.4960
  200MPD1    C1 3039   2.981   4.079  15.074  0.2263  0.1914 -0.9146
  200MPD1    C2 3040   3.083   4.051  14.983  0.1118  0.7152 -0.2951
  200MPD1    C3 3041   3.200   4.128  14.977  0.3056  0.4537 -0.0607
  200MPD1    C4 3042   3.215   4.227  15.069 -0.3915  0.1511 -0.4475
  200MPD1    C5 3043   3.122   4.232  15.177 -0.0104 -0.8261  1.1477
  200MPD1     H 3044   3.074   3.979  14.902 -0.8656 -0.4530  0.8554
  200MPD1    H1 3045   3.298   4.297  15.069 -1.4824  1.4441 -0.4305
  200MPD1    H2 3046   2.940   4.169  15.260  1.4689 -4.7671  0.5285
  200MPD1    H3 3047   3.141   4.305  15.255 -0.9446  0.3636  0.2539
  200MPD1     N 3048   3.291   4.102  14.874 -0.4740  0.6622 -1.0545
  200MPD1    H5 3049   3.272   4.026  14.809 -1.1478  0.7388 -0.9410
  200MPD1    N1 3050   2.867   4.000  15.077  0.3117  0.6252  0.4071
  200MPD1    H6 3051   2.856   3.964  14.983  0.5188  0.6993  0.3547
  200MPD1    H7 3052   2.790   4.058  15.112 -1.2963 -0.9977 -0.4806
  201MPD1     C 3053   0.376   3.324  12.853 -0.2933 -0.2832  0.1494
  201MPD1    C1 3054   0.307   3.210  12.849 -0.0880 -0.3533  0.2292
  201MPD1    C2 3055   0.375   3.094  12.892  0.4208 -0.2254 -0.0092
  201MPD1    C3 3056   0.516   3.099  12.906 -0.0309  0.6588  0.4853
  201MPD1    C4 3057   0.585   3.215  12.888 -0.3857  0.3872  0.3724
  201MPD1    C5 3058   0.514   3.330  12.866 -0.1429  1.0087 -0.2151
  201MPD1     H 3059   0.333   2.998  12.917 -2.1518  1.2519  1.2594
  201MPD1    H1 3060   0.690   3.224  12.912 -0.2982  1.9932 -0.6601
  201MPD1    H2 3061   0.325   3.419  12.841 -0.7877 -0.9037 -2.6609
  201MPD1    H3 3062   0.566   3.425  12.864  0.8520  0.4745  0.0657
  201MPD1     N 3063   0.586   2.972  12.924  0.3380  0.2775 -0.3717
  201MPD1    H5 3064   0.527   2.889  12.922 -0.9372  1.2137 -1.1025
  201MPD1    N1 3065   0.170   3.215  12.825  0.5431 -0.5240  0.1236
  201MPD1    H6 3066   0.133   3.125  12.795  1.8858 -1.2000  0.5039
  201MPD1    H7 3067   0.145   3.282  12.753 -0.6217 -1.2386 -0.1287
  202MPD1     C 3068   0.589   1.994   9.041 -0.1141  0.3679  0.6019
  202MPD1    C1 3069   0.529   2.113   9.063  0.4993 -0.5618  1.3155
  202MPD1    C2 3070   0.573   2.175   9.174 -0.7050  0.0419 -0.6209
  202MPD1    C3 3071   0.639   2.098   9.275  0.2063  0.1773  0.4237
  202MPD1    C4 3072   0.663   1.963   9.258 -0.1775  0.0827 -1.1143
  202MPD1    C5 3073   0.637   1.907   9.138  0.8519 -0.3259 -0.1518
  202MPD1     H 3074   0.540   2.277   9.191  1.1541  0.1595  2.3551
  202MPD1    H1 3075   0.708   1.907   9.338  0.7529 -0.4559 -2.0169
  202MPD1    H2 3076   0.594   1.950   8.942 -1.2601 -0.6993  1.0283
  202MPD1    H3 3077   0.668   1.806   9.109  1.4739 -0.0045 -0.6233
  202MPD1     N 3078   0.671   2.145   9.406 -0.5089  0.0227  0.1513
  202MPD1    H5 3079   0.717   2.075   9.463 -1.5740 -0.5146  0.3541
  202MPD1    N1 3080   0.497   2.188   8.953 -0.2473  0.4084 -0.1215
  202MPD1    H6 3081   0.455   2.140   8.873  1.2092  0.7023 -1.0472
  202MPD1    H7 3082   0.433   2.263   8.978  1.1006  1.0595  1.3647
  203MPD1     C 3083   4.108   4.131  12.612 -0.3251 -0.6438  0.5305
  203MPD1    C1 3084   4.069   4.053  12.508 -0.3925 -0.5167 -0.2774
  203MPD1    C2 3085   4.050   3.919  12.534  0.1677  0.8170  0.1203
  203MPD1    C3 3086   4.118   3.858  12.638 -0.1107 -0.2272 -0.0913
  203MPD1    C4 3087   4.180   3.941  12.730  0.1544 -0.9004  0.5815
  203MPD1    C5 3088   4.158   4.076  12.729 -0.4649 -0.1114  0.4050
  203MPD1     H 3089   4.009   3.853  12.459  2.2266  0.5356 -0.7763
  203MPD1    H1 3090   4.226   3.893  12.816  0.3456  0.3819  1.1911
  203MPD1    H2 3091   4.116   4.238  12.601  2.4398 -0.6800  2.2806
  203MPD1    H3 3092   4.187   4.131  12.818  0.8792 -1.7044  0.9578
  203MPD1     N 3093   4.111   3.719  12.655  0.4232  0.6491  0.5968
  203MPD1    H5 3094   4.046   3.667  12.598  1.3104  0.2093 -0.0162
  203MPD1    N1 3095   4.012   4.110  12.394 -0.0739 -0.1950 -0.4244
  203MPD1    H6 3096   4.056   4.199  12.369  1.0712 -1.1795 -1.9130
  203MPD1    H7 3097   4.024   4.048  12.314 -0.0841  0.3480 -0.8512
  204MPD1     C 3098   3.107   0.051  17.536 -0.2976 -0.0436  0.2796
  204MPD1    C1 3099   3.131   4.654  17.599 -0.2500 -0.7697  0.0110
  204MPD1    C2 3100   3.205   4.562  17.528 -0.2129  0.4365  0.3008
  204MPD1    C3 3101   3.272   4.592  17.410  0.7249  0.2829 -0.0183
  204MPD1    C4 3102   3.250   4.717  17.352 -0.7079 -0.0814 -0.3145
  204MPD1    C5 3103   3.163   0.074  17.416 -0.7254  0.2417 -0.3851
  204MPD1     H 3104   3.212   4.461  17.568  0.1384 -0.2475 -1.4652
  204MPD1    H1 3105   3.295   0.027  17.260  2.4292  0.6196  1.4836
  204MPD1    H2 3106   3.039   0.123  17.579  0.3453  0.5468  0.3060
  204MPD1    H3 3107   3.130   0.167  17.372  3.1711  1.2620 -1.1968
  204MPD1     N 3108   3.361   4.497  17.364  0.4814 -0.2942 -0.4751
  204MPD1    H5 3109   3.360   4.406  17.411  1.4229 -0.9325 -1.6984
  204MPD1    N1 3110   3.065   4.606   0.014  0.0851  0.7486 -0.5814
  204MPD1    H6 3111   3.103   4.526   0.065 -1.8669  0.7433  0.8607
  204MPD1    H7 3112   3.010   4.669   0.073 -0.1497 -0.9312  1.0111
  205MPD1     C 3113   4.215   2.848  17.042  0.1901  0.6949  0.1365
  205MPD1    C1 3114   4.123   2.932  16.989 -0.0315  0.2739  0.7709
  205MPD1    C2 3115   4.035   3.004  17.071  0.3831  0.4108 -1.2090
  205MPD1    C3 3116   4.047   2.989  17.204  0.2438  0.4277  1.1859
  205MPD1    C4 3117   4.125   2.890  17.256 -0.1618 -0.0452 -0.2965
  205MPD1    C5 3118   4.209   2.815  17.177  0.0645  0.1546  0.2501
  205MPD1     H 3119   3.948   3.058  17.034 -0.8092 -0.5872  0.1403
  205MPD1    H1 3120   4.132   2.859  17.360 -0.3673 -2.0802 -0.8859
  205MPD1    H2 3121   4.282   2.797  16.975 -0.2936 -0.0867  0.2429
  205MPD1    H3 3122   4.268   2.735  17.221 -0.7575 -1.0430 -0.7867
  205MPD1     N 3123   3.980   3.075  17.304  0.0004 -0.3399 -0.1200
  205MPD1    H5 3124   3.964   3.038  17.398  2.0460  0.0828  0.3986
  205MPD1    N1 3125   4.116   2.948  16.852 -0.3777 -0.3636  0.2741
  205MPD1    H6 3126   4.020   2.958  16.820  0.4101  2.8253 -1.0964
  205MPD1    H7 3127   4.134   2.858  16.808 -0.9323 -0.4344  0.1873
  206MPD1     C 3128   4.278   0.722  16.759  0.0801  0.0959  0.6265
  206MPD1    C1 3129   4.378   0.705  16.660 -0.6364  0.3610  0.3528
  206MPD1    C2 3130   4.348   0.722  16.530 -0.5948 -0.6849 -0.4919
  206MPD1    C3 3131   4.222   0.766  16.489  0.1481  0.6808 -0.2637
  206MPD1    C4 3132   4.129   0.777  16.590 -0.0904  0.0051  0.6647
  206MPD1    C5 3133   4.152   0.745  16.722 -0.1049 -0.1566 -0.1997
  206MPD1     H 3134   4.426   0.716  16.454  0.1299  0.8729  0.1326
  206MPD1    H1 3135   4.029   0.814  16.570 -0.1658 -0.0437  0.9591
  206MPD1    H2 3136   4.302   0.703  16.864  0.3245 -0.5384  0.4614
  206MPD1    H3 3137   4.072   0.749  16.795 -1.8430  0.1838 -2.1214
  206MPD1     N 3138   4.189   0.798  16.354  0.1210  0.1830  0.5176
  206MPD1    H5 3139   4.095   0.829  16.331  0.1493 -0.4148 -0.3994
  206MPD1    N1 3140   4.517   0.695  16.693  0.6973 -0.6153  0.0353
  206MPD1    H6 3141   4.575   0.658  16.618  1.0019  0.5171 -0.2956
  206MPD1    H7 3142   4.538   0.651  16.783 -0.1845  1.0777  1.0651
  207MPD1     C 3143   1.803   4.247  10.024  0.0708 -0.5614  0.1697
  207MPD1    C1 3144   1.704   4.188  10.096  0.0114 -0.0431  0.1527
  207MPD1    C2 3145   1.735   4.132  10.219 -0.1754 -0.2335  0.7348
  207MPD1    C3 3146   1.869   4.141  10.259  0.1079  0.6924 -0.2829
  207MPD1    C4 3147   1.967   4.211  10.189  0.0179  0.3446 -0.7772
  207MPD1    C5 3148   1.930   4.264  10.064 -0.1262 -0.1633  0.4436
  207MPD1     H 3149   1.657   4.090  10.281  0.4668  0.2164  1.8512
  207MPD1    H1 3150   2.067   4.221  10.230 -1.1145  0.3051  2.0027
  207MPD1    H2 3151   1.783   4.291   9.927  5.1513  0.6001 -0.3642
  207MPD1    H3 3152   1.996   4.303   9.988 -2.8230 -0.8089 -2.2488
  207MPD1     N 3153   1.916   4.076  10.379 -0.6924  0.7591  0.5445
  207MPD1    H5 3154   2.015   4.091  10.394 -0.5942  0.6887 -0.0017
  207MPD1    N1 3155   1.574   4.174  10.043  0.4868 -0.5185 -0.7983
  207MPD1    H6 3156   1.547   4.255   9.987  2.0377 -0.4303 -1.4229
  207MPD1    H7 3157   1.502   4.151  10.111 -0.8492  1.1917 -1.6291
  208MPD1     C 3158   4.712   2.864  17.673 -0.4518  0.2649 -0.4314
  208MPD1    C1 3159   4.578   2.883  17.640  0.7634 -0.4500 -0.1006
  208MPD1    C2 3160   4.494   2.889   0.053  0.4015 -0.3226  0.3793
  208MPD1    C3 3161   4.538   2.869   0.184  0.3298 -0.7522 -0.6361
  208MPD1    C4 3162   4.671   2.863   0.207  0.5615 -0.5089  0.7567
  208MPD1    C5 3163   0.037   2.853   0.099 -0.6176 -0.8418  0.0942
  208MPD1     H 3164   4.389   2.901   0.033  1.2074  0.4690 -3.2796
  208MPD1    H1 3165   4.696   2.826   0.305 -1.0032 -1.3761  0.8277
  208MPD1    H2 3166   0.064   2.838  17.601  1.5982  1.1440  1.3904
  208MPD1    H3 3167   0.138   2.823   0.125  0.9068  3.8545 -0.4921
  208MPD1     N 3168   4.442   2.868   0.286  0.1427  0.1277 -0.2271
  208MPD1    H5 3169   4.347   2.873   0.250  0.4818  1.7876 -0.9079
  208MPD1    N1 3170   4.528   2.856  17.510  0.2984 -0.6180 -0.5198
  208MPD1    H6 3171   4.597   2.877  17.439  0.7615 -0.7107 -0.1019
  208MPD1    H7 3172   4.436   2.898  17.496 -1.0168 -3.2825  0.0036
  209MPD1     C 3173   1.659   2.596  11.283 -0.6260 -0.3044 -0.2260
  209MPD1    C1 3174   1.690   2.684  11.184  1.2386 -0.1840 -0.0743
  209MPD1    C2 3175   1.698   2.817  11.219  0.4998  0.5269 -0.4204
  209MPD1    C3 3176   1.677   2.854  11.353  0.2259  0.5533  0.1589
  209MPD1    C4 3177   1.666   2.756  11.454 -0.4866  0.0713 -0.9313
  209MPD1    C5 3178   1.655   2.625  11.415 -0.4881  0.4995 -0.1259
  209MPD1     H 3179   1.724   2.887  11.141 -2.8181  1.5633 -0.5843
  209MPD1    H1 3180   1.651   2.766  11.561  1.7121  0.2473 -0.6377
  209MPD1    H2 3181   1.637   2.492  11.264  0.3079 -0.6416  0.4794
  209MPD1    H3 3182   1.633   2.553  11.493 -0.7188 -0.6508 -1.2524
  209MPD1     N 3183   1.670   2.994  11.380  0.0804 -0.8479 -0.6450
  209MPD1    H5 3184   1.699   3.052  11.301 -2.0644  0.1054 -0.7128
  209MPD1    N1 3185   1.695   2.645  11.049  0.0621 -0.8348 -0.6692
  209MPD1    H6 3186   1.716   2.545  11.043  0.3009 -0.7009 -1.9708
  209MPD1    H7 3187   1.757   2.699  10.990 -1.4966  1.0095 -0.6373
  210MPD1     C 3188   1.789   3.562  12.217 -0.1672 -0.6519 -0.1256
  210MPD1    C1 3189   1.847   3.631  12.110  0.2789  0.0811 -0.6740
  210MPD1    C2 3190   1.830   3.589  11.984 -0.4512 -0.3913  1.4250
  210MPD1    C3 3191   1.764   3.468  11.959  0.0734 -1.0164  0.2306
  210MPD1    C4 3192   1.716   3.390  12.063  0.8279  0.5558 -0.2684
  210MPD1    C5 3193   1.725   3.438  12.199 -0.2918  0.3650  0.3766
  210MPD1     H 3194   1.875   3.646  11.904 -1.6219 -0.7025  0.5394
  210MPD1    H1 3195   1.671   3.292  12.055  1.6462  0.1582  0.0272
  210MPD1    H2 3196   1.794   3.576  12.324  1.7160 -0.4395 -0.2373
  210MPD1    H3 3197   1.670   3.380  12.272 -0.4482 -1.1673 -0.9550
  210MPD1     N 3198   1.750   3.408  11.829 -0.1653  0.5764 -0.2493
  210MPD1    H5 3199   1.708   3.316  11.832  0.6930  0.1998  0.0694
  210MPD1    N1 3200   1.897   3.758  12.126  0.2049 -0.1178 -0.1519
  210MPD1    H6 3201   1.976   3.779  12.066 -0.3825  0.9249 -0.5631
  210MPD1    H7 3202   1.932   3.770  12.221 -0.6080 -0.5304  0.1964
  211MPD1     C 3203   4.674   2.781  16.634  0.3362 -0.5783 -0.2412
  211MPD1    C1 3204   4.573   2.797  16.725 -0.4193  0.0506 -0.0276
  211MPD1    C2 3205   4.452   2.845  16.690 -0.1196 -0.5227  0.4892
  211MPD1    C3 3206   4.425   2.893  16.563 -0.8777  0.6350 -0.0873
  211MPD1    C4 3207   4.532   2.898  16.471 -0.7225 -0.3478 -0.5483
  211MPD1    C5 3208   4.655   2.837  16.504  0.6805 -0.5978 -0.4134
  211MPD1     H 3209   4.377   2.862  16.766  0.3634 -1.1569  1.1137
  211MPD1    H1 3210   4.527   2.949  16.376 -1.1449  1.2219  0.3159
  211MPD1    H2 3211   0.041   2.731  16.664  1.0496  1.4953  1.0609
  211MPD1    H3 3212   0.005   2.837  16.425  0.2207 -0.2512 -0.8505
  211MPD1     N 3213   4.295   2.949  16.546 -0.1342  0.4494  0.2131
  211MPD1    H5 3214   4.234   2.958  16.626 -0.6465  0.3117 -0.1600
  211MPD1    N1 3215   4.589   2.740  16.849 -0.7282  0.1372  0.5455
  211MPD1    H6 3216   4.503   2.760  16.900 -2.0857 -1.6964 -1.0042
  211MPD1    H7 3217   4.597   2.639  16.842  1.1811  0.2450  1.2087
  212MPD1     C 3218   3.833   0.999  16.893  0.0716  0.0813  0.6058
  212MPD1    C1 3219   3.742   1.085  16.959 -0.6113 -0.6421 -0.3718
  212MPD1    C2 3220   3.621   1.036  17.001  0.3614 -0.4078  0.8040
  212MPD1    C3 3221   3.580   0.908  16.953 -1.1634  0.1755 -0.4638
  212MPD1    C4 3222   3.668   0.828  16.885 -0.6585  0.1723 -0.4781
  212MPD1    C5 3223   3.789   0.878  16.843 -0.2081 -0.1432 -0.1913
  212MPD1     H 3224   3.542   1.093  17.048 -0.3592  1.0901 -2.2035
  212MPD1    H1 3225   3.641   0.727  16.856 -0.6324  0.4614 -1.5018
  212MPD1    H2 3226   3.938   1.018  16.875 -0.4275  1.2081 -1.1778
  212MPD1    H3 3227   3.853   0.821  16.777 -1.7560 -2.2233  0.1239
  212MPD1     N 3228   3.451   0.850  16.990  0.1981  0.2889 -0.1808
  212MPD1    H5 3229   3.427   0.757  16.957  1.6491 -1.5662  4.1115
  212MPD1    N1 3230   3.781   1.211  16.998  0.5567 -0.2354  0.1094
  212MPD1    H6 3231   3.852   1.263  16.948  1.0120 -1.5973 -0.6600
  212MPD1    H7 3232   3.702   1.275  17.003  0.7728  0.1348 -1.4073
  213MPD1     C 3233   1.167   2.909  16.517 -0.0117  0.3647 -0.2622
  213MPD1    C1 3234   1.033   2.899  16.502 -0.3371  0.1052 -0.0816
  213MPD1    C2 3235   1.000   2.846  16.381 -0.3857 -0.1717 -0.6043
  213MPD1    C3 3236   1.084   2.825  16.276  0.5593 -0.1870  0.3529
  213MPD1    C4 3237   1.219   2.849  16.298 -0.7023 -0.1649  0.1925
  213MPD1    C5 3238   1.255   2.895  16.416 -0.6767  0.8659 -0.5028
  213MPD1     H 3239   0.897   2.811  16.378  0.1034 -1.5983 -0.8772
  213MPD1    H1 3240   1.294   2.854  16.221  0.1038  0.4470  1.0177
  213MPD1    H2 3241   1.202   2.955  16.609 -0.7457 -0.7873  0.5906
  213MPD1    H3 3242   1.355   2.935  16.432 -0.6571  0.1310  1.2303
  213MPD1     N 3243   1.039   2.770  16.149  0.2196  0.0841  0.0602
  213MPD1    H5 3244   0.947   2.727  16.143  0.5683 -0.7119  0.5087
  213MPD1    N1 3245   0.951   2.852  16.607  0.0614  0.0568  0.3796
  213MPD1    H6 3246   0.851   2.861  16.588  0.1453  2.1385  0.9131
  213MPD1    H7 3247   0.978   2.901  16.692  0.7091  0.6280 -0.1548
  214MPD1     C 3248   0.500   2.041  15.776 -0.0437  0.4033 -0.6646
  214MPD1    C1 3249   0.469   2.154  15.847  0.6946  1.5350 -0.4660
  214MPD1    C2 3250   0.567   2.252  15.856  0.2324 -0.0902 -0.0526
  214MPD1    C3 3251   0.696   2.241  15.793 -0.6538  0.9865  0.3978
  214MPD1    C4 3252   0.716   2.125  15.714 -0.2252  0.0770 -0.1114
  214MPD1    C5 3253   0.615   2.029  15.704 -0.1138  0.2234 -0.1727
  214MPD1     H 3254   0.554   2.339  15.920  1.6334 -0.3691  0.6057
  214MPD1    H1 3255   0.808   2.116  15.658  1.5318 -0.4410  2.8266
  214MPD1    H2 3256   0.431   1.962  15.750  0.8570 -0.5510 -0.1789
  214MPD1    H3 3257   0.638   1.947  15.638  0.6021 -0.3722  0.8164
  214MPD1     N 3258   0.794   2.337  15.799 -0.1498  0.3239  0.5562
  214MPD1    H5 3259   0.874   2.327  15.736 -0.2534  1.0086  0.3166
  214MPD1    N1 3260   0.354   2.170  15.927 -0.2538  0.0668  0.3052
  214MPD1    H6 3261   0.325   2.268  15.936 -0.6046  0.0465 -0.6074
  214MPD1    H7 3262   0.278   2.116  15.886 -0.7447  0.0020  1.3121
  215MPD1     C 3263   0.377   3.174  11.269 -0.1022  0.0792 -0.3692
  215MPD1    C1 3264   0.392   3.256  11.373 -0.7557 -0.1412 -0.2456
  215MPD1    C2 3265   0.496   3.349  11.364  0.3917  0.1885  0.1624
  215MPD1    C3 3266   0.602   3.333  11.278  0.0789  0.2746  0.1051
  215MPD1    C4 3267   0.593   3.234  11.183 -0.5014  0.1646 -0.6171
  215MPD1    C5 3268   0.478   3.167  11.177 -0.1944 -0.0327  0.8155
  215MPD1     H 3269   0.504   3.423  11.443  0.0770 -1.0028  1.3081
  215MPD1    H1 3270   0.670   3.221  11.108 -1.4385  1.2310 -1.7711
  215MPD1    H2 3271   0.284   3.118  11.270  0.7738 -1.3653 -0.4812
  215MPD1    H3 3272   0.467   3.096  11.095 -0.5408  1.8412 -0.7605
  215MPD1     N 3273   0.717   3.416  11.284  0.5187 -0.0255  0.2031
  215MPD1    H5 3274   0.734   3.475  11.365  1.5557  2.5150 -1.8485
  215MPD1    N1 3275   0.294   3.274  11.466 -0.2227  0.0926  0.0279
  215MPD1    H6 3276   0.338   3.310  11.550  0.9744  2.8768 -1.7890
  215MPD1    H7 3277   0.243   3.186  11.479  1.7135 -0.8381  1.2976
  216MPD1     C 3278   3.570   0.286  16.001 -0.4242  1.2536 -0.7871
  216MPD1    C1 3279   3.487   0.192  16.041 -0.1620  0.0855  0.0518
  216MPD1    C2 3280   3.455   0.184  16.172  0.4004 -1.0334  0.4716
  216MPD1    C3 3281   3.503   0.277  16.263 -0.2000  0.1391  0.4981
  216MPD1    C4 3282   3.584   0.384  16.224  0.8543  0.5620  0.0635
  216MPD1    C5 3283   3.620   0.378  16.092  0.6430  0.3430  0.5910
  216MPD1     H 3284   3.392   0.104  16.209 -0.0144 -0.6182  0.6678
  216MPD1    H1 3285   3.634   0.460  16.282 -0.7301  1.5561  0.1358
  216MPD1    H2 3286   3.591   0.296  15.895  2.2525  1.0636 -0.2696
  216MPD1    H3 3287   3.685   0.454  16.049  1.2681  0.2845  1.4298
  216MPD1     N 3288   3.448   0.272  16.397 -0.4942 -0.1432 -0.2063
  216MPD1    H5 3289   3.379   0.200  16.412 -1.1057 -0.2011 -3.2929
  216MPD1    N1 3290   3.445   0.097  15.951 -0.1582 -0.3453 -0.1012
  216MPD1    H6 3291   3.362   0.047  15.982 -0.1893 -0.1863  0.0735
  216MPD1    H7 3292   3.439   0.119  15.852  0.6224 -1.5324 -0.4060
  217MPD1     C 3293   0.350   1.078   8.619  0.2628 -1.0128 -0.4386
  217MPD1    C1 3294   0.219   1.100   8.654 -0.9199  0.8346 -0.1796
  217MPD1    C2 3295   0.190   1.208   8.737 -0.3833  0.2368  0.6102
  217MPD1    C3 3296   0.283   1.291   8.799  0.1253  0.4942  1.5396
  217MPD1    C4 3297   0.414   1.263   8.758  0.2073  0.5216 -0.9175
  217MPD1    C5 3298   0.445   1.163   8.672  0.2449 -0.2706 -0.3397
  217MPD1     H 3299   0.089   1.205   8.776  0.0237  0.6700  1.6821
  217MPD1    H1 3300   0.495   1.327   8.793  0.7111  0.0920 -1.3120
  217MPD1    H2 3301   0.381   1.003   8.547 -0.6100 -0.9593 -0.8736
  217MPD1    H3 3302   0.547   1.147   8.640  1.5915  2.4516  2.6213
  217MPD1     N 3303   0.260   1.394   8.893  0.5591 -0.1276 -0.1643
  217MPD1    H5 3304   0.347   1.432   8.927  0.9834 -2.6471  1.6282
  217MPD1    N1 3305   0.126   0.995   8.630 -0.4900  0.0497  0.2289
  217MPD1    H6 3306   0.153   0.952   8.542 -2.2044  0.3199 -0.4320
  217MPD1    H7 3307   0.030   1.028   8.625 -0.2179  1.3722  3.3809
  218MPD1     C 3308   0.608   3.663  13.230  0.3323 -0.1511 -0.1178
  218MPD1    C1 3309   0.690   3.555  13.257 -0.2897 -0.5305 -0.1716
  218MPD1    C2 3310   0.758   3.492  13.154 -0.6811 -0.2483  0.1346
  218MPD1    C3 3311   0.763   3.536  13.026  0.0845 -0.2016 -0.1972
  218MPD1    C4 3312   0.681   3.648  13.005 -0.9610  0.7862 -0.5618
  218MPD1    C5 3313   0.612   3.714  13.104  0.2978 -0.1540  0.2104
  218MPD1     H 3314   0.820   3.407  13.181 -0.7212  0.0043  1.0061
  218MPD1    H1 3315   0.680   3.699  12.909  1.0713  0.8957 -0.5240
  218MPD1    H2 3316   0.567   3.712  13.317  0.5110  0.0514 -0.1498
  218MPD1    H3 3317   0.555   3.805  13.091 -1.1198 -0.9624  0.7785
  218MPD1     N 3318   0.856   3.490  12.930  0.0744 -0.4791  0.0525
  218MPD1    H5 3319   0.930   3.425  12.951 -0.2322 -0.6803  0.5037
  218MPD1    N1 3320   0.678   3.490  13.381 -0.3248  0.0607  0.6504
  218MPD1    H6 3321   0.668   3.558  13.457 -0.2590  2.4937 -1.5423
  218MPD1    H7 3322   0.765   3.442  13.405 -1.2141 -1.9513 -0.2078
  219MPD1     C 3323   0.794   3.234  11.984 -0.4533  0.3942  0.5493
  219MPD1    C1 3324   0.914   3.303  11.986 -1.1790  0.0898 -0.7192
  219MPD1    C2 3325   0.957   3.346  12.109  0.3999 -0.4342 -0.2674
  219MPD1    C3 3326   0.891   3.305  12.224  0.5855  0.1686  0.1274
  219MPD1    C4 3327   0.769   3.242  12.213 -0.5631  0.5900  0.1921
  219MPD1    C5 3328   0.719   3.211  12.093 -0.1122  0.2716  0.8139
  219MPD1     H 3329   1.035   3.421  12.108 -0.7688  0.8198  2.4386
  219MPD1    H1 3330   0.703   3.217  12.296 -0.5979  0.2313  0.0535
  219MPD1    H2 3331   0.749   3.196  11.893  1.6894 -1.7233  0.3798
  219MPD1    H3 3332   0.620   3.169  12.083 -0.7408  1.8441  0.4484
  219MPD1     N 3333   0.942   3.352  12.354  0.5680  0.2021  0.5408
  219MPD1    H5 3334   0.883   3.320  12.430 -1.6523  1.4404 -0.6592
  219MPD1    N1 3335   0.978   3.333  11.863 -0.4963 -0.4643  0.1128
  219MPD1    H6 3336   1.079   3.350  11.871 -0.6001 -0.2120  0.9025
  219MPD1    H7 3337   0.968   3.258  11.796 -0.9144 -1.0031  0.7864
  220MPD1     C 3338   1.325   3.789   9.372  0.0326  0.2457 -0.5642
  220MPD1    C1 3339   1.265   3.671   9.407  0.1042 -0.0573 -0.7428
  220MPD1    C2 3340   1.227   3.649   9.541  0.0848  0.0197 -0.5487
  220MPD1    C3 3341   1.246   3.743   9.642  0.3986  0.0142  1.3256
  220MPD1    C4 3342   1.306   3.867   9.606  0.8303 -0.7457 -0.3901
  220MPD1    C5 3343   1.349   3.880   9.475 -0.2245 -0.2312  1.1830
  220MPD1     H 3344   1.176   3.555   9.557 -1.5518  0.7532 -1.4616
  220MPD1    H1 3345   1.328   3.949   9.673 -3.7825  1.7747 -1.9910
  220MPD1    H2 3346   1.354   3.816   9.271  0.8692  0.9968 -0.1233
  220MPD1    H3 3347   1.399   3.974   9.455  1.9500 -1.2850  1.5958
  220MPD1     N 3348   1.200   3.714   9.769 -0.1435 -0.0559 -0.1214
  220MPD1    H5 3349   1.162   3.621   9.783  1.0575 -0.3871  0.9143
  220MPD1    N1 3350   1.212   3.585   9.313 -0.0856  0.3482  0.3351
  220MPD1    H6 3351   1.283   3.567   9.242 -0.2341  1.3670 -0.0679
  220MPD1    H7 3352   1.190   3.489   9.341 -0.1797  0.4703  0.6755
  221MPD1     C 3353   2.657   2.775  16.904 -0.2086  0.2386 -0.2378
  221MPD1    C1 3354   2.694   2.893  16.841  0.2586 -0.1175  0.3994
  221MPD1    C2 3355   2.806   2.895  16.763 -0.1084 -0.1068  0.2419
  221MPD1    C3 3356   2.874   2.773  16.739 -0.0343 -0.5244 -0.3129
  221MPD1    C4 3357   2.825   2.653  16.787  0.5139 -1.1870 -0.4549
  221MPD1    C5 3358   2.714   2.660  16.869 -0.0658 -0.5938  0.4992
  221MPD1     H 3359   2.839   2.990  16.725  1.2925 -0.3477  0.8345
  221MPD1    H1 3360   2.872   2.556  16.773  2.1055 -0.3991 -0.6145
  221MPD1    H2 3361   2.570   2.765  16.967  0.7200  1.6557  1.2469
  221MPD1    H3 3362   2.684   2.563  16.908 -0.4757 -0.4024  0.6634
  221MPD1     N 3363   2.997   2.752  16.668  0.2383 -0.1411  0.1228
  221MPD1    H5 3364   3.035   2.658  16.676  0.2031 -0.1171  0.5604
  221MPD1    N1 3365   2.637   3.009  16.891 -0.3140 -0.8988 -0.1264
  221MPD1    H6 3366   2.536   2.998  16.904 -0.2232  0.0818  1.3602
  221MPD1    H7 3367   2.636   3.080  16.818  0.2873  0.4243  1.1825
  222MPD1     C 3368   3.060   0.541   0.058  0.1820  0.1596  0.3669
  222MPD1    C1 3369   2.928   0.595   0.069  0.2600  0.1734 -0.2882
  222MPD1    C2 3370   2.920   0.735   0.067 -0.0370  0.4773 -0.6039
  222MPD1    C3 3371   3.024   0.820   0.030 -0.4622  0.9579 -1.0322
  222MPD1    C4 3372   3.151   0.761   0.017 -0.2660 -0.4026 -0.4580
  222MPD1    C5 3373   3.165   0.629   0.033 -0.0201  0.4566  0.5612
  222MPD1     H 3374   2.827   0.781   0.098 -0.6753 -0.8960 -0.4622
  222MPD1    H1 3375   3.240   0.814  17.682  0.5403 -1.2674  0.3397
  222MPD1    H2 3376   3.069   0.433   0.055  1.4391  0.3199 -1.5837
  222MPD1    H3 3377   3.268   0.596   0.039 -0.3837 -0.5027  1.6114
  222MPD1     N 3378   3.000   0.957   0.001 -1.1551  0.4746  0.2721
  222MPD1    H5 3379   3.082   1.001  17.657 -1.9204 -0.6805 -2.4919
  222MPD1    N1 3380   2.818   0.520   0.107 -0.0352 -0.2047 -0.0879
  222MPD1    H6 3381   2.829   0.426   0.072  0.1898  0.7113 -2.4603
  222MPD1    H7 3382   2.735   0.559   0.063 -0.3487  0.6709  1.2421
  223MPD1     C 3383   2.565   1.874   0.296  0.0481 -0.1629 -0.8319
  223MPD1    C1 3384   2.684   1.913   0.230 -0.9402 -0.4243  0.1657
  223MPD1    C2 3385   2.738   1.830   0.140 -0.1460 -0.3122 -0.1730
  223MPD1    C3 3386   2.685   1.705   0.106  0.3671  0.4416  0.2325
  223MPD1    C4 3387   2.561   1.669   0.173 -0.5718 -0.6626 -0.6915
  223MPD1    C5 3388   2.509   1.751   0.267 -0.1350 -0.6544  1.0342
  223MPD1     H 3389   2.834   1.859   0.100 -0.5384 -2.0141 -2.3506
  223MPD1    H1 3390   2.506   1.580   0.145  0.8185 -1.7402 -0.0235
  223MPD1    H2 3391   2.518   1.944   0.364 -0.9745 -0.5177 -1.1661
  223MPD1    H3 3392   2.415   1.736   0.321 -0.2558  1.0510  1.2970
  223MPD1     N 3393   2.766   1.605   0.036  0.8864  0.3625 -0.1229
  223MPD1    H5 3394   2.859   1.638   0.013 -0.5431  3.8978 -0.8046
  223MPD1    N1 3395   2.752   2.026   0.276  0.3713  0.0738 -0.2116
  223MPD1    H6 3396   2.823   2.068   0.217  1.5650  0.9981  1.8915
  223MPD1    H7 3397   2.691   2.093   0.323  2.3312  1.8909 -0.3018
  224MPD1     C 3398   0.218   1.760   8.816  0.2992 -0.3252 -0.1830
  224MPD1    C1 3399   0.133   1.861   8.779 -0.7293  0.5722 -0.1523
  224MPD1    C2 3400   0.122   1.974   8.862 -0.3739  0.2752  0.0107
  224MPD1    C3 3401   0.201   1.981   8.983 -0.0043  0.7140 -0.1541
  224MPD1    C4 3402   0.295   1.879   9.015  0.0753 -0.4187  0.0357
  224MPD1    C5 3403   0.297   1.771   8.928 -0.0455 -0.6018  0.0532
  224MPD1     H 3404   0.043   2.044   8.837 -0.7905  0.0134  0.6012
  224MPD1    H1 3405   0.352   1.881   9.107 -1.2164 -1.5816  0.8442
  224MPD1    H2 3406   0.226   1.669   8.758 -1.5774 -2.0512  2.2580
  224MPD1    H3 3407   0.368   1.691   8.947  0.0558 -0.4799  0.1911
  224MPD1     N 3408   0.190   2.083   9.085 -0.3965 -0.4167  0.0282
  224MPD1    H5 3409   0.257   2.078   9.161 -0.9250  1.2611  0.5819
  224MPD1    N1 3410   0.056   1.854   8.661 -0.3561 -0.8050  0.1758
  224MPD1    H6 3411   0.031   1.758   8.639  1.6427 -1.1527 -0.5442
  224MPD1    H7 3412   4.705   1.922   8.645  0.3324 -0.3606 -1.1013
  225MPD1     C 3413   0.675   0.102  12.691  0.1562 -0.1520  1.0742
  225MPD1    C1 3414   0.714   4.694  12.666 -0.2999 -0.3926  0.0497
  225MPD1    C2 3415   0.623   4.606  12.611  0.1262  1.2505  0.8966
  225MPD1    C3 3416   0.499   4.655  12.564  0.5612 -0.0947 -0.5872
  225MPD1    C4 3417   0.468   0.061  12.581 -0.1571 -0.2064 -0.5076
  225MPD1    C5 3418   0.553   0.147  12.641 -0.2695 -0.0725 -0.2635
  225MPD1     H 3419   0.651   4.503  12.594  2.0805  2.1165 -1.1217
  225MPD1    H1 3420   0.379   0.103  12.534 -0.4852  0.3427  0.6055
  225MPD1    H2 3421   0.734   0.173  12.749 -1.1469  0.2792  1.8612
  225MPD1    H3 3422   0.521   0.248  12.663  0.5782  0.2202 -0.3605
  225MPD1     N 3423   0.405   4.582  12.492 -0.0586 -0.6521 -0.1589
  225MPD1    H5 3424   0.328   4.633  12.449 -0.4484 -2.0924 -1.1508
  225MPD1    N1 3425   0.833   4.633  12.719  0.4808 -0.0028 -0.0003
  225MPD1    H6 3426   0.857   4.554  12.661  0.4614 -0.0310  0.0298
  225MPD1    H7 3427   0.907   4.702  12.703  0.0143  0.2719 -0.9936
  226MPD1     C 3428   4.172   2.591   8.145  0.8555  0.2601 -0.2959
  226MPD1    C1 3429   4.061   2.642   8.200 -0.7973 -0.4717 -0.7263
  226MPD1    C2 3430   4.064   2.691   8.332 -0.2280 -0.2512 -0.4758
  226MPD1    C3 3431   4.175   2.685   8.413 -0.2444 -0.6321  0.3802
  226MPD1    C4 3432   4.283   2.616   8.364  0.0361  0.1739 -0.3479
  226MPD1    C5 3433   4.282   2.580   8.232  0.1708  0.3936  0.4474
  226MPD1     H 3434   3.983   2.757   8.363  0.1483 -0.2067  0.4258
  226MPD1    H1 3435   4.372   2.595   8.422  0.2403 -1.9968 -1.4586
  226MPD1    H2 3436   4.170   2.541   8.049 -0.2741 -1.5924  0.6718
  226MPD1    H3 3437   4.368   2.531   8.187 -0.2806  0.0924 -0.1044
  226MPD1     N 3438   4.175   2.746   8.537 -0.4359  0.2408  0.0355
  226MPD1    H5 3439   4.093   2.797   8.568  0.3245  0.6858  1.3767
  226MPD1    N1 3440   3.936   2.631   8.136  0.1726 -0.1595  0.0100
  226MPD1    H6 3441   3.870   2.697   8.177  0.5694  0.6595 -0.6697
  226MPD1    H7 3442   3.944   2.647   8.036  1.0620  2.6715  0.5291
  227MPD1     C 3443   3.475   2.938   8.969 -0.3093 -0.8883 -0.0546
  227MPD1    C1 3444   3.516   2.940   8.831  0.3012 -0.3742  0.3115
  227MPD1    C2 3445   3.649   2.933   8.812  0.0904  0.1616 -0.2659
  227MPD1    C3 3446   3.745   2.920   8.912  0.5190  0.8120  0.7428
  227MPD1    C4 3447   3.709   2.923   9.035 -0.2173  0.1772  0.4738
  227MPD1    C5 3448   3.572   2.923   9.067  0.2911  0.0846 -0.7503
  227MPD1     H 3449   3.679   2.945   8.708 -2.9605  3.0736 -0.7759
  227MPD1    H1 3450   3.769   2.910   9.124  0.4789 -1.0021 -0.1764
  227MPD1    H2 3451   3.371   2.934   8.999 -0.1631  0.6868  0.6485
  227MPD1    H3 3452   3.546   2.930   9.172  0.3592 -1.5541 -0.6306
  227MPD1     N 3453   3.882   2.914   8.879  0.4083 -0.1201  0.0912
  227MPD1    H5 3454   3.901   2.902   8.780  1.4444 -0.3491  0.3232
  227MPD1    N1 3455   3.424   2.956   8.724 -0.6965  0.0503  0.4202
  227MPD1    H6 3456   3.329   2.966   8.759 -0.0113  0.2835  2.2262
  227MPD1    H7 3457   3.445   3.047   8.684  0.8029 -1.1696 -1.5747
  228MPD1     C 3458   2.609   2.188  12.886  0.0119 -0.2329 -0.2051
  228MPD1    C1 3459   2.568   2.195  12.761 -0.4500  0.2100 -0.4334
  228MPD1    C2 3460   2.464   2.111  12.726  0.0342  0.0583  0.7943
  228MPD1    C3 3461   2.404   2.027  12.824 -0.5694  0.2231 -0.1684
  228MPD1    C4 3462   2.439   2.035  12.959  0.6739  0.1160  0.4455
  228MPD1    C5 3463   2.550   2.116  12.983  0.3312 -0.6028  0.9341
  228MPD1     H 3464   2.434   2.103  12.622  1.6805  0.9376  0.2397
  228MPD1    H1 3465   2.401   1.974  13.040 -0.4197  2.1603  1.4719
  228MPD1    H2 3466   2.695   2.252  12.902 -0.3277 -0.2436  1.6583
  228MPD1    H3 3467   2.578   2.136  13.086  1.0973 -2.2445  1.0356
  228MPD1     N 3468   2.301   1.943  12.782  0.5719 -0.4381  0.4769
  228MPD1    H5 3469   2.274   1.954  12.685 -1.0815 -1.1107  0.8571
  228MPD1    N1 3470   2.612   2.294  12.668 -0.0185  0.2618 -0.0612
  228MPD1    H6 3471   2.621   2.242  12.581  1.1651 -1.2497  0.9742
  228MPD1    H7 3472   2.706   2.327  12.691  0.3766 -0.5167 -0.5768
  229MPD1     C 3473   2.465   0.817  14.628  0.2087 -0.0023 -0.5685
  229MPD1    C1 3474   2.534   0.713  14.564  0.0162 -0.1438  1.0381
  229MPD1    C2 3475   2.521   0.587  14.615  0.2006 -0.3759  0.7045
  229MPD1    C3 3476   2.457   0.564  14.740 -0.1031  0.1153 -0.6240
  229MPD1    C4 3477   2.403   0.669  14.805 -0.5288  0.1315  0.5239
  229MPD1    C5 3478   2.405   0.794  14.749 -0.1650 -0.1081 -0.1026
  229MPD1     H 3479   2.571   0.505  14.564  2.2589 -0.6465  3.1122
  229MPD1    H1 3480   2.357   0.663  14.903 -1.5247 -0.9016 -0.0105
  229MPD1    H2 3481   2.471   0.916  14.583 -3.0887 -0.0673 -1.1478
  229MPD1    H3 3482   2.354   0.875  14.800  3.3652  1.5463  0.8098
  229MPD1     N 3483   2.450   0.437  14.792  0.4838 -0.7311  1.0469
  229MPD1    H5 3484   2.406   0.416  14.881  0.0331 -1.0773  0.7437
  229MPD1    N1 3485   2.588   0.727  14.436  0.2270  0.1421 -0.2908
  229MPD1    H6 3486   2.631   0.815  14.409 -0.5372  0.8320  0.7142
  229MPD1    H7 3487   2.662   0.660  14.420  0.3746  0.5315 -1.2265
  230MPD1     C 3488   1.969   4.660  15.470  0.0420 -0.2228 -0.1532
  230MPD1    C1 3489   2.078   4.579  15.456 -0.0061  1.0411  0.3534
  230MPD1    C2 3490   2.161   4.614  15.349 -0.0981 -0.4649 -0.1201
  230MPD1    C3 3491   2.127   4.714  15.254  0.0836 -0.1917  0.4732
  230MPD1    C4 3492   2.009   0.060  15.272 -0.0024  0.2356  0.9067
  230MPD1    C5 3493   1.928   0.033  15.377 -0.1353 -0.2247 -0.4328
  230MPD1     H 3494   2.244   4.544  15.341  0.3016 -0.2568  2.2529
  230MPD1    H1 3495   1.972   0.137  15.205  1.2713 -0.9912 -1.2031
  230MPD1    H2 3496   1.900   4.649  15.554  1.1133  0.8066  0.8625
  230MPD1    H3 3497   1.828   0.073  15.387 -0.3562 -1.0148  0.5412
  230MPD1     N 3498   2.212   0.004  15.142 -0.4974 -0.9300  0.1969
  230MPD1    H5 3499   2.299   4.676  15.146  1.7696  2.9770  1.6859
  230MPD1    N1 3500   2.121   4.482  15.542 -0.6166 -0.6524  0.8881
  230MPD1    H6 3501   2.053   4.449  15.610 -1.6224  1.4126  0.8970
  230MPD1    H7 3502   2.148   4.396  15.495 -0.7768  1.0261 -2.2790
  231MPD1     C 3503   0.696   2.379  15.429  0.1843  0.3800 -0.4853
  231MPD1    C1 3504   0.788   2.373  15.329 -0.2702  0.0280 -0.0366
  231MPD1    C2 3505   0.844   2.494  15.287 -0.4061 -0.0719  0.1404
  231MPD1    C3 3506   0.822   2.618  15.346  0.2514 -0.1974  0.0776
  231MPD1    C4 3507   0.725   2.619  15.448 -0.2424 -0.7083 -0.1747
  231MPD1    C5 3508   0.671   2.500  15.490  0.0105 -0.1960 -0.0414
  231MPD1     H 3509   0.928   2.492  15.220  0.6841 -2.9166  1.5898
  231MPD1    H1 3510   0.703   2.708  15.507  1.4657  1.4138 -2.7665
  231MPD1    H2 3511   0.650   2.289  15.468  3.3327 -0.3516  1.5599
  231MPD1    H3 3512   0.608   2.512  15.577 -0.3549  2.6470 -0.7022
  231MPD1     N 3513   0.891   2.730  15.301  0.2966 -0.5191  0.2302
  231MPD1    H5 3514   0.946   2.717  15.217  1.3323 -1.3196  1.0342
  231MPD1    N1 3515   0.844   2.250  15.280 -0.3507  0.1637 -0.3733
  231MPD1    H6 3516   0.903   2.258  15.197  1.5351 -0.0765  0.9438
  231MPD1    H7 3517   0.784   2.168  15.282 -0.7899  0.5049  0.3501
  232MPD1     C 3518   2.616   0.647  17.525  0.5088 -0.5158  0.1843
  232MPD1    C1 3519   2.537   0.710  17.614 -0.2285 -0.0983 -0.0225
  232MPD1    C2 3520   2.435   0.643  17.683  0.3272  0.1538 -0.0942
  232MPD1    C3 3521   2.431   0.499  17.677 -0.3668  0.1288 -0.4208
  232MPD1    C4 3522   2.528   0.437  17.598 -0.0757 -0.5620 -0.0062
  232MPD1    C5 3523   2.610   0.510  17.518  0.1883 -0.5505  0.9804
  232MPD1     H 3524   2.371   0.694   0.057  0.2068  1.2568 -0.9870
  232MPD1    H1 3525   2.545   0.330  17.592  1.7453 -0.2591 -0.1209
  232MPD1    H2 3526   2.697   0.698  17.474 -1.1692  0.7873 -1.1795
  232MPD1    H3 3527   2.685   0.458  17.459 -0.4557 -2.0067  1.4313
  232MPD1     N 3528   2.335   0.432   0.053 -0.6889 -0.1852  0.1530
  232MPD1    H5 3529   2.274   0.478   0.120  2.2536  1.8652  1.3946
  232MPD1    N1 3530   2.545   0.851  17.623 -0.4180 -0.4944 -0.2465
  232MPD1    H6 3531   2.642   0.884  17.622 -0.4818 -0.1839  2.1943
  232MPD1    H7 3532   2.511   0.884   0.016 -0.6560 -0.4888 -0.3402
  233MPD1     C 3533   3.667   4.589   0.391  0.0916 -0.5168  0.5132
  233MPD1    C1 3534   3.563   4.534   0.452  0.1467  0.2749 -0.8275
  233MPD1    C2 3535   3.579   4.433   0.553 -0.5216 -0.7882  0.4999
  233MPD1    C3 3536   3.703   4.376   0.568  0.1403 -0.1718  0.4569
  233MPD1    C4 3537   3.808   4.435   0.504  0.1623 -0.0389 -0.2527
  233MPD1    C5 3538   3.791   4.541   0.421  0.1184  0.5961 -0.0142
  233MPD1     H 3539   3.498   4.388   0.608 -1.3009 -1.6885 -1.3792
  233MPD1    H1 3540   3.914   4.415   0.508  0.3515  1.1258  0.6245
  233MPD1    H2 3541   3.665   4.674   0.324  0.7030 -0.7745  0.1673
  233MPD1    H3 3542   3.880   4.593   0.387 -0.5507  2.2626  0.8124
  233MPD1     N 3543   3.727   4.282   0.670  0.2102  0.0977 -0.5663
  233MPD1    H5 3544   3.824   4.262   0.691  0.3169  0.5838 -0.6149
  233MPD1    N1 3545   3.441   4.600   0.438 -0.5863  0.2053 -0.7523
  233MPD1    H6 3546   3.431   4.647   0.348 -0.0138 -1.1483 -1.5142
  233MPD1    H7 3547   3.358   4.542   0.449 -0.8689  0.7685  0.0549
  234MPD1     C 3548   0.420   1.636  10.769 -0.1613 -1.1437  0.0351
  234MPD1    C1 3549   0.487   1.757  10.747 -0.9406  0.5586  0.1287
  234MPD1    C2 3550   0.503   1.793  10.616 -0.4332 -0.1205  0.0871
  234MPD1    C3 3551   0.473   1.704  10.517 -0.2643 -0.1664  0.1129
  234MPD1    C4 3552   0.399   1.590  10.542 -0.2809 -0.3219  0.5781
  234MPD1    C5 3553   0.377   1.553  10.671  0.7377 -0.3370  0.1227
  234MPD1     H 3554   0.561   1.883  10.599  0.4044 -0.4452  1.2456
  234MPD1    H1 3555   0.365   1.535  10.455  0.9431  1.0161 -0.7386
  234MPD1    H2 3556   0.384   1.604  10.866 -1.1860 -1.9752 -0.6133
  234MPD1    H3 3557   0.322   1.464  10.699 -0.3561  0.1888 -0.3460
  234MPD1     N 3558   0.513   1.735  10.387  0.2763  0.1274  0.4758
  234MPD1    H5 3559   0.569   1.819  10.374 -2.2770  1.6203 -0.8699
  234MPD1    N1 3560   0.516   1.843  10.855 -0.5610  0.7528  0.4150
  234MPD1    H6 3561   0.605   1.886  10.832 -1.7178  2.2075 -1.2826
  234MPD1    H7 3562   0.518   1.793  10.944 -1.1474 -1.0380 -0.5887
  235MPD1     C 3563   1.041   4.711   9.356 -0.4601  0.5969 -0.0974
  235MPD1    C1 3564   1.101   0.107   9.329 -0.0594  0.4645  0.3464
  235MPD1    C2 3565   1.238   0.110   9.348 -0.0012  0.4257 -0.0327
  235MPD1    C3 3566   1.312   0.008   9.409 -0.5674 -0.4881 -0.5223
  235MPD1    C4 3567   1.246   4.617   9.446 -0.0869  0.3087 -0.7331
  235MPD1    C5 3568   1.108   4.609   9.421 -0.3523  0.3537  0.2844
  235MPD1     H 3569   1.283   0.208   9.332  0.4300  0.5284  1.9040
  235MPD1    H1 3570   1.293   4.530   9.492  0.5978 -0.4052 -2.8041
  235MPD1    H2 3571   0.934   4.695   9.349 -0.0521 -0.7664 -3.2060
  235MPD1    H3 3572   1.050   4.531   9.468  2.8249 -2.5552 -0.6296
  235MPD1     N 3573   1.445   0.045   9.431  0.8800 -0.2275 -0.3049
  235MPD1    H5 3574   1.484   0.136   9.411  2.0488 -0.6027  0.2250
  235MPD1    N1 3575   1.027   0.214   9.276 -0.3162  0.2747  0.3096
  235MPD1    H6 3576   1.073   0.304   9.282 -0.5189  0.4688 -1.2141
  235MPD1    H7 3577   0.935   0.231   9.315  0.3127  1.0268  1.4692
  236MPD1     C 3578   0.956   0.329   9.771 -0.3352  0.7316 -0.7627
  236MPD1    C1 3579   0.969   0.457   9.822  0.1092 -0.0013  0.2065
  236MPD1    C2 3580   1.068   0.484   9.919  0.3522 -0.8335 -0.3971
  236MPD1    C3 3581   1.150   0.377   9.966 -0.2458 -0.3142 -0.3946
  236MPD1    C4 3582   1.135   0.250   9.911 -0.0678 -0.1155 -0.4243
  236MPD1    C5 3583   1.039   0.231   9.816 -0.1779 -0.6379  0.0644
  236MPD1     H 3584   1.063   0.572   9.982 -0.1461 -0.3711 -1.0912
  236MPD1    H1 3585   1.206   0.172   9.935 -0.8903  0.8584  5.2266
  236MPD1    H2 3586   0.873   0.301   9.708 -1.7151  1.1545  0.8766
  236MPD1    H3 3587   1.032   0.130   9.776  1.9855 -0.5832 -0.4820
  236MPD1     N 3588   1.240   0.395  10.068  0.4452 -0.1602 -0.1710
  236MPD1    H5 3589   1.296   0.317  10.099  0.0999 -0.1154  0.5788
  236MPD1    N1 3590   0.875   0.548   9.785 -0.9035 -0.6414 -0.3726
  236MPD1    H6 3591   0.838   0.538   9.690  2.0137  0.5496 -1.6403
  236MPD1    H7 3592   0.921   0.639   9.790 -0.1909 -1.1201  1.8466
  237MPD1     C 3593   1.233   4.044  14.955  0.0053  0.0086  0.9902
  237MPD1    C1 3594   1.161   4.028  14.836  0.3880  0.3836  0.1569
  237MPD1    C2 3595   1.039   3.974  14.843 -0.0736 -0.7083 -0.0191
  237MPD1    C3 3596   0.985   3.943  14.969 -0.0795 -0.1289  0.3412
  237MPD1    C4 3597   1.061   3.952  15.084  0.8974 -0.7419 -0.3407
  237MPD1    C5 3598   1.185   3.999  15.074 -0.2554 -0.9739 -0.0374
  237MPD1     H 3599   0.983   3.962  14.751 -1.7326 -1.6016  1.1062
  237MPD1    H1 3600   1.015   3.931  15.179  0.1208 -0.6188 -0.6939
  237MPD1    H2 3601   1.335   4.080  14.946 -0.5814  2.2011  3.0184
  237MPD1    H3 3602   1.259   4.004  15.153 -1.2954  1.4697  0.7712
  237MPD1     N 3603   0.851   3.919  14.992  0.2845  0.6510 -0.2311
  237MPD1    H5 3604   0.831   3.900  15.089 -1.7274 -2.9347 -1.3452
  237MPD1    N1 3605   1.210   4.080  14.717 -0.3750 -0.6555  0.1878
  237MPD1    H6 3606   1.311   4.078  14.712 -0.4248  0.8081 -1.7698
  237MPD1    H7 3607   1.170   4.041  14.632  1.0463  2.7716 -2.0631
  238MPD1     C 3608   3.421   2.403  14.803 -0.1712  0.7491 -0.2295
  238MPD1    C1 3609   3.380   2.276  14.840  0.7747 -0.3292  0.6019
  238MPD1    C2 3610   3.237   2.271  14.854 -0.1069 -0.1085 -0.2462
  238MPD1    C3 3611   3.156   2.381  14.891 -0.1552 -0.5987  0.3497
  238MPD1    C4 3612   3.215   2.501  14.875  0.4305 -0.2087 -0.3455
  238MPD1    C5 3613   3.340   2.512  14.826 -0.1919  0.5639 -0.1512
  238MPD1     H 3614   3.205   2.167  14.862 -0.6198 -0.0758 -1.8313
  238MPD1    H1 3615   3.158   2.589  14.902  0.8706  0.5053 -1.7778
  238MPD1    H2 3616   3.518   2.433  14.767 -0.1948 -0.2561 -1.1343
  238MPD1    H3 3617   3.387   2.609  14.818  2.0237 -0.4379  0.7322
  238MPD1     N 3618   3.019   2.379  14.927  0.0391 -0.2433  0.4253
  238MPD1    H5 3619   2.970   2.466  14.948  0.5481  0.0848  0.2609
  238MPD1    N1 3620   3.458   2.165  14.812  0.0500 -0.1457  0.3865
  238MPD1    H6 3621   3.425   2.077  14.852  0.1832 -0.4581 -0.1999
  238MPD1    H7 3622   3.555   2.167  14.846 -0.2574  1.0457  1.1993
  239MPD1     C 3623   2.386   2.985  15.275 -0.4301  0.7907  0.0194
  239MPD1    C1 3624   2.479   2.945  15.176  0.0345  0.8548  0.0393
  239MPD1    C2 3625   2.489   3.037  15.072  0.3766  0.1188  0.8071
  239MPD1    C3 3626   2.420   3.161  15.067  0.6734 -0.3414 -0.6318
  239MPD1    C4 3627   2.321   3.183  15.155 -0.3361 -0.1317  0.1628
  239MPD1    C5 3628   2.311   3.101  15.265 -0.7228  0.1992  0.1388
  239MPD1     H 3629   2.552   3.005  14.990 -0.5192  0.3144  0.0531
  239MPD1    H1 3630   2.258   3.271  15.148 -0.6049 -0.3633 -0.3211
  239MPD1    H2 3631   2.367   2.918  15.358  0.5635 -0.6343 -0.9061
  239MPD1    H3 3632   2.230   3.113  15.334 -1.4043 -0.1611 -0.5977
  239MPD1     N 3633   2.443   3.255  14.966 -0.3682 -0.7831 -0.0617
  239MPD1    H5 3634   2.387   3.339  14.982  2.8136  2.2554 -5.1317
  239MPD1    N1 3635   2.556   2.820  15.177  0.1276 -0.0185 -0.1820
  239MPD1    H6 3636   2.545   2.750  15.250  0.0799  0.0350 -0.1378
  239MPD1    H7 3637   2.632   2.818  15.110 -1.1008 -1.4446 -1.5089
  240MPD1     C 3638   2.097   3.479  14.309 -1.2126  0.5121  0.9690
  240MPD1    C1 3639   2.084   3.369  14.227 -0.6507  0.1214  0.3572
  240MPD1    C2 3640   2.023   3.259  14.277 -0.0763  0.1306  0.1461
  240MPD1    C3 3641   1.981   3.243  14.412 -0.0081 -0.4009  0.0954
  240MPD1    C4 3642   2.002   3.351  14.494 -0.5644 -0.5901  0.4739
  240MPD1    C5 3643   2.066   3.464  14.446 -0.0584 -0.0521  0.3658
  240MPD1     H 3644   2.004   3.175  14.212  1.0318  0.9292 -1.1970
  240MPD1    H1 3645   1.969   3.346  14.597  0.1492  1.3139  0.8076
  240MPD1    H2 3646   2.137   3.576  14.279 -0.7967 -0.6433 -2.2363
  240MPD1    H3 3647   2.070   3.551  14.511  0.4874 -1.8513  2.7412
  240MPD1     N 3648   1.908   3.122  14.446  0.2089 -0.1896  0.1789
  240MPD1    H5 3649   1.912   3.051  14.374  1.5165 -0.5348  0.6058
  240MPD1    N1 3650   2.104   3.379  14.091 -0.1272  0.1551 -0.4833
  240MPD1    H6 3651   2.144   3.300  14.041 -2.7884 -0.9100 -0.9741
  240MPD1    H7 3652   2.160   3.461  14.067 -1.8890  1.6421  0.4947
  241MPD1     C 3653   1.782   2.573  15.314 -0.7364 -0.0666  0.6774
  241MPD1    C1 3654   1.875   2.519  15.226 -0.6349  0.5407 -0.3982
  241MPD1    C2 3655   1.875   2.555  15.091 -0.4082  0.2346  0.5115
  241MPD1    C3 3656   1.791   2.657  15.053 -0.1022 -0.1788 -0.4082
  241MPD1    C4 3657   1.701   2.717  15.144 -1.0173 -0.5229 -0.5816
  241MPD1    C5 3658   1.698   2.675  15.269 -0.4219 -0.1645 -0.5073
  241MPD1     H 3659   1.945   2.507  15.023 -1.7368 -0.3387 -0.4502
  241MPD1    H1 3660   1.636   2.802  15.127 -1.3840 -0.7466 -0.3016
  241MPD1    H2 3661   1.780   2.545  15.419  0.3358 -1.6826  0.2733
  241MPD1    H3 3662   1.620   2.725  15.325 -1.4186  0.7044 -2.6479
  241MPD1     N 3663   1.796   2.714  14.921  0.4432 -0.2492  0.2538
  241MPD1    H5 3664   1.734   2.793  14.904  1.8296  0.9508  0.7288
  241MPD1    N1 3665   1.956   2.411  15.260  0.5283  0.0695 -0.2243
  241MPD1    H6 3666   1.959   2.395  15.361  0.1415  0.5397 -0.1374
  241MPD1    H7 3667   2.049   2.406  15.217  0.8082 -0.7490  0.4809
  242MPD1     C 3668   1.699   0.524  15.769  0.4162  0.4009  0.0014
  242MPD1    C1 3669   1.615   0.527  15.663  0.1543 -1.1398  0.3262
  242MPD1    C2 3670   1.666   0.598  15.551 -0.0921  0.1588 -0.3871
  242MPD1    C3 3671   1.780   0.677  15.561  0.1057 -0.2387 -0.1695
  242MPD1    C4 3672   1.860   0.663  15.668 -1.0129 -0.6628 -0.5374
  242MPD1    C5 3673   1.822   0.589  15.774 -0.0798  0.1742  0.3505
  242MPD1     H 3674   1.604   0.611  15.463 -1.4298 -0.0259  0.5108
  242MPD1    H1 3675   1.952   0.719  15.675 -1.8429  0.4249  1.8446
  242MPD1    H2 3676   1.669   0.467  15.856  0.5077  0.0888 -0.1740
  242MPD1    H3 3677   1.879   0.584  15.866 -1.4814  1.7336  1.2947
  242MPD1     N 3678   1.822   0.763  15.459 -0.2511  0.4615 -0.2184
  242MPD1    H5 3679   1.913   0.803  15.479  0.5506 -0.9881 -1.0098
  242MPD1    N1 3680   1.509   0.440  15.643  1.4291  0.1064  0.0548
  242MPD1    H6 3681   1.435   0.488  15.592 -0.2324 -1.7974  0.6909
  242MPD1    H7 3682   1.471   0.392  15.725  1.3467  0.0792  0.0010
  243MPD1     C 3683   4.674   4.606  16.856  0.0812  0.3400  0.1442
  243MPD1    C1 3684   4.600   4.643  16.969  0.2872 -1.1225  0.3771
  243MPD1    C2 3685   4.475   4.692  16.955  0.7171  0.6459 -0.2479
  243MPD1    C3 3686   4.413   4.677  16.834 -0.6480 -0.0479 -0.3555
  243MPD1    C4 3687   4.481   4.626  16.724 -0.3161  0.1478  0.0109
  243MPD1    C5 3688   4.614   4.594  16.736 -0.2504  0.0877 -0.4093
  243MPD1     H 3689   4.426   0.003  17.045  4.2808 -0.6227  2.1796
  243MPD1    H1 3690   4.437   4.605  16.626  1.3359 -1.4328 -0.3984
  243MPD1    H2 3691   0.052   4.569  16.861  0.5691  1.6518  0.1121
  243MPD1    H3 3692   4.661   4.548  16.650  0.5012  0.1777 -0.0415
  243MPD1     N 3693   4.280   0.001  16.833 -0.1541 -0.0107 -0.3115
  243MPD1    H5 3694   4.235   0.019  16.923 -0.6992 -0.5685 -0.4749
  243MPD1    N1 3695   4.662   4.649  17.100 -0.9052  0.5466 -0.0765
  243MPD1    H6 3696   4.719   4.566  17.116 -0.7108  0.2103 -2.4873
  243MPD1    H7 3697   4.598   4.647  17.179  1.3218  1.4668  1.7272
  244MPD1     C 3698   3.841   0.285  17.506  0.2126  0.1047  0.1545
  244MPD1    C1 3699   3.963   0.260  17.460  0.8803 -0.3517 -0.2698
  244MPD1    C2 3700   3.983   0.220  17.336  0.2639 -0.4763  0.1583
  244MPD1    C3 3701   3.880   0.233  17.242  0.1172 -0.2023 -0.1286
  244MPD1    C4 3702   3.757   0.286  17.282  1.1485 -0.0496 -0.5075
  244MPD1    C5 3703   3.733   0.308  17.413  0.1529  0.2104 -0.4514
  244MPD1     H 3704   4.081   0.190  17.301 -0.2369 -1.1951 -0.6219
  244MPD1    H1 3705   3.677   0.311  17.212  0.4170  0.0714  0.3763
  244MPD1    H2 3706   3.819   0.288  17.612 -1.5263 -2.8676 -0.1219
  244MPD1    H3 3707   3.637   0.329  17.459 -0.4874 -3.4051 -0.1197
  244MPD1     N 3708   3.909   0.195  17.107  0.0326 -0.1574 -0.7151
  244MPD1    H5 3709   4.005   0.169  17.088 -0.4177 -2.2901 -0.0855
  244MPD1    N1 3710   4.051   0.229  17.557 -0.2473 -0.2809  0.0487
  244MPD1    H6 3711   4.043   0.291  17.638  0.4413 -1.1857  0.8174
  244MPD1    H7 3712   4.144   0.253  17.524 -0.4958 -0.9819 -1.1726
  245MPD1     C 3713   0.224   0.671  13.388 -0.1609  0.3849  0.0262
  245MPD1    C1 3714   0.183   0.797  13.391 -0.0893  0.9625 -0.1198
  245MPD1    C2 3715   0.244   0.890  13.474  0.3021 -0.7184 -0.2958
  245MPD1    C3 3716   0.355   0.851  13.557 -0.4299  0.2059 -0.1453
  245MPD1    C4 3717   0.390   0.723  13.553  0.1043  0.1807 -0.7654
  245MPD1    C5 3718   0.327   0.638  13.467 -0.5058 -0.1556 -0.5148
  245MPD1     H 3719   0.207   0.991  13.473 -2.7314 -1.8341  0.1637
  245MPD1    H1 3720   0.464   0.671  13.614 -0.4494  0.8661  0.5033
  245MPD1    H2 3721   0.172   0.599  13.326  0.9875 -1.1217  0.8283
  245MPD1    H3 3722   0.360   0.535  13.471 -1.0920 -0.2932  0.7379
  245MPD1     N 3723   0.416   0.947  13.638 -0.5025 -0.1987 -0.6237
  245MPD1    H5 3724   0.369   1.034  13.659  0.0782  0.1138 -0.6089
  245MPD1    N1 3725   0.066   0.831  13.315  0.1951  0.1239 -0.1919
  245MPD1    H6 3726   0.058   0.932  13.308  2.0378  0.3653  1.1229
  245MPD1    H7 3727   4.708   0.785  13.355 -0.9438  1.5316 -0.9091
  246MPD1     C 3728   1.599   1.939  10.093 -0.2605  0.2894  0.1037
  246MPD1    C1 3729   1.574   2.064  10.036 -0.0413  0.0632 -0.0490
  246MPD1    C2 3730   1.580   2.077   9.895 -0.6594 -0.4880 -0.3981
  246MPD1    C3 3731   1.580   1.961   9.822  0.4849  0.0956  0.1157
  246MPD1    C4 3732   1.581   1.838   9.881  0.0430 -0.3139  0.2015
  246MPD1    C5 3733   1.601   1.823  10.017  0.8117 -0.0981  0.6233
  246MPD1     H 3734   1.576   2.174   9.848 -1.3591 -0.4598 -0.2809
  246MPD1    H1 3735   1.596   1.747   9.825 -0.2127  0.8165 -1.7079
  246MPD1    H2 3736   1.601   1.927  10.200 -1.0373 -1.6467 -0.1099
  246MPD1    H3 3737   1.582   1.730  10.068  1.4259  0.3565  1.6821
  246MPD1     N 3738   1.562   1.974   9.685  0.3838 -0.5495  0.2608
  246MPD1    H5 3739   1.553   2.064   9.639  0.4883  0.6630  2.6658
  246MPD1    N1 3740   1.576   2.180  10.118  0.0352  0.2792 -0.6771
  246MPD1    H6 3741   1.529   2.153  10.204 -0.0864 -2.0657 -1.4859
  246MPD1    H7 3742   1.532   2.264  10.080  0.3543  0.7172 -0.0656
  247MPD1     C 3743   0.178   0.392  17.053 -0.2428 -0.1474  0.2495
  247MPD1    C1 3744   0.232   0.472  16.962  0.3395 -0.0118 -0.2958
  247MPD1    C2 3745   0.225   0.430  16.825 -0.0460  0.1745 -0.1332
  247MPD1    C3 3746   0.168   0.311  16.793  0.6959  0.4473  0.1227
  247MPD1    C4 3747   0.124   0.224  16.895  0.0160 -0.3614  0.0349
  247MPD1    C5 3748   0.130   0.268  17.027  0.4621 -0.2705  0.1772
  247MPD1     H 3749   0.255   0.488  16.739 -1.0656  0.4620 -0.2882
  247MPD1    H1 3750   0.090   0.121  16.890  1.3170 -0.7526 -0.6267
  247MPD1    H2 3751   0.160   0.434  17.152 -1.0625  2.4142 -0.9999
  247MPD1    H3 3752   0.086   0.209  17.106  0.1419 -0.9469 -0.5010
  247MPD1     N 3753   0.169   0.258  16.662  0.4523 -0.3218 -0.2222
  247MPD1    H5 3754   0.128   0.166  16.655  0.6479 -0.4613  0.4959
  247MPD1    N1 3755   0.263   0.605  16.992 -0.2152 -0.3765 -0.6555
  247MPD1    H6 3756   0.327   0.646  16.923  0.9064 -0.3109  0.4183
  247MPD1    H7 3757   0.308   0.618  17.083  0.9969  2.8099 -1.7119
  248MPD1     C 3758   1.659   4.343   0.949 -0.2229 -0.4583 -0.9617
  248MPD1    C1 3759   1.565   4.404   0.869 -0.7395 -0.2274 -0.2862
  248MPD1    C2 3760   1.498   4.513   0.918  0.1518 -0.5142 -0.7230
  248MPD1    C3 3761   1.515   4.553   1.053  0.6896 -0.1532 -0.7182
  248MPD1    C4 3762   1.619   4.501   1.127  0.5554  0.4783  0.1566
  248MPD1    C5 3763   1.689   4.396   1.069 -0.4306  0.8195 -0.0152
  248MPD1     H 3764   1.449   4.579   0.848 -0.8762 -1.0126 -0.4718
  248MPD1    H1 3765   1.640   4.524   1.231  1.9884  3.0706 -0.7139
  248MPD1    H2 3766   1.710   4.251   0.920  2.1126  0.4780  0.1771
  248MPD1    H3 3767   1.752   4.339   1.137  0.1904  5.2890  3.1290
  248MPD1     N 3768   1.446   4.667   1.096 -0.0207 -0.4913  1.0036
  248MPD1    H5 3769   1.401   4.719   1.022 -1.6865 -1.3342  1.4085
  248MPD1    N1 3770   1.565   4.381   0.733  0.0588 -0.7309  0.5543
  248MPD1    H6 3771   1.581   4.282   0.719  2.2905 -0.0681 -1.6212
  248MPD1    H7 3772   1.479   4.413   0.690  1.2511 -1.8926 -2.7129
  249MPD1     C 3773   2.072   3.222  11.599  0.0026  1.2922  0.2079
  249MPD1    C1 3774   2.086   3.350  11.548  0.8622  0.7866 -0.1244
  249MPD1    C2 3775   2.039   3.374  11.419 -0.4278 -0.3756  0.0700
  249MPD1    C3 3776   1.996   3.268  11.337 -1.0483 -1.0771  0.6284
  249MPD1    C4 3777   1.992   3.137  11.392  0.3589 -0.1458 -0.1372
  249MPD1    C5 3778   2.034   3.115  11.521 -0.3064  0.4276  0.1528
  249MPD1     H 3779   2.041   3.475  11.379 -1.0078  0.3581  1.9249
  249MPD1    H1 3780   1.957   3.055  11.331  1.4029  0.4743 -1.5695
  249MPD1    H2 3781   2.096   3.202  11.703 -0.3156 -0.6095 -0.0884
  249MPD1    H3 3782   2.029   3.016  11.563 -0.7566 -0.0362 -0.9911
  249MPD1     N 3783   1.958   3.292  11.201  0.0179  0.4039  0.5266
  249MPD1    H5 3784   1.991   3.378  11.157 -1.3491  0.6343 -0.0374
  249MPD1    N1 3785   2.134   3.458  11.630  0.4767  0.4232 -0.3602
  249MPD1    H6 3786   2.074   3.470  11.711  0.2303  1.3992 -0.6817
  249MPD1    H7 3787   2.123   3.538  11.568 -0.3320 -0.1414 -0.9352
  250MPD2     C 3788   2.603   3.662  12.969 -0.6079 -0.0640 -0.2957
  250MPD2    C1 3789   2.711   3.698  13.052 -0.2563  0.4870 -0.7190
  250MPD2    C2 3790   2.815   3.608  13.069  0.4656 -0.3226 -0.1276
  250MPD2    C3 3791   2.810   3.483  13.013  0.2212  0.2277 -0.7875
  250MPD2    C4 3792   2.706   3.443  12.933  0.2501  0.1886 -0.3690
  250MPD2    C5 3793   2.604   3.534  12.913  0.1882 -0.3413 -0.1268
  250MPD2     H 3794   2.902   3.632  13.129 -1.4337  0.5407  2.3480
  250MPD2    H1 3795   2.691   3.343  12.893  0.8276 -0.4676  1.0343
  250MPD2    H2 3796   2.520   3.731  12.961 -1.7545 -1.2629  1.1459
  250MPD2    H3 3797   2.517   3.512  12.851  0.2615 -0.3429 -0.2285
  250MPD2     N 3798   2.924   3.400  13.023 -0.8000 -0.2936  0.4791
  250MPD2    H5 3799   2.919   3.299  13.017  0.8484 -0.5015  2.8330
  250MPD2    N1 3800   2.711   3.834  13.109  0.5958  0.3321  0.0892
  250MPD2    H7 3801   2.632   3.892  13.079 -0.3384 -1.2586 -0.5382
  251TMC3    C1 3802   2.829   4.030  13.144 -0.1976  0.0758 -0.7265
  251TMC3    C2 3803   2.797   4.128  13.237  0.2422 -0.3710  0.4487
  251TMC3    C3 3804   2.859   4.249  13.224 -0.4037 -0.1036  0.4069
  251TMC3    C4 3805   2.908   4.054  13.034  0.0136 -0.2610 -0.6616
  251TMC3    C5 3806   2.970   4.179  13.031 -0.2337  0.0795 -0.1274
  251TMC3    C6 3807   2.949   4.278  13.125 -0.4748  0.0397  0.0458
  251TMC3     C 3808   2.815   3.892  13.176 -0.0624 -0.0403 -0.2902
  251TMC3     O 3809   2.927   3.842  13.200  0.4113  0.6075 -0.5569
  251TMC3     H 3810   2.727   4.107  13.317 -0.2117 -1.5082 -0.2349
  251TMC3    H1 3811   2.932   3.972  12.967 -1.0014  1.2094 -2.7996
  251TMC3    H2 3812   3.003   4.372  13.129 -0.4098 -0.0901  2.4358
  251TMC3    C7 3813   3.093   4.173  12.962 -0.5444  0.1170  0.1731
  251TMC3    C8 3814   2.883   4.326  13.341  1.1557 -1.0444  0.5098
  251TMC3    O1 3815   3.127   4.062  12.923  0.2250 -0.0784  0.4010
  251TMC3    O2 3816   2.792   4.384  13.396 -0.4217  0.2797  0.1049
  252TMC3    C1 3817   4.063   4.156  10.219  0.0879 -0.5751 -0.2374
  252TMC3    C2 3818   4.170   4.141  10.134 -0.1690 -0.8240  0.0301
  252TMC3    C3 3819   4.153   4.056  10.030 -0.3228 -0.0011  0.5339
  252TMC3    C4 3820   3.945   4.091  10.199 -0.0252 -0.5354  0.2842
  252TMC3    C5 3821   3.931   4.006  10.095  0.1236 -0.3745  0.1210
  252TMC3    C6 3822   4.038   3.990  10.008 -0.3618  0.5117  0.1415
  252TMC3     C 3823   4.064   4.260  10.318  0.4937 -0.2399  0.2484
  252TMC3     O 3824   4.175   4.294  10.360 -0.1126  0.0527 -0.0379
  252TMC3     H 3825   4.265   4.179  10.170 -1.8568  0.7710  2.8259
  252TMC3    H1 3826   3.852   4.100  10.255  0.0418 -0.2770  0.3539
  252TMC3    H2 3827   4.039   3.913   9.931  1.8972  0.3387  0.3638
  252TMC3    C7 3828   3.839   3.896  10.118 -0.4519  0.4066 -0.3803
  252TMC3    C8 3829   4.246   4.055   9.926 -0.0201 -0.3756  0.2322
  252TMC3    O1 3830   3.786   3.871  10.230  0.3607  0.1552  0.2305
  252TMC3    O2 3831   4.238   3.980   9.829 -0.2731 -0.1099  0.6410
  253MPD2     C 3832   0.582   3.937  15.554  0.3445  0.5652  0.0924
  253MPD2    C1 3833   0.455   3.892  15.535  0.1811 -0.2325 -0.2000
  253MPD2    C2 3834   0.404   3.800  15.626 -0.1414 -0.2635  0.0467
  253MPD2    C3 3835   0.489   3.745  15.720  0.5965 -0.8554 -0.6343
  253MPD2    C4 3836   0.627   3.785  15.726  0.1695 -0.2540 -0.6425
  253MPD2    C5 3837   0.672   3.878  15.643 -0.1304  0.3035 -0.3460
  253MPD2     H 3838   0.301   3.767  15.620 -0.1038 -0.3239 -0.2543
  253MPD2    H1 3839   0.695   3.732  15.792 -0.7731  1.5089  1.7474
  253MPD2    H2 3840   0.627   4.022  15.505 -1.3313  1.1253 -0.4917
  253MPD2    H3 3841   0.775   3.913  15.650 -0.6645  2.2402 -1.9696
  253MPD2     N 3842   0.448   3.647  15.819  0.6659  0.6760 -0.6536
  253MPD2    H5 3843   0.523   3.600  15.869 -0.8649 -0.9859  0.0621
  253MPD2    N1 3844   0.359   3.960  15.453 -0.2282 -0.2870 -0.2820
  253MPD2    H7 3845   0.262   3.932  15.465 -1.2152  3.1986 -0.1071
  254TMC3    C1 3846   0.314   3.475  15.901 -0.5420  1.0320 -0.5062
  254TMC3    C2 3847   0.189   3.414  15.895  0.3273  0.2819 -1.0899
  254TMC3    C3 3848   0.167   3.315  15.990  0.3748  0.5216 -0.2772
  254TMC3    C4 3849   0.414   3.428  15.986  0.2115  0.1954 -0.0947
  254TMC3    C5 3850   0.387   3.333  16.077 -0.3996  0.0700 -0.3147
  254TMC3    C6 3851   0.266   3.269  16.073 -0.5277  0.0550  0.6585
  254TMC3     C 3852   0.321   3.603  15.829  0.0908 -0.0884  0.6377
  254TMC3     O 3853   0.222   3.642  15.774 -0.1672  0.3116 -0.0482
  254TMC3     H 3854   0.108   3.464  15.843 -1.5827 -0.4861  1.1662
  254TMC3    H1 3855   0.508   3.478  16.004  0.7261 -1.6527  2.3434
  254TMC3    H2 3856   0.233   3.198  16.148 -0.0223 -1.6438 -0.7148
  254TMC3    C7 3857   0.420   3.359  16.217 -0.0886  0.5854  0.5332
  254TMC3    C8 3858   0.035   3.281  16.032  0.5919 -0.3097 -0.0828
  254TMC3    O1 3859   0.354   3.304  16.304  0.6107 -0.4321 -0.4124
  254TMC3    O2 3860   0.012   3.236  16.143  0.1089  0.0722 -0.5699
  255MPD2     C 3861   3.293   2.157  10.403  0.0503 -0.3995  0.1656
  255MPD2    C1 3862   3.381   2.224  10.321 -0.3367  1.0546  0.2477
  255MPD2    C2 3863   3.513   2.188  10.333 -0.0950  0.0118  0.1493
  255MPD2    C3 3864   3.553   2.071  10.406  0.6859  0.1966  0.2528
  255MPD2    C4 3865   3.461   2.003  10.477 -0.2011 -0.1203 -0.2980
  255MPD2    C5 3866   3.334   2.053  10.486  0.2850 -0.1537  0.5788
  255MPD2     H 3867   3.579   2.240  10.265 -2.1334  3.5117  0.8713
  255MPD2    H1 3868   3.482   1.917  10.539  0.2272 -0.2439 -0.6162
  255MPD2    H2 3869   3.196   2.206  10.412  0.8427  1.5184 -1.7070
  255MPD2    H3 3870   3.254   2.015  10.550 -1.6196  0.8765 -1.1702
  255MPD2     N 3871   3.688   2.028  10.405 -0.9521 -0.2771 -0.1027
  255MPD2    H5 3872   3.748   2.094  10.357 -1.4287 -0.2173 -0.6069
  255MPD2    N1 3873   3.345   2.343  10.249 -0.5157 -0.2777 -0.6984
  255MPD2    H7 3874   3.244   2.351  10.257 -0.2696  2.6391 -0.5705
  256TMC3    C1 3875   3.329   2.509  10.100  0.2116  0.1551  0.1464
  256TMC3    C2 3876   3.373   2.539   9.974  0.1504 -0.9571  0.0349
  256TMC3    C3 3877   3.286   2.603   9.894  0.1693 -0.6173 -0.5549
  256TMC3    C4 3878   3.198   2.536  10.138  0.3493 -0.1349 -0.0205
  256TMC3    C5 3879   3.116   2.603  10.056  0.0463 -0.5129 -0.9646
  256TMC3    C6 3880   3.162   2.643   9.934  0.0459 -0.3171 -0.8450
  256TMC3     C 3881   3.415   2.424  10.174 -0.4155 -1.2933  0.5168
  256TMC3     O 3882   3.533   2.411  10.144  0.3556 -0.3230 -0.8004
  256TMC3     H 3883   3.477   2.538   9.947 -0.1742 -0.0197 -1.2252
  256TMC3    H1 3884   3.166   2.515  10.239  3.4937  0.9434  1.1982
  256TMC3    H2 3885   3.101   2.702   9.867  0.4220  0.1329 -0.7885
  256TMC3    C7 3886   2.976   2.582  10.059 -0.1311  0.1108  0.4480
  256TMC3    C8 3887   3.316   2.651   9.761  0.4855  0.1262 -0.0223
  256TMC3    O1 3888   2.932   2.589   9.947 -0.4048  0.3915 -0.0121
  256TMC3    O2 3889   3.247   2.746   9.715 -0.3691 -0.3408  0.0341
  257MPD2     C 3890   2.014   3.596  13.568  0.0296  0.0193  0.2460
  257MPD2    C1 3891   2.130   3.596  13.494  0.0427  0.3697  0.6518
  257MPD2    C2 3892   2.235   3.518  13.538 -0.6474  0.3927 -0.0460
  257MPD2    C3 3893   2.227   3.437  13.652  0.0852 -0.0994 -0.9217
  257MPD2    C4 3894   2.106   3.433  13.715 -0.3292  0.2748  0.2539
  257MPD2    C5 3895   2.007   3.519  13.678  0.2448  0.6775 -0.0489
  257MPD2     H 3896   2.316   3.495  13.470  0.1420  3.2447 -0.0799
  257MPD2    H1 3897   2.082   3.362  13.794  1.8094  0.3110  0.9294
  257MPD2    H2 3898   1.921   3.650  13.556  0.0975  0.1941  0.5026
  257MPD2    H3 3899   1.908   3.510  13.722  0.2066  0.9431 -0.0826
  257MPD2     N 3900   2.336   3.350  13.692 -0.7314  0.0523  0.0132
  257MPD2    H5 3901   2.421   3.375  13.641 -0.3542 -2.4438 -0.5457
  257MPD2    N1 3902   2.136   3.666  13.366  0.0804  0.4134 -0.6654
  257MPD2    H7 3903   2.046   3.696  13.328 -0.8052 -0.1556  0.9852
  258TMC3    C1 3904   2.476   3.215  13.828 -0.1135 -0.3661  0.6346
  258TMC3    C2 3905   2.553   3.180  13.717  0.2763  0.3075  0.6891
  258TMC3    C3 3906   2.695   3.165  13.731  0.2964  0.3835  0.3061
  258TMC3    C4 3907   2.540   3.232  13.944 -0.0333  0.5485  1.0033
  258TMC3    C5 3908   2.671   3.198  13.954  1.0347 -0.0224 -0.2162
  258TMC3    C6 3909   2.756   3.172  13.853 -0.1540 -0.4251 -0.6987
  258TMC3     C 3910   2.350   3.280  13.810  0.6497 -0.0975  0.6444
  258TMC3     O 3911   2.280   3.249  13.905 -0.5130 -0.7641 -0.4516
  258TMC3     H 3912   2.505   3.168  13.621  0.1578 -0.7295  0.8834
  258TMC3    H1 3913   2.480   3.276  14.024 -0.3348  1.3283  0.3499
  258TMC3    H2 3914   2.863   3.156  13.861 -0.1736  0.3693  1.3762
  258TMC3    C7 3915   2.715   3.192  14.088  0.2354  0.0148 -0.6328
  258TMC3    C8 3916   2.770   3.102  13.628 -0.1656  0.2735  0.5983
  258TMC3    O1 3917   2.628   3.191  14.174  0.6768  0.5870  0.5983
  258TMC3    O2 3918   2.870   3.037  13.655  0.5684  0.1884 -0.3865
  259MPD2     C 3919   1.528   1.402   1.320  0.5295  0.3719 -0.2634
  259MPD2    C1 3920   1.535   1.280   1.396  0.4683 -0.2549 -0.0198
  259MPD2    C2 3921   1.554   1.161   1.336  0.5108  0.0224  0.0087
  259MPD2    C3 3922   1.564   1.151   1.198 -0.1156 -0.4471  0.2581
  259MPD2    C4 3923   1.571   1.268   1.126  0.3791  0.4490 -0.7553
  259MPD2    C5 3924   1.548   1.385   1.189 -0.3096 -0.7354 -0.4021
  259MPD2     H 3925   1.540   1.067   1.387  1.7694 -0.1932 -0.0366
  259MPD2    H1 3926   1.580   1.277   1.018 -1.6731  1.4812 -0.8372
  259MPD2    H2 3927   1.490   1.495   1.361  0.5081  1.0616 -1.8700
  259MPD2    H3 3928   1.527   1.468   1.121 -0.9142  1.8706  2.9770
  259MPD2     N 3929   1.550   1.035   1.125  0.1826 -0.3552  0.3313
  259MPD2    H5 3930   1.535   1.047   1.025 -1.1826 -1.1459  0.4379
  259MPD2    N1 3931   1.480   1.298   1.524 -0.0356  0.2652 -0.2631
  259MPD2    H7 3932   1.468   1.393   1.558  2.1128  1.1353 -1.9251
  260TMC3    C1 3933   1.507   0.816   1.075 -0.5315  0.1308 -0.3998
  260TMC3    C2 3934   1.537   0.849   0.948 -0.0110 -0.0571  0.2686
  260TMC3    C3 3935   1.554   0.747   0.866  0.3744 -0.6826 -0.4199
  260TMC3    C4 3936   1.491   0.690   1.115 -0.8382  0.0670  0.0010
  260TMC3    C5 3937   1.525   0.590   1.029 -0.7364  0.4078 -0.3247
  260TMC3    C6 3938   1.567   0.621   0.907 -0.0978  0.1366 -0.0779
  260TMC3     C 3939   1.540   0.910   1.182 -0.1498 -0.0509 -0.2113
  260TMC3     O 3940   1.558   0.868   1.295  0.4724  0.1721 -0.4829
  260TMC3     H 3941   1.548   0.948   0.905 -1.3349 -0.3396 -0.7053
  260TMC3    H1 3942   1.468   0.657   1.215 -2.2119 -0.3059 -0.4400
  260TMC3    H2 3943   1.587   0.541   0.837  1.9658  1.3018 -0.7958
  260TMC3    C7 3944   1.562   0.469   1.088 -1.0418 -0.0129  0.6596
  260TMC3    C8 3945   1.596   0.781   0.734  0.1582 -0.2465 -0.7297
  260TMC3    O1 3946   1.608   0.470   1.203  0.3807  0.4619  0.2589
  260TMC3    O2 3947   1.567   0.889   0.691  0.9015 -0.1223  0.2331
  261MPD2     C 3948   3.417   3.327  12.367 -0.0642  0.3293  0.0353
  261MPD2    C1 3949   3.318   3.415  12.410 -0.9314  0.6632  0.1476
  261MPD2    C2 3950   3.269   3.513  12.330  0.3086  0.0077 -0.2902
  261MPD2    C3 3951   3.316   3.522  12.202  0.7956 -1.1728  1.3799
  261MPD2    C4 3952   3.403   3.428  12.152  0.2219 -0.5953 -0.0819
  261MPD2    C5 3953   3.457   3.332  12.235 -0.4824 -0.2547  0.8184
  261MPD2     H 3954   3.198   3.583  12.370 -1.0673 -0.3280 -2.1475
  261MPD2    H1 3955   3.453   3.440  12.056 -1.4861 -2.1194 -1.1611
  261MPD2    H2 3956   3.467   3.259  12.434  0.6617  2.0335  1.2265
  261MPD2    H3 3957   3.533   3.262  12.203  0.4645 -0.4034  3.3535
  261MPD2     N 3958   3.268   3.631  12.125  0.3303 -0.2686 -0.0402
  261MPD2    H5 3959   3.221   3.704  12.178 -0.2245 -0.0807 -0.7912
  261MPD2    N1 3960   3.257   3.399  12.534 -0.0158  0.2333  0.1662
  261MPD2    H7 3961   3.176   3.459  12.543  0.6363  1.1365  0.0458
  262TMC3    C1 3962   3.244   3.766  11.931  0.7896 -1.0730  0.1764
  262TMC3    C2 3963   3.158   3.849  12.000  0.4291  0.1525  0.5758
  262TMC3    C3 3964   3.135   3.974  11.951  0.5553 -0.4901 -0.4008
  262TMC3    C4 3965   3.316   3.802  11.825 -0.1725 -0.0267 -0.5333
  262TMC3    C5 3966   3.312   3.939  11.795  1.0591  0.2411 -0.1789
  262TMC3    C6 3967   3.226   4.020  11.852 -0.0914 -0.1179  0.3924
  262TMC3     C 3968   3.292   3.645  11.988  0.1134  0.2614 -0.0106
  262TMC3     O 3969   3.343   3.571  11.904 -0.1045 -0.1316  0.1810
  262TMC3     H 3970   3.091   3.807  12.074 -0.5627  0.2680 -0.2631
  262TMC3    H1 3971   3.374   3.731  11.767 -0.8051 -0.0688 -1.1128
  262TMC3    H2 3972   3.217   4.126  11.835 -3.4756 -0.3471  0.7625
  262TMC3    C7 3973   3.381   3.984  11.675  0.3388  0.3998 -0.0763
  262TMC3    C8 3974   3.033   4.066  11.988 -0.7507 -1.3598  0.6057
  262TMC3    O1 3975   3.431   3.892  11.606 -0.2652 -0.2888  0.2373
  262TMC3    O2 3976   3.012   4.159  11.910 -0.0740  0.3196  0.0049
  263MPD2     C 3977   3.859   3.465  11.568 -0.5597 -0.3928  0.5098
  263MPD2    C1 3978   3.962   3.414  11.489 -0.1249  0.0860 -0.4929
  263MPD2    C2 3979   3.960   3.445  11.352  0.2483 -0.0623 -0.7275
  263MPD2    C3 3980   3.864   3.529  11.297  0.0393 -0.2661 -0.2902
  263MPD2    C4 3981   3.768   3.580  11.377  0.2640 -0.2787  0.9714
  263MPD2    C5 3982   3.765   3.546  11.511 -0.0637 -0.1309  0.4769
  263MPD2     H 3983   4.041   3.408  11.290 -0.1010  0.0536 -1.2472
  263MPD2    H1 3984   3.694   3.650  11.340  0.6932 -0.8450 -0.9456
  263MPD2    H2 3985   3.854   3.439  11.673  0.0529 -0.2025  0.5897
  263MPD2    H3 3986   3.683   3.589  11.568  0.3409  1.6324 -0.2503
  263MPD2     N 3987   3.860   3.549  11.157  0.1218 -0.0320 -0.6410
  263MPD2    H5 3988   3.782   3.598  11.113 -0.9867 -0.1784  1.1263
  263MPD2    N1 3989   4.053   3.333  11.561  0.1158  0.0587  0.6854
  263MPD2    H7 3990   4.029   3.316  11.659 -0.3083  0.9599  0.7305
  264TMC3    C1 3991   3.921   3.562  10.935  0.3948  0.2153  0.7288
  264TMC3    C2 3992   3.889   3.694  10.930 -0.7265  0.1346  0.4204
  264TMC3    C3 3993   3.939   3.770  10.830 -0.1488  0.1890  0.2319
  264TMC3    C4 3994   3.997   3.504  10.836  0.1316 -0.2209 -0.1803
  264TMC3    C5 3995   4.033   3.582  10.730  0.0681  0.1117 -0.3777
  264TMC3    C6 3996   4.005   3.714  10.727  0.2627 -1.1463 -0.3760
  264TMC3     C 3997   3.946   3.506  11.065  0.0276  0.3848 -0.0564
  264TMC3     O 3998   4.049   3.440  11.079 -0.1947  0.7742 -0.2089
  264TMC3     H 3999   3.850   3.750  11.014  2.0867 -1.8592  3.0301
  264TMC3    H1 4000   4.033   3.403  10.852  0.2568  0.0498  1.2427
  264TMC3    H2 4001   4.054   3.772  10.650 -3.0614  1.5425 -0.4731
  264TMC3    C7 4002   4.155   3.546  10.668 -0.2878  0.0364  0.0025
  264TMC3    C8 4003   4.022   3.876  10.879 -0.0016 -0.1086 -0.5551
  264TMC3    O1 4004   4.173   3.440  10.607 -0.1678  0.0410  0.2203
  264TMC3    O2 4005   4.140   3.865  10.850 -0.0241 -0.3040 -0.5186
  265MPD2     C 4006   1.113   3.554  15.853  0.4835  0.2864  0.2806
  265MPD2    C1 4007   1.166   3.652  15.784  0.4259 -0.5150 -0.3347
  265MPD2    C2 4008   1.258   3.622  15.679 -0.4588 -0.0313  0.2533
  265MPD2    C3 4009   1.284   3.490  15.652  0.4118  0.4160 -0.3976
  265MPD2    C4 4010   1.227   3.389  15.726  0.5101  0.7049  0.1842
  265MPD2    C5 4011   1.142   3.423  15.825 -0.4014  0.6386  0.1594
  265MPD2     H 4012   1.315   3.699  15.628 -0.3171  0.5234  1.2350
  265MPD2    H1 4013   1.246   3.282  15.717 -1.8340  0.2285  0.6795
  265MPD2    H2 4014   1.055   3.570  15.943 -1.1289 -4.1203  0.0068
  265MPD2    H3 4015   1.114   3.343  15.892 -1.2237  1.1327  0.4053
  265MPD2     N 4016   1.366   3.456  15.544 -0.3830  0.3065  0.4376
  265MPD2    H5 4017   1.371   3.357  15.521 -0.4778  0.9293 -2.3247
  265MPD2    N1 4018   1.144   3.782  15.830 -0.0277  0.2309  0.1830
  265MPD2    H7 4019   1.212   3.853  15.804  0.6136  0.1744  1.7391
  266TMC3    C1 4020   1.033   3.964  15.919  0.4359 -0.5159 -0.1173
  266TMC3    C2 4021   1.147   4.025  15.974 -1.0214 -0.3561 -0.3875
  266TMC3    C3 4022   1.146   4.160  15.988  0.5172 -0.7060  0.3684
  266TMC3    C4 4023   0.919   4.031  15.893  0.0222  0.2481  0.5084
  266TMC3    C5 4024   0.921   4.169  15.908 -0.3392  0.2114  0.3798
  266TMC3    C6 4025   1.035   4.238  15.949  0.3696  0.1371  0.0762
  266TMC3     C 4026   1.035   3.820  15.900  0.5011 -0.1935 -0.3504
  266TMC3     O 4027   0.926   3.766  15.917  0.4257  0.1614 -0.4563
  266TMC3     H 4028   1.217   3.959  16.026 -0.4202  0.4631 -0.1576
  266TMC3    H1 4029   0.831   3.983  15.851  0.6218 -0.0921 -0.3726
  266TMC3    H2 4030   1.044   4.346  15.954 -2.8673  0.4553 -1.0764
  266TMC3    C7 4031   0.846   4.229  15.803  0.0618  1.0329 -0.1136
  266TMC3    C8 4032   1.245   4.216  16.079  0.5154 -0.7610 -0.5203
  266TMC3    O1 4033   0.726   4.212  15.805  0.3603 -0.2446 -0.1950
  266TMC3    O2 4034   1.323   4.131  16.125 -0.2438  0.2182 -0.6612
  267MPD2     C 4035   3.494   0.542  17.479  0.4269  0.7453 -0.2589
  267MPD2    C1 4036   3.564   0.576  17.364  0.4324  0.0148 -0.4994
  267MPD2    C2 4037   3.515   0.545  17.246  0.4043  0.1148  0.2472
  267MPD2    C3 4038   3.393   0.477  17.230 -0.0225 -0.3820 -0.0516
  267MPD2    C4 4039   3.313   0.445  17.343  0.2945 -0.1161 -0.5760
  267MPD2    C5 4040   3.364   0.484  17.467 -0.3025 -0.3117 -0.0634
  267MPD2     H 4041   3.573   0.561  17.156 -0.0661 -1.6944 -0.3709
  267MPD2    H1 4042   3.229   0.377  17.339  0.8009 -0.7479 -0.4932
  267MPD2    H2 4043   3.535   0.542  17.579 -1.8476 -0.0203  0.6667
  267MPD2    H3 4044   3.299   0.455  17.548  2.1442  1.1326  2.3790
  267MPD2     N 4045   3.354   0.418  17.103  0.0380  0.0665 -0.5138
  267MPD2    H5 4046   3.289   0.340  17.110 -0.9905  0.7714 -2.2298
  267MPD2    N1 4047   3.703   0.607  17.376 -0.3176 -0.6918 -0.2344
  267MPD2    H7 4048   3.758   0.620  17.292  0.2574  3.0035  0.6872
  268TMC3    C1 4049   3.911   0.629  17.459  0.4289 -0.2183 -0.0659
  268TMC3    C2 4050   3.969   0.583  17.344 -0.1665 -0.7229  0.1091
  268TMC3    C3 4051   4.105   0.597  17.332 -0.5679 -0.1493  0.2809
  268TMC3    C4 4052   3.983   0.683  17.561 -0.1247  0.5215 -1.0991
  268TMC3    C5 4053   4.122   0.697  17.546  0.2916  0.2248 -0.6913
  268TMC3    C6 4054   4.178   0.659  17.426  0.4800 -0.2575 -0.2751
  268TMC3     C 4055   3.773   0.613  17.492 -0.0456  0.2053  0.6006
  268TMC3     O 4056   3.740   0.618  17.610 -0.7460  0.9171 -0.3524
  268TMC3     H 4057   3.904   0.529  17.276  0.0976  1.2584 -1.7402
  268TMC3    H1 4058   3.944   0.724  17.653  2.8976  0.1178  0.3486
  268TMC3    H2 4059   4.284   0.670  17.411  0.0747 -0.8967 -3.5648
  268TMC3    C7 4060   4.200   0.747  17.662 -0.6241 -0.5209 -0.3008
  268TMC3    C8 4061   4.179   0.524  17.233 -0.0183 -0.7289 -0.4491
  268TMC3    O1 4062   4.155   0.771   0.075  0.5262 -0.2830 -0.3331
  268TMC3    O2 4063   4.287   0.480  17.274  0.5194 -0.8014 -0.6168
  269MPD2     C 4064   4.392   4.219  15.601 -0.3551  0.1363  0.7059
  269MPD2    C1 4065   4.254   4.215  15.620  0.6689  0.3612  0.1096
  269MPD2    C2 4066   4.184   4.307  15.547 -0.1160 -0.1694 -0.4866
  269MPD2    C3 4067   4.243   4.393  15.454 -0.0904  0.6856  0.0626
  269MPD2    C4 4068   4.373   4.388  15.441  0.5782 -0.0674  0.0009
  269MPD2    C5 4069   4.451   4.291  15.502 -0.3219 -0.1129 -0.3392
  269MPD2     H 4070   4.076   4.312  15.556  0.0870  2.7414  0.1391
  269MPD2    H1 4071   4.418   4.459  15.372 -0.3327  0.9888  0.4777
  269MPD2    H2 4072   4.451   4.138  15.643  2.5450  1.0616 -1.5947
  269MPD2    H3 4073   4.559   4.301  15.501 -0.2438 -0.7662  1.0668
  269MPD2     N 4074   4.156   4.490  15.405 -0.0862  0.3196 -0.4629
  269MPD2    H5 4075   4.065   4.493  15.450 -0.8448 -3.2321 -1.7676
  269MPD2    N1 4076   4.191   4.133  15.719 -0.1498 -0.4828 -0.5721
  269MPD2    H7 4077   4.237   4.053  15.760  0.7814 -0.3386 -1.3318
  270TMC3    C1 4078   3.996   4.002  15.773  0.3618  0.1839 -0.1695
  270TMC3    C2 4079   3.862   3.984  15.769 -0.5736 -0.1664  0.4486
  270TMC3    C3 4080   3.808   3.866  15.814  0.6286 -0.7812 -0.0622
  270TMC3    C4 4081   4.074   3.890  15.792  0.5378  0.2364 -0.5294
  270TMC3    C5 4082   4.018   3.763  15.812  0.0929 -0.1028  0.1146
  270TMC3    C6 4083   3.883   3.757  15.832  0.9015 -0.5435 -0.5815
  270TMC3     C 4084   4.053   4.128  15.733  0.3566  0.1839 -0.0746
  270TMC3     O 4085   3.976   4.223  15.729 -0.3373  0.2203  0.0985
  270TMC3     H 4086   3.798   4.069  15.747  0.3351  0.2655 -0.5487
  270TMC3    H1 4087   4.182   3.889  15.787  0.5224  1.0695 -1.2297
  270TMC3    H2 4088   3.840   3.660  15.852 -0.6193  0.3813  0.6063
  270TMC3    C7 4089   4.072   3.652  15.741 -0.2101  0.1489 -0.0723
  270TMC3    C8 4090   3.670   3.839  15.763 -0.2764  0.4713 -0.0543
  270TMC3    O1 4091   4.192   3.642  15.749 -0.7121  0.0394 -0.2056
  270TMC3    O2 4092   3.582   3.805  15.841 -0.1436  0.3436  0.4824
  271MPD2     C 4093   3.080   4.032  14.176  0.0904  0.3062 -0.1580
  271MPD2    C1 4094   3.006   3.918  14.180  0.2063  0.0017 -0.8756
  271MPD2    C2 4095   2.873   3.929  14.146  0.5981 -0.6747  0.0673
  271MPD2    C3 4096   2.808   4.045  14.105 -0.3604 -0.1250  0.6804
  271MPD2    C4 4097   2.883   4.158  14.107  0.1470  0.3596 -0.2947
  271MPD2    C5 4098   3.021   4.148  14.135  0.3772 -0.4498  0.6626
  271MPD2     H 4099   2.813   3.839  14.151  1.6523 -1.4625 -1.5335
  271MPD2    H1 4100   2.835   4.249  14.072  1.1677  1.3100  0.7460
  271MPD2    H2 4101   3.186   4.028  14.198  0.4790  0.7097 -1.9672
  271MPD2    H3 4102   3.083   4.237  14.130 -0.7708  0.1653 -2.6341
  271MPD2     N 4103   2.673   4.051  14.061  0.6076 -0.1284 -0.2018
  271MPD2    H5 4104   2.632   4.144  14.054 -0.6560 -0.6584  0.1238
  271MPD2    N1 4105   3.066   3.799  14.241 -0.0880 -0.4122  0.2037
  271MPD2    H7 4106   3.007   3.722  14.272  1.4121 -1.6548 -0.0104
  272TMC3    C1 4107   3.232   3.653  14.330 -0.2411 -0.7121  0.2825
  272TMC3    C2 4108   3.354   3.594  14.303  0.2962  0.0198 -1.2822
  272TMC3    C3 4109   3.410   3.524  14.405 -0.1397 -0.5105 -0.4836
  272TMC3    C4 4110   3.177   3.653  14.458  0.0188 -0.1928 -0.4072
  272TMC3    C5 4111   3.248   3.592  14.558  0.7801  0.6838 -0.5221
  272TMC3    C6 4112   3.359   3.516  14.536 -0.1674 -0.1772 -0.3190
  272TMC3     C 4113   3.202   3.775  14.254 -0.0978  0.1995  0.2205
  272TMC3     O 4114   3.293   3.846  14.214 -0.1955 -0.0114  0.7254
  272TMC3     H 4115   3.397   3.591  14.203 -1.2152  1.3276 -1.9729
  272TMC3    H1 4116   3.087   3.705  14.487  1.0906  1.2418  0.3582
  272TMC3    H2 4117   3.416   3.468  14.614  0.8746  2.4143  0.4779
  272TMC3    C7 4118   3.199   3.614  14.700 -0.0911 -0.2141 -0.2294
  272TMC3    C8 4119   3.541   3.465  14.379  0.6611  0.1979  0.0393
  272TMC3    O1 4120   3.081   3.638  14.724  0.3476 -0.1557 -0.3499
  272TMC3    O2 4121   3.588   3.472  14.265  0.2698 -0.2015  0.1066
  273MPD2     C 4122   4.437   1.706  11.653  0.1310  0.0408  0.4013
  273MPD2    C1 4123   4.508   1.822  11.659 -0.4491 -0.5184 -0.5507
  273MPD2    C2 4124   4.499   1.899  11.544  0.0878 -0.0782 -0.3088
  273MPD2    C3 4125   4.439   1.863  11.421  0.3680  0.1021  0.6430
  273MPD2    C4 4126   4.371   1.741  11.428  0.1486  0.5866 -0.1393
  273MPD2    C5 4127   4.366   1.668  11.544  0.2257  0.4405 -0.4979
  273MPD2     H 4128   4.548   1.996  11.546  1.8531 -1.0042  2.0641
  273MPD2    H1 4129   4.318   1.713  11.337  1.2038  0.0876 -0.6050
  273MPD2    H2 4130   4.435   1.638  11.738 -0.3166  0.8225  1.0192
  273MPD2    H3 4131   4.308   1.577  11.543 -0.5540  0.9363 -0.3515
  273MPD2     N 4132   4.437   1.940  11.300 -0.0356  0.7050 -0.3366
  273MPD2    H5 4133   4.390   1.910  11.215  0.8603 -1.6491  0.0001
  273MPD2    N1 4134   4.593   1.850  11.767  0.7696 -0.2803  0.2245
  273MPD2    H7 4135   4.580   1.794  11.850  1.2853  0.5363  0.8604
  274TMC3    C1 4136   4.488   2.140  11.172 -0.6545  0.9407  0.1162
  274TMC3    C2 4137   4.362   2.138  11.114  0.2602  0.3612  0.5110
  274TMC3    C3 4138   4.321   2.249  11.045  0.0808  0.5986 -0.0965
  274TMC3    C4 4139   4.575   2.243  11.153 -0.6806  0.0284  0.0367
  274TMC3    C5 4140   4.528   2.350  11.094  0.3506 -1.3430 -0.3354
  274TMC3    C6 4141   4.404   2.355  11.025  0.5065  0.0614  0.3206
  274TMC3     C 4142   4.521   2.058  11.288  0.5556  0.5055 -0.4161
  274TMC3     O 4143   4.597   2.113  11.367 -0.0733  0.0507 -0.0018
  274TMC3     H 4144   4.289   2.061  11.141 -1.5769  1.1194 -2.3470
  274TMC3    H1 4145   4.667   2.244  11.210 -0.7832  0.2334  0.1999
  274TMC3    H2 4146   4.368   2.447  10.981  0.2998 -0.7738 -1.2353
  274TMC3    C7 4147   4.559   2.477  11.166  0.0900  0.4057 -0.5493
  274TMC3    C8 4148   4.217   2.235  10.944  0.2411 -0.4589 -0.6681
  274TMC3    O1 4149   4.470   2.560  11.158  0.0410  0.4847 -0.1596
  274TMC3    O2 4150   4.166   2.340  10.907 -0.1954 -0.4085  0.8225
  275MPD2     C 4151   4.462   0.307  14.412  0.3580  0.2994  0.0858
  275MPD2    C1 4152   4.461   0.205  14.495  0.4166  0.3889 -0.6997
  275MPD2    C2 4153   4.375   0.098  14.475 -0.2817 -0.6997  0.0809
  275MPD2    C3 4154   4.300   0.090  14.357  0.5918  0.3491 -0.4637
  275MPD2    C4 4155   4.298   0.201  14.270 -0.1166  0.5355  0.4013
  275MPD2    C5 4156   4.381   0.306  14.300 -0.7297  0.0154  1.0154
  275MPD2     H 4157   4.371   0.018  14.548  3.0658 -0.1356  0.8763
  275MPD2    H1 4158   4.235   0.193  14.182  0.3807  0.7906  0.0232
  275MPD2    H2 4159   4.529   0.391  14.424 -2.5758  3.1110 -3.2640
  275MPD2    H3 4160   4.379   0.394  14.237  1.7148 -0.7333 -0.1369
  275MPD2     N 4161   4.205   4.708  14.335  0.6059  0.2892  0.6669
  275MPD2    H5 4162   4.162   4.721  14.245  1.2396 -1.2487  0.1346
  275MPD2    N1 4163   4.541   0.209  14.613  0.2164  0.1874 -0.1309
  275MPD2    H7 4164   4.528   0.129  14.674 -1.3520  0.6335  0.1244
  276TMC3    C1 4165   4.687   0.307  14.772 -0.6839 -0.1801  0.0058
  276TMC3    C2 4166   4.607   0.265  14.872  0.2913 -0.3174 -0.2840
  276TMC3    C3 4167   4.616   0.321  14.991 -0.1175 -0.4397  0.6333
  276TMC3    C4 4168   0.056   0.408  14.786 -0.3673  0.2179  0.5524
  276TMC3    C5 4169   0.048   0.479  14.905 -0.7510  0.2573 -0.3793
  276TMC3    C6 4170   4.702   0.429  15.011 -0.6357 -0.7977  0.6870
  276TMC3     C 4171   4.642   0.296  14.634  0.1866 -0.4706  0.1123
  276TMC3     O 4172   4.705   0.370  14.559 -0.0593  0.1748  0.2480
  276TMC3     H 4173   4.554   0.171  14.867 -2.2178  1.1553 -1.9385
  276TMC3    H1 4174   0.120   0.447  14.708  0.3421  0.3006  1.1814
  276TMC3    H2 4175   4.696   0.467  15.112  1.0856  3.6779 -0.9001
  276TMC3    C7 4176   0.171   0.529  14.951  0.2078 -0.3528 -0.2900
  276TMC3    C8 4177   4.665   0.212  15.070  0.1442  0.0367  0.5119
  276TMC3    O1 4178   0.183   0.512  15.069  0.5253 -0.1330  0.0058
  276TMC3    O2 4179   4.589   0.118  15.094 -0.2469 -0.2251 -0.1435
  277MPD2     C 4180   1.499   3.926  13.047 -0.2971 -0.0855  0.3536
  277MPD2    C1 4181   1.388   3.926  13.117  0.2842  0.4412 -0.1875
  277MPD2    C2 4182   1.371   3.835  13.221  0.1467  0.1022 -0.3588
  277MPD2    C3 4183   1.468   3.748  13.263  0.3629 -0.1846  0.0524
  277MPD2    C4 4184   1.584   3.751  13.187  0.7229  0.3074  0.7654
  277MPD2    C5 4185   1.599   3.836  13.079 -0.0316 -0.4153 -0.3229
  277MPD2     H 4186   1.276   3.817  13.268  0.4665  2.5076  1.1876
  277MPD2    H1 4187   1.664   3.682  13.210  1.3399  0.4780 -0.8467
  277MPD2    H2 4188   1.503   3.995  12.963 -0.5866 -1.8681 -1.1269
  277MPD2    H3 4189   1.690   3.829  13.021  0.3131  1.0206  0.0441
  277MPD2     N 4190   1.449   3.654  13.367  0.4302  0.5840 -0.6696
  277MPD2    H5 4191   1.362   3.663  13.419  1.5132  1.5668  1.0179
  277MPD2    N1 4192   1.287   4.016  13.081  0.0017  1.0928  0.0321
  277MPD2    H7 4193   1.311   4.070  12.998 -1.2733  1.6716  0.0423
  278TMC3    C1 4194   1.472   3.470  13.503  0.2170 -0.0293 -0.7282
  278TMC3    C2 4195   1.480   3.330  13.500  0.5148  0.4669  0.1367
  278TMC3    C3 4196   1.442   3.259  13.611 -0.7750 -0.7961 -0.1430
  278TMC3    C4 4197   1.422   3.539  13.610 -0.2722 -0.1504 -1.2690
  278TMC3    C5 4198   1.378   3.465  13.716 -0.1035  0.2006 -0.0439
  278TMC3    C6 4199   1.397   3.324  13.724  0.1898 -0.3613  0.6004
  278TMC3     C 4200   1.531   3.550  13.394 -0.3170  0.8911  0.1039
  278TMC3     O 4201   1.634   3.505  13.344 -0.1450  0.3484 -0.2260
  278TMC3     H 4202   1.520   3.282  13.412  0.0669 -2.0486  1.3056
  278TMC3    H1 4203   1.420   3.647  13.601 -1.0877  0.0471  1.2617
  278TMC3    H2 4204   1.372   3.275  13.817 -1.6347 -0.8215 -0.1457
  278TMC3    C7 4205   1.311   3.528  13.823 -1.0464 -0.1679  0.3647
  278TMC3    C8 4206   1.422   3.122  13.607  0.7916 -0.6054  0.1616
  278TMC3    O1 4207   1.236   3.461  13.891 -0.1008  0.0214  0.2232
  278TMC3    O2 4208   1.474   3.062  13.701 -0.7590 -0.2563 -0.2680
  279MPD2     C 4209   0.933   3.741   0.333 -0.4213 -0.0771 -0.1053
  279MPD2    C1 4210   0.868   3.866   0.329 -0.4112 -0.9915  0.6652
  279MPD2    C2 4211   0.898   3.963   0.237  0.5652  0.3944  0.2219
  279MPD2    C3 4212   0.978   3.925   0.135  0.7333 -0.3840  0.4688
  279MPD2    C4 4213   1.052   3.806   0.136 -0.0213  0.1557 -0.4337
  279MPD2    C5 4214   1.029   3.710   0.233 -0.3408 -0.3766 -0.0190
  279MPD2     H 4215   0.848   4.059   0.239 -1.9742 -0.8747 -2.6599
  279MPD2    H1 4216   1.124   3.774   0.062  0.0170 -0.1852 -0.2503
  279MPD2    H2 4217   0.915   3.660   0.403  1.7365  0.4850  1.0842
  279MPD2    H3 4218   1.089   3.620   0.236 -0.3182 -0.3810 -0.7492
  279MPD2     N 4219   0.985   4.016   0.031 -0.0703  0.5681  0.0377
  279MPD2    H5 4220   1.014   3.979  17.639  0.2669  2.2320 -0.5384
  279MPD2    N1 4221   0.775   3.886   0.427 -0.9081 -0.4601 -0.2508
  279MPD2    H7 4222   0.731   3.808   0.473 -1.4072 -0.1865 -0.2680
  280TMC3    C1 4223   0.584   3.986   0.515  0.2678  0.5185 -0.2451
  280TMC3    C2 4224   0.533   3.860   0.540  0.3098 -0.2409  0.2309
  280TMC3    C3 4225   0.399   3.831   0.518 -0.5901  0.5520 -0.6953
  280TMC3    C4 4226   0.488   4.087   0.499  0.5553 -0.6478 -0.0702
  280TMC3    C5 4227   0.352   4.056   0.483 -0.3366 -0.1731 -0.0580
  280TMC3    C6 4228   0.303   3.933   0.495 -0.2026  0.0889  0.3528
  280TMC3     C 4229   0.718   4.004   0.467  1.0615 -0.2763 -0.1525
  280TMC3     O 4230   0.753   4.120   0.453 -0.4089  0.6207 -0.5767
  280TMC3     H 4231   0.591   3.769   0.549 -1.0996 -1.1530  0.0293
  280TMC3    H1 4232   0.525   4.183   0.466 -0.4030 -0.2244  0.0840
  280TMC3    H2 4233   0.202   3.904   0.466  1.0058 -3.0366 -0.7311
  280TMC3    C7 4234   0.287   4.161   0.407  0.6324 -0.5286 -0.0306
  280TMC3    C8 4235   0.352   3.695   0.509  1.1833 -0.8519  0.7289
  280TMC3    O1 4236   0.336   4.274   0.428  0.1957  0.4857  0.1791
  280TMC3    O2 4237   0.257   3.676   0.432  0.3646 -0.3677  0.0937
  281TMC3    C1 4238   3.938   4.056  12.959  0.6933 -0.5680  0.1908
  281TMC3    C2 4239   3.830   4.100  12.886  0.4774 -0.6347 -0.1509
  281TMC3    C3 4240   3.746   4.003  12.834 -0.4739 -0.9355 -0.7739
  281TMC3    C4 4241   3.956   3.920  12.989  0.1645  0.2234  0.4845
  281TMC3    C5 4242   3.864   3.832  12.941 -0.2867  0.0908 -0.1968
  281TMC3    C6 4243   3.769   3.868  12.853 -0.1273  0.1286 -1.1587
  281TMC3     C 4244   3.984   4.147  13.058  0.3388 -0.1904 -0.5630
  281TMC3     O 4245   4.099   4.130  13.101  0.0670  0.3433  0.2350
  281TMC3     H 4246   3.803   4.203  12.867  0.6408 -0.3881  0.9204
  281TMC3    H1 4247   4.039   3.894  13.054 -0.3331 -0.6487  0.7728
  281TMC3    H2 4248   3.684   3.803  12.834 -2.0473  1.5840  2.5331
  281TMC3    C7 4249   3.870   3.693  12.990  0.5243  0.6817  0.2879
  281TMC3    C8 4250   3.608   4.042  12.831 -0.2854 -0.3355 -0.1682
  281TMC3    O1 4251   3.798   3.608  12.936 -0.6109 -0.4120 -0.2154
  281TMC3    O2 4252   3.534   3.982  12.903 -0.8314 -0.6211  0.0007
  282MPD2     C 4253   1.523   0.951  15.007  0.0236  0.1941  0.3095
  282MPD2    C1 4254   1.413   0.875  15.022  0.9020  0.5093  0.6766
  282MPD2    C2 4255   1.335   0.841  14.911  0.2462 -0.4004 -0.0199
  282MPD2    C3 4256   1.368   0.899  14.793 -0.7258 -0.5976 -0.5555
  282MPD2    C4 4257   1.487   0.979  14.771  0.2626 -0.2085  0.0899
  282MPD2    C5 4258   1.556   1.000  14.884  0.0840  0.1654  0.1394
  282MPD2     H 4259   1.247   0.778  14.919 -0.0062  0.0676  0.9138
  282MPD2    H1 4260   1.512   1.018  14.673  1.1300 -1.6748 -0.2820
  282MPD2    H2 4261   1.582   0.971  15.096 -1.2175 -1.7426  1.5667
  282MPD2    H3 4262   1.635   1.074  14.869 -1.3257  1.1135 -2.6802
  282MPD2     N 4263   1.287   0.880  14.679 -0.1880 -0.2267 -0.1749
  282MPD2    H5 4264   1.189   0.860  14.693 -0.1885 -0.7531 -0.9115
  282MPD2    N1 4265   1.396   0.812  15.147 -0.2763 -0.0490 -0.0231
  282MPD2    H7 4266   1.457   0.839  15.223  1.8629  0.7079 -2.0184
  283TMC3    C1 4267   1.290   0.697  15.330  0.2114 -0.6561  0.3184
  283TMC3    C2 4268   1.360   0.772  15.418  0.3467  0.1126  0.3963
  283TMC3    C3 4269   1.334   0.753  15.551 -0.0155  0.0332 -0.5975
  283TMC3    C4 4270   1.207   0.600  15.368 -0.2757 -0.3204  0.0410
  283TMC3    C5 4271   1.180   0.590  15.497  0.2703  0.7945  0.3209
  283TMC3    C6 4272   1.247   0.661  15.593  0.0531  0.3447 -0.1901
  283TMC3     C 4273   1.300   0.720  15.183 -0.6476  0.0702 -0.0174
  283TMC3     O 4274   1.229   0.653  15.111 -0.0255  0.2386  0.1109
  283TMC3     H 4275   1.441   0.838  15.388  0.7552 -1.1455 -1.2486
  283TMC3    H1 4276   1.160   0.537  15.293 -1.9953  0.7392  0.2255
  283TMC3    H2 4277   1.228   0.647  15.699  0.1278  0.4625 -0.1608
  283TMC3    C7 4278   1.072   0.496  15.548  0.2208 -0.5451  0.6786
  283TMC3    C8 4279   1.414   0.824  15.651  0.0589 -0.1600  0.4254
  283TMC3    O1 4280   1.056   0.495  15.672 -0.0855  0.0403 -0.0563
  283TMC3    O2 4281   1.399   0.783  15.762 -0.4832  0.2364  0.0825
  284MPD2     C 4282   4.022   0.378  11.680  0.7244  0.0103  0.2357
  284MPD2    C1 4283   4.084   0.338  11.566  0.1506 -0.1658 -0.0891
  284MPD2    C2 4284   4.034   0.235  11.494  0.4016  0.4292  0.2500
  284MPD2    C3 4285   3.949   0.147  11.559  0.4033  0.5320 -0.7652
  284MPD2    C4 4286   3.891   0.183  11.682  0.1055  0.0062  0.2023
  284MPD2    C5 4287   3.919   0.309  11.733  0.2983  0.1157 -0.0220
  284MPD2     H 4288   4.081   0.206  11.401 -3.1653 -0.0424 -1.4312
  284MPD2    H1 4289   3.822   0.114  11.730 -0.4081  0.2121 -0.2363
  284MPD2    H2 4290   4.034   0.468  11.739  0.9151  0.7201 -0.8973
  284MPD2    H3 4291   3.856   0.346  11.813 -0.4467  0.6635 -0.8568
  284MPD2     N 4292   3.934   0.024  11.494  0.4009  0.7914  0.1739
  284MPD2    H5 4293   3.981   0.022  11.404 -0.7054 -1.4437 -0.3675
  284MPD2    N1 4294   4.216   0.389  11.536 -0.5899 -0.0974 -0.0365
  284MPD2    H7 4295   4.260   0.346  11.455  1.1688  0.7154  0.4949
  285TMC3    C1 4296   4.431   0.480  11.558  0.2156 -0.1319 -0.2521
  285TMC3    C2 4297   4.485   0.358  11.521  0.2140 -0.5686 -0.1007
  285TMC3    C3 4298   4.622   0.351  11.508  0.0618  0.4197 -0.4999
  285TMC3    C4 4299   4.508   0.578  11.613  0.2196  0.5191  0.2784
  285TMC3    C5 4300   4.647   0.571  11.588 -0.1448 -0.4408 -0.2461
  285TMC3    C6 4301   4.710   0.457  11.531 -0.2149 -0.8012  0.4946
  285TMC3     C 4302   4.294   0.482  11.599  0.5891  0.3606 -0.1065
  285TMC3     O 4303   4.269   0.559  11.691  0.4420 -0.0263  0.1844
  285TMC3     H 4304   4.427   0.268  11.501 -2.0656  0.4900  1.7133
  285TMC3    H1 4305   4.462   0.670  11.648  2.0558  0.8337  1.8455
  285TMC3    H2 4306   0.083   0.458  11.481  0.1550  2.5690  1.2990
  285TMC3    C7 4307   4.719   0.696  11.607 -0.1152 -0.3477  0.2948
  285TMC3    C8 4308   4.675   0.217  11.487  0.5199 -0.5383  0.4796
  285TMC3    O1 4309   4.652   0.800  11.609  0.2947  0.4237  0.2925
  285TMC3    O2 4310   4.601   0.137  11.432 -0.0888 -0.2777 -0.4877
  286MPD2     C 4311   4.555   4.006   1.566  0.2377 -0.2198 -0.5518
  286MPD2    C1 4312   4.608   3.956   1.451 -0.2308 -0.1123  0.0035
  286MPD2    C2 4313   4.686   3.835   1.461  0.6876  0.4343 -0.1342
  286MPD2    C3 4314   4.709   3.775   1.584  0.3381 -0.3397 -0.0042
  286MPD2    C4 4315   4.655   3.832   1.692  0.0593  0.3857  0.9110
  286MPD2    C5 4316   4.575   3.941   1.683  0.0838 -0.1723  0.4989
  286MPD2     H 4317   4.717   3.795   1.366 -3.7351  1.3587 -1.9644
  286MPD2    H1 4318   4.679   3.792   1.790  1.0269 -0.6384  0.2553
  286MPD2    H2 4319   4.504   4.102   1.563  1.2047  0.3179  0.3952
  286MPD2    H3 4320   4.534   3.985   1.773 -0.0013 -0.8210  0.7751
  286MPD2     N 4321   0.049   3.651   1.590  0.0137  0.3925  0.0043
  286MPD2    H5 4322   0.075   3.623   1.685 -0.5568 -0.0838  0.0207
  286MPD2    N1 4323   4.589   4.014   1.323  0.0254  0.5546  0.1736
  286MPD2    H7 4324   4.654   3.998   1.247  0.7879 -0.9074  1.1415
  287TMC3    C1 4325   0.139   3.442   1.530 -0.6362  0.2506 -0.5053
  287TMC3    C2 4326   0.156   3.348   1.430  0.7461 -1.3809 -1.1957
  287TMC3    C3 4327   0.267   3.268   1.431  0.0074  0.6195  0.5275
  287TMC3    C4 4328   0.239   3.456   1.628  0.7250 -0.4936  0.6295
  287TMC3    C5 4329   0.343   3.370   1.632 -1.2000  0.3583 -0.5819
  287TMC3    C6 4330   0.369   3.282   1.531  0.2014 -0.4502  0.2952
  287TMC3     C 4331   0.061   3.556   1.493 -0.2155  0.6486 -0.0001
  287TMC3     O 4332   0.017   3.566   1.380  0.2920 -0.3914  0.3034
  287TMC3     H 4333   0.082   3.336   1.352 -0.5811 -1.7183  0.1185
  287TMC3    H1 4334   0.239   3.541   1.696 -0.3346 -0.2718  0.3584
  287TMC3    H2 4335   0.461   3.224   1.534 -0.1991 -1.1097 -0.0948
  287TMC3    C7 4336   0.446   3.407   1.735  0.0280 -0.5561 -0.7284
  287TMC3    C8 4337   0.303   3.185   1.314 -0.6877  0.4022 -0.2010
  287TMC3    O1 4338   0.411   3.425   1.849 -0.2281  0.6858  0.0054
  287TMC3    O2 4339   0.421   3.143   1.319 -0.4905 -0.1575  0.1231
  288TMC3    C1 4340   1.652   3.542  14.567  0.2431 -0.4302 -0.5208
  288TMC3    C2 4341   1.588   3.555  14.688 -0.4363  0.0274  0.1730
  288TMC3    C3 4342   1.592   3.683  14.740 -0.0628  0.8685  0.1305
  288TMC3    C4 4343   1.720   3.648  14.505  0.2740  0.4902 -0.8878
  288TMC3    C5 4344   1.725   3.773  14.570  0.0368 -0.9480  0.0303
  288TMC3    C6 4345   1.658   3.788  14.687 -0.1882  0.0537  0.1628
  288TMC3     C 4346   1.641   3.412  14.501 -0.5721 -0.2017 -0.6815
  288TMC3     O 4347   1.604   3.320  14.574 -0.1445 -0.1482  0.2105
  288TMC3     H 4348   1.538   3.473  14.738 -1.4137  0.7013  0.2756
  288TMC3    H1 4349   1.770   3.632  14.410  0.4732 -0.5865 -0.6029
  288TMC3    H2 4350   1.656   3.886  14.734 -0.9893 -0.4191  1.1303
  288TMC3    C7 4351   1.850   3.851  14.537 -0.2700  0.0738  0.2503
  288TMC3    C8 4352   1.520   3.712  14.856 -0.5281  0.0194  0.2493
  288TMC3    O1 4353   1.930   3.798  14.462  0.0412 -0.0132  0.5184
  288TMC3    O2 4354   1.554   3.806  14.919 -0.0273  0.0614 -0.2306
  289MPD2     C 4355   1.824   2.296  14.329  0.5007 -0.4299  0.0656
  289MPD2    C1 4356   1.764   2.418  14.305  1.5061 -0.2769  0.0141
  289MPD2    C2 4357   1.664   2.435  14.211  0.1907  0.6370 -0.0228
  289MPD2    C3 4358   1.630   2.328  14.134 -0.2836  0.3521  0.8019
  289MPD2    C4 4359   1.696   2.207  14.147  0.2753  0.0266 -1.1665
  289MPD2    C5 4360   1.781   2.190  14.254 -0.0183 -0.3616  0.2355
  289MPD2     H 4361   1.614   2.529  14.192 -0.5588  0.7417  2.4085
  289MPD2    H1 4362   1.659   2.119  14.096 -1.4913 -0.8631  1.6366
  289MPD2    H2 4363   1.901   2.280  14.403  0.4783 -0.2540  0.1263
  289MPD2    H3 4364   1.832   2.094  14.267  0.6355 -0.1816 -0.9853
  289MPD2     N 4365   1.513   2.327  14.053  0.2043  0.0730 -0.1581
  289MPD2    H5 4366   1.476   2.236  14.030  1.3304 -0.2153 -0.7785
  289MPD2    N1 4367   1.796   2.527  14.384 -0.0161 -0.0229  0.1050
  289MPD2    H7 4368   1.864   2.517  14.458  1.4063 -0.9563 -1.3323
  290TMC3    C1 4369   1.312   2.416  13.975  0.0169 -0.8546 -0.0412
  290TMC3    C2 4370   1.258   2.524  13.915 -0.3790 -1.1982  0.0187
  290TMC3    C3 4371   1.125   2.539  13.923 -0.2773  0.5450 -0.7681
  290TMC3    C4 4372   1.243   2.338  14.059  0.1030 -0.5145 -0.3620
  290TMC3    C5 4373   1.110   2.358  14.066  0.5075  0.5602 -1.1483
  290TMC3    C6 4374   1.044   2.459  13.992 -0.4732  0.0260  0.1742
  290TMC3     C 4375   1.451   2.443  14.013 -0.0974 -0.2056 -0.7302
  290TMC3     O 4376   1.485   2.562  14.005 -0.1707 -0.5247  0.1534
  290TMC3     H 4377   1.321   2.589  13.854 -2.8662 -0.9208 -2.2572
  290TMC3    H1 4378   1.296   2.276  14.130 -1.6838 -2.2189 -0.5246
  290TMC3    H2 4379   0.942   2.493  14.003 -0.9303 -1.7898  1.4278
  290TMC3    C7 4380   1.041   2.334  14.192 -0.0610 -0.0978  0.1320
  290TMC3    C8 4381   1.072   2.669  13.884  0.1068 -0.2368 -0.3123
  290TMC3    O1 4382   0.990   2.430  14.241  0.6848  0.1008  0.1570
  290TMC3    O2 4383   0.958   2.672  13.837  0.0641 -0.1672 -0.0576
  291MPD2     C 4384   1.086   2.624   0.004  0.3898 -0.6764  0.3292
  291MPD2    C1 4385   1.126   2.484   0.009 -0.1895 -0.1560  0.4961
  291MPD2    C2 4386   1.236   2.451   0.083 -0.8930 -0.0664  0.0592
  291MPD2    C3 4387   1.315   2.552   0.137 -0.1979  1.0993 -0.2098
  291MPD2    C4 4388   1.274   2.681   0.138  0.0502 -0.4973  0.1586
  291MPD2    C5 4389   1.158   2.711   0.065 -0.1198  0.0387  0.0651
  291MPD2     H 4390   1.257   2.345   0.093  0.4816  0.5056  3.2414
  291MPD2    H1 4391   1.334   2.755   0.189 -1.7064  0.4428  0.8422
  291MPD2    H2 4392   0.997   2.666  17.655  0.6311  1.1146  1.4930
  291MPD2    H3 4393   1.128   2.815   0.059 -1.6524 -0.3114  1.8040
  291MPD2     N 4394   1.446   2.521   0.194  0.7856  0.0761  0.9823
  291MPD2    H5 4395   1.494   2.592   0.248 -0.6227  0.5587  1.5873
  291MPD2    N1 4396   1.066   2.380  17.640  0.5582  0.1855 -0.2221
  291MPD2    H7 4397   1.107   2.290  17.661  0.5618 -0.0825 -1.3630
  292TMC3    C1 4398   0.920   2.268  17.509 -0.0006 -0.5982 -0.4696
  292TMC3    C2 4399   0.888   2.268  17.377  0.3029 -1.0391  0.9619
  292TMC3    C3 4400   0.904   2.155  17.303 -0.4166 -0.4143 -0.0601
  292TMC3    C4 4401   0.979   2.161  17.567  0.7766  0.1820 -0.6500
  292TMC3    C5 4402   1.012   2.059  17.479 -0.2648  0.2307  0.2989
  292TMC3    C6 4403   0.979   2.056  17.350  0.0137 -0.1155  0.8143
  292TMC3     C 4404   0.957   2.396  17.557 -0.5659  1.2593 -0.5115
  292TMC3     O 4405   0.889   2.494  17.522  0.0092  0.9403  0.1322
  292TMC3     H 4406   0.814   2.342  17.345  0.4167 -1.3351  0.0296
  292TMC3    H1 4407   0.998   2.150  17.674  2.5554 -0.0805 -0.9999
  292TMC3    H2 4408   1.014   1.976  17.286  1.9307  2.1580 -0.9849
  292TMC3    C7 4409   1.005   1.923  17.525  0.0923 -0.1709  0.7801
  292TMC3    C8 4410   0.776   2.112  17.259  0.7461  0.1399  0.2425
  292TMC3    O1 4411   0.965   1.844  17.437  0.5835 -0.0085 -0.1767
  292TMC3    O2 4412   0.708   2.196  17.202 -0.3474  0.2382 -0.4655
  293MPD2     C 4413   2.224   3.240  13.108  0.5373 -0.6128 -0.3229
  293MPD2    C1 4414   2.259   3.364  13.054 -0.7562  0.2666  0.4566
  293MPD2    C2 4415   2.360   3.436  13.117  0.2430 -0.8542 -0.2792
  293MPD2    C3 4416   2.427   3.382  13.229 -0.3381 -0.2462 -0.5069
  293MPD2    C4 4417   2.389   3.253  13.277  0.2945  0.8750  0.6354
  293MPD2    C5 4418   2.288   3.189  13.216 -0.4277 -0.3435  0.7222
  293MPD2     H 4419   2.382   3.540  13.097 -3.4403 -0.1562 -0.7885
  293MPD2    H1 4420   2.431   3.199  13.361 -2.3309 -1.3377  0.5028
  293MPD2    H2 4421   2.147   3.187  13.053 -0.2977  1.0435 -0.7210
  293MPD2    H3 4422   2.256   3.091  13.252 -1.6085  0.1122  0.9058
  293MPD2     N 4423   2.520   3.463  13.290 -0.4879 -0.1457 -0.2359
  293MPD2    H5 4424   2.533   3.558  13.255 -0.7222  0.6917  1.9291
  293MPD2    N1 4425   2.197   3.409  12.936 -0.3531 -0.4040  0.2346
  293MPD2    H7 4426   2.125   3.346  12.903 -1.3171  1.7941 -1.9011
  294TMC3    C1 4427   2.135   3.540  12.751  0.0589 -0.0406 -0.7661
  294TMC3    C2 4428   2.031   3.449  12.745 -0.0963  0.7809  0.0773
  294TMC3    C3 4429   1.982   3.431  12.621  0.4561 -0.0073 -0.4283
  294TMC3    C4 4430   2.185   3.600  12.640 -0.6431 -0.8596  0.0024
  294TMC3    C5 4431   2.116   3.599  12.521  0.5230 -0.0159  0.5105
  294TMC3    C6 4432   2.016   3.512  12.511  0.4317 -0.4645  0.6209
  294TMC3     C 4433   2.218   3.532  12.877  0.0801 -0.6390  0.5346
  294TMC3     O 4434   2.309   3.607  12.899  0.1164  0.1965  0.3013
  294TMC3     H 4435   1.989   3.390  12.825  1.3812  1.1809  1.1524
  294TMC3    H1 4436   2.275   3.657  12.659 -0.5684 -1.1158  0.4151
  294TMC3    H2 4437   1.959   3.504  12.419  0.9205  0.0464  0.2771
  294TMC3    C7 4438   2.177   3.645  12.400  0.8324  0.8763  0.5229
  294TMC3    C8 4439   1.852   3.369  12.604 -0.0645 -0.1722  0.2368
  294TMC3    O1 4440   2.114   3.726  12.335  0.0770 -0.0052 -0.7123
  294TMC3    O2 4441   1.771   3.387  12.695 -0.5838 -0.3317  0.1113
  295MPD2     C 4442   4.028   1.894   0.619 -0.2374  0.5581 -0.6112
  295MPD2    C1 4443   3.925   1.974   0.587 -0.3114  0.5738  0.0681
  295MPD2    C2 4444   3.858   2.044   0.689 -0.1580 -0.1085  0.4644
  295MPD2    C3 4445   3.906   2.039   0.818  0.3735 -0.3268 -0.5807
  295MPD2    C4 4446   4.018   1.965   0.846 -1.0443 -0.0286 -0.2582
  295MPD2    C5 4447   4.080   1.894   0.749  0.0575  0.5601  0.2121
  295MPD2     H 4448   3.763   2.093   0.670  0.2317  0.0010 -1.1677
  295MPD2    H1 4449   4.052   1.946   0.947 -2.7115  0.1823  0.3312
  295MPD2    H2 4450   4.090   1.851   0.541 -1.0845  1.8596 -1.9838
  295MPD2    H3 4451   4.171   1.838   0.764 -0.3330  0.0142  0.5575
  295MPD2     N 4452   3.844   2.110   0.929  0.4302 -0.0166 -0.1207
  295MPD2    H5 4453   3.866   2.092   1.026  2.8151  0.6360 -0.5397
  295MPD2    N1 4454   3.876   1.971   0.451 -0.3572  0.8890 -0.0171
  295MPD2    H7 4455   3.794   2.029   0.438 -1.3899 -0.7364 -0.8285
  296TMC3    C1 4456   3.684   2.242   1.041 -0.0791 -0.2885 -0.0149
  296TMC3    C2 4457   3.744   2.334   1.117 -0.2803  0.4674 -0.1017
  296TMC3    C3 4458   3.671   2.419   1.196  0.0825  0.0844  0.3947
  296TMC3    C4 4459   3.546   2.238   1.032  0.3277 -0.1435 -0.5536
  296TMC3    C5 4460   3.474   2.316   1.126  0.2920  0.9220  0.3746
  296TMC3    C6 4461   3.538   2.404   1.211  0.4074  0.3511 -0.2979
  296TMC3     C 4462   3.745   2.206   0.908  0.2026 -0.4515  0.2143
  296TMC3     O 4463   3.712   2.263   0.807 -0.2953 -0.5674  0.1615
  296TMC3     H 4464   3.852   2.345   1.118  0.0725 -3.1357  0.2753
  296TMC3    H1 4465   3.490   2.179   0.960  0.7587 -1.1441 -0.0709
  296TMC3    H2 4466   3.490   2.462   1.289  1.1717 -0.6367  0.8969
  296TMC3    C7 4467   3.332   2.318   1.121 -0.4798 -0.0278 -0.1623
  296TMC3    C8 4468   3.743   2.482   1.303  0.6204 -0.0116 -0.0145
  296TMC3    O1 4469   3.291   2.276   1.014  0.4646  0.0629  0.6241
  296TMC3    O2 4470   3.842   2.418   1.336 -0.0656 -0.0079  0.0979
  297MPD2     C 4471   0.546   4.240  16.681 -0.2978 -0.3203 -0.7136
  297MPD2    C1 4472   0.567   4.212  16.546  0.6329 -0.1080 -0.6992
  297MPD2    C2 4473   0.655   4.298  16.478  0.2917 -0.3730 -0.3483
  297MPD2    C3 4474   0.704   4.414  16.526  0.0691  0.3800  0.1086
  297MPD2    C4 4475   0.679   4.432  16.658  0.2024 -0.0997  0.3106
  297MPD2    C5 4476   0.611   4.346  16.733 -0.1668 -0.0375  0.0491
  297MPD2     H 4477   0.671   4.270  16.375 -0.3714  0.0653 -0.5696
  297MPD2    H1 4478   0.726   4.514  16.711 -1.6936  1.3174 -0.1847
  297MPD2    H2 4479   0.489   4.179  16.750  0.0332  0.8591  0.6042
  297MPD2    H3 4480   0.588   4.371  16.836  0.6879 -0.2340  0.2798
  297MPD2     N 4481   0.770   4.500  16.441 -0.0033  0.4183 -0.1527
  297MPD2    H5 4482   0.777   4.470  16.344  0.4690 -0.2512  0.0884
  297MPD2    N1 4483   0.507   4.100  16.477  0.0596 -0.2816  0.0039
  297MPD2    H7 4484   0.517   4.093  16.376  1.0173 -1.1012  0.1469
  298TMC3    C1 4485   0.371   3.898  16.452  0.1733 -0.0184  0.3268
  298TMC3    C2 4486   0.424   3.879  16.325 -0.1821  0.0854  0.1603
  298TMC3    C3 4487   0.350   3.814  16.230  0.3471 -0.4208  0.1047
  298TMC3    C4 4488   0.245   3.858  16.482  0.3117  0.2435  0.0313
  298TMC3    C5 4489   0.169   3.794  16.383 -0.3030 -0.4149 -0.3371
  298TMC3    C6 4490   0.216   3.775  16.251  0.3265  0.2226 -0.2013
  298TMC3     C 4491   0.428   4.005  16.538  0.3593  0.3847  0.1631
  298TMC3     O 4492   0.379   4.004  16.650 -0.4382  0.2633 -0.1268
  298TMC3     H 4493   0.527   3.902  16.302  0.4946 -0.9641  2.1425
  298TMC3    H1 4494   0.210   3.876  16.583  1.9978 -1.2324  0.8787
  298TMC3    H2 4495   0.171   3.716  16.173  0.1244  0.3435 -0.1769
  298TMC3    C7 4496   0.036   3.844  16.375  0.5266  0.7587 -0.8490
  298TMC3    C8 4497   0.378   3.878  16.102 -0.1224 -0.0064 -0.4363
  298TMC3    O1 4498   0.013   3.951  16.431 -0.3058 -0.4230  0.2032
  298TMC3    O2 4499   0.491   3.901  16.057  0.0923 -0.0432 -0.1956
  299MPD2     C 4500   0.880   3.694  10.699  0.2258  0.5522 -0.3068
  299MPD2    C1 4501   0.914   3.801  10.619 -0.0072 -0.3237 -0.4200
  299MPD2    C2 4502   0.850   3.812  10.500 -0.3973  0.1096 -0.6931
  299MPD2    C3 4503   0.741   3.733  10.467 -0.7675  0.5151  0.1174
  299MPD2    C4 4504   0.713   3.622  10.543 -0.7038  0.5141  1.0001
  299MPD2    C5 4505   0.795   3.596  10.657 -0.5040 -0.0835 -0.1863
  299MPD2     H 4506   0.884   3.884  10.426  0.2718  1.4486  0.9149
  299MPD2    H1 4507   0.634   3.550  10.526 -0.9951  0.8676  0.8753
  299MPD2    H2 4508   0.926   3.677  10.795  1.1312 -2.4846 -1.2710
  299MPD2    H3 4509   0.778   3.506  10.716  0.4844 -0.8717 -1.0955
  299MPD2     N 4510   0.657   3.748  10.353  0.2768  0.1774 -0.8064
  299MPD2    H5 4511   0.563   3.712  10.358  0.1695  0.4705 -0.7246
  299MPD2    N1 4512   1.008   3.891  10.675  0.2247  0.0996 -0.9040
  299MPD2    H7 4513   1.042   3.870  10.768 -1.3048  2.3525  0.1726
  300TMC3    C1 4514   0.554   3.843  10.177 -0.2743 -0.1522  0.2241
  300TMC3    C2 4515   0.527   3.978  10.158  0.1852  0.2357  0.0285
  300TMC3    C3 4516   0.422   4.039  10.215  0.5623  0.5350 -0.2233
  300TMC3    C4 4517   0.450   3.762  10.225  0.5374  0.1448 -0.6116
  300TMC3    C5 4518   0.342   3.828  10.275 -0.4281  0.3444 -0.4750
  300TMC3    C6 4519   0.328   3.966  10.277 -0.2375 -0.2636  0.3460
  300TMC3     C 4520   0.681   3.826  10.243 -0.1030 -0.9506  0.0472
  300TMC3     O 4521   0.775   3.903  10.222 -0.4052 -0.0546 -0.4478
  300TMC3     H 4522   0.601   4.046  10.117 -2.6430  1.9424 -2.2399
  300TMC3    H1 4523   0.451   3.654  10.215  3.5029  0.2497 -1.6046
  300TMC3    H2 4524   0.235   4.004  10.317 -0.2560  0.2916 -0.2245
  300TMC3    C7 4525   0.326   3.774  10.414 -0.2367  0.3923 -0.3758
  300TMC3    C8 4526   0.438   4.170  10.269  0.5570  0.5745 -0.4269
  300TMC3    O1 4527   0.394   3.675  10.430  0.7234  0.0237  0.4757
  300TMC3    O2 4528   0.551   4.204  10.294 -0.2472 -0.1722  0.6492
  301MPD2     C 4529   3.384   0.453   0.519 -0.7576 -0.4499 -0.5547
  301MPD2    C1 4530   3.252   0.441   0.553  0.4175  0.4058  0.2952
  301MPD2    C2 4531   3.207   0.341   0.636  0.2568  0.3961 -0.7040
  301MPD2    C3 4532   3.301   0.248   0.680  1.5358  0.0387  0.5850
  301MPD2    C4 4533   3.433   0.257   0.638 -0.1132 -0.4531  0.5377
  301MPD2    C5 4534   3.475   0.358   0.559  0.4255  0.0463  0.6144
  301MPD2     H 4535   3.102   0.325   0.655  0.5920 -0.7985  0.1258
  301MPD2    H1 4536   3.502   0.185   0.680  0.4860  1.3613  2.7164
  301MPD2    H2 4537   3.421   0.541   0.467 -0.3802  0.2338  0.8594
  301MPD2    H3 4538   3.578   0.357   0.527  1.0268 -0.0007  2.6027
  301MPD2     N 4539   3.275   0.141   0.775  0.1795  0.2912  0.3425
  301MPD2    H5 4540   3.345   0.070   0.793 -0.4258 -0.7786 -1.5343
  301MPD2    N1 4541   3.145   0.526   0.502  0.5907  0.5656  0.3539
  301MPD2    H7 4542   3.050   0.516   0.538  0.6881 -1.2321  0.1313
  302TMC3    C1 4543   3.137   0.010   0.909  0.0899 -0.6066  0.2807
  302TMC3    C2 4544   3.248   4.687   0.966 -0.3837 -0.2509 -0.2126
  302TMC3    C3 4545   3.237   4.610   1.080 -0.3028  0.1095  0.5874
  302TMC3    C4 4546   3.014   4.707   0.957  0.2487  0.3973  0.2169
  302TMC3    C5 4547   3.009   4.619   1.060 -0.3559 -0.1759 -0.0422
  302TMC3    C6 4548   3.116   4.556   1.119  0.3382 -0.0114 -0.6954
  302TMC3     C 4549   3.153   0.132   0.837  0.3937 -0.2935  0.1641
  302TMC3     O 4550   3.049   0.203   0.837 -0.5256 -0.0472  0.2396
  302TMC3     H 4551   3.347   4.704   0.926 -0.9078  4.2145  0.3863
  302TMC3    H1 4552   2.925   0.013   0.902 -0.0644 -4.1183 -1.7410
  302TMC3    H2 4553   3.110   4.496   1.209  1.8017  0.0643 -0.5626
  302TMC3    C7 4554   2.892   4.613   1.145 -0.1984  0.2050 -0.7469
  302TMC3    C8 4555   3.354   4.594   1.174  0.7659  0.4105  0.3081
  302TMC3    O1 4556   2.904   4.552   1.252 -0.2737 -0.1717 -0.4872
  302TMC3    O2 4557   3.447   4.670   1.148  0.1015 -0.0360 -0.0480
  303MPD2     C 4558   3.162   3.347  10.363 -0.4491  0.0194 -0.0917
  303MPD2    C1 4559   3.096   3.239  10.413  0.3688 -0.3249 -0.0065
  303MPD2    C2 4560   3.048   3.149  10.317  0.5128  1.0132 -0.6537
  303MPD2    C3 4561   3.076   3.168  10.181 -0.5168  0.0608  0.4208
  303MPD2    C4 4562   3.153   3.272  10.141  0.2799  0.0030  0.2434
  303MPD2    C5 4563   3.185   3.368  10.229 -0.1035  0.2683 -0.7369
  303MPD2     H 4564   2.994   3.064  10.356 -0.1942  3.0897  2.9113
  303MPD2    H1 4565   3.177   3.287  10.036 -0.3919  2.9473  0.4990
  303MPD2    H2 4566   3.199   3.428  10.424 -1.7047  1.6722 -1.5196
  303MPD2    H3 4567   3.246   3.451  10.197 -2.7153  2.1910 -0.7279
  303MPD2     N 4568   3.025   3.081  10.081  0.2935  0.5161  0.2095
  303MPD2    H5 4569   3.033   3.106   9.983 -1.8917  0.3926 -0.0128
  303MPD2    N1 4570   3.075   3.235  10.555 -1.3048 -0.3140 -0.2284
  303MPD2    H7 4571   3.103   3.317  10.609  0.7216 -1.6060  0.6712
  304TMC3    C1 4572   3.013   3.174  10.772  0.4751  0.5561 -0.1700
  304TMC3    C2 4573   2.951   3.287  10.821 -0.1021  0.6893 -0.7215
  304TMC3    C3 4574   2.894   3.291  10.946  0.4229 -0.0014 -0.5700
  304TMC3    C4 4575   3.012   3.064  10.848  0.1035  0.1223 -0.0808
  304TMC3    C5 4576   2.956   3.069  10.974 -0.3407  0.2851  0.5228
  304TMC3    C6 4577   2.907   3.182  11.026 -0.0401  0.0605  0.7065
  304TMC3     C 4578   3.006   3.137  10.626  0.3233  0.4870 -0.0973
  304TMC3     O 4579   2.967   3.028  10.595  0.5315 -0.1852 -0.3490
  304TMC3     H 4580   2.933   3.364  10.746  0.7512 -0.1929 -1.8378
  304TMC3    H1 4581   3.053   2.971  10.810 -1.6025 -0.0427 -1.5312
  304TMC3    H2 4582   2.870   3.191  11.128 -0.2987 -1.6948  0.7778
  304TMC3    C7 4583   2.866   2.957  10.999  0.1441 -0.3348  0.5492
  304TMC3    C8 4584   2.761   3.337  10.929 -0.1272 -0.0269  0.4506
  304TMC3    O1 4585   2.755   2.977  11.043 -0.2330  0.1021  0.1156
  304TMC3    O2 4586   2.743   3.445  10.875 -0.8476 -0.0701  0.6682
  305MPD2     C 4587   1.113   0.637  13.821 -0.2879 -0.0615  0.0794
  305MPD2    C1 4588   1.246   0.652  13.807  0.3551  0.2931  0.1164
  305MPD2    C2 4589   1.302   0.638  13.681  0.1468  1.0132 -0.1237
  305MPD2    C3 4590   1.224   0.601  13.573 -0.1555 -0.2373 -0.7812
  305MPD2    C4 4591   1.085   0.582  13.589  0.3378  0.0528 -0.4123
  305MPD2    C5 4592   1.032   0.600  13.720 -0.1888  0.5573 -0.6962
  305MPD2     H 4593   1.409   0.650  13.669  0.6168 -0.2833  2.8509
  305MPD2    H1 4594   1.019   0.549  13.509  1.5118 -0.4658 -1.1564
  305MPD2    H2 4595   1.070   0.666  13.916  2.2319  1.1840  0.8292
  305MPD2    H3 4596   0.930   0.579  13.749  0.0748 -2.0880 -1.6482
  305MPD2     N 4597   1.271   0.582  13.440  0.6509 -0.4201 -0.2168
  305MPD2    H5 4598   1.203   0.554  13.371  1.5039 -1.5415 -0.5884
  305MPD2    N1 4599   1.320   0.679  13.927 -0.1903 -0.2765 -0.7451
  305MPD2    H7 4600   1.271   0.662  14.014 -1.1973  1.2337 -1.0132
  306TMC3    C1 4601   1.512   0.719  14.061  0.4416  0.1372 -0.3589
  306TMC3    C2 4602   1.467   0.637  14.155 -0.3910 -0.1060  0.5924
  306TMC3    C3 4603   1.527   0.627  14.281 -0.8788 -0.0114 -0.5548
  306TMC3    C4 4604   1.604   0.821  14.099 -0.4037  0.6460 -0.2915
  306TMC3    C5 4605   1.657   0.811  14.223  0.7053  0.6486  0.3146
  306TMC3    C6 4606   1.619   0.716  14.314 -0.4773 -0.7006 -0.2326
  306TMC3     C 4607   1.450   0.728  13.931 -0.1157 -0.8480  0.1525
  306TMC3     O 4608   1.505   0.792  13.838  0.5700  0.4347 -0.2512
  306TMC3     H 4609   1.405   0.552  14.127 -1.1437 -0.3632  3.0010
  306TMC3    H1 4610   1.635   0.897  14.027  1.5305  2.0783  2.0437
  306TMC3    H2 4611   1.673   0.706  14.408 -2.1597  0.0480  0.8150
  306TMC3    C7 4612   1.732   0.922  14.272  0.4499 -0.4255 -0.6160
  306TMC3    C8 4613   1.479   0.548  14.395  0.7006 -0.6550 -0.1483
  306TMC3    O1 4614   1.736   1.023  14.197 -0.2896  0.4097 -0.7924
  306TMC3    O2 4615   1.545   0.553  14.498  0.2099  0.3363 -0.4130
  307MPD2     C 4616   4.275   3.283   0.025  0.5359  0.2834 -0.9935
  307MPD2    C1 4617   4.147   3.332   0.035 -0.0612  0.9080 -0.3143
  307MPD2    C2 4618   4.088   3.317   0.156 -0.5075  0.3529 -0.0927
  307MPD2    C3 4619   4.145   3.266   0.268  0.0553 -0.1105  0.2911
  307MPD2    C4 4620   4.275   3.215   0.256 -0.1664 -0.4620 -0.3456
  307MPD2    C5 4621   4.332   3.214   0.131 -0.2833 -0.7903 -0.2352
  307MPD2     H 4622   3.993   3.368   0.166 -1.8600 -2.1307 -0.2247
  307MPD2    H1 4623   4.321   3.157   0.335 -0.0961  0.7703  0.5164
  307MPD2    H2 4624   4.343   3.280  17.638 -1.8498  0.0548 -2.9091
  307MPD2    H3 4625   4.425   3.160   0.116  1.1791  1.4192  0.7471
  307MPD2     N 4626   4.085   3.271   0.396 -0.0240 -0.2122 -0.1004
  307MPD2    H5 4627   3.998   3.323   0.402 -1.9701 -3.5751  0.8635
  307MPD2    N1 4628   4.082   3.390  17.624 -0.0844  0.3392 -0.0067
  307MPD2    H7 4629   3.984   3.415  17.638 -0.1197  0.7655 -0.9527
  308TMC3    C1 4630   3.806   3.309   0.625 -0.0928  0.6412 -0.3366
  308TMC3    C2 4631   3.822   3.428   0.688 -0.0370  0.1084 -0.2269
  308TMC3    C3 4632   3.946   3.471   0.709 -0.0064  0.4678  0.5049
  308TMC3    C4 4633   3.910   3.231   0.584 -0.4107 -0.0007 -0.0672
  308TMC3    C5 4634   4.037   3.279   0.613  0.2125  0.5903 -0.8498
  308TMC3    C6 4635   4.059   3.401   0.688 -0.0098  0.0719  0.3171
  308TMC3     C 4636   3.678   3.247   0.610  0.1468 -0.2369 -0.5634
  308TMC3     O 4637   3.675   3.126   0.614 -0.6802 -0.0746 -0.0904
  308TMC3     H 4638   3.739   3.493   0.716 -0.6769 -0.3746 -1.0010
  308TMC3    H1 4639   3.896   3.124   0.571  2.6696 -0.7628  2.7213
  308TMC3    H2 4640   4.154   3.452   0.681 -0.9173  1.5092 -1.2301
  308TMC3    C7 4641   4.143   3.250   0.518 -0.1297 -0.1201 -0.5812
  308TMC3    C8 4642   3.974   3.609   0.726 -0.1333  0.5080  0.5190
  308TMC3    O1 4643   4.252   3.209   0.557 -0.1601 -0.5334 -0.0930
  308TMC3    O2 4644   4.049   3.630   0.822  0.8085  0.2987  0.2405
  309MPD2     C 4645   3.114   3.929  17.180 -0.7843  0.1821 -0.6804
  309MPD2    C1 4646   3.028   3.960  17.073 -0.4667 -0.7720  0.5449
  309MPD2    C2 4647   2.892   3.958  17.104  0.9923 -0.6071 -0.5415
  309MPD2    C3 4648   2.840   3.934  17.230  0.5103 -0.4034 -0.1437
  309MPD2    C4 4649   2.933   3.911  17.330  0.4931  0.6396  0.5498
  309MPD2    C5 4650   3.067   3.905  17.302 -0.0847 -0.2802 -0.1108
  309MPD2     H 4651   2.826   3.982  17.021  1.9721  1.7668 -0.6465
  309MPD2    H1 4652   2.908   3.886  17.432  0.3874 -0.7240  0.1881
  309MPD2    H2 4653   3.222   3.921  17.170 -0.8701 -0.6962 -0.9594
  309MPD2    H3 4654   3.140   3.867  17.372 -0.4580  0.3051  0.5915
  309MPD2     N 4655   2.709   3.908  17.256  0.2315 -0.1169 -0.3258
  309MPD2    H5 4656   2.695   3.882  17.353 -0.6779 -2.0305 -0.9676
  309MPD2    N1 4657   3.074   3.985  16.941  0.1066 -0.3612  0.2857
  309MPD2    H7 4658   3.011   3.981  16.861  0.1906 -1.2358  0.2580
  310TMC3    C1 4659   3.231   3.962  16.758  0.1689 -0.0852  0.2020
  310TMC3    C2 4660   3.128   3.983  16.668 -0.1291  0.0507 -0.2245
  310TMC3    C3 4661   3.152   3.931  16.547  0.0605  0.5099 -0.7352
  310TMC3    C4 4662   3.351   3.910  16.722 -0.1913  0.0108  0.1437
  310TMC3    C5 4663   3.369   3.859  16.596  0.2071  0.1209  0.6076
  310TMC3    C6 4664   3.269   3.862  16.506  0.9300 -0.7179  0.4736
  310TMC3     C 4665   3.203   3.964  16.901 -0.1568 -0.1467 -0.0719
  310TMC3     O 4666   3.300   3.947  16.972 -0.0697 -0.0917 -0.0487
  310TMC3     H 4667   3.041   4.039  16.698 -0.2629 -0.8804  1.1413
  310TMC3    H1 4668   3.429   3.916  16.797 -0.1023 -0.1690  0.0660
  310TMC3    H2 4669   3.268   3.819  16.406  0.9658  1.5323 -0.4785
  310TMC3    C7 4670   3.497   3.797  16.559  0.2887 -0.2108 -0.2757
  310TMC3    C8 4671   3.054   3.961  16.434  0.2776 -0.0426  0.0157
  310TMC3    O1 4672   3.561   3.741  16.645  0.0354  0.3338  0.5784
  310TMC3    O2 4673   3.110   3.956  16.327 -0.1868 -0.4952  0.6029
  311MPD2     C 4674   0.285   0.758  12.462  0.3739  0.6135  0.4443
  311MPD2    C1 4675   0.322   0.761  12.594 -0.0800 -0.3769 -0.5814
  311MPD2    C2 4676   0.231   0.721  12.695  0.1443  0.1223  0.0956
  311MPD2    C3 4677   0.107   0.675  12.656  0.3670  0.3408 -0.1612
  311MPD2    C4 4678   0.077   0.658  12.522 -0.0272 -0.2281 -0.3601
  311MPD2    C5 4679   0.164   0.703  12.425  0.3205  0.6203 -0.7138
  311MPD2     H 4680   0.251   0.726  12.801 -0.7199 -0.5133  0.2949
  311MPD2    H1 4681   4.707   0.616  12.488  1.2978 -1.9718 -1.8402
  311MPD2    H2 4682   0.351   0.787  12.381 -0.3679 -0.5653 -0.5815
  311MPD2    H3 4683   0.144   0.680  12.321  0.3472 -0.6970 -0.4247
  311MPD2     N 4684   0.008   0.648  12.756 -0.0895 -0.2869  0.2502
  311MPD2    H5 4685   0.039   0.637  12.852  2.7651  0.6712 -0.5745
  311MPD2    N1 4686   0.451   0.816  12.640  0.4093 -0.3039  0.3573
  311MPD2    H7 4687   0.468   0.824  12.740 -3.0677 -1.1153  1.0319
  312TMC3    C1 4688   4.534   0.575  12.850 -0.3903  0.4888  0.4566
  312TMC3    C2 4689   4.419   0.655  12.870 -0.5474 -0.5541 -0.0814
  312TMC3    C3 4690   4.362   0.639  12.990 -0.8564 -0.0208 -0.3670
  312TMC3    C4 4691   4.587   0.498  12.949  0.2012  0.2865 -0.7409
  312TMC3    C5 4692   4.520   0.493  13.070 -0.2617 -0.4766 -0.1163
  312TMC3    C6 4693   4.415   0.574  13.100  0.1339  0.2381  0.5158
  312TMC3     C 4694   4.601   0.608  12.733 -0.2660 -0.2287  0.0805
  312TMC3     O 4695   4.525   0.626  12.637 -0.6356 -0.5675 -0.7268
  312TMC3     H 4696   4.364   0.697  12.787  0.4978 -1.4441 -1.2115
  312TMC3    H1 4697   4.673   0.434  12.935  0.5858  0.5702  0.3809
  312TMC3    H2 4698   4.357   0.558  13.190  1.0900  1.7118  1.3841
  312TMC3    C7 4699   4.575   0.389  13.157  0.0882 -0.3884 -0.5874
  312TMC3    C8 4700   4.225   0.684  13.014 -0.4294 -0.1599 -1.6791
  312TMC3    O1 4701   4.633   0.295  13.106 -0.2174 -0.0179 -0.2379
  312TMC3    O2 4702   4.158   0.621  13.090 -0.7834  0.2036  0.3505
  313MPD2     C 4703   0.132   4.439  10.821  0.1447  0.3404  0.4062
  313MPD2    C1 4704   4.720   4.428  10.857  0.0056 -0.8814  0.2970
  313MPD2    C2 4705   4.644   4.334  10.794 -0.3630  0.9885  0.2108
  313MPD2    C3 4706   4.686   4.248  10.693  0.3221  0.8282 -0.4315
  313MPD2    C4 4707   0.098   4.255  10.669  0.2046  0.7970 -0.7708
  313MPD2    C5 4708   0.174   4.352  10.731  0.0571  0.8114 -0.9502
  313MPD2     H 4709   4.539   4.331  10.820 -0.5925 -1.0270 -0.9562
  313MPD2    H1 4710   0.147   4.194  10.594 -2.5406 -2.8242  0.3332
  313MPD2    H2 4711   0.204   4.513  10.855  2.1747 -0.9707 -1.0601
  313MPD2    H3 4712   0.279   4.357  10.705  0.8096 -2.9135  1.4157
  313MPD2     N 4713   4.605   4.152  10.635  0.7612  0.0285 -0.1742
  313MPD2    H5 4714   4.509   4.146  10.666  0.9240  0.1494  0.3460
  313MPD2    N1 4715   4.657   4.520  10.944 -0.6041  0.1526 -0.0318
  313MPD2    H7 4716   4.556   4.524  10.933 -0.4857  1.7639 -0.6869
  314TMC3    C1 4717   4.647   4.707  11.090  1.0160 -0.3488  0.0530
  314TMC3    C2 4718   0.004   0.087  11.131 -0.5210 -0.0456 -0.2655
  314TMC3    C3 4719   4.706   0.213  11.082 -0.4386  0.2329  0.1405
  314TMC3    C4 4720   4.535   0.010  11.021 -0.1565 -0.5761  0.4548
  314TMC3    C5 4721   4.526   0.137  10.961  0.6066 -0.0744  0.4468
  314TMC3    C6 4722   4.607   0.236  10.992  0.3659  0.2223 -0.2122
  314TMC3     C 4723   0.002   4.601  11.038 -0.0902 -0.0118 -0.3441
  314TMC3     O 4724   0.123   4.598  11.063  0.2198  0.9445 -0.3754
  314TMC3     H 4725   0.074   0.063  11.211 -0.1230  0.1810 -0.5501
  314TMC3    H1 4726   4.457   4.659  11.010  1.7827 -2.4031 -0.9342
  314TMC3    H2 4727   4.603   0.329  10.935  0.0120 -1.2191 -2.5640
  314TMC3    C7 4728   4.512   0.127  10.818  0.4405  0.4459  1.2992
  314TMC3    C8 4729   0.053   0.323  11.138  0.2406  0.4784  0.1401
  314TMC3    O1 4730   4.577   0.200  10.745 -0.1547  0.5483 -0.2807
  314TMC3    O2 4731   0.020   0.430  11.091  0.0164  0.0504  1.1846
  315MPD2     C 4732   4.078   3.664   0.266 -0.4187 -0.0344  0.4168
  315MPD2    C1 4733   4.205   3.636   0.221  0.0456 -0.5742  1.0656
  315MPD2    C2 4734   4.243   3.693   0.099 -0.1922  0.2068 -0.2329
  315MPD2    C3 4735   4.168   3.789   0.038 -0.0228 -0.3141 -0.4805
  315MPD2    C4 4736   4.048   3.816   0.091  0.4659 -0.0426 -0.7588
  315MPD2    C5 4737   4.003   3.759   0.206 -0.2666 -0.5212  0.4307
  315MPD2     H 4738   4.345   3.669   0.074 -0.4463  0.4588 -1.5107
  315MPD2    H1 4739   3.971   3.874   0.041 -0.7218 -0.1005  1.0161
  315MPD2    H2 4740   4.034   3.610   0.349 -1.0116 -1.0942 -0.6019
  315MPD2    H3 4741   3.904   3.778   0.247 -0.1200  0.4180  0.3438
  315MPD2     N 4742   4.226   3.856  17.630 -0.4204  0.0032  0.4825
  315MPD2    H5 4743   4.315   3.820  17.599 -0.1885  2.1140 -1.3684
  315MPD2    N1 4744   4.296   3.574   0.298  0.2313  0.0430  0.4510
  315MPD2    H7 4745   4.386   3.561   0.251 -1.4042  2.5640 -3.3780
  316TMC3    C1 4746   4.273   4.037  17.472  0.1566  0.1206  0.6766
  316TMC3    C2 4747   4.398   4.074  17.513 -0.0756 -0.8540 -0.2334
  316TMC3    C3 4748   4.464   4.176  17.457 -0.4285 -0.0184 -0.5892
  316TMC3    C4 4749   4.214   4.104  17.371  0.7994  0.4572 -0.6581
  316TMC3    C5 4750   4.287   4.193  17.302 -0.1114  0.7787  0.4498
  316TMC3    C6 4751   4.414   4.238  17.342  0.1677  0.2224  0.9690
  316TMC3     C 4752   4.179   3.971  17.568 -0.3010 -0.4583 -0.2871
  316TMC3     O 4753   4.082   4.041  17.592 -0.0719  0.1446 -0.0853
  316TMC3     H 4754   4.444   4.027  17.599 -1.9677 -1.7326  0.2912
  316TMC3    H1 4755   4.110   4.088  17.345  0.9506 -2.0417  0.2023
  316TMC3    H2 4756   4.473   4.309  17.286 -1.1979 -0.2780 -1.0869
  316TMC3    C7 4757   4.197   4.287  17.250  0.5801 -0.1837 -0.8313
  316TMC3    C8 4758   4.591   4.232  17.507  0.3166 -0.6930 -0.5396
  316TMC3    O1 4759   4.215   4.403  17.291  0.3233  0.3995 -0.2373
  316TMC3    O2 4760   4.649   4.306  17.427 -0.5896  0.2929 -0.0236
  317MPD2     C 4761   1.448   2.474  12.674  0.4978 -0.9564 -0.5966
  317MPD2    C1 4762   1.521   2.370  12.621  0.3240 -0.1611 -0.1955
  317MPD2    C2 4763   1.596   2.297  12.703  0.1997  0.1902 -0.4212
  317MPD2    C3 4764   1.607   2.325  12.841  0.5790 -0.6723  0.3657
  317MPD2    C4 4765   1.542   2.436  12.886 -0.0422  0.2876  0.4575
  317MPD2    C5 4766   1.472   2.510  12.803  0.5640  0.2150  0.8370
  317MPD2     H 4767   1.647   2.212  12.660 -1.6708 -0.6667 -0.9742
  317MPD2    H1 4768   1.534   2.464  12.991  0.8000 -1.3295  0.9590
  317MPD2    H2 4769   1.390   2.541  12.612  0.9496 -0.1663 -0.1672
  317MPD2    H3 4770   1.427   2.600  12.841  0.8717  0.9318 -0.4924
  317MPD2     N 4771   1.688   2.250  12.923 -0.6687 -0.5806  0.0645
  317MPD2    H5 4772   1.725   2.162  12.886 -0.6995 -0.7846  0.5196
  317MPD2    N1 4773   1.504   2.323  12.490  0.5985  0.5443  0.4524
  317MPD2    H7 4774   1.541   2.229  12.476 -0.1392  0.1471  1.1132
  318TMC3    C1 4775   1.767   2.140  13.099  0.3492 -0.2152  0.2226
  318TMC3    C2 4776   1.717   2.078  13.212 -0.6363 -0.5680 -0.0068
  318TMC3    C3 4777   1.804   2.007  13.289 -0.2234 -0.0896 -0.6288
  318TMC3    C4 4778   1.902   2.144  13.082  0.3180 -0.0201 -0.5496
  318TMC3    C5 4779   1.987   2.082  13.164 -0.6289  0.7571  0.0109
  318TMC3    C6 4780   1.941   2.002  13.264  0.1504  0.1300  0.4352
  318TMC3     C 4781   1.692   2.252  13.058 -0.7499 -0.3510  0.4555
  318TMC3     O 4782   1.624   2.316  13.138 -0.1523  0.4934 -0.1511
  318TMC3     H 4783   1.615   2.094  13.246 -0.0817  3.9912 -0.5321
  318TMC3    H1 4784   1.944   2.212  13.009  0.9835 -1.7595 -1.7635
  318TMC3    H2 4785   2.001   1.940  13.329 -0.6486 -0.2672  0.7853
  318TMC3    C7 4786   2.120   2.138  13.179  0.3625  0.0736 -0.2639
  318TMC3    C8 4787   1.759   1.899  13.369  0.1585  0.1476  0.5198
  318TMC3    O1 4788   2.129   2.248  13.126  0.3014  0.3402  0.5012
  318TMC3    O2 4789   1.837   1.838  13.444 -0.3428  0.6089 -0.6851
  319MPD2     C 4790   2.657   3.660  16.616  0.4414 -0.1931 -0.2969
  319MPD2    C1 4791   2.581   3.622  16.724 -0.3702 -0.2998 -0.6222
  319MPD2    C2 4792   2.446   3.618  16.699 -0.4099 -0.1252  0.4080
  319MPD2    C3 4793   2.397   3.639  16.575 -0.9905  0.4470  0.0359
  319MPD2    C4 4794   2.480   3.659  16.463 -0.2044  0.1595 -0.2443
  319MPD2    C5 4795   2.607   3.679  16.488 -0.0735 -0.0557  0.1849
  319MPD2     H 4796   2.381   3.586  16.779 -0.3204  0.2461  0.6303
  319MPD2    H1 4797   2.439   3.677  16.364 -1.6622 -0.2701  0.2746
  319MPD2    H2 4798   2.765   3.666  16.624  0.4616  0.8251 -1.3265
  319MPD2    H3 4799   2.685   3.684  16.413 -0.9147 -1.6759 -0.7871
  319MPD2     N 4800   2.253   3.631  16.553  0.1565 -0.9610  0.0569
  319MPD2    H5 4801   2.221   3.633  16.457  2.5500  1.0008 -0.6876
  319MPD2    N1 4802   2.627   3.581  16.848 -0.7779  0.5266  0.6287
  319MPD2    H7 4803   2.563   3.547  16.919 -1.0727  0.5257  0.3682
  320TMC3    C1 4804   2.018   3.604  16.596  0.1309 -0.9239 -0.0361
  320TMC3    C2 4805   1.989   3.608  16.460  0.1435 -0.0293 -0.2392
  320TMC3    C3 4806   1.868   3.561  16.421  0.2451 -0.8661  0.3875
  320TMC3    C4 4807   1.932   3.537  16.675 -0.0998 -1.2601  0.4791
  320TMC3    C5 4808   1.814   3.484  16.629 -1.0245 -0.2364  0.0886
  320TMC3    C6 4809   1.777   3.507  16.505 -0.3274  0.1394 -0.7125
  320TMC3     C 4810   2.160   3.615  16.659  0.2104  0.6871  0.2001
  320TMC3     O 4811   2.174   3.641  16.778 -0.1606 -0.0459 -0.7397
  320TMC3     H 4812   2.065   3.644  16.392  2.2525 -1.2812  1.4496
  320TMC3    H1 4813   1.964   3.531  16.779  1.9228  1.2201 -0.0007
  320TMC3    H2 4814   1.684   3.465  16.468  0.2815  0.3825 -2.5089
  320TMC3    C7 4815   1.779   3.355  16.681  0.7757  0.1335 -0.5065
  320TMC3    C8 4816   1.810   3.626  16.297  1.0203  0.4063 -0.2211
  320TMC3    O1 4817   1.754   3.263  16.603  0.1722  0.1496 -0.1335
  320TMC3    O2 4818   1.872   3.715  16.246 -0.5567  0.0595 -0.0052
  321TMC3    C1 4819   2.790   3.559  17.026 -0.1797  0.0292 -0.0670
  321TMC3    C2 4820   2.721   3.463  17.088  1.1245 -0.3582  0.5244
  321TMC3    C3 4821   2.738   3.447  17.222  0.5529 -0.0522  0.2440
  321TMC3    C4 4822   2.888   3.633  17.088  0.2370  0.6870  0.2647
  321TMC3    C5 4823   2.918   3.600  17.216 -0.4386 -0.2940  0.1120
  321TMC3    C6 4824   2.840   3.515  17.286  0.5423  0.2860  0.1932
  321TMC3     C 4825   2.762   3.593  16.889 -0.0377  0.0733  0.8341
  321TMC3     O 4826   2.854   3.647  16.822 -0.1118  0.0592  0.6183
  321TMC3     H 4827   2.656   3.394  17.035  0.9241 -0.2616  0.6480
  321TMC3    H1 4828   2.938   3.714  17.038  1.1574 -0.3916 -0.5692
  321TMC3    H2 4829   2.884   3.465  17.371 -2.3238 -0.0747  1.4668
  321TMC3    C7 4830   3.058   3.564  17.234  0.0539  0.2407  0.6751
  321TMC3    C8 4831   2.728   3.308  17.245 -0.3210 -0.2342 -0.3048
  321TMC3    O1 4832   3.106   3.512  17.334 -0.0613 -0.7539  0.2022
  321TMC3    O2 4833   2.770   3.231  17.163  0.1875  0.2451 -0.2442
  322MPD2     C 4834   0.934   0.011  13.466  0.4918 -0.2132 -0.5952
  322MPD2    C1 4835   0.961   4.663  13.580 -0.1211  0.0251 -0.0234
  322MPD2    C2 4836   1.027   4.542  13.573 -1.1548  0.1289 -0.1867
  322MPD2    C3 4837   1.059   4.487  13.451  0.0193  0.4267  0.3400
  322MPD2    C4 4838   1.028   4.553  13.332 -0.2555 -0.6910  0.4126
  322MPD2    C5 4839   0.976   4.679  13.344  0.0072  0.4769  0.0967
  322MPD2     H 4840   1.083   4.518  13.663 -0.2084 -0.3695 -0.9255
  322MPD2    H1 4841   1.062   4.523  13.233  0.4248 -1.2842  0.8288
  322MPD2    H2 4842   0.876   0.102  13.470 -1.2489 -1.4483  3.2424
  322MPD2    H3 4843   0.955   0.017  13.258 -0.9414 -1.6574 -1.2002
  322MPD2     N 4844   1.136   4.373  13.457  0.1551  0.0115 -0.4844
  322MPD2    H5 4845   1.146   4.339  13.552 -0.6044  1.5878  0.1539
  322MPD2    N1 4846   0.925   4.723  13.706  0.2911  0.0480 -0.4618
  322MPD2    H7 4847   0.884   0.092  13.701  0.2318 -0.0246 -1.3465
  323TMC3    C1 4848   0.948   0.059  13.931  0.3686 -0.0036  0.3623
  323TMC3    C2 4849   1.037   0.163  13.900 -0.5473 -0.4190  0.1686
  323TMC3    C3 4850   1.081   0.237  14.013 -0.2068  0.6929  0.3217
  323TMC3    C4 4851   0.906   0.030  14.059 -0.5582 -0.3842 -1.3087
  323TMC3    C5 4852   0.955   0.101  14.165  0.3908 -0.9140 -1.4818
  323TMC3    C6 4853   1.031   0.209  14.137 -0.8898  0.0216 -0.3127
  323TMC3     C 4854   0.947   4.677  13.832 -0.1632 -0.2067 -0.1586
  323TMC3     O 4855   0.977   4.565  13.872  0.0101 -0.3739 -0.5805
  323TMC3     H 4856   1.091   0.159  13.806  2.1917 -0.0069  1.7043
  323TMC3    H1 4857   0.847   4.667  14.087  1.8500 -1.9229 -1.0226
  323TMC3    H2 4858   1.024   0.287  14.212  1.8118 -0.3133  0.2663
  323TMC3    C7 4859   1.010   0.025  14.266  0.5487 -0.2853  0.0093
  323TMC3    C8 4860   1.218   0.283  14.019 -0.6153 -0.7371 -0.5039
  323TMC3    O1 4861   1.124   4.705  14.248 -0.1066 -0.2142 -0.1721
  323TMC3    O2 4862   1.247   0.322  14.132  0.1922 -0.2066  0.2061
  324MPD2     C 4863   3.061   1.480  14.840 -0.2534  0.0191  0.8102
  324MPD2    C1 4864   3.108   1.558  14.741 -0.2106  0.4237  0.3674
  324MPD2    C2 4865   3.044   1.562  14.620 -0.2325  0.7711 -0.3988
  324MPD2    C3 4866   2.930   1.491  14.602  0.5832  0.0081 -0.1364
  324MPD2    C4 4867   2.872   1.417  14.705  0.5560  0.1503 -0.2155
  324MPD2    C5 4868   2.949   1.405  14.824 -0.0371  0.4569 -0.5833
  324MPD2     H 4869   3.080   1.622  14.537 -0.8244  0.6548 -0.7382
  324MPD2    H1 4870   2.769   1.382  14.706  0.9489 -1.0911 -3.5104
  324MPD2    H2 4871   3.104   1.482  14.940  0.5882 -2.2929  0.4955
  324MPD2    H3 4872   2.916   1.349  14.910  0.4531  0.8775 -0.1219
  324MPD2     N 4873   2.856   1.492  14.480  0.3487  0.5754 -0.0531
  324MPD2    H5 4874   2.776   1.430  14.478  0.1551  0.8270  0.0913
  324MPD2    N1 4875   3.221   1.639  14.761 -0.3791 -0.1523 -0.2798
  324MPD2    H7 4876   3.250   1.701  14.686 -0.2731 -1.9221 -1.6827
  325TMC3    C1 4877   2.756   1.554  14.279 -0.1539  0.3586  0.0863
  325TMC3    C2 4878   2.668   1.457  14.310  0.4346  1.1030 -0.0260
  325TMC3    C3 4879   2.545   1.472  14.247 -0.1538 -0.2742 -0.5706
  325TMC3    C4 4880   2.727   1.668  14.208  0.3205 -0.4551  0.3114
  325TMC3    C5 4881   2.595   1.681  14.171  0.2856  0.1014 -0.5921
  325TMC3    C6 4882   2.500   1.580  14.181  0.8184  0.0695  0.0548
  325TMC3     C 4883   2.862   1.577  14.371 -0.2810  0.1949  0.2882
  325TMC3     O 4884   2.936   1.669  14.345 -0.0686 -0.2638 -0.0188
  325TMC3     H 4885   2.701   1.363  14.352 -0.8247 -0.4848 -2.5845
  325TMC3    H1 4886   2.805   1.743  14.202  0.3274 -0.4524  0.4337
  325TMC3    H2 4887   2.397   1.588  14.149  1.1462  0.3870 -0.9198
  325TMC3    C7 4888   2.544   1.820  14.166  0.2482  0.1551  0.1982
  325TMC3    C8 4889   2.447   1.377  14.268 -0.2886  0.1018  0.5548
  325TMC3    O1 4890   2.622   1.904  14.122  0.3247 -0.0722  0.0670
  325TMC3    O2 4891   2.370   1.354  14.178 -0.6535  0.2696  0.2058
  326MPD2     C 4892   3.441   2.570  11.145 -0.0927 -0.1595  0.1950
  326MPD2    C1 4893   3.453   2.577  11.004  0.4202  0.3397  0.0296
  326MPD2    C2 4894   3.565   2.640  10.950 -0.0337 -0.4749  0.2140
  326MPD2    C3 4895   3.673   2.685  11.028 -0.2007  0.0890  0.0390
  326MPD2    C4 4896   3.657   2.682  11.168  0.1066 -0.6658  0.2797
  326MPD2    C5 4897   3.542   2.615  11.222  0.1009 -0.2348 -0.3226
  326MPD2     H 4898   3.569   2.651  10.843  0.0750  0.7881  0.3426
  326MPD2    H1 4899   3.728   2.722  11.239  0.6111  1.1724 -1.2500
  326MPD2    H2 4900   3.358   2.525  11.198 -1.5269 -0.3767 -2.2214
  326MPD2    H3 4901   3.537   2.610  11.330 -0.7777  3.3821 -0.1870
  326MPD2     N 4902   3.788   2.750  10.976  0.4791 -0.9004 -0.1701
  326MPD2    H5 4903   3.865   2.779  11.036  1.1461 -0.3155 -1.3253
  326MPD2    N1 4904   3.362   2.525  10.909 -0.0634 -0.2997 -0.1772
  326MPD2    H7 4905   3.371   2.555  10.812  0.4136  0.8224  0.2070
  327TMC3    C1 4906   3.310   2.347  10.784 -0.4166 -0.4551  0.0502
  327TMC3    C2 4907   3.347   2.439  10.683 -0.8367  0.1276  0.2600
  327TMC3    C3 4908   3.455   2.418  10.606  0.0276 -0.2597 -0.1774
  327TMC3    C4 4909   3.387   2.234  10.803  0.0239 -0.4101  0.3017
  327TMC3    C5 4910   3.513   2.227  10.734 -0.0982  0.4791 -0.2917
  327TMC3    C6 4911   3.542   2.317  10.636 -0.1344  0.2841  0.1357
  327TMC3     C 4912   3.283   2.413  10.914 -0.1879 -0.6482  0.7255
  327TMC3     O 4913   3.270   2.347  11.017 -0.1256  0.2403  0.2289
  327TMC3     H 4914   3.275   2.518  10.666  0.8486  1.4575 -0.7124
  327TMC3    H1 4915   3.386   2.178  10.896 -0.9798 -1.0087 -0.0693
  327TMC3    H2 4916   3.641   2.316  10.591 -0.6014  1.6328 -0.9041
  327TMC3    C7 4917   3.605   2.122  10.771 -0.3415 -0.1432 -0.3400
  327TMC3    C8 4918   3.516   2.525  10.533 -0.2545  0.1549 -0.3223
  327TMC3    O1 4919   3.558   2.022  10.823 -0.4529 -0.0263  0.1563
  327TMC3    O2 4920   3.637   2.528  10.513  0.2801 -0.8536 -0.1692
  328MPD2     C 4921   2.156   2.286  17.143  0.0018  0.1766  0.1980
  328MPD2    C1 4922   2.077   2.226  17.043  0.1278 -0.5165  1.0039
  328MPD2    C2 4923   1.984   2.307  16.976 -0.4431  0.5382 -0.2867
  328MPD2    C3 4924   1.968   2.438  17.008  0.0062  0.4773  1.0109
  328MPD2    C4 4925   2.058   2.501  17.093 -0.3218 -0.3750 -0.5616
  328MPD2    C5 4926   2.143   2.418  17.161  0.0110 -0.0222  0.1681
  328MPD2     H 4927   1.926   2.258  16.899 -0.3861 -0.8504  0.5553
  328MPD2    H1 4928   2.040   2.603  17.127  0.1866 -0.0500 -1.2549
  328MPD2    H2 4929   2.232   2.233  17.200  0.4387  0.2110 -0.3525
  328MPD2    H3 4930   2.217   2.460  17.229  0.9881 -1.9669  0.2922
  328MPD2     N 4931   1.874   2.519  16.941 -0.3253  0.7836 -0.0540
  328MPD2    H5 4932   1.866   2.612  16.980  0.8748 -0.3358  2.8038
  328MPD2    N1 4933   2.088   2.082  17.032 -0.0176 -0.7472  0.2719
  328MPD2    H7 4934   2.154   2.038  17.095 -0.2174 -0.9681  0.3270
  329TMC3    C1 4935   1.981   1.877  17.015 -0.1978  0.0009  0.2372
  329TMC3    C2 4936   2.005   1.878  17.152  0.8593  0.5581 -0.1968
  329TMC3    C3 4937   2.022   1.752  17.216  0.2125  0.3111  0.0501
  329TMC3    C4 4938   1.986   1.769  16.936  0.6712  0.8002 -0.1090
  329TMC3    C5 4939   2.019   1.655  17.005  0.2157  0.3444  0.2832
  329TMC3    C6 4940   2.049   1.639  17.141 -0.5386 -0.2817  0.0306
  329TMC3     C 4941   2.006   2.005  16.951 -1.0897  0.2853 -0.0219
  329TMC3     O 4942   1.953   2.028  16.843 -0.8302  0.3759 -0.3026
  329TMC3     H 4943   1.990   1.968  17.212 -1.8679  0.6633 -1.0367
  329TMC3    H1 4944   1.973   1.778  16.829 -1.0386 -2.6316 -0.1862
  329TMC3    H2 4945   2.058   1.545  17.195 -0.3880 -0.8766 -1.0486
  329TMC3    C7 4946   2.027   1.535  16.927 -0.3303  0.0510 -0.1000
  329TMC3    C8 4947   2.060   1.742  17.355 -0.2174 -0.2755  0.1595
  329TMC3    O1 4948   2.082   1.538  16.817  0.2090 -0.3700  0.0734
  329TMC3    O2 4949   2.130   1.648  17.388 -0.1129 -0.5015 -0.2318
  330TMC3    C1 4950   0.163   1.478   9.634  0.8564  0.4343  0.3855
  330TMC3    C2 4951   0.108   1.410   9.531  1.1355 -0.1697 -0.6437
  330TMC3    C3 4952   0.149   1.280   9.512 -0.0441 -0.1391 -0.3210
  330TMC3    C4 4953   0.244   1.426   9.723  0.0748 -0.0435  0.5155
  330TMC3    C5 4954   0.271   1.292   9.707 -0.3694 -0.5556  0.3479
  330TMC3    C6 4955   0.229   1.217   9.603 -0.4458  0.0302  0.4144
  330TMC3     C 4956   0.101   1.610   9.673  0.8449 -0.1982 -0.0425
  330TMC3     O 4957   0.137   1.668   9.776 -0.0841 -0.4434  0.3629
  330TMC3     H 4958   0.056   1.459   9.450 -2.5294 -0.2020  1.6871
  330TMC3    H1 4959   0.279   1.478   9.812 -1.9002  1.0980  0.6127
  330TMC3    H2 4960   0.271   1.120   9.578 -0.6438  0.5180 -1.8280
  330TMC3    C7 4961   0.319   1.221   9.825  0.6509  0.3048  0.0185
  330TMC3    C8 4962   0.117   1.222   9.382  0.2909  0.6371  0.6416
  330TMC3    O1 4963   0.373   1.285   9.914 -0.4250 -0.4873 -0.8241
  330TMC3    O2 4964   0.112   1.297   9.289 -0.1253 -0.1813 -0.2933
  331MPD2     C 4965   2.092   0.737  11.974 -0.3033 -1.0881 -0.5091
  331MPD2    C1 4966   2.146   0.731  12.102  0.3460 -0.5710  0.5596
  331MPD2    C2 4967   2.263   0.649  12.123 -0.2068 -0.5218 -0.9732
  331MPD2    C3 4968   2.329   0.592  12.021  1.0537  0.2305 -0.4771
  331MPD2    C4 4969   2.266   0.596  11.897  0.5070  0.8534  0.0905
  331MPD2    C5 4970   2.155   0.666  11.876 -0.3775  0.5863 -0.9521
  331MPD2     H 4971   2.306   0.634  12.221 -0.6698  0.3522 -0.6362
  331MPD2    H1 4972   2.303   0.555  11.803 -0.3319 -0.4995  0.3422
  331MPD2    H2 4973   2.002   0.791  11.949 -0.0743  0.0699  1.1590
  331MPD2    H3 4974   2.122   0.662  11.773  0.2258 -0.0873 -1.1188
  331MPD2     N 4975   2.456   0.534  12.042  0.1071  0.8343  0.1052
  331MPD2    H5 4976   2.492   0.539  12.137  0.3277  1.3194 -0.0054
  331MPD2    N1 4977   2.084   0.815  12.201 -0.0452 -0.3565  0.9402
  331MPD2    H7 4978   2.004   0.868  12.170  0.7184 -0.8608 -1.8412
  332TMC3    C1 4979   2.655   0.422  11.998 -0.1967  0.5852 -0.0506
  332TMC3    C2 4980   2.778   0.468  11.954  0.3054  0.0069 -0.7819
  332TMC3    C3 4981   2.892   0.451  12.035  0.0653 -0.2217 -0.7479
  332TMC3    C4 4982   2.639   0.364  12.124  0.2668  0.3902  0.0604
  332TMC3    C5 4983   2.749   0.371  12.202  0.7184 -0.1319 -0.3732
  332TMC3    C6 4984   2.871   0.404  12.159 -1.0376  0.6676 -0.0632
  332TMC3     C 4985   2.541   0.495  11.942  0.4455 -0.3423 -0.2672
  332TMC3     O 4986   2.521   0.501  11.821 -0.1573  0.5759  0.0802
  332TMC3     H 4987   2.772   0.536  11.870 -1.3425  2.3804  1.2281
  332TMC3    H1 4988   2.547   0.331  12.170 -0.4297  3.1310  0.5883
  332TMC3    H2 4989   2.961   0.379  12.214 -0.8795 -1.7603 -1.4650
  332TMC3    C7 4990   2.743   0.319  12.333  0.0684 -0.7180  0.6513
  332TMC3    C8 4991   2.988   0.562  12.029  0.2592  0.4808  0.2316
  332TMC3    O1 4992   2.648   0.247  12.347  0.3972 -0.3483  0.4055
  332TMC3    O2 4993   2.956   0.670  11.980 -0.6960 -0.2859 -0.0190
  333MPD2     C 4994   3.047   0.599  11.083  0.1278  0.5074 -0.0291
  333MPD2    C1 4995   3.121   0.485  11.055  0.6762 -0.3302  0.9164
  333MPD2    C2 4996   3.096   0.359  11.121 -0.1796 -0.4285  0.0822
  333MPD2    C3 4997   2.992   0.356  11.206 -0.0946  0.8610  0.6437
  333MPD2    C4 4998   2.925   0.472  11.235 -0.3757  0.2583  0.5024
  333MPD2    C5 4999   2.945   0.588  11.170 -0.1290  0.3377  0.4767
  333MPD2     H 5000   3.145   0.270  11.084  0.7652  1.2001 -2.5764
  333MPD2    H1 5001   2.834   0.464  11.294 -1.0915 -0.7499 -0.7237
  333MPD2    H2 5002   3.066   0.695  11.037 -1.5928  1.3834  1.0841
  333MPD2    H3 5003   2.889   0.675  11.201 -1.5225 -0.3726 -0.0242
  333MPD2     N 5004   2.942   0.236  11.255  0.4996  0.6470 -0.2123
  333MPD2    H5 5005   2.987   0.154  11.216  1.0174 -0.4651  2.7413
  333MPD2    N1 5006   3.231   0.501  10.963 -0.0148 -0.1129 -0.2963
  333MPD2    H7 5007   3.236   0.590  10.914  1.1893  0.6484  1.2298
  334TMC3    C1 5008   3.443   0.481  10.856  0.1045  0.0726 -0.1876
  334TMC3    C2 5009   3.534   0.397  10.809 -0.0048  0.0592  0.3716
  334TMC3    C3 5010   3.633   0.441  10.728  0.4639  0.1091  0.0767
  334TMC3    C4 5011   3.441   0.618  10.832 -0.7084 -0.0634  0.2798
  334TMC3    C5 5012   3.535   0.655  10.731 -0.2848  0.6390 -0.6007
  334TMC3    C6 5013   3.634   0.569  10.686 -0.0181 -0.1887 -0.2763
  334TMC3     C 5014   3.341   0.422  10.939 -0.1830  0.1435 -0.4463
  334TMC3     O 5015   3.365   0.315  10.996 -0.0890 -0.5640  0.2840
  334TMC3     H 5016   3.541   0.295  10.845  1.1021 -0.3505 -1.0044
  334TMC3    H1 5017   3.364   0.687  10.863 -1.2524  0.2136 -1.6778
  334TMC3    H2 5018   3.713   0.610  10.625 -0.1766 -0.9095 -0.9633
  334TMC3    C7 5019   3.531   0.804  10.686 -0.2689 -0.1301  0.0543
  334TMC3    C8 5020   3.747   0.354  10.716 -0.0851 -0.6794 -0.7539
  334TMC3    O1 5021   3.479   0.890  10.758 -0.0394  0.3046 -0.0360
  334TMC3    O2 5022   3.750   0.245  10.780  0.2827  0.0216  0.2453
  335TMC3    C1 5023   2.651   2.252  17.586  1.1895  0.4339 -0.7066
  335TMC3    C2 5024   2.541   2.176  17.556  0.8653  0.5582 -0.0604
  335TMC3    C3 5025   2.564   2.061  17.487  0.1875 -0.7567  0.3014
  335TMC3    C4 5026   2.777   2.209  17.560  0.4368 -0.0122  0.0108
  335TMC3    C5 5027   2.796   2.086  17.501  0.3817  0.2829  0.3652
  335TMC3    C6 5028   2.690   2.009  17.464  0.2497  0.2291 -0.2222
  335TMC3     C 5029   2.631   2.341   0.001  0.0549 -0.1145 -0.6511
  335TMC3     O 5030   2.525   2.399  17.694  0.5630  0.1438 -0.0257
  335TMC3     H 5031   2.440   2.215  17.561  0.5531 -0.3749  1.0138
  335TMC3    H1 5032   2.857   2.280  17.576 -1.0260  2.0156 -1.5972
  335TMC3    H2 5033   2.713   1.905  17.445  0.3666 -0.0026  1.2264
  335TMC3    C7 5034   2.927   2.047  17.463 -0.1195 -0.1766  0.1971
  335TMC3    C8 5035   2.460   2.019  17.399 -0.1706  0.2956  0.8005
  335TMC3    O1 5036   2.955   1.929  17.491  0.3553 -0.0479  0.0552
  335TMC3    O2 5037   2.387   2.100  17.342  1.2583  0.1258  0.1831
  336MPD2     C 5038   2.068   0.130  16.043  0.0324  0.2560  0.0225
  336MPD2    C1 5039   2.091   0.052  15.933  0.6764  0.4012  0.0476
  336MPD2    C2 5040   2.102   4.644  15.948 -0.2146 -0.2201  0.0027
  336MPD2    C3 5041   2.112   4.588  16.076 -0.5772  0.3761 -0.5228
  336MPD2    C4 5042   2.095   4.670  16.185  0.3469 -0.6214 -0.0222
  336MPD2    C5 5043   2.061   0.071  16.166 -0.1129  0.3912  0.5233
  336MPD2     H 5044   2.110   4.582  15.860 -1.0625  1.7404 -1.4577
  336MPD2    H1 5045   2.076   4.632  16.284 -1.7121  0.8743  0.1516
  336MPD2    H2 5046   2.064   0.238  16.041  1.4295  0.3023 -0.2708
  336MPD2    H3 5047   2.029   0.136  16.247 -1.0904 -0.1704  0.5836
  336MPD2     N 5048   2.112   4.447  16.097 -0.6516  0.1052 -0.7055
  336MPD2    H5 5049   2.106   4.413  16.193 -0.5448 -0.9119 -1.0617
  336MPD2    N1 5050   2.122   0.106  15.804 -0.3675 -0.3149  0.2767
  336MPD2    H7 5051   2.162   0.046  15.732 -0.5880  1.1238 -1.0607
  337TMC3    C1 5052   2.127   0.262  15.636  0.0743  0.1311  0.0862
  337TMC3    C2 5053   2.036   0.347  15.564 -0.0744  0.0128  0.1722
  337TMC3    C3 5054   2.065   0.368  15.433  0.1178  0.0226  0.8230
  337TMC3    C4 5055   2.249   0.224  15.585  0.2432  0.2974  0.4570
  337TMC3    C5 5056   2.278   0.264  15.459 -0.3776  0.2232  0.0929
  337TMC3    C6 5057   2.187   0.333  15.383  0.0576 -1.3243  0.1646
  337TMC3     C 5058   2.093   0.231  15.770  0.5737  0.5412 -0.5723
  337TMC3     O 5059   2.019   0.314  15.825 -0.1388 -0.5037 -0.1891
  337TMC3     H 5060   1.940   0.378  15.605 -0.1022  0.1050  0.0375
  337TMC3    H1 5061   2.323   0.176  15.647  0.4675 -1.6585 -1.3142
  337TMC3    H2 5062   2.200   0.333  15.275 -2.4508 -1.3029 -0.1169
  337TMC3    C7 5063   2.403   0.215  15.401  0.5181 -0.5241  1.2510
  337TMC3    C8 5064   1.962   0.408  15.339 -0.2800 -0.2920  0.3742
  337TMC3    O1 5065   2.444   0.277  15.302 -0.3658 -0.0158  0.1867
  337TMC3    O2 5066   1.993   0.476  15.239 -0.3941  0.1969 -0.7588
  338MPD2     C 5067   2.838   3.995   1.060 -0.5814  0.2779  0.6570
  338MPD2    C1 5068   2.748   4.005   0.955 -0.2702 -0.3783  0.3526
  338MPD2    C2 5069   2.632   4.068   0.972  0.8567  0.3224  0.2492
  338MPD2    C3 5070   2.597   4.133   1.092 -0.5168  0.5539  0.1122
  338MPD2    C4 5071   2.686   4.122   1.195  0.2510 -0.6990  0.0357
  338MPD2    C5 5072   2.806   4.057   1.178 -0.1034 -0.5952 -0.4138
  338MPD2     H 5073   2.565   4.064   0.886  0.5135  1.8895  0.4519
  338MPD2    H1 5074   2.672   4.173   1.290  0.0207 -1.4115  0.3875
  338MPD2    H2 5075   2.929   3.936   1.060 -2.5773 -2.7910  0.3609
  338MPD2    H3 5076   2.877   4.063   1.260 -0.9243 -2.5385  0.4337
  338MPD2     N 5077   2.473   4.198   1.102 -0.1209 -0.2235 -0.8150
  338MPD2    H5 5078   2.411   4.198   1.021 -1.4670  3.1320  0.2305
  338MPD2    N1 5079   2.768   3.946   0.826  0.0758 -0.4602 -0.1096
  338MPD2    H7 5080   2.700   3.977   0.757  0.0527 -0.4291 -0.0736
  339TMC3    C1 5081   2.298   4.322   1.197  0.2867 -0.6925 -0.0555
  339TMC3    C2 5082   2.218   4.356   1.308  0.1232 -0.2700 -0.1864
  339TMC3    C3 5083   2.098   4.421   1.279  0.4866 -0.8303  0.0925
  339TMC3    C4 5084   2.275   4.367   1.071 -0.2705 -0.0860  0.1676
  339TMC3    C5 5085   2.155   4.436   1.055  0.2996 -0.4029  0.0428
  339TMC3    C6 5086   2.064   4.461   1.156 -0.0812  0.5308  0.1428
  339TMC3     C 5087   2.422   4.252   1.216  0.1283 -0.0377 -0.3207
  339TMC3     O 5088   2.459   4.237   1.334  0.6606  0.1050 -0.3012
  339TMC3     H 5089   2.235   4.313   1.406 -2.0746 -2.8473 -0.9390
  339TMC3    H1 5090   2.343   4.371   0.986 -0.6871 -2.8217 -0.2800
  339TMC3    H2 5091   1.969   4.508   1.132  0.0149 -0.3720 -1.9645
  339TMC3    C7 5092   2.123   4.472   0.918  0.2324 -0.1899 -0.7706
  339TMC3    C8 5093   1.990   4.433   1.368 -0.7628  0.0600  0.3118
  339TMC3    O1 5094   2.045   4.567   0.904 -0.2011  0.4161 -0.2578
  339TMC3    O2 5095   1.924   4.535   1.372 -0.3094  0.1643 -0.5033
  340MPD2     C 5096   2.567   2.335  10.229 -0.6553  0.1397 -0.7508
  340MPD2    C1 5097   2.616   2.350  10.100 -0.9367  0.3711 -0.2003
  340MPD2    C2 5098   2.734   2.424  10.081  0.2239 -0.6671  0.5888
  340MPD2    C3 5099   2.800   2.480  10.192  0.4551 -0.3500  0.2776
  340MPD2    C4 5100   2.748   2.459  10.317 -0.2043  0.0037 -0.4160
  340MPD2    C5 5101   2.637   2.383  10.339 -0.2099 -0.2613 -0.3364
  340MPD2     H 5102   2.778   2.441   9.983 -1.5151 -1.1757 -0.2793
  340MPD2    H1 5103   2.806   2.515  10.389 -2.3052  2.7605 -0.8302
  340MPD2    H2 5104   2.468   2.299  10.254 -0.7904 -0.4610 -2.1175
  340MPD2    H3 5105   2.607   2.377  10.443 -2.4272 -1.2745 -1.0235
  340MPD2     N 5106   2.928   2.543  10.179 -0.0797  0.3429  0.2527
  340MPD2    H5 5107   2.982   2.543  10.264  0.5287 -1.1676 -0.1311
  340MPD2    N1 5108   2.555   2.307   9.981 -0.0287 -0.0794  0.2890
  340MPD2    H7 5109   2.617   2.314   9.901  0.7801  1.0518  1.0092
  341TMC3    C1 5110   2.401   2.230   9.832 -0.1297  0.3329 -0.1788
  341TMC3    C2 5111   2.327   2.119   9.799 -0.1992 -0.4554 -0.6040
  341TMC3    C3 5112   2.345   2.066   9.675  0.1992  0.1781  0.7347
  341TMC3    C4 5113   2.486   2.283   9.739  0.1667 -0.4862  0.5000
  341TMC3    C5 5114   2.513   2.225   9.621  0.1882 -0.1374  0.3813
  341TMC3    C6 5115   2.437   2.115   9.586 -0.2003  0.1571  0.3503
  341TMC3     C 5116   2.430   2.258   9.965  0.4772  0.2092  1.4224
  341TMC3     O 5117   2.352   2.209  10.044  0.2092  0.0890 -0.5237
  341TMC3     H 5118   2.262   2.072   9.873  0.0342 -2.6923 -1.8221
  341TMC3    H1 5119   2.526   2.381   9.763  1.6726 -1.4048  1.7393
  341TMC3    H2 5120   2.485   2.043   9.520 -1.0411 -2.3893  2.5221
  341TMC3    C7 5121   2.651   2.205   9.603 -0.5417 -0.4713 -0.3731
  341TMC3    C8 5122   2.282   1.937   9.646  0.3001 -0.5052  0.9943
  341TMC3    O1 5123   2.718   2.188   9.703 -0.0915  0.0888  0.2705
  341TMC3    O2 5124   2.254   1.867   9.742 -0.2821 -0.0084  0.0692
  342MPD2     C 5125   0.309   0.539  17.619 -0.4064 -0.5175 -0.2540
  342MPD2    C1 5126   0.447   0.546  17.614  0.3964  0.5576 -0.0706
  342MPD2    C2 5127   0.510   0.667  17.626 -0.5552 -0.5589 -0.1471
  342MPD2    C3 5128   0.430   0.776  17.645 -0.9140  0.2119  0.8582
  342MPD2    C4 5129   0.292   0.767  17.651 -0.0229  0.0238 -0.6511
  342MPD2    C5 5130   0.230   0.646  17.650  0.2399 -0.1297  0.4147
  342MPD2     H 5131   0.618   0.671  17.640 -0.7742  1.2333  1.0812
  342MPD2    H1 5132   0.217   0.845  17.658 -1.9086 -1.9542  1.2180
  342MPD2    H2 5133   0.255   0.446  17.602 -0.3670 -0.9980  2.1778
  342MPD2    H3 5134   0.123   0.638  17.638 -0.0250  6.0519 -1.2235
  342MPD2     N 5135   0.477   0.909  17.628  0.0529  0.5649 -0.1736
  342MPD2    H5 5136   0.401   0.972  17.602 -0.1866 -0.5714 -2.2586
  342MPD2    N1 5137   0.534   0.436  17.605 -0.3601 -0.3895 -0.0507
  342MPD2    H7 5138   0.632   0.460  17.601  0.0506 -2.1112 -0.4446
  343TMC3    C1 5139   0.603   0.216  17.596  0.1822 -0.2795  0.4894
  343TMC3    C2 5140   0.690   0.250  17.495  0.2238  0.0885  0.4081
  343TMC3    C3 5141   0.744   0.156  17.401 -0.0352  0.2094 -0.1287
  343TMC3    C4 5142   0.564   0.084  17.606  0.6795  0.2421  0.3533
  343TMC3    C5 5143   0.613   4.721  17.505 -0.3541  0.5458 -0.0756
  343TMC3    C6 5144   0.692   0.034  17.398  0.3865 -0.0800  0.3232
  343TMC3     C 5145   0.508   0.310  17.642  0.1340  0.5835  0.0543
  343TMC3     O 5146   0.400   0.261  17.675  0.0519 -0.1830  0.4419
  343TMC3     H 5147   0.722   0.354  17.495 -0.1335  0.2005 -1.7010
  343TMC3    H1 5148   0.504   0.048  17.688 -1.0060 -0.8162 -1.3358
  343TMC3    H2 5149   0.706   4.684  17.320  4.8371  1.2933 -0.1886
  343TMC3    C7 5150   0.563   4.588  17.500  0.1564 -0.0501 -0.9045
  343TMC3    C8 5151   0.817   0.209  17.292  0.1657  0.4645  0.3466
  343TMC3    O1 5152   0.524   4.543  17.394 -0.0611 -0.1982  0.1246
  343TMC3    O2 5153   0.839   0.331  17.274 -0.2407  0.3927 -0.4100
  344MPD2     C 5154   1.805   4.229  10.798 -0.4804  0.0332 -0.2274
  344MPD2    C1 5155   1.713   4.250  10.697  0.3718 -0.6520 -0.5678
  344MPD2    C2 5156   1.744   4.326  10.583  0.1722  0.0601 -0.5037
  344MPD2    C3 5157   1.871   4.386  10.576 -0.2303  0.0890  0.2318
  344MPD2    C4 5158   1.958   4.366  10.681  0.3994  0.0402  0.2162
  344MPD2    C5 5159   1.929   4.283  10.790  0.3628  0.2393 -0.5852
  344MPD2     H 5160   1.659   4.350  10.520  0.4108 -1.0642 -1.2384
  344MPD2    H1 5161   2.054   4.416  10.679  0.4266 -0.1885 -3.9009
  344MPD2    H2 5162   1.773   4.182  10.890  2.2981  1.1143  1.3050
  344MPD2    H3 5163   2.003   4.270  10.868 -0.5935  2.1073  0.6387
  344MPD2     N 5164   1.909   4.481  10.479 -0.0608  0.4583 -0.0253
  344MPD2    H5 5165   1.996   4.529  10.498 -0.7415  1.2458  1.0533
  344MPD2    N1 5166   1.589   4.189  10.716 -0.2906  0.0076 -0.2570
  344MPD2    H7 5167   1.587   4.142  10.806 -0.5964  1.3081  0.4143
  345TMC3    C1 5168   1.907   4.642  10.307  0.3456  0.2919 -0.3331
  345TMC3    C2 5169   2.033   4.674  10.346 -0.0086  0.2057 -0.1164
  345TMC3    C3 5170   2.068   0.080  10.331  0.4265  0.6151 -0.5959
  345TMC3    C4 5171   1.818   0.013  10.260 -0.5214 -0.3323  0.0291
  345TMC3    C5 5172   1.862   0.144  10.252 -0.2673  0.9359  0.0447
  345TMC3    C6 5173   1.989   0.181  10.291  0.0708 -0.2409 -0.2029
  345TMC3     C 5174   1.839   4.527  10.377 -0.0254 -0.0038 -0.3252
  345TMC3     O 5175   1.731   4.485  10.328  0.1757 -0.1826  0.0168
  345TMC3     H 5176   2.107   4.606  10.387  0.8675  0.0932 -1.8881
  345TMC3    H1 5177   1.716   4.702  10.257  0.0631 -1.6584 -4.3729
  345TMC3    H2 5178   2.041   0.269  10.255 -0.9292  0.3358 -0.2465
  345TMC3    C7 5179   1.798   0.218  10.146  0.2391  1.0742 -0.5813
  345TMC3    C8 5180   2.197   0.117  10.377  0.2009 -0.3861 -0.3272
  345TMC3    O1 5181   1.840   0.326  10.112 -0.4919 -0.0570  0.7214
  345TMC3    O2 5182   2.293   0.058  10.325  0.0846 -0.5163  0.3043
  346MPD2     C 5183   1.522   1.785  14.181 -0.5757  0.2159  0.2333
  346MPD2    C1 5184   1.662   1.784  14.191  0.3839  0.8836  0.2328
  346MPD2    C2 5185   1.719   1.842  14.300  0.4690  0.2477  0.6492
  346MPD2    C3 5186   1.647   1.879  14.412 -0.5148 -0.4439 -0.1637
  346MPD2    C4 5187   1.512   1.899  14.397  0.0141 -0.0591  0.0850
  346MPD2    C5 5188   1.449   1.844  14.288 -0.2336  0.2738 -0.2999
  346MPD2     H 5189   1.826   1.829  14.295  0.4044 -0.7629  1.8682
  346MPD2    H1 5190   1.453   1.933  14.481 -0.9793 -1.8954  0.1283
  346MPD2    H2 5191   1.469   1.761  14.089  0.1465  0.6350 -0.2918
  346MPD2    H3 5192   1.343   1.859  14.269 -0.8259 -2.6539  0.7261
  346MPD2     N 5193   1.728   1.908  14.527 -0.3356 -1.1260  0.1072
  346MPD2    H5 5194   1.827   1.886  14.521  0.2299  0.4303  3.6620
  346MPD2    N1 5195   1.752   1.731  14.091 -0.1266  0.1662  0.0267
  346MPD2    H7 5196   1.850   1.755  14.095  0.1168 -0.3868 -2.6197
  347TMC3    C1 5197   1.794   1.978  14.734  0.1042  0.0460 -0.0830
  347TMC3    C2 5198   1.925   2.004  14.688  0.4240 -0.3978  0.8490
  347TMC3    C3 5199   2.033   1.968  14.765  0.8020  0.3487 -0.5206
  347TMC3    C4 5200   1.768   1.920  14.855 -0.5755  0.4019  0.0160
  347TMC3    C5 5201   1.878   1.897  14.933 -0.0262 -0.3456 -0.1036
  347TMC3    C6 5202   2.009   1.909  14.887  0.2415 -0.9313  0.0956
  347TMC3     C 5203   1.692   1.982  14.632  0.3680  0.0179  0.2952
  347TMC3     O 5204   1.583   2.008  14.677  0.1263 -0.2005  0.1561
  347TMC3     H 5205   1.940   2.054  14.593 -1.0372 -1.5498  0.0191
  347TMC3    H1 5206   1.671   1.898  14.898 -0.1137 -0.7429  0.4564
  347TMC3    H2 5207   2.103   1.896  14.940  0.2510 -1.4653 -0.0576
  347TMC3    C7 5208   1.864   1.882  15.076  0.2656  0.0567  0.7221
  347TMC3    C8 5209   2.163   1.949  14.702  0.0696 -0.0996  0.5079
  347TMC3    O1 5210   1.773   1.817  15.124  0.0269 -0.4559  0.1288
  347TMC3    O2 5211   2.222   1.844  14.722  0.1545 -0.8306 -0.3176
  348MPD2     C 5212   0.397   1.360  12.088 -0.2299 -0.7656  0.1998
  348MPD2    C1 5213   0.476   1.472  12.068 -0.4360 -0.0409  0.2229
  348MPD2    C2 5214   0.442   1.550  11.963  0.3208  0.4753 -0.2364
  348MPD2    C3 5215   0.326   1.535  11.889 -0.0177  0.3197 -0.6149
  348MPD2    C4 5216   0.246   1.437  11.927 -0.1362 -0.5646  0.2646
  348MPD2    C5 5217   0.287   1.344  12.015  0.2842 -0.4640 -0.0377
  348MPD2     H 5218   0.511   1.632  11.944  1.2035 -0.1472  0.2816
  348MPD2    H1 5219   0.162   1.398  11.869  0.0629 -0.8686  0.1790
  348MPD2    H2 5220   0.416   1.272  12.149  0.6560  0.9308  2.3749
  348MPD2    H3 5221   0.219   1.263  12.038 -0.9595  0.3878 -0.6552
  348MPD2     N 5222   0.309   1.622  11.771 -0.2204 -0.1966  0.2242
  348MPD2    H5 5223   0.387   1.676  11.737  1.4816 -2.6415  0.2410
  348MPD2    N1 5224   0.601   1.483  12.132  0.3612  0.2703  0.7550
  348MPD2    H7 5225   0.650   1.571  12.117 -0.5319  0.4676 -1.0541
  349TMC3    C1 5226   0.796   1.413  12.228  0.0751  0.1528 -0.5383
  349TMC3    C2 5227   0.843   1.283  12.227 -0.2334 -0.0145 -0.9934
  349TMC3    C3 5228   0.936   1.255  12.130 -0.1002  0.2215 -0.3993
  349TMC3    C4 5229   0.842   1.504  12.136 -0.2322 -0.0027 -0.0312
  349TMC3    C5 5230   0.916   1.465  12.033  0.5818 -0.2690 -1.0847
  349TMC3    C6 5231   0.970   1.341  12.031 -0.0885  0.5396 -0.0192
  349TMC3     C 5232   0.653   1.402  12.230 -0.0857 -0.0811  0.4333
  349TMC3     O 5233   0.601   1.307  12.286 -0.7720 -0.2463 -0.1050
  349TMC3     H 5234   0.804   1.209  12.295  0.1292  2.0047  1.4080
  349TMC3    H1 5235   0.807   1.606  12.145  2.3445  0.9108 -0.0730
  349TMC3    H2 5236   1.035   1.307  11.952  0.1901 -0.1670  0.5066
  349TMC3    C7 5237   0.857   1.480  11.906  0.5703  0.1388 -0.5213
  349TMC3    C8 5238   0.996   1.123  12.152 -0.1427 -0.0414  0.6229
  349TMC3    O1 5239   0.853   1.387  11.825  0.3682 -0.3248  0.3589
  349TMC3    O2 5240   0.975   1.061  12.256 -0.1873 -0.1826 -0.3135
  350MPD2     C 5241   4.515   3.650   9.683  0.2428  0.4414 -0.7933
  350MPD2    C1 5242   4.420   3.589   9.758 -0.6020  0.3746  0.5865
  350MPD2    C2 5243   4.405   3.626   9.885  0.4237 -0.7623 -0.3315
  350MPD2    C3 5244   4.478   3.726   9.940 -0.0705 -0.0956 -0.0189
  350MPD2    C4 5245   4.579   3.783   9.865  0.5759  0.4762  0.0625
  350MPD2    C5 5246   4.594   3.752   9.730  0.4208 -0.0774 -0.1106
  350MPD2     H 5247   4.323   3.574   9.935 -0.5038  0.7442 -0.2954
  350MPD2    H1 5248   4.647   3.862   9.893 -0.0081  1.3062 -0.8699
  350MPD2    H2 5249   4.533   3.628   9.579 -3.1513 -2.9476 -0.6400
  350MPD2    H3 5250   4.665   3.798   9.662 -0.6238 -1.4082 -2.0955
  350MPD2     N 5251   4.457   3.761  10.077 -0.2085 -0.1916 -0.0540
  350MPD2    H5 5252   4.384   3.708  10.125 -0.6681  1.7156  1.3320
  350MPD2    N1 5253   4.343   3.482   9.703 -0.1693 -0.7579 -0.1327
  350MPD2    H7 5254   4.286   3.429   9.768  0.2229 -0.9362  0.0703
  351TMC3    C1 5255   4.257   3.318   9.556  0.7457  0.5844  0.3547
  351TMC3    C2 5256   4.312   3.211   9.491  0.2087 -0.6515 -0.2618
  351TMC3    C3 5257   4.236   3.096   9.485 -0.4142  0.5674 -0.1699
  351TMC3    C4 5258   4.139   3.317   9.615 -0.5721  0.2337  0.1239
  351TMC3    C5 5259   4.075   3.194   9.618 -0.3500  0.5287 -0.0320
  351TMC3    C6 5260   4.113   3.095   9.541  0.1761 -1.1004 -0.4501
  351TMC3     C 5261   4.337   3.439   9.576  0.3991  0.1759  0.1013
  351TMC3     O 5262   4.398   3.481   9.476 -0.2524  0.1336 -0.5024
  351TMC3     H 5263   4.409   3.219   9.442  0.1699  0.1301 -0.2081
  351TMC3    H1 5264   4.094   3.397   9.672  0.5547 -0.9455  2.6798
  351TMC3    H2 5265   4.067   2.997   9.535 -1.4020 -0.4718  1.1270
  351TMC3    C7 5266   3.950   3.179   9.696  0.4787  0.0271  0.4952
  351TMC3    C8 5267   4.302   2.985   9.417  0.5960  0.1566  0.0578
  351TMC3    O1 5268   3.931   3.250   9.793  0.0717  0.3822 -0.4640
  351TMC3    O2 5269   4.428   2.980   9.416 -0.4344 -0.0620 -0.6460
  352MPD2     C 5270   3.075   1.521   0.353 -0.1698 -0.1484  0.1578
  352MPD2    C1 5271   2.963   1.476   0.422  0.6401 -0.2232  0.0958
  352MPD2    C2 5272   2.958   1.345   0.437  0.2464  0.3211  0.4253
  352MPD2    C3 5273   3.046   1.251   0.380 -0.9487 -0.2507 -0.0991
  352MPD2    C4 5274   3.168   1.300   0.334  0.1448  0.5016  0.1874
  352MPD2    C5 5275   3.176   1.438   0.306  0.3916 -0.5697 -0.7350
  352MPD2     H 5276   2.877   1.306   0.498 -0.7519 -0.9193 -1.6905
  352MPD2    H1 5277   3.249   1.233   0.305 -1.2962 -0.5299 -1.4874
  352MPD2    H2 5278   3.080   1.627   0.332  1.2114  0.0600  1.5096
  352MPD2    H3 5279   3.261   1.481   0.256  0.9358  0.2919  0.9266
  352MPD2     N 5280   3.019   1.114   0.386  0.3133  0.3160 -0.2148
  352MPD2    H5 5281   3.095   1.055   0.352 -2.1016 -2.1238 -1.3167
  352MPD2    N1 5282   2.866   1.567   0.467  0.0029 -0.2603 -0.1143
  352MPD2    H7 5283   2.892   1.666   0.468  0.6799 -0.4073 -1.5205
  353TMC3    C1 5284   2.904   0.910   0.425 -0.3061  0.1520 -0.6346
  353TMC3    C2 5285   3.027   0.846   0.430 -0.0465 -0.6938  0.0392
  353TMC3    C3 5286   3.027   0.711   0.419 -0.1984 -0.7025  0.3169
  353TMC3    C4 5287   2.784   0.847   0.414  0.2874 -0.0722  0.2596
  353TMC3    C5 5288   2.794   0.706   0.420  0.1626 -0.3489 -0.5233
  353TMC3    C6 5289   2.914   0.632   0.411  0.9527  0.3209  0.0477
  353TMC3     C 5290   2.898   1.057   0.420 -0.5629  0.6999 -0.4439
  353TMC3     O 5291   2.791   1.107   0.442 -0.5018 -0.4833  0.2670
  353TMC3     H 5292   3.118   0.901   0.452 -0.4874  0.5355 -1.1816
  353TMC3    H1 5293   2.689   0.894   0.437  0.4209  0.1970  0.2613
  353TMC3    H2 5294   2.912   0.525   0.423  0.1167  0.2307 -0.8717
  353TMC3    C7 5295   2.667   0.631   0.441  0.9819  0.1824 -0.3257
  353TMC3    C8 5296   3.161   0.646   0.443 -0.6689 -0.3559 -0.1643
  353TMC3    O1 5297   2.585   0.669   0.524 -0.2452  0.5447 -0.2752
  353TMC3    O2 5298   3.259   0.716   0.424  0.6390 -0.6751  0.2846
  354TMC3    C1 5299   4.222   2.578  13.517  0.1940  0.5161 -0.1138
  354TMC3    C2 5300   4.167   2.695  13.488 -0.4352  0.9286  0.4763
  354TMC3    C3 5301   4.145   2.716  13.355 -0.0410 -0.2493  0.1715
  354TMC3    C4 5302   4.276   2.492  13.424 -0.0255 -0.3618 -0.0689
  354TMC3    C5 5303   4.232   2.506  13.297 -0.1668 -0.7226 -0.3005
  354TMC3    C6 5304   4.179   2.628  13.255  0.9451 -0.3260  0.4347
  354TMC3     C 5305   4.228   2.534  13.658  0.1736  0.1620  0.3902
  354TMC3     O 5306   4.129   2.550  13.727  0.2108 -0.0248 -0.3816
  354TMC3     H 5307   4.127   2.761  13.564 -0.2769  1.0214  0.4792
  354TMC3    H1 5308   4.300   2.393  13.460 -0.2156 -0.3029  0.2236
  354TMC3    H2 5309   4.144   2.638  13.152  0.6421  0.3609  0.6099
  354TMC3    C7 5310   4.291   2.418  13.195  0.4441  0.1615  0.0383
  354TMC3    C8 5311   4.139   2.853  13.315  0.4012 -0.1073  0.1652
  354TMC3    O1 5312   4.348   2.320  13.240  0.3662  0.1170 -0.2747
  354TMC3    O2 5313   4.072   2.886  13.219  0.3074 -0.2684 -0.0701
  355MPD2     C 5314   4.038   3.716  11.689 -0.3863  0.4815  0.0055
  355MPD2    C1 5315   4.108   3.712  11.570 -0.2169  0.3231 -0.4084
  355MPD2    C2 5316   4.221   3.632  11.569 -0.6383 -0.2590 -0.1899
  355MPD2    C3 5317   4.287   3.587  11.686  0.4255  0.0785  0.7142
  355MPD2    C4 5318   4.221   3.602  11.803 -0.3266 -0.4918 -0.6957
  355MPD2    C5 5319   4.092   3.651  11.801  0.7096  0.6992  0.3243
  355MPD2     H 5320   4.266   3.606  11.474 -0.1402 -1.5911  0.3942
  355MPD2    H1 5321   4.253   3.560  11.897  1.3769  2.6938  0.1550
  355MPD2    H2 5322   3.938   3.757  11.688 -0.0767  1.2578  0.6154
  355MPD2    H3 5323   4.041   3.649  11.896  1.3721  1.5112  0.6955
  355MPD2     N 5324   4.416   3.540  11.693 -0.1234 -0.3144  0.0947
  355MPD2    H5 5325   4.450   3.522  11.787  1.7895  2.5509 -0.0395
  355MPD2    N1 5326   4.056   3.781  11.458 -0.7526 -0.2759 -0.0762
  355MPD2    H7 5327   3.967   3.827  11.475  0.6014  3.3524 -2.9810
  356TMC3    C1 5328   4.643   3.523  11.625 -0.5351  0.7190 -0.7821
  356TMC3    C2 5329   0.014   3.574  11.544  0.2306  1.5784  0.4665
  356TMC3    C3 5330   0.143   3.589  11.591  0.1851  0.1848  0.4173
  356TMC3    C4 5331   4.666   3.492  11.751 -0.2583 -0.3871  0.0041
  356TMC3    C5 5332   0.074   3.498  11.798 -0.0102 -0.2084  0.0395
  356TMC3    C6 5333   0.171   3.558  11.722  0.1933 -0.2007  0.0458
  356TMC3     C 5334   4.504   3.535  11.587  0.2940  0.7443  0.6883
  356TMC3     O 5335   4.487   3.576  11.473  0.2928 -0.1254  0.1700
  356TMC3     H 5336   4.712   3.614  11.447 -0.3038  0.4697  0.1495
  356TMC3    H1 5337   4.596   3.445  11.820 -0.8274 -0.3843 -0.5737
  356TMC3    H2 5338   0.269   3.563  11.770  0.7696  0.1884 -1.1573
  356TMC3    C7 5339   0.096   3.487  11.942 -0.5700 -0.4273  0.2899
  356TMC3    C8 5340   0.244   3.630  11.499  0.1491 -0.6330 -0.1619
  356TMC3    O1 5341   0.034   3.398  12.000 -0.2046  0.0313  0.2617
  356TMC3    O2 5342   0.219   3.615  11.382 -0.1287  0.0869  0.0905
  357MPD2     C 5343   4.423   3.903   1.008  0.1688  0.2158 -0.2562
  357MPD2    C1 5344   4.340   3.879   1.116 -0.3316 -0.0909 -0.1948
  357MPD2    C2 5345   4.215   3.944   1.115 -0.0959  0.3266  0.1119
  357MPD2    C3 5346   4.174   4.025   1.012  0.1614 -0.4056  0.0486
  357MPD2    C4 5347   4.256   4.053   0.915  0.0279  0.6891 -0.0046
  357MPD2    C5 5348   4.382   3.999   0.913  0.0814 -0.5637 -0.3906
  357MPD2     H 5349   4.143   3.905   1.186 -0.8090  1.5384  0.0460
  357MPD2    H1 5350   4.217   4.095   0.823 -1.1541 -1.0637 -0.3037
  357MPD2    H2 5351   4.518   3.853   0.991 -0.4602 -0.2382 -2.3833
  357MPD2    H3 5352   4.441   4.018   0.824 -0.6460  0.2808 -0.6873
  357MPD2     N 5353   4.038   4.067   0.996  0.4940  0.3435 -0.3741
  357MPD2    H5 5354   4.005   4.096   0.904  0.5864  0.9959 -0.1980
  357MPD2    N1 5355   4.376   3.773   1.205 -0.7237 -0.4911 -0.0693
  357MPD2    H7 5356   4.460   3.720   1.184 -1.4195 -1.0983 -1.2984
  358TMC3    C1 5357   4.356   3.593   1.345 -0.5839  0.0429 -0.3378
  358TMC3    C2 5358   4.291   3.490   1.284  0.0296  0.9675  0.2555
  358TMC3    C3 5359   4.301   3.372   1.351  0.2469  0.1782  0.7762
  358TMC3    C4 5360   4.412   3.590   1.469  0.1446  0.2115 -0.0179
  358TMC3    C5 5361   4.434   3.465   1.525 -0.4912 -0.0005 -0.6164
  358TMC3    C6 5362   4.385   3.354   1.458 -0.0453 -0.2897  0.3278
  358TMC3     C 5363   4.304   3.723   1.305 -0.7010  0.6237 -0.0852
  358TMC3     O 5364   4.186   3.741   1.330  0.1421  0.4968 -0.4930
  358TMC3     H 5365   4.239   3.523   1.195  0.4496 -0.1187 -0.3894
  358TMC3    H1 5366   4.458   3.681   1.504  0.0581  0.2615 -0.0356
  358TMC3    H2 5367   4.394   3.254   1.499 -0.4361 -0.2242  0.5705
  358TMC3    C7 5368   4.499   3.444   1.645  0.0782  0.6855  0.3027
  358TMC3    C8 5369   4.263   3.259   1.268  0.3205  0.1160  0.7419
  358TMC3    O1 5370   4.571   3.349   1.650  0.3392 -0.2721  0.1734
  358TMC3    O2 5371   4.334   3.160   1.267  0.1971 -0.3532  0.5215
  359MPD2     C 5372   0.287   1.578  12.322  0.3602  0.2003 -0.0499
  359MPD2    C1 5373   0.176   1.612  12.255  0.2347 -0.3390 -0.0356
  359MPD2    C2 5374   0.057   1.539  12.291  0.1571 -0.2123  0.4750
  359MPD2    C3 5375   0.065   1.454  12.399  0.3530 -0.0667 -0.5182
  359MPD2    C4 5376   0.182   1.425  12.466  0.9934 -0.2006 -0.2342
  359MPD2    C5 5377   0.292   1.487  12.429 -0.4528  0.1852 -0.4810
  359MPD2     H 5378   4.688   1.568  12.244  1.1428  0.6191 -0.9735
  359MPD2    H1 5379   0.183   1.363  12.554 -0.6140  0.3013  0.1497
  359MPD2    H2 5380   0.384   1.625  12.310 -0.2531  1.3898 -0.2666
  359MPD2    H3 5381   0.393   1.470  12.463 -0.5704 -1.8539 -1.1560
  359MPD2     N 5382   4.690   1.390  12.465  0.1110 -0.4992  0.0541
  359MPD2    H5 5383   4.712   1.335  12.547 -2.0687  0.4668  1.3258
  359MPD2    N1 5384   0.167   1.703  12.150  0.5576  0.3063 -0.5539
  359MPD2    H7 5385   0.077   1.722  12.106 -0.9959  1.4511  3.1149
  360TMC3    C1 5386   0.212   1.892  12.026 -0.4055 -0.0605  0.4570
  360TMC3    C2 5387   0.264   2.019  12.034  0.0168  0.4676 -0.4080
  360TMC3    C3 5388   0.188   2.121  11.986  0.5615  0.2633 -0.1048
  360TMC3    C4 5389   0.091   1.870  11.956 -0.2697  0.1353  0.1634
  360TMC3    C5 5390   0.023   1.978  11.906 -0.1073  0.5333  0.1220
  360TMC3    C6 5391   0.074   2.105  11.921  0.4407  0.2966  0.1110
  360TMC3     C 5392   0.264   1.794  12.122  0.4957  0.5396  0.1536
  360TMC3     O 5393   0.369   1.812  12.183  0.3409  0.3144  0.2340
  360TMC3     H 5394   0.333   2.045  12.113 -0.3785  0.5115 -0.0818
  360TMC3    H1 5395   0.050   1.773  11.929 -0.3579  0.6263 -1.4454
  360TMC3    H2 5396   0.027   2.185  11.864  0.8566 -0.6413 -1.5555
  360TMC3    C7 5397   4.675   1.966  11.778  0.1467  0.0802  0.6038
  360TMC3    C8 5398   0.251   2.242  11.943 -0.7867 -0.2734 -0.4883
  360TMC3    O1 5399   4.702   2.038  11.686  0.2165 -0.0087  0.2654
  360TMC3    O2 5400   0.185   2.347  11.930 -0.2392 -0.7513  0.4984
  361MPD2     C 5401   1.848   0.538  16.284  0.6439 -0.0246  0.5194
  361MPD2    C1 5402   1.778   0.578  16.399  0.2879 -0.3299  0.4220
  361MPD2    C2 5403   1.822   0.536  16.520 -0.0857  0.1703  0.1716
  361MPD2    C3 5404   1.936   0.454  16.533 -0.0786 -0.4932  0.2251
  361MPD2    C4 5405   2.007   0.419  16.420 -0.5166 -0.1425  0.0327
  361MPD2    C5 5406   1.956   0.456  16.300  0.2581  0.0751 -0.2266
  361MPD2     H 5407   1.768   0.564  16.610 -1.1021  3.9662 -1.6232
  361MPD2    H1 5408   2.101   0.365  16.422 -1.2416 -1.3698  1.2819
  361MPD2    H2 5409   1.816   0.552  16.181  0.7676  0.0678  0.4929
  361MPD2    H3 5410   2.024   0.430  16.219 -0.3880 -1.5333 -0.2548
  361MPD2     N 5411   1.984   0.412  16.659 -0.0361  0.4251 -0.2528
  361MPD2    H5 5412   2.058   0.343  16.655 -0.1727  0.2720 -0.1275
  361MPD2    N1 5413   1.664   0.662  16.397  0.5319 -0.2867 -0.3558
  361MPD2    H7 5414   1.615   0.677  16.484  0.4626 -0.6910 -0.3259
  362TMC3    C1 5415   1.473   0.765  16.315  0.2718  0.1543 -0.1764
  362TMC3    C2 5416   1.425   0.745  16.432 -0.1726  0.1435  0.5078
  362TMC3    C3 5417   1.381   0.849  16.511 -0.2483 -0.7266 -0.6977
  362TMC3    C4 5418   1.486   0.890  16.257 -0.2100  0.2579 -0.0660
  362TMC3    C5 5419   1.431   0.992  16.327 -1.0166  0.3166 -0.0074
  362TMC3    C6 5420   1.403   0.978  16.460 -0.7510  0.6153 -0.0016
  362TMC3     C 5421   1.594   0.687  16.279  0.3213  0.0062  0.1973
  362TMC3     O 5422   1.621   0.682  16.159  0.0373  0.3854 -0.1715
  362TMC3     H 5423   1.427   0.642  16.467 -0.8170 -1.1507 -3.2834
  362TMC3    H1 5424   1.525   0.891  16.156 -0.5903 -0.1271 -0.2178
  362TMC3    H2 5425   1.433   1.063  16.520  0.4582 -0.6399  1.1529
  362TMC3    C7 5426   1.393   1.111  16.251 -0.4506 -0.7062 -0.3814
  362TMC3    C8 5427   1.407   0.834  16.652  0.2990  0.2865 -0.7235
  362TMC3    O1 5428   1.373   1.215  16.313  0.4628 -0.0143 -0.5766
  362TMC3    O2 5429   1.468   0.731  16.669 -0.3266 -0.4415  0.0527
  363TMC3    C1 5430   0.224   3.460   9.503  0.9061 -0.0891  0.6843
  363TMC3    C2 5431   0.322   3.411   9.587  0.4892 -0.4385 -0.1942
  363TMC3    C3 5432   0.339   3.275   9.596 -0.3736 -0.9676 -0.0952
  363TMC3    C4 5433   0.161   3.375   9.417 -0.1519 -0.4723 -0.2004
  363TMC3    C5 5434   0.187   3.245   9.425 -0.1088  0.6647  0.1208
  363TMC3    C6 5435   0.278   3.187   9.509 -0.7025  0.1678  0.3210
  363TMC3     C 5436   0.206   3.600   9.494 -0.2881 -0.0594  0.4502
  363TMC3     O 5437   0.152   3.641   9.390  0.1477 -0.6723  0.4131
  363TMC3     H 5438   0.370   3.476   9.659 -2.4961  1.7479 -0.1784
  363TMC3    H1 5439   0.093   3.412   9.340 -1.9210  0.2375  1.6924
  363TMC3    H2 5440   0.282   3.082   9.536  0.2034  0.4444  1.2648
  363TMC3    C7 5441   0.116   3.160   9.326  0.3724  0.4395  0.0764
  363TMC3    C8 5442   0.416   3.219   9.703  0.0352  0.3314 -0.1317
  363TMC3    O1 5443   0.003   3.207   9.290  0.1328  0.3069 -0.4131
  363TMC3    O2 5444   0.425   3.293   9.802 -0.1364  0.0260 -0.7225
  364MPD2     C 5445   3.431   2.964  10.289 -0.1331  0.7006  0.6144
  364MPD2    C1 5446   3.554   2.905  10.326  0.6172 -0.2393 -0.4946
  364MPD2    C2 5447   3.557   2.774  10.383  0.8492 -0.3316 -0.3170
  364MPD2    C3 5448   3.430   2.717  10.414 -0.1029  0.1203  0.2760
  364MPD2    C4 5449   3.311   2.774  10.369 -0.1303  0.6138 -0.1240
  364MPD2    C5 5450   3.311   2.895  10.306 -0.3290  0.1592  0.8108
  364MPD2     H 5451   3.650   2.727  10.413 -0.1466 -2.8723 -1.2070
  364MPD2    H1 5452   3.219   2.717  10.369 -0.2559  0.8145 -1.5200
  364MPD2    H2 5453   3.433   3.065  10.250  0.5167  0.4120 -0.0902
  364MPD2    H3 5454   3.219   2.925  10.257 -0.3558 -0.9827  0.1523
  364MPD2     N 5455   3.414   2.600  10.483 -0.3939 -0.2852 -0.4743
  364MPD2    H5 5456   3.319   2.578  10.511 -0.8115  0.3060 -1.4311
  364MPD2    N1 5457   3.666   2.993  10.337  0.0723  0.7490 -0.0248
  364MPD2    H7 5458   3.642   3.091  10.329  1.2063  1.0210 -0.0975
  365TMC3    C1 5459   3.867   3.088  10.369  0.0971 -0.6059  0.1263
  365TMC3    C2 5460   3.983   3.087  10.299  0.1491  0.2033  0.2245
  365TMC3    C3 5461   4.045   3.203  10.298  0.3542 -0.4933 -0.9802
  365TMC3    C4 5462   3.816   3.190  10.439 -0.3343 -0.2447 -0.7493
  365TMC3    C5 5463   3.889   3.307  10.436 -0.3815  0.0581 -0.3064
  365TMC3    C6 5464   4.003   3.320  10.364 -0.4309  0.0847 -0.0451
  365TMC3     C 5465   3.792   2.962  10.373  0.0909 -0.0103  0.0481
  365TMC3     O 5466   3.848   2.851  10.374 -0.7145  0.7363  0.1395
  365TMC3     H 5467   4.020   2.999  10.249 -1.0564  0.4170 -1.0437
  365TMC3    H1 5468   3.735   3.184  10.511 -0.4459  2.4657 -0.6731
  365TMC3    H2 5469   4.063   3.410  10.355 -0.3388  0.1709  1.3986
  365TMC3    C7 5470   3.836   3.429  10.497 -0.3758  0.2595 -0.1983
  365TMC3    C8 5471   4.161   3.221  10.218  1.5279 -0.9020  0.0206
  365TMC3    O1 5472   3.894   3.529  10.466 -0.1676 -0.4540 -0.2441
  365TMC3    O2 5473   4.245   3.294  10.269 -0.2597 -0.0429 -0.3804
  366MPD2     C 5474   1.886   3.482  15.427 -0.3852 -0.0901  0.0768
  366MPD2    C1 5475   1.957   3.588  15.485 -0.3177 -0.2886 -0.4374
  366MPD2    C2 5476   2.082   3.626  15.436  0.2820 -0.7802 -0.2751
  366MPD2    C3 5477   2.130   3.568  15.321  0.4417  0.2674 -0.4727
  366MPD2    C4 5478   2.066   3.460  15.264  0.3708  0.1368  0.0122
  366MPD2    C5 5479   1.950   3.416  15.323  0.0959 -0.4403 -0.1989
  366MPD2     H 5480   2.144   3.707  15.475  0.3290 -0.2331 -1.4966
  366MPD2    H1 5481   2.095   3.407  15.175  3.9107  1.8452  0.1461
  366MPD2    H2 5482   1.792   3.449  15.470  0.0412 -0.0966  0.9946
  366MPD2    H3 5483   1.901   3.326  15.287  0.2407 -0.9221  0.7921
  366MPD2     N 5484   2.242   3.634  15.264 -0.0691  0.8081  0.5430
  366MPD2    H5 5485   2.268   3.720  15.312 -0.0354  0.2186  1.5988
  366MPD2    N1 5486   1.908   3.665  15.592 -0.6086  0.4679  0.6565
  366MPD2    H7 5487   1.972   3.740  15.617 -0.4485  0.6239 -0.2066
  367TMC3    C1 5488   1.744   3.785  15.699  0.1056  0.3148  0.2091
  367TMC3    C2 5489   1.855   3.860  15.731  0.3264  0.7901  0.1504
  367TMC3    C3 5490   1.870   3.989  15.692  0.0630 -0.0249 -0.6525
  367TMC3    C4 5491   1.640   3.843  15.642 -0.1948  0.0030 -0.4622
  367TMC3    C5 5492   1.650   3.975  15.601  0.1278  1.4825  0.2495
  367TMC3    C6 5493   1.767   4.055  15.617  0.3313  0.5244 -0.1509
  367TMC3     C 5494   1.776   3.660  15.641 -0.4257 -0.2104 -0.7136
  367TMC3     O 5495   1.687   3.584  15.616 -0.2976 -0.3291 -0.4657
  367TMC3     H 5496   1.928   3.814  15.796 -1.1464 -1.2368  0.3817
  367TMC3    H1 5497   1.547   3.789  15.625 -1.0843  1.7191 -1.0761
  367TMC3    H2 5498   1.764   4.161  15.598  1.3951  1.0264  2.4256
  367TMC3    C7 5499   1.540   4.048  15.539  0.2937 -0.0145 -0.2325
  367TMC3    C8 5500   2.003   4.049  15.687  0.3571  0.1249  0.4096
  367TMC3    O1 5501   1.558   4.168  15.525 -0.7049  0.2898 -0.4229
  367TMC3    O2 5502   2.085   3.994  15.758  0.5713 -0.3427 -0.6399
  368MPD2     C 5503   3.332   0.949  13.508 -0.4434  1.2858 -0.1387
  368MPD2    C1 5504   3.328   1.077  13.450  0.4482 -0.0679 -0.0666
  368MPD2    C2 5505   3.449   1.146  13.458  0.3531  0.3046 -0.3508
  368MPD2    C3 5506   3.564   1.092  13.512 -0.4917  0.5563 -0.3833
  368MPD2    C4 5507   3.563   0.963  13.553  0.2051 -0.4562 -0.0223
  368MPD2    C5 5508   3.438   0.896  13.567 -0.7839 -0.3803  0.1098
  368MPD2     H 5509   3.459   1.240  13.405  0.7780  0.6586  0.3597
  368MPD2    H1 5510   3.657   0.915  13.579 -0.0370  0.6704  2.9407
  368MPD2    H2 5511   3.239   0.894  13.510 -1.4406  2.9879 -0.0188
  368MPD2    H3 5512   3.434   0.794  13.605 -0.4553 -0.8123 -0.9875
  368MPD2     N 5513   3.692   1.155  13.510 -0.2659 -0.2451  0.3351
  368MPD2    H5 5514   3.756   1.090  13.554 -1.0439 -1.7751 -0.7818
  368MPD2    N1 5515   3.206   1.120  13.387 -1.0829  0.1326  0.0030
  368MPD2    H7 5516   3.134   1.049  13.391 -0.7089 -0.2669 -0.3574
  369TMC3    C1 5517   3.064   1.257  13.254  0.2861  0.3357 -0.1297
  369TMC3    C2 5518   3.041   1.380  13.207  0.5397 -0.6429 -0.4205
  369TMC3    C3 5519   2.914   1.415  13.179 -0.1485  0.4709 -0.4510
  369TMC3    C4 5520   2.968   1.161  13.264 -0.0209 -0.3711  0.1404
  369TMC3    C5 5521   2.843   1.200  13.217 -0.1792  0.0579  0.3337
  369TMC3    C6 5522   2.815   1.325  13.167 -0.1271 -0.5255  0.0839
  369TMC3     C 5523   3.191   1.243  13.319  0.1744  0.4841 -0.1208
  369TMC3     O 5524   3.278   1.328  13.296  0.3028  0.1529 -0.8969
  369TMC3     H 5525   3.120   1.455  13.212  0.0790 -0.2898  1.5372
  369TMC3    H1 5526   2.999   1.061  13.291 -0.7413 -1.3745 -2.8156
  369TMC3    H2 5527   2.722   1.347  13.114 -0.4704 -2.7899 -0.2282
  369TMC3    C7 5528   2.734   1.106  13.219  0.0046  0.6508 -0.7707
  369TMC3    C8 5529   2.907   1.534  13.087  0.4126  0.0188  0.3090
  369TMC3    O1 5530   2.664   1.087  13.122 -0.5590  0.5753  0.5120
  369TMC3    O2 5531   2.861   1.513  12.976  0.1592  0.1236 -0.1431
  370TMC3    C1 5532   2.954   1.586  16.525 -0.0143 -0.0209  0.3840
  370TMC3    C2 5533   2.862   1.504  16.587 -0.4504 -0.5433  0.7021
  370TMC3    C3 5534   2.824   1.395  16.509  0.2991 -0.3837 -0.1706
  370TMC3    C4 5535   3.005   1.563  16.394  0.1748  0.0244  0.1070
  370TMC3    C5 5536   2.949   1.465  16.323 -0.3090 -0.2226 -0.0560
  370TMC3    C6 5537   2.867   1.376  16.379  0.2862  0.3513 -0.5354
  370TMC3     C 5538   3.014   1.682  16.618  0.6165  0.5687  0.0461
  370TMC3     O 5539   3.004   1.659  16.738  0.1349 -0.6943  0.1897
  370TMC3     H 5540   2.831   1.520  16.689 -0.0126  0.5840  0.6495
  370TMC3    H1 5541   3.064   1.634  16.337  1.0356 -0.7511  0.0294
  370TMC3    H2 5542   2.817   1.296  16.326 -0.4257 -0.1931  0.9542
  370TMC3    C7 5543   3.007   1.448  16.189 -0.0400  0.0326 -0.3724
  370TMC3    C8 5544   2.776   1.269  16.573  0.1916 -0.1367 -0.1586
  370TMC3    O1 5545   3.058   1.549  16.141  0.2215 -0.2271 -0.8236
  370TMC3    O2 5546   2.759   1.171  16.501  0.2314 -0.0965 -0.4120
  371TMC3    C1 5547   4.066   4.669  15.293  0.0368 -0.5057  0.3326
  371TMC3    C2 5548   3.968   4.672  15.385  0.9622  0.7332 -0.3270
  371TMC3    C3 5549   3.877   0.050  15.379  0.2045 -0.1065 -0.5052
  371TMC3    C4 5550   4.076   0.041  15.189 -0.7408  0.0217  0.1231
  371TMC3    C5 5551   3.991   0.146  15.195  0.5765  0.2894  0.5758
  371TMC3    C6 5552   3.893   0.156  15.294 -1.0374  0.3904 -0.7037
  371TMC3     C 5553   4.182   4.581  15.308  0.6158  0.5420 -0.1025
  371TMC3     O 5554   4.279   4.592  15.237 -0.2009  0.1374  0.9868
  371TMC3     H 5555   3.951   4.598  15.462  0.2434  1.8826  0.6170
  371TMC3    H1 5556   4.169   0.039  15.133 -0.7309  0.7570  0.1233
  371TMC3    H2 5557   3.833   0.246  15.295  0.5771  1.5066 -2.4357
  371TMC3    C7 5558   4.039   0.270  15.130 -0.3504 -0.0761 -0.3498
  371TMC3    C8 5559   3.770   0.037  15.476 -0.1397 -0.2108 -0.1292
  371TMC3    O1 5560   3.999   0.374  15.186 -0.1027 -0.1514 -0.1661
  371TMC3    O2 5561   3.759   4.649  15.526  0.8349  0.0673  0.0600
  372MPD2     C 5562   2.988   1.451  13.514  0.4223 -1.0886  0.3969
  372MPD2    C1 5563   3.112   1.439  13.574  0.5505  0.4378  0.1835
  372MPD2    C2 5564   3.132   1.341  13.682  0.2235  0.1844 -0.0986
  372MPD2    C3 5565   3.029   1.260  13.710 -0.3016 -0.2606 -0.6851
  372MPD2    C4 5566   2.900   1.278  13.655 -0.3657  0.2148  0.2823
  372MPD2    C5 5567   2.880   1.377  13.558  0.0027 -0.4577 -0.2989
  372MPD2     H 5568   3.228   1.310  13.724 -1.4220 -1.2789  2.6041
  372MPD2    H1 5569   2.812   1.222  13.685 -0.9231  0.8996 -0.0777
  372MPD2    H2 5570   2.956   1.515  13.432  1.1965 -1.3853 -0.1347
  372MPD2    H3 5571   2.787   1.387  13.502  1.1766  0.5083 -2.0924
  372MPD2     N 5572   3.058   1.166  13.814  0.2078  0.4392  0.9492
  372MPD2    H5 5573   3.149   1.179  13.858  1.5455 -2.4427 -0.9473
  372MPD2    N1 5574   3.222   1.523  13.551  0.0343 -0.3307 -0.1315
  372MPD2    H7 5575   3.306   1.505  13.605 -0.5248 -0.0724  0.8399
  373TMC3    C1 5576   3.067   0.955  13.897 -0.4401 -0.4427  0.1175
  373TMC3    C2 5577   3.120   1.000  14.010  0.0982  0.4258 -0.0171
  373TMC3    C3 5578   3.210   0.919  14.072 -0.1514 -0.0802 -0.3043
  373TMC3    C4 5579   3.127   0.861  13.821 -0.0522 -0.5461  0.2280
  373TMC3    C5 5580   3.232   0.797  13.878 -0.8929 -0.4417 -0.3043
  373TMC3    C6 5581   3.271   0.816  14.010 -0.0423 -0.3734 -1.1043
  373TMC3     C 5582   2.990   1.048  13.828 -0.1855 -0.0162  0.1381
  373TMC3     O 5583   2.902   1.001  13.756 -0.2709 -0.1406 -0.0528
  373TMC3     H 5584   3.088   1.090  14.061 -0.1380  0.2648  0.1204
  373TMC3    H1 5585   3.084   0.840  13.724  0.2509 -3.1455  0.6528
  373TMC3    H2 5586   3.348   0.751  14.051 -1.1525 -0.6160  0.6079
  373TMC3    C7 5587   3.279   0.677  13.814 -0.6250  0.3077  0.1010
  373TMC3    C8 5588   3.268   0.957  14.195 -0.2732  0.4087 -0.1959
  373TMC3    O1 5589   3.203   0.633  13.727  0.2652 -0.1388  0.0922
  373TMC3    O2 5590   3.388   0.956  14.213  0.6471 -0.0033 -0.2707
  374TMC3    C1 5591   4.568   0.565   9.877 -0.1441 -0.3401  0.1072
  374TMC3    C2 5592   4.566   0.699   9.841  0.2669 -0.3383 -0.3132
  374TMC3    C3 5593   4.681   0.750   9.774 -0.2945 -0.1957  0.7367
  374TMC3    C4 5594   4.669   0.475   9.847 -0.0966 -0.0311 -0.6006
  374TMC3    C5 5595   0.054   0.531   9.780  0.6131  0.8212  0.3919
  374TMC3    C6 5596   0.066   0.668   9.744  0.1915 -0.5789 -0.8538
  374TMC3     C 5597   4.439   0.507   9.903 -0.7483 -0.7426 -0.0165
  374TMC3     O 5598   4.343   0.575   9.875  0.4467  0.4921  0.2706
  374TMC3     H 5599   4.480   0.763   9.850  0.0233 -0.8441  0.9732
  374TMC3    H1 5600   4.655   0.369   9.865 -1.0042 -0.0513 -1.4012
  374TMC3    H2 5601   0.143   0.713   9.682  1.2974  1.1508  1.7866
  374TMC3    C7 5602   0.168   0.444   9.744  0.1183 -0.3470  0.4492
  374TMC3    C8 5603   4.691   0.890   9.745  0.2137 -0.1979 -0.4026
  374TMC3    O1 5604   0.275   0.497   9.722  0.7292 -0.0882 -0.1034
  374TMC3    O2 5605   0.030   0.923   9.645  0.1128  0.0874  0.0495
  375MPD2     C 5606   4.154   1.459  17.274  0.0258 -0.2213 -0.4413
  375MPD2    C1 5607   4.072   1.560  17.235  0.5371 -0.0396  0.3723
  375MPD2    C2 5608   4.131   1.663  17.162 -0.0055  0.1584 -0.4195
  375MPD2    C3 5609   4.256   1.647  17.110  0.4714 -0.5930 -0.3553
  375MPD2    C4 5610   4.327   1.531  17.134 -0.7318 -0.6134  0.3008
  375MPD2    C5 5611   4.272   1.437  17.214  0.9818  0.1980  0.1756
  375MPD2     H 5612   4.066   1.746  17.136  0.8014  0.7248 -0.6476
  375MPD2    H1 5613   4.429   1.526  17.097 -0.7637  0.5798  0.0450
  375MPD2    H2 5614   4.120   1.371  17.327  2.1271  0.0069  1.2785
  375MPD2    H3 5615   4.322   1.343  17.230 -0.4934 -0.5835  0.2426
  375MPD2     N 5616   4.320   1.748  17.034  0.4617 -0.1490  0.0199
  375MPD2    H5 5617   4.417   1.745  17.005  0.6982  0.4206  0.7559
  375MPD2    N1 5618   3.935   1.583  17.271 -0.4652  0.4709  0.0588
  375MPD2    H7 5619   3.897   1.668  17.231 -2.4252 -0.5811 -0.3465
  376TMC3    C1 5620   4.330   1.920  16.875 -1.0230  0.1170 -0.3227
  376TMC3    C2 5621   4.469   1.917  16.875 -0.7841  0.4612  0.0057
  376TMC3    C3 5622   4.523   2.002  16.776  0.3874 -0.0779 -0.4739
  376TMC3    C4 5623   4.259   2.013  16.796 -0.0319 -0.6999  0.3806
  376TMC3    C5 5624   4.319   2.100  16.712 -0.2646 -0.8264 -0.0862
  376TMC3    C6 5625   4.453   2.090  16.693 -0.0318  0.0984 -0.3278
  376TMC3     C 5626   4.248   1.836  16.958 -0.2577  0.3459 -0.0290
  376TMC3     O 5627   4.128   1.856  16.953  0.5285 -0.2997 -0.0573
  376TMC3     H 5628   4.530   1.857  16.942 -2.3128 -0.2557  0.7642
  376TMC3    H1 5629   4.150   2.016  16.798  0.0718  2.9868  0.2679
  376TMC3    H2 5630   4.493   2.150  16.613  0.2506 -1.5669 -1.4400
  376TMC3    C7 5631   4.233   2.177  16.623 -0.3902 -0.0369  0.1508
  376TMC3    C8 5632   4.666   2.005  16.756 -0.4486  0.1147 -0.0714
  376TMC3    O1 5633   4.272   2.192  16.507  0.1515  0.9556 -0.0626
  376TMC3    O2 5634   4.693   2.038  16.638 -0.1016 -0.8492 -0.1763
  377MPD2     C 5635   2.611   1.763  13.044 -0.8716  0.5113  0.3773
  377MPD2    C1 5636   2.554   1.656  12.980  0.7846 -0.2057 -0.1701
  377MPD2    C2 5637   2.473   1.572  13.056  0.0697 -0.4247 -0.7275
  377MPD2    C3 5638   2.471   1.576  13.191  0.0929 -0.0501 -0.4077
  377MPD2    C4 5639   2.531   1.678  13.254  0.3428  0.9920 -0.7085
  377MPD2    C5 5640   2.604   1.771  13.182  0.1974 -0.1543  0.6565
  377MPD2     H 5641   2.420   1.502  12.993  0.7950 -2.9525  1.4890
  377MPD2    H1 5642   2.531   1.693  13.361 -2.2455  0.7269 -0.6817
  377MPD2    H2 5643   2.669   1.838  12.991 -1.7184 -0.2702 -1.6498
  377MPD2    H3 5644   2.655   1.845  13.243  1.0676  2.2569 -2.9969
  377MPD2     N 5645   2.392   1.486  13.266  1.1488 -0.2597 -0.3198
  377MPD2    H5 5646   2.371   1.515  13.361  1.0865 -0.2499 -0.3364
  377MPD2    N1 5647   2.569   1.647  12.838 -0.2000  0.3321  0.2140
  377MPD2    H7 5648   2.636   1.710  12.795  1.1439  0.0647  1.9605
  378TMC3    C1 5649   2.476   1.569  12.408  0.1710  0.0444 -0.5997
  378TMC3    C2 5650   2.429   1.600  12.535 -0.1086 -0.3153  0.0140
  378TMC3    C3 5651   2.535   1.593  12.626 -0.9115 -0.3121  0.4578
  378TMC3    C4 5652   2.604   1.541  12.369 -1.0566 -0.1485 -0.2416
  378TMC3    C5 5653   2.696   1.546  12.469 -0.4421  0.1179 -0.5529
  378TMC3    C6 5654   2.664   1.577  12.598  0.6977 -0.5495 -0.3188
  378TMC3     C 5655   2.367   1.567  12.310  0.1722 -0.0403  0.4567
  378TMC3     O 5656   2.254   1.605  12.340 -0.1010 -0.1249  0.3099
  378TMC3     H 5657   2.326   1.626  12.555 -0.4823  0.1279 -2.5354
  378TMC3    H1 5658   2.639   1.533  12.267 -0.4668  1.2013 -0.1418
  378TMC3    H2 5659   2.743   1.568  12.672  1.9100 -0.6551 -1.6366
  378TMC3    C7 5660   2.833   1.560  12.436  0.9698 -0.4353  0.3171
  378TMC3    C8 5661   2.495   1.571  12.759  0.2336 -0.6179 -0.2058
  378TMC3    O1 5662   2.896   1.641  12.508  0.3232 -0.2065  0.4919
  378TMC3    O2 5663   2.384   1.526  12.775 -1.4736  0.1624  0.4198
  379MPD2     C 5664   2.594   4.086  16.235  0.3901 -0.7145 -0.1214
  379MPD2    C1 5665   2.722   4.097  16.181  0.2220  0.0898 -0.5150
  379MPD2    C2 5666   2.831   4.057  16.256 -0.4358 -0.0787  0.4822
  379MPD2    C3 5667   2.818   4.003  16.384  0.0351 -0.0104  0.3523
  379MPD2    C4 5668   2.694   3.999  16.433  0.4389  0.1965  0.2849
  379MPD2    C5 5669   2.585   4.037  16.368 -0.1610  0.2386  0.5919
  379MPD2     H 5670   2.931   4.070  16.217 -0.3083  1.2728  1.2589
  379MPD2    H1 5671   2.691   3.972  16.538  1.6007 -3.1571 -0.5387
  379MPD2    H2 5672   2.499   4.106  16.187  0.7995 -0.5342 -0.8522
  379MPD2    H3 5673   2.493   4.018  16.421  0.1369  1.0974  1.4309
  379MPD2     N 5674   2.927   3.970  16.470 -0.0659  0.1154  0.2860
  379MPD2    H5 5675   2.911   3.963  16.570  1.6015  0.4312  0.5715
  379MPD2    N1 5676   2.733   4.139  16.042  0.3521  0.9866  0.1086
  379MPD2    H7 5677   2.652   4.176  15.994 -0.8630  0.4359  1.7507
  380TMC3    C1 5678   2.842   4.181  15.833 -0.8439 -0.0794  0.4253
  380TMC3    C2 5679   2.966   4.206  15.779  0.5763 -0.2030  0.3495
  380TMC3    C3 5680   2.967   4.235  15.647 -0.3187  0.8297 -0.4284
  380TMC3    C4 5681   2.724   4.188  15.767 -0.1268  0.3608  0.2578
  380TMC3    C5 5682   2.735   4.224  15.637 -0.0225  0.2147  0.7322
  380TMC3    C6 5683   2.853   4.244  15.575 -0.5153  0.1592 -0.4196
  380TMC3     C 5684   2.843   4.129  15.966  0.0015 -0.3708 -0.2292
  380TMC3     O 5685   2.954   4.094  16.000 -0.0035 -0.2613  0.2432
  380TMC3     H 5686   3.054   4.202  15.843  1.4489 -1.9689 -0.9689
  380TMC3    H1 5687   2.630   4.162  15.814  1.0546 -1.3092  1.7082
  380TMC3    H2 5688   2.855   4.285  15.475  4.3676  0.8011 -0.0696
  380TMC3    C7 5689   2.617   4.240  15.547  0.1330  0.1794 -0.5127
  380TMC3    C8 5690   3.080   4.299  15.582  0.9947 -1.0354 -0.2812
  380TMC3    O1 5691   2.651   4.242  15.430 -0.0685 -0.0225 -0.8445
  380TMC3    O2 5692   3.063   4.384  15.495 -0.4585 -0.2887  0.1591
  381TMC3    C1 5693   2.804   0.562  16.173 -0.4182 -0.5987 -0.0482
  381TMC3    C2 5694   2.897   0.639  16.229  0.2039 -0.4167 -0.1141
  381TMC3    C3 5695   2.869   0.747  16.305 -0.2904  0.0013 -0.4699
  381TMC3    C4 5696   2.672   0.582  16.210  0.0343  0.2183 -0.5920
  381TMC3    C5 5697   2.651   0.673  16.305 -0.3633  0.5261  0.8397
  381TMC3    C6 5698   2.737   0.767  16.346 -0.8907  0.2209  0.2837
  381TMC3     C 5699   2.841   0.453  16.089 -0.5239  0.1303  0.5668
  381TMC3     O 5700   2.956   0.418  16.105  0.4887  0.1615  0.5586
  381TMC3     H 5701   2.998   0.624  16.191 -0.7965 -2.5100 -1.9574
  381TMC3    H1 5702   2.595   0.515  16.173  1.6840 -1.7623 -0.3903
  381TMC3    H2 5703   2.709   0.843  16.418  1.9654 -1.1370  2.8389
  381TMC3    C7 5704   2.531   0.642  16.379 -0.2134  0.5048 -0.4460
  381TMC3    C8 5705   2.972   0.850  16.319  1.2367 -0.3815 -0.6496
  381TMC3    O1 5706   2.481   0.532  16.358 -0.6843 -0.6742  0.2095
  381TMC3    O2 5707   3.058   0.839  16.232  0.1844 -0.2288 -0.1473
  382MPD2     C 5708   2.088   3.327  17.458  0.4820 -0.4090  0.1155
  382MPD2    C1 5709   1.983   3.391  17.511 -0.1890  0.6224  0.1433
  382MPD2    C2 5710   1.853   3.357  17.474  0.7142  0.1725 -0.9199
  382MPD2    C3 5711   1.836   3.254  17.380  0.5260  0.3921  0.6202
  382MPD2    C4 5712   1.944   3.183  17.345 -0.4064  0.3702 -0.5310
  382MPD2    C5 5713   2.071   3.226  17.368 -0.1576 -0.1880 -0.5296
  382MPD2     H 5714   1.770   3.415  17.513  0.4255 -1.4095  0.8223
  382MPD2    H1 5715   1.937   3.098  17.278 -1.3951 -0.6661  0.8892
  382MPD2    H2 5716   2.188   3.350  17.492  0.3384 -0.0332  0.2824
  382MPD2    H3 5717   2.158   3.179  17.324 -0.2355 -0.4356 -0.4195
  382MPD2     N 5718   1.713   3.220  17.332 -0.2368  0.1929 -0.1911
  382MPD2    H5 5719   1.706   3.128  17.290 -0.6730  0.8351 -1.5370
  382MPD2    N1 5720   1.997   3.491  17.606 -0.7741 -0.0720 -0.2386
  382MPD2    H7 5721   1.917   3.538  17.646  0.0088  0.2893  0.9138
  383TMC3    C1 5722   1.475   3.221  17.303 -0.0026 -0.0739 -0.1734
  383TMC3    C2 5723   1.476   3.091  17.267  0.0531  0.3354 -0.5915
  383TMC3    C3 5724   1.355   3.033  17.257  0.1506 -0.0929  0.3464
  383TMC3    C4 5725   1.353   3.291  17.327  0.0009  0.7082 -0.9258
  383TMC3    C5 5726   1.239   3.220  17.317  0.2410  0.1439 -0.0073
  383TMC3    C6 5727   1.237   3.092  17.284  0.7016  0.0745  0.6171
  383TMC3     C 5728   1.597   3.294  17.346 -0.3968  0.0948  0.6879
  383TMC3     O 5729   1.583   3.414  17.375  0.0077 -0.0703 -0.1804
  383TMC3     H 5730   1.567   3.052  17.224 -0.7919 -2.4440  0.1555
  383TMC3    H1 5731   1.351   3.393  17.362 -0.2892  0.0531  0.9796
  383TMC3    H2 5732   1.147   3.043  17.251  0.4243 -0.4598  2.1950
  383TMC3    C7 5733   1.114   3.294  17.297 -0.3243  0.1718  0.4475
  383TMC3    C8 5734   1.356   2.907  17.192  0.2384 -0.1613  0.8078
  383TMC3    O1 5735   1.013   3.256  17.354  0.1264 -0.0487 -0.0392
  383TMC3    O2 5736   1.248   2.869  17.147 -0.5642  0.6136 -0.0263
  384MPD2     C 5737   3.217   4.443  12.102  0.5586 -0.1918 -0.5441
  384MPD2    C1 5738   3.231   4.335  12.182 -0.3388  0.2668 -0.5327
  384MPD2    C2 5739   3.315   4.227  12.155 -0.1068  0.3651 -0.6410
  384MPD2    C3 5740   3.395   4.236  12.039  0.0948  0.6351 -0.1390
  384MPD2    C4 5741   3.386   4.347  11.958 -0.5274  0.7222 -0.4271
  384MPD2    C5 5742   3.289   4.446  11.989  0.9117  0.4064 -0.3355
  384MPD2     H 5743   3.333   4.147  12.225  1.3503  0.5270 -0.8309
  384MPD2    H1 5744   3.473   4.366  11.896 -1.3351 -1.5803 -2.2776
  384MPD2    H2 5745   3.158   4.533  12.119  1.7641  0.7237 -1.1861
  384MPD2    H3 5746   3.298   4.540  11.934 -2.2513  1.3342  0.7924
  384MPD2     N 5747   3.498   4.140  12.017 -0.9501  0.6419 -0.2962
  384MPD2    H5 5748   3.577   4.158  11.956 -1.9230  0.5519 -1.6093
  384MPD2    N1 5749   3.171   4.329  12.311 -0.2988  0.4109  0.0082
  384MPD2    H7 5750   3.196   4.244  12.361  0.5404  0.8641  0.3625
  385TMC3    C1 5751   3.638   3.962  12.069 -0.1516 -0.5571 -0.0135
  385TMC3    C2 5752   3.636   3.827  12.034 -0.9259 -0.1340  0.5236
  385TMC3    C3 5753   3.714   3.744  12.109 -0.8397 -0.5047  0.2981
  385TMC3    C4 5754   3.724   4.007  12.168  0.0982  0.0495 -0.7212
  385TMC3    C5 5755   3.786   3.917  12.248 -0.5542  0.6363  0.0051
  385TMC3    C6 5756   3.794   3.780  12.213  0.7053  0.0222  0.3191
  385TMC3     C 5757   3.505   4.019  12.079  0.4890  0.2206 -0.5772
  385TMC3     O 5758   3.429   3.951  12.145 -0.0935  0.1693 -0.3843
  385TMC3     H 5759   3.559   3.789  11.968  0.3540  1.2039 -1.7652
  385TMC3    H1 5760   3.717   4.111  12.198  1.7216 -0.4059  1.3001
  385TMC3    H2 5761   3.844   3.708  12.277  2.0396 -1.0369 -1.9231
  385TMC3    C7 5762   3.733   3.942  12.378 -0.1043 -0.0491 -0.3615
  385TMC3    C8 5763   3.718   3.602  12.070 -0.1191 -0.0636 -0.5882
  385TMC3    O1 5764   3.691   4.055  12.404  0.0152 -0.0349  0.5382
  385TMC3    O2 5765   3.762   3.523  12.151  0.1157 -0.3794 -0.1357
  386TMC3    C1 5766   3.738   1.562  11.948  0.5439 -0.9516 -0.0535
  386TMC3    C2 5767   3.743   1.515  11.822 -0.1265  0.1309  0.3009
  386TMC3    C3 5768   3.648   1.561  11.736 -0.3286  0.3858 -0.5922
  386TMC3    C4 5769   3.638   1.641  11.993  0.0743  0.3184  0.4931
  386TMC3    C5 5770   3.539   1.670  11.907 -0.2645 -1.0345  0.5723
  386TMC3    C6 5771   3.536   1.632  11.775  0.3760 -0.1562 -0.1358
  386TMC3     C 5772   3.846   1.521  12.030  1.2686  0.5987  0.6553
  386TMC3     O 5773   3.875   1.581  12.131  0.0137 -0.1111 -0.2189
  386TMC3     H 5774   3.825   1.455  11.785  0.9479  1.5792  0.3440
  386TMC3    H1 5775   3.627   1.659  12.099  2.0080  1.4829  0.4969
  386TMC3    H2 5776   3.454   1.656  11.709  0.7717 -0.7304 -0.8367
  386TMC3    C7 5777   3.436   1.762  11.962 -0.5993 -0.2085 -0.2776
  386TMC3    C8 5778   3.671   1.559  11.591  0.0799 -0.5642  0.1131
  386TMC3    O1 5779   3.452   1.789  12.080 -0.2509  0.0493 -0.3054
  386TMC3    O2 5780   3.565   1.574  11.526 -0.5100 -0.1578  0.7157
  387MPD2     C 5781   1.150   1.461   9.422  0.4243 -0.2613  0.3749
  387MPD2    C1 5782   1.241   1.467   9.525 -0.2346  0.1402 -0.3238
  387MPD2    C2 5783   1.300   1.346   9.567  0.5640  0.3688  0.7147
  387MPD2    C3 5784   1.276   1.224   9.499 -0.4576 -0.0962 -0.0508
  387MPD2    C4 5785   1.194   1.229   9.388  0.9513  0.1685  0.1735
  387MPD2    C5 5786   1.129   1.346   9.356  0.3087 -0.6831 -0.1987
  387MPD2     H 5787   1.368   1.348   9.651 -2.7244  1.1333  3.3370
  387MPD2    H1 5788   1.173   1.135   9.338  0.6250  0.0600  0.5122
  387MPD2    H2 5789   1.106   1.554   9.387 -2.2403 -0.4906  2.9957
  387MPD2    H3 5790   1.052   1.343   9.279 -0.1663 -1.6048  0.3149
  387MPD2     N 5791   1.328   1.107   9.563 -0.0020 -0.1103  0.7962
  387MPD2    H5 5792   1.391   1.129   9.640  0.3535 -1.2820  0.8469
  387MPD2    N1 5793   1.263   1.583   9.604 -0.4954 -0.6700  0.3975
  387MPD2    H7 5794   1.337   1.566   9.670  2.1927 -0.1684 -2.4963
  388TMC3    C1 5795   1.243   1.765   9.731 -0.1612  0.3600  0.3949
  388TMC3    C2 5796   1.234   1.902   9.734 -0.2739  0.8554 -0.1649
  388TMC3    C3 5797   1.243   1.955   9.861 -1.0404  0.1442 -0.0101
  388TMC3    C4 5798   1.258   1.685   9.839 -0.5393  0.7481 -0.0611
  388TMC3    C5 5799   1.273   1.745   9.959 -0.0674  0.1525 -0.8147
  388TMC3    C6 5800   1.275   1.881   9.972 -0.2734 -0.2149  0.0069
  388TMC3     C 5801   1.201   1.706   9.606 -0.3834 -0.1111 -0.3011
  388TMC3     O 5802   1.123   1.762   9.530 -0.1011 -0.0956  0.0407
  388TMC3     H 5803   1.196   1.957   9.649 -2.6512  0.0090  0.3617
  388TMC3    H1 5804   1.230   1.581   9.827 -0.0456  0.7274 -1.0233
  388TMC3    H2 5805   1.285   1.918  10.073  0.9134 -1.6320  0.4069
  388TMC3    C7 5806   1.307   1.662  10.069  0.3709 -0.5780 -0.4086
  388TMC3    C8 5807   1.242   2.097   9.878 -0.8802 -0.3579  0.2152
  388TMC3    O1 5808   1.286   1.693  10.186  0.2037  0.1372 -0.3505
  388TMC3    O2 5809   1.226   2.159   9.770 -0.2558  0.0559 -0.9234
  389MPD2     C 5810   0.944   4.663  11.382  0.0995 -0.3272  0.1137
  389MPD2    C1 5811   0.822   4.614  11.339  0.4461  0.3916 -1.0916
  389MPD2    C2 5812   0.741   4.537  11.424 -0.7059 -0.2789  0.6814
  389MPD2    C3 5813   0.759   4.533  11.555 -0.4435 -0.0442  0.0018
  389MPD2    C4 5814   0.869   4.603  11.600 -0.8778  0.8646  0.5473
  389MPD2    C5 5815   0.961   4.660  11.515  0.4651 -0.7298  0.1313
  389MPD2     H 5816   0.665   4.466  11.393 -1.0549  0.6523 -0.5854
  389MPD2    H1 5817   0.880   4.627  11.705  1.0678  2.4481 -0.0185
  389MPD2    H2 5818   1.012   4.718  11.319 -2.2210  1.7719 -0.5778
  389MPD2    H3 5819   1.046   4.713  11.556 -0.5562 -0.2511  1.6228
  389MPD2     N 5820   0.681   4.464  11.656 -0.1470 -0.1688 -1.2451
  389MPD2    H5 5821   0.682   4.495  11.752 -0.3965 -1.0895 -0.9422
  389MPD2    N1 5822   0.806   4.629  11.203 -0.0003 -0.7555  0.4477
  389MPD2    H7 5823   0.878   4.674  11.148 -0.2847 -0.9261 -0.0570
  390TMC3    C1 5824   0.490   4.347  11.728  0.8042 -0.2342 -0.2028
  390TMC3    C2 5825   0.428   4.227  11.720 -1.0126 -0.1522 -0.5290
  390TMC3    C3 5826   0.325   4.205  11.796  0.7609 -0.0640 -0.2975
  390TMC3    C4 5827   0.449   4.451  11.809  0.2979  0.6097 -0.2027
  390TMC3    C5 5828   0.332   4.429  11.878  0.6476  0.5916  0.5280
  390TMC3    C6 5829   0.273   4.308  11.880 -0.0718 -0.6874  0.2491
  390TMC3     C 5830   0.593   4.364  11.626 -0.3205 -0.2671 -1.1799
  390TMC3     O 5831   0.601   4.297  11.523  0.1738 -0.6680 -0.0191
  390TMC3     H 5832   0.472   4.151  11.657 -0.4407 -0.7403  0.5760
  390TMC3    H1 5833   0.495   4.550  11.810  2.5878 -0.4850  2.3026
  390TMC3    H2 5834   0.186   4.294  11.944  0.5416 -2.2659  0.7568
  390TMC3    C7 5835   0.244   4.536  11.875 -0.1063  0.3247  1.2375
  390TMC3    C8 5836   0.238   4.095  11.757 -0.5216  0.1840  0.1258
  390TMC3    O1 5837   0.280   4.651  11.916 -0.1611  1.2046  0.6231
  390TMC3    O2 5838   0.258   4.040  11.650  0.7808  0.0564 -0.1419
  391MPD2     C 5839   4.462   1.486  11.215  0.0100  0.1731 -0.3793
  391MPD2    C1 5840   4.574   1.552  11.176  0.1073 -0.6941 -0.5268
  391MPD2    C2 5841   4.608   1.563  11.045 -0.4678  0.4236  0.3046
  391MPD2    C3 5842   4.539   1.486  10.953 -0.1395  0.3282 -0.5514
  391MPD2    C4 5843   4.427   1.407  10.990  0.0156 -0.1410 -0.5091
  391MPD2    C5 5844   4.392   1.416  11.125 -0.1543  0.0830  0.1303
  391MPD2     H 5845   4.691   1.624  11.011 -0.1283 -0.4236 -0.3886
  391MPD2    H1 5846   4.378   1.338  10.922 -0.1409  0.1260 -0.6695
  391MPD2    H2 5847   4.437   1.477  11.320  0.4601 -0.7418 -0.3417
  391MPD2    H3 5848   4.305   1.358  11.155  0.2863 -1.2399 -1.1528
  391MPD2     N 5849   4.592   1.495  10.821  0.0427 -0.3205  0.9464
  391MPD2    H5 5850   4.677   1.548  10.810 -1.2716  1.4269 -0.8730
  391MPD2    N1 5851   4.637   1.626  11.283 -0.1249 -0.0507  0.0464
  391MPD2    H7 5852   4.610   1.606  11.378  0.8959  0.6186  0.4679
  392TMC3    C1 5853   4.632   1.442  10.596  0.5977  0.2735  0.1851
  392TMC3    C2 5854   4.623   1.342  10.500  0.0934  0.2797 -0.0922
  392TMC3    C3 5855   4.665   1.381  10.377 -0.7530  0.1089 -0.3097
  392TMC3    C4 5856   4.679   1.566  10.573 -0.7984  0.4265  0.7458
  392TMC3    C5 5857   0.004   1.603  10.453 -0.2348 -0.3045  0.1273
  392TMC3    C6 5858   4.719   1.513  10.350  0.0247 -0.7249 -0.7605
  392TMC3     C 5859   4.553   1.408  10.716 -0.2228 -0.0036  0.2291
  392TMC3     O 5860   4.463   1.326  10.708  0.1802  0.5440 -0.0559
  392TMC3     H 5861   4.581   1.244  10.518  0.9652 -0.0602  0.0833
  392TMC3    H1 5862   4.694   1.637  10.654 -0.6740 -0.8884  1.8818
  392TMC3    H2 5863   0.041   1.536  10.255 -2.8333  0.2482 -1.9096
  392TMC3    C7 5864   0.038   1.740  10.424  0.9817  0.8419  0.0342
  392TMC3    C8 5865   4.639   1.300  10.266  0.0726  0.0395  0.8975
  392TMC3    O1 5866   0.019   1.818  10.521 -0.5122 -0.4347  0.5807
  392TMC3    O2 5867   4.635   1.180  10.290  0.4437 -0.2503  0.1249
  393TMC3    C1 5868   3.427   3.963  10.151  0.2477  0.3136  0.1354
  393TMC3    C2 5869   3.304   3.911  10.155  0.5354  0.0198  0.3929
  393TMC3    C3 5870   3.253   3.877  10.274 -0.1393 -0.2170 -0.5064
  393TMC3    C4 5871   3.496   4.004  10.264  0.0475  0.3214  0.5197
  393TMC3    C5 5872   3.437   3.987  10.382 -0.5076 -0.2620 -0.0615
  393TMC3    C6 5873   3.318   3.925  10.393  0.7021 -0.1107 -0.1236
  393TMC3     C 5874   3.490   4.002  10.020 -0.6452  0.2544 -0.8814
  393TMC3     O 5875   3.587   4.074  10.025  0.0921 -0.1136 -0.3281
  393TMC3     H 5876   3.250   3.884  10.065 -0.5378  2.1216  0.3952
  393TMC3    H1 5877   3.594   4.050  10.261  0.0992  0.4539  3.3184
  393TMC3    H2 5878   3.295   3.896  10.495  2.1741  1.7043  0.7106
  393TMC3    C7 5879   3.522   4.028  10.492  0.0360 -0.3828 -0.3893
  393TMC3    C8 5880   3.139   3.784  10.281  0.5484  0.1947 -0.6063
  393TMC3    O1 5881   3.464   4.077  10.591 -0.9740 -0.3616 -0.0228
  393TMC3    O2 5882   3.085   3.753  10.177  0.1300 -0.3944  0.1831
  394TMC3    C1 5883   0.689   4.592  10.992 -0.2029  0.4057 -0.5527
  394TMC3    C2 5884   0.567   4.616  10.925  0.6683 -0.3977  0.8536
  394TMC3    C3 5885   0.577   4.655  10.791 -0.4643  0.6913 -0.3075
  394TMC3    C4 5886   0.811   4.588  10.920 -0.3621  0.1741  0.4773
  394TMC3    C5 5887   0.806   4.633  10.785 -0.1174 -0.3115  0.2676
  394TMC3    C6 5888   0.692   4.666  10.722  0.3673 -0.4295 -0.0896
  394TMC3     C 5889   0.686   4.601  11.140 -0.2943  0.4990 -0.1961
  394TMC3     O 5890   0.574   4.625  11.189  0.0196 -0.6324 -0.1076
  394TMC3     H 5891   0.473   4.610  10.978 -1.2897 -1.7246 -2.8587
  394TMC3    H1 5892   0.906   4.581  10.971  0.2856  1.0350 -0.5943
  394TMC3    H2 5893   0.690   4.710  10.623 -0.6357  0.1196  0.1759
  394TMC3    C7 5894   0.931   4.679  10.724 -0.0111  0.3431 -0.3572
  394TMC3    C8 5895   0.454   4.652  10.710 -0.2206 -0.1965 -0.6069
  394TMC3    O1 5896   0.915   0.042  10.641 -0.4348 -0.0408  0.2601
  394TMC3    O2 5897   0.352   4.685  10.768 -0.6288  0.1426 -0.1395
  395TMC3    C1 5898   0.764   2.108  14.509 -0.1566 -0.6137  0.0736
  395TMC3    C2 5899   0.708   2.106  14.383 -0.6492 -0.0596 -0.1283
  395TMC3    C3 5900   0.685   2.230  14.321 -0.9798  0.3517 -0.2710
  395TMC3    C4 5901   0.803   2.226  14.575  0.4638 -0.2934 -0.2182
  395TMC3    C5 5902   0.779   2.343  14.508 -0.0926 -0.7918 -0.7482
  395TMC3    C6 5903   0.723   2.347  14.384 -0.8961 -0.1134 -0.3924
  395TMC3     C 5904   0.762   1.989  14.593 -0.4759 -0.3161  0.1110
  395TMC3     O 5905   0.792   2.008  14.708 -0.2936  0.2347 -0.9501
  395TMC3     H 5906   0.672   2.014  14.339  1.0215  0.2028 -2.0271
  395TMC3    H1 5907   0.831   2.220  14.680  0.3333 -3.0653 -0.3551
  395TMC3    H2 5908   0.732   2.435  14.322 -0.1402  0.3483  0.3678
  395TMC3    C7 5909   0.803   2.462  14.582 -0.1077 -0.2114 -0.7048
  395TMC3    C8 5910   0.576   2.244  14.226 -0.1572 -0.1630  0.7005
  395TMC3    O1 5911   0.880   2.442  14.676  0.2020 -0.0535  0.2905
  395TMC3    O2 5912   0.560   2.359  14.188 -0.6146 -0.3377  0.0727
  396MPD2     C 5913   0.497   2.815  17.354 -0.1879  0.7480  0.5891
  396MPD2    C1 5914   0.363   2.830  17.327  0.1291 -0.4609 -0.5753
  396MPD2    C2 5915   0.310   2.946  17.273  0.6847 -0.2005 -0.3502
  396MPD2    C3 5916   0.394   3.051  17.245  0.7953 -0.6445  0.7665
  396MPD2    C4 5917   0.530   3.029  17.271 -0.2296 -0.1339  0.3262
  396MPD2    C5 5918   0.579   2.910  17.316 -0.7353  0.6595  0.2345
  396MPD2     H 5919   0.206   2.950  17.245  0.4025 -0.6024  0.6272
  396MPD2    H1 5920   0.606   3.105  17.254 -0.7319  0.2190 -0.3472
  396MPD2    H2 5921   0.542   2.724  17.393 -0.9191  0.3742  0.5600
  396MPD2    H3 5922   0.686   2.900  17.331 -1.0869 -1.8721  0.9419
  396MPD2     N 5923   0.347   3.169  17.185 -0.7430 -0.1053 -0.5723
  396MPD2    H5 5924   0.251   3.160  17.151 -0.8908  1.5225 -0.5686
  396MPD2    N1 5925   0.287   2.716  17.365  0.1508  0.2809 -0.0992
  396MPD2    H7 5926   0.336   2.628  17.379  0.0739  0.4392  1.1698
  397TMC3    C1 5927   0.104   2.571  17.405  0.3350 -0.6193 -0.2102
  397TMC3    C2 5928   0.101   2.507  17.280  0.0616 -0.2522  0.1420
  397TMC3    C3 5929   4.705   2.460  17.240 -0.3402  0.3464  0.3908
  397TMC3    C4 5930   4.718   2.565  17.488  0.0042 -0.0530  0.3390
  397TMC3    C5 5931   4.602   2.519  17.439  0.1021  0.7434 -0.0192
  397TMC3    C6 5932   4.592   2.456  17.321  0.3441 -1.0211  0.1296
  397TMC3     C 5933   0.153   2.708  17.376  0.6269  0.3046  0.0425
  397TMC3     O 5934   0.070   2.798  17.370 -0.7187 -0.8434  0.6410
  397TMC3     H 5935   0.160   2.563  17.208 -1.3974  1.7171  0.4612
  397TMC3    H1 5936   4.723   2.631  17.574  1.3017 -0.3810  0.5208
  397TMC3    H2 5937   4.491   2.444  17.283  0.0556 -2.5961  1.3505
  397TMC3    C7 5938   4.485   2.526  17.525 -0.2501 -1.2213 -0.3759
  397TMC3    C8 5939   4.685   2.467  17.096  0.0713 -0.3728 -0.7077
  397TMC3    O1 5940   4.373   2.516  17.474 -0.2729 -0.7197 -0.2052
  397TMC3    O2 5941   4.582   2.517  17.055  0.3705  0.2349 -0.0286
  398MPD2     C 5942   2.846   4.041  17.696  0.0700  0.8414 -0.8123
  398MPD2    C1 5943   2.936   3.939   0.040 -0.1063 -0.0527  0.3383
  398MPD2    C2 5944   3.053   3.979   0.108  0.2151  0.1588  0.2298
  398MPD2    C3 5945   3.091   4.111   0.116  0.4714  0.5755 -0.2794
  398MPD2    C4 5946   2.998   4.208   0.076 -0.2911 -0.7936  0.4740
  398MPD2    C5 5947   2.879   4.173   0.017 -0.4480  0.0186 -0.0128
  398MPD2     H 5948   3.122   3.904   0.147 -0.7283 -0.6968  0.2756
  398MPD2    H1 5949   3.020   4.313   0.093 -1.8304 -0.5929  1.2419
  398MPD2    H2 5950   2.750   4.020  17.650  0.1146 -0.8982 -0.1267
  398MPD2    H3 5951   2.812   4.248  17.675 -0.3428  1.4614  2.5909
  398MPD2     N 5952   3.220   4.149   0.160  0.1985 -0.5123 -0.3045
  398MPD2    H5 5953   3.282   4.075   0.192  2.3598  1.6394  0.5116
  398MPD2    N1 5954   2.914   3.802   0.019 -0.1623 -0.1070  0.3865
  398MPD2    H7 5955   2.987   3.743   0.056  0.6163  1.5407  1.5056
  399TMC3    C1 5956   2.799   3.606  17.674  0.5139  0.1020 -0.0742
  399TMC3    C2 5957   2.909   3.519  17.682  1.3645  0.0292  0.5546
  399TMC3    C3 5958   2.894   3.399   0.051  0.2960 -0.7544  0.2191
  399TMC3    C4 5959   2.676   3.565   0.018  0.1710 -0.0581 -0.2927
  399TMC3    C5 5960   2.667   3.450   0.079 -0.3736  0.2460  0.2748
  399TMC3    C6 5961   2.773   3.368   0.102 -0.0323  0.3292  0.3496
  399TMC3     C 5962   2.809   3.748  17.651  0.6815  0.0038  1.0765
  399TMC3     O 5963   2.721   3.792  17.583  0.1835 -0.0513  0.7027
  399TMC3     H 5964   3.005   3.541  17.638  1.6076  0.0899  1.1060
  399TMC3    H1 5965   2.593   3.634   0.015  0.9606  1.0883  5.0060
  399TMC3    H2 5966   2.765   3.281   0.166  4.8157 -0.7189 -0.4882
  399TMC3    C7 5967   2.550   3.420   0.155 -0.0525 -0.3245 -0.1882
  399TMC3    C8 5968   3.015   3.314   0.067 -0.0080 -0.9689 -0.0562
  399TMC3    O1 5969   2.540   3.304   0.193  0.0431 -0.1953  0.6934
  399TMC3    O2 5970   3.118   3.335   0.002 -0.1409  0.5631  0.7341
  400TMC3    C1 5971   1.698   2.577  16.786  0.2944  0.2387 -0.1907
  400TMC3    C2 5972   1.606   2.529  16.696 -0.3680  0.5204 -0.4634
  400TMC3    C3 5973   1.489   2.598  16.675  0.0353  0.4907  0.4842
  400TMC3    C4 5974   1.674   2.693  16.857  0.5661  1.0943 -0.3066
  400TMC3    C5 5975   1.567   2.764  16.828 -0.2566 -0.6537  0.6511
  400TMC3    C6 5976   1.474   2.715  16.742 -0.7314  0.6871 -0.5882
  400TMC3     C 5977   1.794   2.480  16.838  0.0751  0.6615  0.2761
  400TMC3     O 5978   1.802   2.375  16.774 -0.4331  0.1565 -0.4702
  400TMC3     H 5979   1.638   2.450  16.628 -0.6179  0.0227 -0.0067
  400TMC3    H1 5980   1.746   2.727  16.930 -0.6012  0.5615  1.0837
  400TMC3    H2 5981   1.385   2.773  16.723 -2.0381 -0.7436  1.1112
  400TMC3    C7 5982   1.584   2.902  16.872 -0.5857  0.1016 -0.4221
  400TMC3    C8 5983   1.376   2.530  16.609 -0.7552 -0.2725  0.2668
  400TMC3    O1 5984   1.677   2.929  16.947  0.0159 -0.1260 -0.1645
  400TMC3    O2 5985   1.261   2.574  16.617  0.2582 -0.2072 -0.4637
  401MPD2     C 5986   0.124   1.139   0.277  0.0900  0.5465 -0.7046
  401MPD2    C1 5987   0.254   1.154   0.311  0.6099 -0.2585 -0.3529
  401MPD2    C2 5988   0.296   1.082   0.420  0.6659 -0.0794 -0.2146
  401MPD2    C3 5989   0.211   0.989   0.487 -0.2325 -0.1059  0.3702
  401MPD2    C4 5990   0.081   0.974   0.445 -0.0778  0.0358  0.6037
  401MPD2    C5 5991   0.044   1.041   0.334 -0.4659 -0.1931 -0.0883
  401MPD2     H 5992   0.399   1.076   0.455  0.8340  1.4792 -0.4731
  401MPD2    H1 5993   0.016   0.897   0.485 -0.9028  0.1772 -0.4623
  401MPD2    H2 5994   0.071   1.196   0.203 -1.4649  1.1649  0.8831
  401MPD2    H3 5995   4.670   1.015   0.295 -0.5495 -2.0451  1.3616
  401MPD2     N 5996   0.265   0.903   0.582 -0.2789 -0.7029 -0.7532
  401MPD2    H5 5997   0.366   0.917   0.585 -0.1758 -1.3925 -1.1213
  401MPD2    N1 5998   0.333   1.263   0.266 -0.1242 -0.0038  0.0979
  401MPD2    H7 5999   0.412   1.282   0.326 -0.6266  0.2086  0.6962
  402TMC3    C1 6000   0.295   0.752   0.760  0.2377  0.8847 -0.0046
  402TMC3    C2 6001   0.263   0.733   0.892  0.2705  0.4401  0.0958
  402TMC3    C3 6002   0.367   0.683   0.967 -0.2790 -0.3865  0.2213
  402TMC3    C4 6003   0.408   0.705   0.697 -0.2291  0.5960 -0.0793
  402TMC3    C5 6004   0.503   0.648   0.774  0.2571  0.3787  0.4665
  402TMC3    C6 6005   0.489   0.650   0.910  0.1442 -0.3160  0.2679
  402TMC3     C 6006   0.203   0.828   0.682  0.1284  0.6920 -0.0612
  402TMC3     O 6007   0.084   0.841   0.716  0.6130 -0.2144  0.0381
  402TMC3     H 6008   0.159   0.741   0.923  0.4580 -0.2851  0.9318
  402TMC3    H1 6009   0.424   0.710   0.590 -0.0629  1.1785 -0.0229
  402TMC3    H2 6010   0.571   0.612   0.970  1.1393  2.6134  0.7728
  402TMC3    C7 6011   0.612   0.579   0.698 -0.3336 -0.4299 -0.5362
  402TMC3    C8 6012   0.364   0.661   1.110  0.5627  0.2321  0.4075
  402TMC3    O1 6013   0.612   0.582   0.577  0.1740 -0.3358 -0.0595
  402TMC3    O2 6014   0.452   0.589   1.160 -0.2132  0.4190  0.5862
  403MPD2     C 6015   2.563   4.178  13.681 -0.4818  0.2366  0.1804
  403MPD2    C1 6016   2.654   4.099  13.619  0.9520 -0.8846 -0.3241
  403MPD2    C2 6017   2.786   4.131  13.636  0.6644  0.5349  0.3830
  403MPD2    C3 6018   2.833   4.227  13.722 -0.4518 -0.0868 -0.4478
  403MPD2    C4 6019   2.734   4.294  13.799  0.3305 -0.1429 -0.0836
  403MPD2    C5 6020   2.602   4.271  13.775  1.0129  0.5505 -0.0932
  403MPD2     H 6021   2.856   4.073  13.578 -0.2419  0.3456 -0.5124
  403MPD2    H1 6022   2.758   4.371  13.872 -1.8726  3.6853 -3.3718
  403MPD2    H2 6023   2.458   4.163  13.659 -0.3330 -0.4671 -0.0491
  403MPD2    H3 6024   2.533   4.320  13.842  0.5134  0.3807 -0.4803
  403MPD2     N 6025   2.968   4.241  13.750 -0.0954 -0.2030 -0.0757
  403MPD2    H5 6026   3.024   4.173  13.701 -1.4392 -2.1158  1.0479
  403MPD2    N1 6027   2.607   3.981  13.560  0.1397  0.2608  0.4422
  403MPD2    H7 6028   2.510   3.957  13.575 -0.5306  1.1513 -2.4696
  404TMC3    C1 6029   2.625   3.748  13.532 -0.2744 -0.1776 -0.7151
  404TMC3    C2 6030   2.658   3.696  13.656 -0.3092 -0.3471  0.1326
  404TMC3    C3 6031   2.736   3.580  13.665 -0.6753 -0.3587  0.1719
  404TMC3    C4 6032   2.641   3.660  13.433 -0.2260  0.5583 -0.1246
  404TMC3    C5 6033   2.678   3.529  13.453 -0.1930 -0.2735 -0.2527
  404TMC3    C6 6034   2.749   3.499  13.562  0.2481 -0.5443 -0.5908
  404TMC3     C 6035   2.684   3.877  13.505  0.1865 -0.0029  0.3549
  404TMC3     O 6036   2.801   3.885  13.471 -0.1538  0.2954 -0.2079
  404TMC3     H 6037   2.664   3.766  13.738 -0.0158 -0.7331  0.4396
  404TMC3    H1 6038   2.603   3.693  13.338  1.1856  0.6199 -0.6674
  404TMC3    H2 6039   2.770   3.394  13.582 -2.1502 -1.4752 -2.8674
  404TMC3    C7 6040   2.586   3.430  13.415  1.0215 -0.5427 -0.1724
  404TMC3    C8 6041   2.799   3.527  13.790 -0.3805 -0.5366 -0.0040
  404TMC3    O1 6042   2.568   3.334  13.489  0.3583 -0.3412 -0.3210
  404TMC3    O2 6043   2.891   3.447  13.776  0.3213 -0.0530 -0.0125
  405MPD2     C 6044   3.368   4.689  14.586  0.1608  0.4498  0.7013
  405MPD2    C1 6045   3.313   4.577  14.527  0.6086 -0.4033 -0.8168
  405MPD2    C2 6046   3.179   4.579  14.491  0.3756  0.5128  0.7509
  405MPD2    C3 6047   3.107   4.701  14.508  0.0880  0.2444 -0.8144
  405MPD2    C4 6048   3.163   0.089  14.571  0.4426 -0.0697  0.4922
  405MPD2    C5 6049   3.293   0.076  14.616  0.4807  0.1758 -0.2399
  405MPD2     H 6050   3.124   4.494  14.453  0.5814  0.4865  0.5164
  405MPD2    H1 6051   3.106   0.180  14.590  0.9625  0.8157 -2.1706
  405MPD2    H2 6052   3.473   4.693  14.616  0.1683 -0.8622  0.8476
  405MPD2    H3 6053   3.330   0.160  14.674 -0.7957 -0.6807  1.7893
  405MPD2     N 6054   2.972   4.686  14.484 -0.1822  0.3747 -0.2814
  405MPD2    H5 6055   2.941   4.601  14.437  1.1818  1.1996 -2.7123
  405MPD2    N1 6056   3.390   4.463  14.509 -0.1834 -0.2351  0.2276
  405MPD2    H7 6057   3.488   4.459  14.533  0.3730  0.2595 -2.0360
  406TMC3    C1 6058   2.507   4.715  14.465 -0.3332  0.2739 -0.4235
  406TMC3    C2 6059   2.491   4.581  14.492 -0.3349 -0.3054 -0.2964
  406TMC3    C3 6060   2.607   4.507  14.493  0.5578 -0.5032 -0.0628
  406TMC3    C4 6061   2.631   0.059  14.467  0.1363 -0.2603  0.2280
  406TMC3    C5 6062   2.744   4.708  14.474  0.6659  0.2552  0.0225
  406TMC3    C6 6063   2.731   4.568  14.492  0.2323 -0.6918  0.3111
  406TMC3     C 6064   2.391   0.077  14.459  0.3384  0.2331  0.3446
  406TMC3     O 6065   2.394   0.164  14.374 -0.1134 -0.0518 -0.4845
  406TMC3     H 6066   2.395   4.531  14.496 -0.1783 -0.4372  1.7785
  406TMC3    H1 6067   2.632   0.167  14.452  1.6007 -0.3623 -0.4622
  406TMC3    H2 6068   2.817   4.512  14.526  0.5847  0.4798  1.3725
  406TMC3    C7 6069   2.874   0.053  14.499 -0.5710  1.0999  0.2292
  406TMC3    C8 6070   2.607   4.363  14.509  0.8915  0.4356 -0.1855
  406TMC3    O1 6071   2.873   0.171  14.530 -0.2532 -0.2575 -0.0699
  406TMC3    O2 6072   2.515   4.315  14.574 -0.2809  0.3269  0.9422
  407MPD2     C 6073   0.747   1.126   9.307 -0.3180  0.7316 -0.0269
  407MPD2    C1 6074   0.857   1.059   9.360  0.1478 -0.3267  0.3215
  407MPD2    C2 6075   0.896   1.094   9.488 -0.5330  0.7938 -0.3637
  407MPD2    C3 6076   0.822   1.169   9.574  0.5429  0.8400  0.3757
  407MPD2    C4 6077   0.702   1.217   9.527 -0.4628 -0.4501  0.2509
  407MPD2    C5 6078   0.676   1.202   9.391 -0.2538 -0.1269  0.5556
  407MPD2     H 6079   0.985   1.050   9.532 -2.6737  0.2491  3.3656
  407MPD2    H1 6080   0.636   1.280   9.586 -0.1347 -1.2979  1.5092
  407MPD2    H2 6081   0.712   1.121   9.205  0.2470  2.4537 -0.2990
  407MPD2    H3 6082   0.591   1.260   9.356 -1.3005 -1.2800  1.1744
  407MPD2     N 6083   0.858   1.197   9.711  0.4379  0.0326 -0.0426
  407MPD2    H5 6084   0.793   1.247   9.771  1.1632  1.1442 -0.1786
  407MPD2    N1 6085   0.941   0.982   9.279  0.3072 -0.0925  0.3049
  407MPD2    H7 6086   1.031   0.966   9.323  0.6233 -0.5497 -0.4916
  408TMC3    C1 6087   1.037   0.944   9.072 -0.0660 -0.4306 -0.5626
  408TMC3    C2 6088   1.145   0.889   9.132  0.0292 -0.1004  0.0204
  408TMC3    C3 6089   1.272   0.924   9.085  0.3597  0.1819  0.2493
  408TMC3    C4 6090   1.049   1.057   8.992 -0.4833  0.3006 -0.3680
  408TMC3    C5 6091   1.171   1.107   8.978 -0.7217 -0.0925 -0.3559
  408TMC3    C6 6092   1.283   1.037   9.007  0.5357 -0.0701 -0.3681
  408TMC3     C 6093   0.918   0.939   9.148  0.0725  0.2483  0.3461
  408TMC3     O 6094   0.814   0.943   9.084 -0.2484 -0.2395 -0.2608
  408TMC3     H 6095   1.140   0.807   9.203  0.8909  0.4442  0.7103
  408TMC3    H1 6096   0.957   1.102   8.958 -1.9615 -2.1265  0.4071
  408TMC3    H2 6097   1.378   1.080   8.978  0.7382  1.4127  2.4743
  408TMC3    C7 6098   1.190   1.249   8.988  0.2360  0.1089 -0.3762
  408TMC3    C8 6099   1.381   0.904   9.168  0.3033  0.9364  0.0813
  408TMC3    O1 6100   1.297   1.283   9.038  0.1937 -0.2375  0.2151
  408TMC3    O2 6101   1.393   0.794   9.222 -0.5120 -0.0513  0.3669
  409MPD2     C 6102   0.764   1.605  16.972  0.6302 -0.9012 -0.3303
  409MPD2    C1 6103   0.866   1.656  17.053  0.6983  0.3254  0.5009
  409MPD2    C2 6104   0.892   1.790  17.038  0.5743 -0.0362 -0.2241
  409MPD2    C3 6105   0.830   1.874  16.948 -0.1964 -0.3312 -0.1046
  409MPD2    C4 6106   0.728   1.822  16.870  0.1709 -0.0665  0.6313
  409MPD2    C5 6107   0.697   1.686  16.887 -0.2665 -0.3319 -0.2684
  409MPD2     H 6108   0.973   1.827  17.100  0.8957 -0.6652 -0.2686
  409MPD2    H1 6109   0.675   1.873  16.791  0.5714 -0.0568  0.3635
  409MPD2    H2 6110   0.723   1.507  16.994 -0.7431  0.0319  1.2538
  409MPD2    H3 6111   0.615   1.639  16.833 -0.3039 -0.1126 -0.4025
  409MPD2     N 6112   0.859   2.009  16.920  0.2330  0.0789 -0.2748
  409MPD2    H5 6113   0.800   2.064  16.859 -1.3719 -1.5219 -0.1692
  409MPD2    N1 6114   0.938   1.590  17.155 -0.2249 -0.2252 -0.3002
  409MPD2    H7 6115   1.007   1.647  17.203  0.2791  0.4414 -1.8191
  410TMC3    C1 6116   0.966   2.209  16.898 -0.6014  0.0354 -0.2679
  410TMC3    C2 6117   1.083   2.277  16.906 -0.0191  0.8516  0.6852
  410TMC3    C3 6118   1.091   2.408  16.873  0.4133 -0.8439  0.1538
  410TMC3    C4 6119   0.852   2.264  16.839 -0.2102 -0.4400 -0.4824
  410TMC3    C5 6120   0.864   2.389  16.805 -0.3651 -0.0937  0.6444
  410TMC3    C6 6121   0.981   2.466  16.812  0.2580  0.5964 -1.1282
  410TMC3     C 6122   0.961   2.082  16.967 -0.1541  0.0402  0.3483
  410TMC3     O 6123   1.053   2.048  17.035 -0.1631 -0.2353  0.5658
  410TMC3     H 6124   1.161   2.231  16.964 -0.2296 -2.3048 -1.5546
  410TMC3    H1 6125   0.759   2.213  16.859 -0.9648  0.6476 -1.2151
  410TMC3    H2 6126   0.981   2.571  16.785 -1.0509  0.6304 -0.9738
  410TMC3    C7 6127   0.741   2.464  16.790 -0.0680  0.3855  0.1137
  410TMC3    C8 6128   1.200   2.493  16.924  0.3377 -0.9181  0.7362
  410TMC3    O1 6129   0.641   2.416  16.846 -0.2290  0.4172 -0.5485
  410TMC3    O2 6130   1.179   2.612  16.906 -0.2246 -0.2033 -0.7137
  411MPD2     C 6131   0.956   3.579  14.351  0.1701 -0.0402 -0.1151
  411MPD2    C1 6132   0.849   3.512  14.411 -0.1975 -0.7374  0.1570
  411MPD2    C2 6133   0.799   3.394  14.358  0.3733 -0.2746  0.1520
  411MPD2    C3 6134   0.869   3.345  14.244  0.4243  0.0898 -0.2680
  411MPD2    C4 6135   0.955   3.421  14.180 -0.6129 -0.0852 -0.1916
  411MPD2    C5 6136   1.007   3.532  14.233  0.3826 -0.1498 -0.4974
  411MPD2     H 6137   0.719   3.341  14.408 -1.6351 -0.2943 -3.0854
  411MPD2    H1 6138   1.009   3.383  14.094  0.3777 -0.2530  0.5018
  411MPD2    H2 6139   0.997   3.661  14.408 -0.4639 -2.2887  3.5394
  411MPD2    H3 6140   1.100   3.565  14.188  0.8854 -0.1415  0.5413
  411MPD2     N 6141   0.836   3.229  14.175  0.2440  0.0935 -0.3440
  411MPD2    H5 6142   0.878   3.227  14.082  0.9580 -0.3983 -0.0070
  411MPD2    N1 6143   0.783   3.576  14.508  0.3760 -0.0910  0.2850
  411MPD2    H7 6144   0.800   3.675  14.519 -0.6170 -0.2217  2.9468
  412TMC3    C1 6145   0.727   3.017  14.135  0.0770 -0.0034 -0.3505
  412TMC3    C2 6146   0.623   2.930  14.164 -0.2100  0.7955  0.1279
  412TMC3    C3 6147   0.598   2.823  14.078  0.1123 -0.6670  0.3162
  412TMC3    C4 6148   0.784   3.018  14.014  0.7473 -0.2451  0.9499
  412TMC3    C5 6149   0.754   2.915  13.928  0.1908 -0.3661 -0.3171
  412TMC3    C6 6150   0.679   2.809  13.965 -0.0811  0.8972 -0.2557
  412TMC3     C 6151   0.748   3.129  14.224  0.2143  0.5885  0.7276
  412TMC3     O 6152   0.684   3.127  14.330  0.1261  0.5577 -0.5091
  412TMC3     H 6153   0.554   2.952  14.245 -2.7876  0.6437 -2.0497
  412TMC3    H1 6154   0.854   3.087  13.968  1.8826 -2.3689 -0.5123
  412TMC3    H2 6155   0.650   2.727  13.900  0.4296 -0.3406  1.0800
  412TMC3    C7 6156   0.715   2.964  13.799 -0.9294 -0.0206 -0.1997
  412TMC3    C8 6157   0.454   2.798  14.058  0.3119 -0.1761  0.4127
  412TMC3    O1 6158   0.667   3.078  13.792 -0.0564  0.5392  0.7256
  412TMC3    O2 6159   0.377   2.867  14.118 -0.5307 -0.4810  0.0810
  413MPD2     C 6160   2.396   1.014  15.385 -0.5724 -0.0462 -0.2318
  413MPD2    C1 6161   2.343   0.986  15.268 -0.1813  0.1530 -0.3479
  413MPD2    C2 6162   2.418   0.918  15.184  0.5352 -0.3309  0.4043
  413MPD2    C3 6163   2.552   0.880  15.197 -0.7891 -0.1578 -1.1466
  413MPD2    C4 6164   2.606   0.911  15.314 -0.3970  0.9872  0.7457
  413MPD2    C5 6165   2.526   0.973  15.404 -0.1272  0.0141  1.1937
  413MPD2     H 6166   2.381   0.882  15.089 -0.5774  0.6434  0.4787
  413MPD2    H1 6167   2.706   0.883  15.343 -0.8556 -3.0578 -1.5784
  413MPD2    H2 6168   2.345   1.060  15.469 -0.3958 -0.3976  0.0655
  413MPD2    H3 6169   2.564   0.990  15.504  2.6292  2.5766 -0.2652
  413MPD2     N 6170   2.613   0.797  15.107 -0.4819 -0.3729  0.1704
  413MPD2    H5 6171   2.557   0.755  15.033  0.8239 -0.2106 -0.9241
  413MPD2    N1 6172   2.214   1.024  15.221 -0.1428 -0.3469 -0.6307
  413MPD2    H7 6173   2.185   0.995  15.128 -0.0302 -1.0037 -0.4554
  414TMC3    C1 6174   2.787   0.662  15.012 -0.0832 -0.3505 -0.2247
  414TMC3    C2 6175   2.707   0.548  15.003 -0.0068 -0.2128 -0.7277
  414TMC3    C3 6176   2.753   0.429  14.945  0.6993 -1.0600 -0.3329
  414TMC3    C4 6177   2.915   0.665  14.958 -0.1197  0.1486 -0.6325
  414TMC3    C5 6178   2.949   0.549  14.889 -0.1716  0.0651  0.4626
  414TMC3    C6 6179   2.877   0.430  14.885  0.0493  0.8757  0.3161
  414TMC3     C 6180   2.746   0.765  15.103 -0.2428 -0.2789  0.8450
  414TMC3     O 6181   2.838   0.813  15.165 -0.2858  0.4966 -0.2044
  414TMC3     H 6182   2.614   0.555  15.058 -0.0294 -1.1438 -0.6479
  414TMC3    H1 6183   2.970   0.758  14.953 -0.9870  0.6778 -0.2876
  414TMC3    H2 6184   2.920   0.340  14.841  1.5247  2.0289 -0.5749
  414TMC3    C7 6185   3.090   0.541  14.882 -0.4994 -0.1373  0.6412
  414TMC3    C8 6186   2.738   0.311  15.028  0.2514  0.2475  0.7936
  414TMC3    O1 6187   3.157   0.627  14.935 -0.0665  0.2913  0.2330
  414TMC3    O2 6188   2.783   0.213  14.967  0.2092 -0.2273 -0.1630
  415TMC3    C1 6189   2.884   2.922   9.979 -0.0941  0.1837 -0.5563
  415TMC3    C2 6190   2.936   2.936   9.853  0.4157  0.4757 -0.5304
  415TMC3    C3 6191   2.856   2.915   9.744  0.1753 -0.4074 -0.5511
  415TMC3    C4 6192   2.756   2.875   9.997  0.2850  0.2808 -0.4739
  415TMC3    C5 6193   2.672   2.865   9.889 -0.4356  0.4080 -0.2988
  415TMC3    C6 6194   2.721   2.893   9.763  0.4350  0.3289 -0.5179
  415TMC3     C 6195   2.960   2.964  10.100  0.1675  0.6218  0.3389
  415TMC3     O 6196   2.947   2.896  10.201 -0.1406  0.2233 -0.3336
  415TMC3     H 6197   3.041   2.962   9.839  1.2429 -1.5287  1.8002
  415TMC3    H1 6198   2.716   2.870  10.098 -0.5463  0.5423 -0.7956
  415TMC3    H2 6199   2.654   2.878   9.680  0.0059 -1.5171  0.1585
  415TMC3    C7 6200   2.550   2.788   9.915 -0.1695  0.3836 -1.2697
  415TMC3    C8 6201   2.907   2.939   9.615  0.6511  0.0208 -0.3364
  415TMC3    O1 6202   2.472   2.770   9.821 -0.2349 -0.2629 -0.3192
  415TMC3    O2 6203   2.837   2.899   9.521  0.0508  0.5722 -0.2589
  416MPD2     C 6204   0.018   2.680  11.605 -0.3135 -0.1699  0.3223
  416MPD2    C1 6205   4.627   2.711  11.541 -0.1893 -0.8708  0.3629
  416MPD2    C2 6206   4.595   2.641  11.423  0.1039  0.4459 -0.1632
  416MPD2    C3 6207   4.685   2.553  11.371  0.6524  0.0643 -0.0150
  416MPD2    C4 6208   0.085   2.533  11.432 -0.4029  0.0157 -0.3927
  416MPD2    C5 6209   0.109   2.587  11.555 -0.1742 -0.5156 -0.2040
  416MPD2     H 6210   4.501   2.656  11.372  0.3597  3.2713  0.1899
  416MPD2    H1 6211   0.137   2.441  11.406  0.1516 -0.3152  1.9546
  416MPD2    H2 6212   0.042   2.730  11.698 -1.2972  0.2857  0.3245
  416MPD2    H3 6213   0.197   2.560  11.612 -1.4030  0.4625  2.1242
  416MPD2     N 6214   4.663   2.472  11.258 -0.1770 -0.2884  0.1931
  416MPD2    H5 6215   0.007   2.398  11.242  0.2828  0.7268 -2.5674
  416MPD2    N1 6216   4.556   2.818  11.596 -0.7147  0.0178  0.1865
  416MPD2    H7 6217   4.594   2.861  11.679  1.5437  0.9142 -1.3093
  417TMC3    C1 6218   4.398   3.000  11.598 -0.2131 -0.3940  0.0960
  417TMC3    C2 6219   4.412   3.024  11.737  0.4382 -0.2214  0.1220
  417TMC3    C3 6220   4.347   3.135  11.799 -0.3764  0.4314 -0.5853
  417TMC3    C4 6221   4.308   3.073  11.531 -0.1858 -0.0455  0.1850
  417TMC3    C5 6222   4.245   3.180  11.588  0.1091  0.0132 -0.2717
  417TMC3    C6 6223   4.262   3.216  11.722 -0.1973 -0.1709 -0.5724
  417TMC3     C 6224   4.439   2.872  11.536 -0.2568 -0.2113 -0.0167
  417TMC3     O 6225   4.376   2.836  11.441  0.8187  0.1933  0.0213
  417TMC3     H 6226   4.475   2.955  11.792 -0.6303 -0.6140  0.8415
  417TMC3    H1 6227   4.281   3.047  11.429 -2.1810 -0.5472  0.8478
  417TMC3    H2 6228   4.208   3.294  11.773 -0.2117 -0.5507 -0.0124
  417TMC3    C7 6229   4.158   3.262  11.500  0.0454 -0.6254 -0.5254
  417TMC3    C8 6230   4.332   3.148  11.942 -0.5214 -0.4128 -0.4871
  417TMC3    O1 6231   4.186   3.256  11.380  0.2331 -0.0655 -0.1135
  417TMC3    O2 6232   4.299   3.256  11.996  0.5497  0.0615  0.4142
  418TMC3    C1 6233   3.605   4.342   0.149 -0.0697 -0.0713 -0.3748
  418TMC3    C2 6234   3.475   4.360   0.167 -0.0445  0.4046 -0.1978
  418TMC3    C3 6235   3.399   4.277   0.241 -0.1059 -0.9677  0.4442
  418TMC3    C4 6236   3.668   4.241   0.215  0.6274 -0.3908  0.5722
  418TMC3    C5 6237   3.598   4.161   0.301 -0.0488  0.6861 -0.5218
  418TMC3    C6 6238   3.460   4.171   0.303  0.3786 -0.3259  0.3384
  418TMC3     C 6239   3.646   4.358   0.013 -0.9185 -0.8957  0.6249
  418TMC3     O 6240   3.601   4.451  17.645 -0.0008  0.4595  0.1515
  418TMC3     H 6241   3.421   4.431   0.105  0.2280 -0.4027 -1.3607
  418TMC3    H1 6242   3.776   4.242   0.214  0.6023  2.5718  1.0638
  418TMC3    H2 6243   3.401   4.098   0.357 -0.3347  0.8823  1.1728
  418TMC3    C7 6244   3.657   4.060   0.383 -0.3809 -0.1563 -0.3125
  418TMC3    C8 6245   3.264   4.275   0.195  0.4503 -0.8655 -0.0583
  418TMC3    O1 6246   3.590   3.959   0.401 -0.1067 -0.9263 -0.2407
  418TMC3    O2 6247   3.215   4.388   0.177  0.6190  0.1208 -0.6157
  419MPD2     C 6248   1.967   2.392  12.635  0.2609 -0.0587 -0.2584
  419MPD2    C1 6249   1.868   2.484  12.606 -0.0804  0.1838 -0.5900
  419MPD2    C2 6250   1.818   2.564  12.710 -0.3332 -0.4973 -0.1556
  419MPD2    C3 6251   1.869   2.553  12.844 -0.0080  0.5582 -0.3493
  419MPD2    C4 6252   1.977   2.474  12.860 -0.0622 -0.2029 -0.5855
  419MPD2    C5 6253   2.023   2.389  12.756 -0.3512  0.0013  0.1623
  419MPD2     H 6254   1.742   2.636  12.681  0.2457 -0.7476 -2.3549
  419MPD2    H1 6255   2.019   2.450  12.957  1.5431 -0.9877 -1.4580
  419MPD2    H2 6256   2.023   2.325  12.571 -1.8164 -1.8802 -0.1445
  419MPD2    H3 6257   2.105   2.324  12.784 -1.2954 -1.9472 -1.5424
  419MPD2     N 6258   1.807   2.633  12.947 -0.3862 -0.3334 -0.3035
  419MPD2    H5 6259   1.730   2.691  12.917  0.2876  0.6225 -0.1952
  419MPD2    N1 6260   1.819   2.509  12.476 -0.1819  0.0500  0.2412
  419MPD2    H7 6261   1.765   2.594  12.462 -1.0191 -0.9746 -2.8523
  420TMC3    C1 6262   1.768   2.728  13.158  0.6187  1.0315 -0.5082
  420TMC3    C2 6263   1.646   2.771  13.121  0.3530 -0.4440 -0.6817
  420TMC3    C3 6264   1.593   2.864  13.205  0.3194  0.0910 -0.1753
  420TMC3    C4 6265   1.835   2.762  13.272 -0.0209 -0.1278  0.3817
  420TMC3    C5 6266   1.773   2.856  13.350 -0.0538  0.3629  0.4261
  420TMC3    C6 6267   1.665   2.924  13.306  0.3301 -0.6553  0.2373
  420TMC3     C 6268   1.830   2.625  13.079  0.7359 -0.2831 -0.1039
  420TMC3     O 6269   1.914   2.556  13.139 -0.3875 -0.2057  0.3197
  420TMC3     H 6270   1.602   2.729  13.031 -1.4574  0.7853 -0.3668
  420TMC3    H1 6271   1.921   2.717  13.321  0.8078 -0.2888 -1.2320
  420TMC3    H2 6272   1.626   3.000  13.374  0.0139 -1.3607  0.8457
  420TMC3    C7 6273   1.781   2.852  13.494 -0.5009  0.2704 -0.5313
  420TMC3    C8 6274   1.485   2.941  13.146  0.1709 -0.1914 -0.5921
  420TMC3    O1 6275   1.788   2.736  13.538  0.4832 -0.7214  0.1971
  420TMC3    O2 6276   1.482   3.064  13.159  0.2264 -0.5578  0.6185
  421TMC3    C1 6277   3.173   4.339  13.818 -0.1926 -0.6272  0.0994
  421TMC3    C2 6278   3.242   4.443  13.883 -0.4356 -0.4282 -0.1287
  421TMC3    C3 6279   3.373   4.429  13.900 -0.2065 -0.6302 -0.2375
  421TMC3    C4 6280   3.240   4.241  13.752  0.1284  1.0416 -0.5772
  421TMC3    C5 6281   3.375   4.232  13.770 -0.3211 -0.0958  0.4680
  421TMC3    C6 6282   3.442   4.323  13.846  0.5441 -0.4857 -0.4186
  421TMC3     C 6283   3.025   4.344  13.824  0.1451  1.2588  0.5833
  421TMC3     O 6284   2.981   4.428  13.901 -0.0822 -1.0023 -0.2944
  421TMC3     H 6285   3.194   4.530  13.927 -0.1456 -0.7867  0.9006
  421TMC3    H1 6286   3.190   4.173  13.684  2.2176 -1.7477  0.6546
  421TMC3    H2 6287   3.548   4.322  13.870 -0.5574 -0.1341  4.2714
  421TMC3    C7 6288   3.465   4.130  13.718  0.0271 -0.0814 -0.1364
  421TMC3    C8 6289   3.464   4.544  13.941 -0.3903  0.2445 -0.3140
  421TMC3    O1 6290   3.585   4.160  13.707  0.1889 -0.4040  0.0462
  421TMC3    O2 6291   3.575   4.553  13.888 -0.5355  0.3221  0.4350
  422TMC3    C1 6292   0.907   0.840  12.698 -0.2360 -0.8490  0.0795
  422TMC3    C2 6293   0.896   0.911  12.812 -0.6124  0.7001  0.1254
  422TMC3    C3 6294   0.768   0.938  12.855 -0.6404  0.6646 -0.4327
  422TMC3    C4 6295   0.802   0.817  12.614 -0.6529 -0.5731  0.3709
  422TMC3    C5 6296   0.680   0.844  12.658 -0.0015  0.5001  0.0081
  422TMC3    C6 6297   0.660   0.901  12.781  0.4278  0.0803 -0.9999
  422TMC3     C 6298   1.033   0.836  12.636  0.5321  0.1223  0.1993
  422TMC3     O 6299   1.112   0.926  12.665 -0.7385 -0.1955 -0.6843
  422TMC3     H 6300   0.982   0.936  12.873 -0.9952  1.5211  0.3313
  422TMC3    H1 6301   0.819   0.792  12.510  0.2647 -0.3792  0.4759
  422TMC3    H2 6302   0.559   0.923  12.814  0.9981  1.4653 -0.1643
  422TMC3    C7 6303   0.567   0.832  12.569 -0.2670  0.1090 -0.3432
  422TMC3    C8 6304   0.755   1.016  12.978  0.1150  0.1691  0.4838
  422TMC3    O1 6305   0.584   0.811  12.449 -0.6756  0.3655  0.0314
  422TMC3    O2 6306   0.859   1.056  13.026  0.0576  0.1322  0.4747
  423MPD2     C 6307   2.115   1.761   0.385  0.1518  0.9593  0.2963
  423MPD2    C1 6308   2.194   1.651   0.430  0.3583  0.3196 -0.0180
  423MPD2    C2 6309   2.188   1.523   0.367 -1.2731 -0.1335 -0.9199
  423MPD2    C3 6310   2.116   1.513   0.249  0.5447  0.2389 -0.3536
  423MPD2    C4 6311   2.045   1.627   0.201 -0.6313  0.1765  0.0699
  423MPD2    C5 6312   2.042   1.744   0.272 -0.2486  0.7789 -0.1467
  423MPD2     H 6313   2.254   1.442   0.395 -2.0608 -0.8442 -1.1179
  423MPD2    H1 6314   1.986   1.628   0.110  0.9156  0.6032 -0.9309
  423MPD2    H2 6315   2.102   1.847   0.450  0.2279  0.3155  1.1641
  423MPD2    H3 6316   1.988   1.835   0.248  0.1124  1.3246  1.0712
  423MPD2     N 6317   2.135   1.401   0.166  0.6780 -0.3089 -0.3816
  423MPD2    H5 6318   2.113   1.416   0.068 -0.9221 -1.7560 -0.2410
  423MPD2    N1 6319   2.279   1.659   0.541 -0.0224 -0.2137 -0.3164
  423MPD2    H7 6320   2.329   1.574   0.567  1.5554  0.8564  0.1251
  424TMC3    C1 6321   2.469   1.743   0.636 -0.0100 -0.5811 -0.7402
  424TMC3    C2 6322   2.542   1.637   0.586  0.1025 -0.2191 -0.5197
  424TMC3    C3 6323   2.677   1.639   0.588 -0.5102  0.1160 -0.1610
  424TMC3    C4 6324   2.524   1.847   0.697 -0.2989  0.0740 -0.7043
  424TMC3    C5 6325   2.663   1.850   0.703  0.4639  0.1630 -0.0024
  424TMC3    C6 6326   2.747   1.747   0.654 -0.1062 -0.5413  0.9964
  424TMC3     C 6327   2.339   1.771   0.584  0.2884 -0.0661  0.3828
  424TMC3     O 6328   2.319   1.888   0.553  0.3742  0.0313  0.0683
  424TMC3     H 6329   2.500   1.554   0.529 -4.8278  2.1393 -0.2656
  424TMC3    H1 6330   2.471   1.932   0.739  0.7608  0.9026 -1.0217
  424TMC3    H2 6331   2.853   1.727   0.664  0.6946  2.1133 -2.0977
  424TMC3    C7 6332   2.720   1.972   0.756 -0.0210  0.4798  0.1320
  424TMC3    C8 6333   2.743   1.535   0.514  0.5130  0.0551  0.3397
  424TMC3    O1 6334   2.658   2.030   0.845  0.3526 -0.3893 -0.0970
  424TMC3    O2 6335   2.690   1.425   0.507  0.3030  0.3455  0.0844
  425MPD2     C 6336   1.140   0.829  17.122 -0.1605 -0.2699  0.9208
  425MPD2    C1 6337   1.175   0.838  17.251 -0.2428  0.6803 -0.2464
  425MPD2    C2 6338   1.104   0.927  17.338 -0.9264  0.1766  0.3064
  425MPD2    C3 6339   0.997   1.002  17.291 -0.2607  0.8894 -0.1698
  425MPD2    C4 6340   0.964   0.992  17.155 -0.0394  0.2874  0.0394
  425MPD2    C5 6341   1.032   0.905  17.071 -0.6022  0.4863  0.3574
  425MPD2     H 6342   1.135   0.952  17.439 -0.2960  1.2890 -0.1665
  425MPD2    H1 6343   0.891   1.059  17.112 -1.4405 -1.0240  0.3946
  425MPD2    H2 6344   1.201   0.766  17.059  0.1201  0.6607  0.2661
  425MPD2    H3 6345   1.017   0.908  16.963 -1.9747 -0.0299  0.5400
  425MPD2     N 6346   0.913   1.068  17.382  0.1827  0.0209 -0.1247
  425MPD2    H5 6347   0.931   1.057  17.481 -0.0105  1.7376  0.1021
  425MPD2    N1 6348   1.266   0.742  17.302 -0.1797 -0.1473 -0.1555
  425MPD2    H7 6349   1.309   0.679  17.235 -0.6768 -1.8147  1.0918
  426TMC3    C1 6350   1.428   0.650  17.461  0.4056 -0.3558 -0.0582
  426TMC3    C2 6351   1.492   0.600  17.345  0.4116 -0.0741  0.3401
  426TMC3    C3 6352   1.561   0.481  17.358 -0.7153  0.4272  0.2665
  426TMC3    C4 6353   1.415   0.573  17.568  0.1309 -0.3485  0.4964
  426TMC3    C5 6354   1.489   0.461  17.573 -0.8486  0.6647 -0.5396
  426TMC3    C6 6355   1.558   0.408  17.479  0.7063  0.0284 -0.1642
  426TMC3     C 6356   1.310   0.739  17.439 -0.1547 -0.1005  0.1345
  426TMC3     O 6357   1.253   0.773  17.540  0.1716 -0.0549 -0.4391
  426TMC3     H 6358   1.496   0.656  17.252 -0.6649 -1.3646 -0.4793
  426TMC3    H1 6359   1.362   0.615  17.653 -0.1118  1.0495 -0.3414
  426TMC3    H2 6360   1.608   0.315  17.500  0.9309 -0.4062 -2.5818
  426TMC3    C7 6361   1.528   0.405   0.007 -0.2737 -0.8201 -0.4091
  426TMC3    C8 6362   1.586   0.412  17.234  0.1766 -0.2842  0.3666
  426TMC3    O1 6363   1.622   0.323   0.015 -0.9219  0.2305  0.0061
  426TMC3    O2 6364   1.586   0.475  17.131 -0.2451  0.2489 -0.2168
  427MPD2     C 6365   4.619   2.743  14.722 -0.0198 -0.6064 -0.2333
  427MPD2    C1 6366   4.601   2.725  14.859  0.1623 -0.8341 -0.3210
  427MPD2    C2 6367   4.479   2.756  14.912  0.1038  0.0224 -0.1514
  427MPD2    C3 6368   4.369   2.796  14.838 -0.7255  0.0466  0.3299
  427MPD2    C4 6369   4.384   2.789  14.699 -0.6644 -0.6082  0.2009
  427MPD2    C5 6370   4.513   2.767  14.650 -0.0775  0.5536  0.5054
  427MPD2     H 6371   4.469   2.756  15.020  0.7764  2.5245 -0.0772
  427MPD2    H1 6372   4.301   2.816  14.635  1.2113  0.5343 -1.7542
  427MPD2    H2 6373   4.711   2.735  14.666 -0.2134 -2.9847 -0.2157
  427MPD2    H3 6374   4.530   2.774  14.543 -0.0073 -2.1017  0.3303
  427MPD2     N 6375   4.247   2.843  14.900 -0.1224 -0.5486 -0.1641
  427MPD2    H5 6376   4.173   2.867  14.834  0.2697 -0.5353 -0.6026
  427MPD2    N1 6377   4.709   2.682  14.943 -0.0513 -0.7486  0.6252
  427MPD2    H7 6378   4.702   2.670  15.044  1.2561 -1.1885  0.6594
  428TMC3    C1 6379   0.208   2.661  15.007 -0.7270  0.4807  0.0242
  428TMC3    C2 6380   0.206   2.545  15.074  0.5523  0.0477 -0.0862
  428TMC3    C3 6381   0.303   2.510  15.156  0.1734  0.4778  0.2809
  428TMC3    C4 6382   0.328   2.726  14.992  0.1963 -0.3633  0.2589
  428TMC3    C5 6383   0.437   2.688  15.067 -0.5434  0.4567  0.9565
  428TMC3    C6 6384   0.421   2.576  15.155  0.4702 -0.8052  0.2850
  428TMC3     C 6385   0.114   2.679  14.901  0.9313  0.6729 -0.0790
  428TMC3     O 6386   0.167   2.690  14.789 -0.1973 -1.0242 -0.5636
  428TMC3     H 6387   0.114   2.487  15.073  0.4920  0.1759 -1.5923
  428TMC3    H1 6388   0.333   2.820  14.937 -0.4437  0.0685  0.9288
  428TMC3    H2 6389   0.494   2.547  15.230  0.5390 -0.9353  0.1677
  428TMC3    C7 6390   0.535   2.779  15.110 -0.0202 -0.0200 -0.7796
  428TMC3    C8 6391   0.275   2.411  15.264 -0.0968 -0.2146  0.8654
  428TMC3    O1 6392   0.580   2.763  15.221  0.2599  0.8781 -0.3212
  428TMC3    O2 6393   0.160   2.423  15.308  0.2517 -0.2524 -0.2771
  429MPD2     C 6394   0.818   2.622  17.082  0.1824  0.1145  0.3906
  429MPD2    C1 6395   0.923   2.705  17.124  0.0087 -0.0144 -0.6690
  429MPD2    C2 6396   0.914   2.844  17.097 -0.1702 -0.3136 -0.5265
  429MPD2    C3 6397   0.802   2.887  17.029  0.2124  0.2577  0.4762
  429MPD2    C4 6398   0.693   2.807  16.994 -0.0519  0.9452  0.0262
  429MPD2    C5 6399   0.708   2.675  17.019  0.7645 -0.0895 -0.2768
  429MPD2     H 6400   0.993   2.917  17.113 -0.9013  0.5762 -1.0168
  429MPD2    H1 6401   0.603   2.839  16.943 -0.2907  1.4766  0.7744
  429MPD2    H2 6402   0.820   2.514  17.095 -0.2295  0.1173  0.4727
  429MPD2    H3 6403   0.630   2.608  16.987 -0.7033  1.0824  0.8302
  429MPD2     N 6404   0.804   3.026  17.005 -0.1492 -0.0467 -0.0324
  429MPD2    H5 6405   0.892   3.076  17.015 -0.0674 -0.2501  0.2731
  429MPD2    N1 6406   1.036   2.663  17.197 -0.9326  0.3830  0.0725
  429MPD2    H7 6407   1.105   2.736  17.212 -0.3595 -0.4955  1.8237
  430TMC3    C1 6408   0.742   3.247  16.957 -0.3636 -0.0901  0.6084
  430TMC3    C2 6409   0.709   3.299  16.833 -0.0871 -0.7669  0.0807
  430TMC3    C3 6410   0.797   3.372  16.762  0.0496 -0.0605  1.1765
  430TMC3    C4 6411   0.859   3.277  17.017  0.5938 -0.4379  0.8541
  430TMC3    C5 6412   0.946   3.344  16.941  0.1828 -0.0989  0.8607
  430TMC3    C6 6413   0.922   3.388  16.816 -0.4000  0.5690  0.2881
  430TMC3     C 6414   0.696   3.106  16.967 -0.3251 -0.2380 -0.2184
  430TMC3     O 6415   0.581   3.086  16.927 -0.0304  0.1876  0.7580
  430TMC3     H 6416   0.608   3.282  16.796  0.0333  0.7146 -0.9023
  430TMC3    H1 6417   0.879   3.245  17.118 -1.5068  0.4144  1.5314
  430TMC3    H2 6418   1.004   3.420  16.753 -0.1450 -4.3739 -1.8169
  430TMC3    C7 6419   1.069   3.271  16.953  0.1527 -0.4082 -0.6846
  430TMC3    C8 6420   0.802   3.324  16.629  0.0768 -0.4668  0.7154
  430TMC3    O1 6421   1.057   3.154  16.992  0.1022  0.0444 -0.0737
  430TMC3    O2 6422   0.736   3.227  16.605  0.6264  0.2225  0.0632
  431MPD2     C 6423   1.624   3.210  12.514  0.3840 -0.7308  1.5811
  431MPD2    C1 6424   1.747   3.203  12.449  0.0599  0.3148  0.0757
  431MPD2    C2 6425   1.770   3.103  12.358  0.7275 -0.3393 -0.5961
  431MPD2    C3 6426   1.682   3.006  12.329 -0.2828 -0.4031 -0.1155
  431MPD2    C4 6427   1.556   3.010  12.394 -0.0892 -0.2165  0.1270
  431MPD2    C5 6428   1.529   3.114  12.479 -1.0234  0.1241  0.0249
  431MPD2     H 6429   1.871   3.088  12.321  0.9743 -1.7609  0.6521
  431MPD2    H1 6430   1.475   2.942  12.372  0.4517 -0.8984  0.2257
  431MPD2    H2 6431   1.596   3.279  12.592 -1.6235 -0.2894  0.4713
  431MPD2    H3 6432   1.435   3.112  12.531 -1.6968 -0.7173 -1.2176
  431MPD2     N 6433   1.716   2.893  12.256 -0.3975 -0.1711  0.3746
  431MPD2    H5 6434   1.652   2.816  12.272 -0.1916 -0.0920  1.6006
  431MPD2    N1 6435   1.853   3.294  12.482  0.5045  0.1352 -0.0410
  431MPD2    H7 6436   1.933   3.276  12.423  1.1726 -1.4236  1.3339
  432TMC3    C1 6437   1.868   2.733  12.155 -0.9321  0.7026  0.5267
  432TMC3    C2 6438   1.955   2.702  12.060  0.2103 -0.4877  0.9421
  432TMC3    C3 6439   1.992   2.570  12.049 -0.3575  0.2300 -0.4681
  432TMC3    C4 6440   1.818   2.651  12.251  0.2296  0.3253  0.2148
  432TMC3    C5 6441   1.865   2.521  12.239 -0.0352  0.3607  0.5955
  432TMC3    C6 6442   1.941   2.469  12.131 -0.5610  0.2938 -0.7042
  432TMC3     C 6443   1.827   2.870  12.176 -0.5078  0.0957 -0.1490
  432TMC3     O 6444   1.903   2.954  12.129  0.8593  0.6019  0.0518
  432TMC3     H 6445   1.989   2.766  11.980 -1.7537  1.1565  1.4215
  432TMC3    H1 6446   1.748   2.680  12.328 -0.7933 -0.2678 -0.4868
  432TMC3    H2 6447   1.984   2.370  12.114 -3.1296 -0.6788 -1.4711
  432TMC3    C7 6448   1.861   2.446  12.362  0.5583  0.6127  0.3710
  432TMC3    C8 6449   2.087   2.530  11.951 -0.3343  0.4466 -0.4833
  432TMC3    O1 6450   1.903   2.330  12.353  0.0223 -0.0679 -0.4824
  432TMC3    O2 6451   2.065   2.425  11.887  0.2033 -0.1040 -0.2072
  433MPD2     C 6452   0.831   2.031  10.797 -0.5719 -0.0807  0.1007
  433MPD2    C1 6453   0.851   1.921  10.875 -0.1182 -0.3527 -0.1514
  433MPD2    C2 6454   0.889   1.941  11.004 -0.6502  0.0038  0.2432
  433MPD2    C3 6455   0.916   2.066  11.057 -0.1622  0.2669 -0.1765
  433MPD2    C4 6456   0.878   2.173  10.979  0.4268  0.0117  0.1503
  433MPD2    C5 6457   0.840   2.151  10.853 -0.3513  0.1937  0.3853
  433MPD2     H 6458   0.910   1.851  11.061 -0.6542 -0.3819 -0.3682
  433MPD2    H1 6459   0.884   2.274  11.018  1.5632 -0.5322  1.3970
  433MPD2    H2 6460   0.789   2.038  10.698  1.0563  0.6843 -0.5362
  433MPD2    H3 6461   0.816   2.238  10.793  1.0171  1.7012  2.0458
  433MPD2     N 6462   0.967   2.067  11.194 -0.0354  0.2426 -0.3006
  433MPD2    H5 6463   0.994   1.984  11.245 -0.4759  1.1387  1.3982
  433MPD2    N1 6464   0.845   1.789  10.833  1.0623  0.0820  0.1555
  433MPD2    H7 6465   0.832   1.707  10.891  1.7269  0.8474  1.4064
  434TMC3    C1 6466   0.859   1.609  10.676  0.3645 -0.7937  0.1625
  434TMC3    C2 6467   0.918   1.526  10.763  0.2949 -1.1305  0.1518
  434TMC3    C3 6468   0.942   1.393  10.727 -0.6492  0.0151  0.0309
  434TMC3    C4 6469   0.820   1.568  10.551 -0.1098  0.5571  0.0979
  434TMC3    C5 6470   0.826   1.433  10.526  0.2269  0.2870  0.0093
  434TMC3    C6 6471   0.901   1.349  10.606 -0.5444 -0.3774  1.1479
  434TMC3     C 6472   0.838   1.749  10.700  0.4073 -0.4447  0.1680
  434TMC3     O 6473   0.823   1.818  10.596  0.0022 -0.2085 -0.8053
  434TMC3     H 6474   0.956   1.557  10.860  0.7942 -0.2940 -0.3069
  434TMC3    H1 6475   0.766   1.631  10.482 -0.8206  0.0871  0.2258
  434TMC3    H2 6476   0.919   1.246  10.579 -2.1125 -0.7704  1.6133
  434TMC3    C7 6477   0.776   1.386  10.394 -0.5780  0.3848  0.2779
  434TMC3    C8 6478   0.988   1.308  10.831  0.5053  0.5955  0.0043
  434TMC3    O1 6479   0.791   1.454  10.291 -0.2529  0.2350  0.2292
  434TMC3    O2 6480   1.042   1.361  10.927 -0.5687  0.0076  0.0877
  435MPD2     C 6481   3.398   1.791  15.587 -0.5961  0.6767 -0.2208
  435MPD2    C1 6482   3.317   1.762  15.695  0.2122 -0.4696 -0.3468
  435MPD2    C2 6483   3.371   1.685  15.799  0.2243 -0.6701  0.0687
  435MPD2    C3 6484   3.485   1.616  15.787 -0.1105 -0.4885 -0.4244
  435MPD2    C4 6485   3.560   1.630  15.670  0.2970  0.1554 -0.2339
  435MPD2    C5 6486   3.524   1.731  15.592 -0.1309  0.2779 -0.0669
  435MPD2     H 6487   3.306   1.668  15.884  0.4434 -0.8297  0.2052
  435MPD2    H1 6488   3.656   1.581  15.658  0.5607  0.8752 -1.0242
  435MPD2    H2 6489   3.363   1.859  15.511 -0.3983  0.9003 -0.1106
  435MPD2    H3 6490   3.583   1.750  15.503 -1.3451 -1.0962 -1.1565
  435MPD2     N 6491   3.507   1.513  15.884  0.2275  0.0907  0.8225
  435MPD2    H5 6492   3.451   1.525  15.968  1.8065 -1.5987  2.1365
  435MPD2    N1 6493   3.190   1.818  15.708  1.0472  0.6687  0.7165
  435MPD2    H7 6494   3.146   1.807  15.799 -1.5539 -0.0265 -0.6253
  436TMC3    C1 6495   2.807   1.930  15.793 -0.5370  0.4785 -0.4155
  436TMC3    C2 6496   2.915   1.867  15.744 -0.5581  0.2750  0.1060
  436TMC3    C3 6497   2.999   1.949  15.677  0.3457  0.5837  0.8563
  436TMC3    C4 6498   2.766   2.052  15.743  0.3419  0.2605  0.4518
  436TMC3    C5 6499   2.846   2.122  15.653  0.5062 -0.0036  1.0047
  436TMC3    C6 6500   2.971   2.072  15.621  0.0015  0.1496 -0.0391
  436TMC3     C 6501   2.727   1.851  15.878 -0.7049  0.1760  0.2506
  436TMC3     O 6502   2.742   1.729  15.876 -0.4780  0.5889  0.1181
  436TMC3     H 6503   2.941   1.765  15.771  0.2318 -0.4371 -3.3968
  436TMC3    H1 6504   2.664   2.078  15.771  0.6067  1.3278  0.3959
  436TMC3    H2 6505   3.041   2.129  15.560  0.1038  0.1351  0.0664
  436TMC3    C7 6506   2.798   2.242  15.600  0.3710  0.0254 -0.0012
  436TMC3    C8 6507   3.116   1.887  15.613  0.2475  0.2620  0.3857
  436TMC3    O1 6508   2.696   2.289  15.652  0.5119 -0.3029  0.4507
  436TMC3    O2 6509   3.146   1.933  15.503 -0.4797  0.1915  0.4758
  437TMC3    C1 6510   1.206   3.659  13.002  0.4531 -0.1777 -0.5774
  437TMC3    C2 6511   1.122   3.754  12.954  0.8363  0.2266 -0.1624
  437TMC3    C3 6512   1.159   3.823  12.842  0.2209 -0.7567  0.0314
  437TMC3    C4 6513   1.321   3.618  12.930  0.4871 -0.6493 -0.1074
  437TMC3    C5 6514   1.352   3.690  12.814 -0.5082 -0.0491 -0.7811
  437TMC3    C6 6515   1.277   3.793  12.765 -0.0715 -0.0928 -0.6465
  437TMC3     C 6516   1.178   3.583  13.118 -1.1001  0.8497  0.3258
  437TMC3     O 6517   1.234   3.475  13.124 -0.2174  0.4292 -0.2513
  437TMC3     H 6518   1.030   3.786  13.003  0.9498  0.5072 -0.1303
  437TMC3    H1 6519   1.385   3.535  12.959  0.2443 -1.7439 -2.7475
  437TMC3    H2 6520   1.303   3.844  12.672 -1.7672 -0.2193 -1.1734
  437TMC3    C7 6521   1.487   3.661  12.757  0.4929 -0.2149 -0.1871
  437TMC3    C8 6522   1.069   3.930  12.792  0.8789 -0.2049 -0.0006
  437TMC3    O1 6523   1.560   3.588  12.823  0.7101 -0.0296 -0.2957
  437TMC3    O2 6524   0.953   3.928  12.834  0.4182 -0.2563  0.3649
  438MPD2     C 6525   3.753   4.021  16.447  0.6756 -0.0125 -0.4601
  438MPD2    C1 6526   3.815   3.964  16.562  0.5554  0.0698  0.5348
  438MPD2    C2 6527   3.771   4.004  16.681 -0.7089 -0.0389 -0.4426
  438MPD2    C3 6528   3.694   4.120  16.696 -0.2562 -0.2419  0.6109
  438MPD2    C4 6529   3.641   4.180  16.585  0.3953 -0.3799 -0.0838
  438MPD2    C5 6530   3.670   4.131  16.461  0.8379 -0.3639 -0.0617
  438MPD2     H 6531   3.808   3.958  16.772  1.0285 -2.4507 -2.3823
  438MPD2    H1 6532   3.584   4.272  16.589 -0.2699 -0.8756  1.7487
  438MPD2    H2 6533   3.776   3.990  16.346 -0.0636  0.1290 -0.6725
  438MPD2    H3 6534   3.637   4.189  16.375  0.7845  0.7507  0.7072
  438MPD2     N 6535   3.671   4.156  16.832  0.2261 -0.2550 -0.2348
  438MPD2    H5 6536   3.727   4.103  16.898 -0.2830  2.0508  2.0957
  438MPD2    N1 6537   3.928   3.882  16.554 -0.2585  0.5099  0.4524
  438MPD2    H7 6538   3.969   3.844  16.638  0.8085 -1.0867 -0.7840
  439TMC3    C1 6539   4.137   3.799  16.464  0.0688 -0.1151  0.7398
  439TMC3    C2 6540   4.192   3.708  16.372 -0.6710 -0.0146 -0.2213
  439TMC3    C3 6541   4.323   3.663  16.395  0.2649 -1.0134  0.1783
  439TMC3    C4 6542   4.205   3.860  16.565 -0.1146  0.7118  0.9318
  439TMC3    C5 6543   4.329   3.813  16.588 -0.3143 -0.5393  0.4175
  439TMC3    C6 6544   4.394   3.715  16.507 -0.1026  0.2480  0.0579
  439TMC3     C 6545   4.003   3.861  16.438 -1.0590 -0.3766 -0.3693
  439TMC3     O 6546   3.985   3.888  16.319  0.6258  0.3849  0.0952
  439TMC3     H 6547   4.122   3.677  16.296 -2.1677  3.1121 -0.0986
  439TMC3    H1 6548   4.156   3.937  16.623  0.9559  0.9721  1.4758
  439TMC3    H2 6549   4.494   3.679  16.529 -1.9078 -3.9703  1.3692
  439TMC3    C7 6550   4.414   3.864  16.697  0.0588 -0.3823  0.8554
  439TMC3    C8 6551   4.384   3.545  16.322 -0.8923 -0.2680 -0.0991
  439TMC3    O1 6552   4.511   3.797  16.724 -0.1454  0.8723 -0.0960
  439TMC3    O2 6553   4.490   3.497  16.361 -0.0946 -0.0220  0.5181
  440MPD2     C 6554   2.812   4.398  14.801 -0.4955  0.1554 -0.2880
  440MPD2    C1 6555   2.830   4.534  14.832  0.1684  0.2539  0.3008
  440MPD2    C2 6556   2.951   4.592  14.850 -0.1399 -0.0055  0.2526
  440MPD2    C3 6557   3.070   4.520  14.846 -0.1981 -0.4393  0.1799
  440MPD2    C4 6558   3.051   4.391  14.807  0.0283  0.7311  0.5684
  440MPD2    C5 6559   2.925   4.329  14.788  0.0859  0.4104 -0.0645
  440MPD2     H 6560   2.953   4.694  14.885  1.6560 -0.5842  1.8320
  440MPD2    H1 6561   3.139   4.329  14.793 -0.5249 -0.0304  0.4661
  440MPD2    H2 6562   2.719   4.344  14.788 -1.1345  1.0510  0.6100
  440MPD2    H3 6563   2.909   4.229  14.750  1.8661  0.4357 -0.9077
  440MPD2     N 6564   3.205   4.563  14.865 -0.3670  0.8826 -0.0361
  440MPD2    H5 6565   3.280   4.496  14.848  0.4504  1.3752  1.6121
  440MPD2    N1 6566   2.730   4.617  14.850  0.0567 -0.5839  0.5519
  440MPD2    H7 6567   2.752   4.712  14.877  0.4344 -0.6684  0.5435
  441TMC3    C1 6568   3.376   4.703  14.947 -0.3292 -0.0406  0.5702
  441TMC3    C2 6569   3.392   0.107  15.000  0.5601 -0.2414 -0.5032
  441TMC3    C3 6570   3.450   0.119  15.126  0.5715  0.3273 -0.2970
  441TMC3    C4 6571   3.419   4.597  15.017  0.3347  0.0177 -0.0065
  441TMC3    C5 6572   3.476   4.620  15.142 -0.2758 -0.6393 -0.1740
  441TMC3    C6 6573   3.503   0.022  15.200  0.1116 -0.0098  0.3445
  441TMC3     C 6574   3.236   4.691  14.897  0.0185 -0.0906  0.0526
  441TMC3     O 6575   3.171   0.066  14.909  0.2711  0.3134  0.3446
  441TMC3     H 6576   3.356   0.194  14.947 -1.7201  1.0790  3.2358
  441TMC3    H1 6577   3.388   4.498  14.983 -0.4010  0.3849 -0.4110
  441TMC3    H2 6578   3.524   0.018  15.306  0.6449  0.2361  0.2481
  441TMC3    C7 6579   3.424   4.527  15.238 -0.2475  0.6692 -0.4087
  441TMC3    C8 6580   3.365   0.198  15.211 -0.7127 -0.3599 -0.0958
  441TMC3    O1 6581   3.323   4.466  15.214  0.1101 -0.3007 -0.4283
  441TMC3    O2 6582   3.402   0.238  15.319 -0.4380  0.6960  0.1448
  442MPD2     C 6583   1.118   0.801  16.229  0.2938  0.3256 -0.0445
  442MPD2    C1 6584   1.072   0.752  16.349  0.6793  0.0568  0.2482
  442MPD2    C2 6585   1.047   0.616  16.354 -0.0538 -0.1357  0.6858
  442MPD2    C3 6586   1.068   0.527  16.242  0.4208  0.0757 -0.2914
  442MPD2    C4 6587   1.119   0.584  16.125 -0.4211  0.3421  0.2489
  442MPD2    C5 6588   1.150   0.723  16.123  0.2830 -0.2719  0.0368
  442MPD2     H 6589   0.993   0.580  16.441  0.0900 -0.8624  0.4789
  442MPD2    H1 6590   1.148   0.528  16.037 -0.4356 -0.8037  0.9753
  442MPD2    H2 6591   1.138   0.907  16.217  1.2851  0.0762 -0.5946
  442MPD2    H3 6592   1.202   0.758  16.035  0.6951  0.3705  0.5391
  442MPD2     N 6593   1.025   0.391  16.235  0.5148  0.0228  0.2817
  442MPD2    H5 6594   1.037   0.343  16.147  1.1894  0.1933  0.2836
  442MPD2    N1 6595   1.016   0.830  16.450 -0.7447  0.1095  0.4902
  442MPD2    H7 6596   0.960   0.781  16.520  0.3235 -1.1139  0.4752
  443TMC3    C1 6597   0.916   1.009  16.555  0.2681  0.1351 -1.0594
  443TMC3    C2 6598   0.811   1.077  16.502  0.8477 -0.0683  0.0206
  443TMC3    C3 6599   0.682   1.049  16.540  0.4896 -0.1544  0.3709
  443TMC3    C4 6600   0.903   0.937  16.669  0.3682  0.6670  0.1065
  443TMC3    C5 6601   0.778   0.923  16.722  0.2456 -0.3868  0.3369
  443TMC3    C6 6602   0.668   0.986  16.665  0.0067  0.2483 -0.8358
  443TMC3     C 6603   1.020   0.968  16.461  0.9553  0.1233 -0.3975
  443TMC3     O 6604   1.081   1.045  16.396  0.7227  0.2641 -0.4827
  443TMC3     H 6605   0.832   1.124  16.406  3.2597  1.4048  1.2707
  443TMC3    H1 6606   0.993   0.897  16.713 -0.1218  0.1864  0.6711
  443TMC3    H2 6607   0.566   0.959  16.688 -0.2523  1.3405 -0.7334
  443TMC3    C7 6608   0.753   0.844  16.835 -0.2845 -0.7100 -1.1720
  443TMC3    C8 6609   0.593   0.996  16.442 -0.6618  0.4740 -0.4191
  443TMC3    O1 6610   0.828   0.754  16.868 -0.0397 -0.1052  0.4031
  443TMC3    O2 6611   0.523   0.907  16.488 -0.1206 -0.3274  0.0300
  444MPD2     C 6612   0.992   0.246  17.059 -0.2301  0.0671 -0.7713
  444MPD2    C1 6613   0.963   0.116  17.109 -0.0580  0.1065 -0.6989
  444MPD2    C2 6614   0.996   0.009  17.039  0.1630 -0.4183 -0.5220
  444MPD2    C3 6615   1.065   0.020  16.920 -0.5493  0.5695 -0.2342
  444MPD2    C4 6616   1.089   0.143  16.868 -0.5248 -0.1164  0.9264
  444MPD2    C5 6617   1.050   0.253  16.933  0.5494  0.1914  0.5126
  444MPD2     H 6618   0.954   4.639  17.073 -0.0894 -0.3225 -0.5693
  444MPD2    H1 6619   1.136   0.165  16.773  1.0106 -2.8629  1.0456
  444MPD2    H2 6620   0.970   0.341  17.106 -2.0885 -0.1219 -1.2926
  444MPD2    H3 6621   1.072   0.350  16.890  0.7964  0.5073  1.3414
  444MPD2     N 6622   1.092   4.620  16.850  0.2444  0.0106  0.1591
  444MPD2    H5 6623   1.086   4.541  16.913  0.4154 -0.0688  0.0761
  444MPD2    N1 6624   0.882   0.107  17.221 -0.5147 -0.3859  1.3743
  444MPD2    H7 6625   0.872   0.014  17.261  0.0206 -1.0593 -0.0399
  445TMC3    C1 6626   1.149   4.469  16.694  0.0252 -0.1000  0.2155
  445TMC3    C2 6627   1.115   4.455  16.557  0.0920 -0.5268  0.1072
  445TMC3    C3 6628   1.170   4.351  16.496 -0.2429  0.1025 -0.4598
  445TMC3    C4 6629   1.233   4.389  16.762  0.1107 -0.3389 -0.0483
  445TMC3    C5 6630   1.282   4.284  16.690  0.4437  0.3461 -0.7249
  445TMC3    C6 6631   1.240   4.258  16.565  0.3375  0.0540 -0.2454
  445TMC3     C 6632   1.155   4.609  16.730  0.0060  0.3346  0.9748
  445TMC3     O 6633   1.207   4.696  16.659  0.1892 -0.0181 -0.4300
  445TMC3     H 6634   1.045   4.519  16.507 -0.7435 -1.5977 -0.0999
  445TMC3    H1 6635   1.256   4.397  16.867  0.1400  3.1649 -0.3043
  445TMC3    H2 6636   1.274   4.171  16.508  0.9777 -0.2470  0.6059
  445TMC3    C7 6637   1.408   4.208  16.717  0.1340  0.1525 -0.7396
  445TMC3    C8 6638   1.085   4.294  16.388  0.7084 -0.3462 -0.3181
  445TMC3    O1 6639   1.409   4.145  16.821  0.1229 -0.1158  0.0836
  445TMC3    O2 6640   1.024   4.374  16.323 -0.3822  0.0353 -0.7850
  446MPD2     C 6641   0.821   1.304  11.446 -0.2019  0.0855  0.0970
  446MPD2    C1 6642   0.813   1.289  11.311 -0.1954  0.3013  0.0253
  446MPD2    C2 6643   0.911   1.330  11.228 -0.1620 -0.0260  0.4730
  446MPD2    C3 6644   1.025   1.403  11.277 -0.3067  0.4143  0.2793
  446MPD2    C4 6645   1.024   1.423  11.415  0.3661 -0.1784  0.3473
  446MPD2    C5 6646   0.922   1.370  11.501 -0.8642 -0.1237  0.5232
  446MPD2     H 6647   0.903   1.306  11.123 -1.5692 -1.0292  0.8058
  446MPD2    H1 6648   1.099   1.476  11.472  0.5591 -1.5106  1.3160
  446MPD2    H2 6649   0.746   1.254  11.505 -0.4787 -0.9446 -1.1413
  446MPD2    H3 6650   0.934   1.381  11.608 -0.7182  0.7616  0.4170
  446MPD2     N 6651   1.137   1.430  11.194  0.1998 -0.4943 -0.2170
  446MPD2    H5 6652   1.121   1.411  11.096 -0.3445 -2.5697  0.2575
  446MPD2    N1 6653   0.707   1.228  11.240  0.4481  0.2919  0.4164
  446MPD2    H7 6654   0.723   1.216  11.141  0.4932 -1.2234  0.6133
  447TMC3    C1 6655   1.356   1.492  11.130  0.5238 -0.4865 -0.0744
  447TMC3    C2 6656   1.310   1.476  11.002 -0.0208  0.0377  0.3392
  447TMC3    C3 6657   1.401   1.433  10.911  0.4883  0.1555  0.5490
  447TMC3    C4 6658   1.480   1.453  11.166  0.0385 -0.2368  0.4887
  447TMC3    C5 6659   1.568   1.401  11.076 -0.3852  0.3273  0.6643
  447TMC3    C6 6660   1.532   1.395  10.942  0.1027  0.7334 -0.2124
  447TMC3     C 6661   1.261   1.475  11.237 -0.3343  0.0947  0.5384
  447TMC3     O 6662   1.297   1.495  11.353 -0.1468  0.0820 -0.6728
  447TMC3     H 6663   1.217   1.510  10.957  0.7274  1.6817  0.0152
  447TMC3    H1 6664   1.505   1.435  11.270  0.2324  0.4497  0.5646
  447TMC3    H2 6665   1.595   1.354  10.864  0.2515  0.3095  0.1288
  447TMC3    C7 6666   1.700   1.366  11.114 -0.2644 -0.4261 -0.1209
  447TMC3    C8 6667   1.345   1.399  10.784  0.5378 -0.2471  0.6529
  447TMC3    O1 6668   1.755   1.291  11.041 -0.1138 -0.0993  0.0142
  447TMC3    O2 6669   1.320   1.493  10.704  0.4195  0.0461 -0.5836
  448TMC3    C1 6670   3.826   0.679  16.346  0.2282  0.1124  0.5155
  448TMC3    C2 6671   3.904   0.628  16.243 -0.2780  0.8553 -0.1679
  448TMC3    C3 6672   3.974   0.513  16.265  0.1702 -0.2229  0.1921
  448TMC3    C4 6673   3.822   0.610  16.467 -0.0420 -0.6769  0.0947
  448TMC3    C5 6674   3.903   0.503  16.488 -0.8467  0.2770 -0.1863
  448TMC3    C6 6675   3.972   0.446  16.387  0.1878 -0.6671  0.1470
  448TMC3     C 6676   3.836   0.820  16.355  0.8720  0.2563 -0.7517
  448TMC3     O 6677   3.928   0.874  16.302  0.2271 -0.1854 -0.0690
  448TMC3     H 6678   3.905   0.679  16.147 -1.6307  0.9339 -0.1435
  448TMC3    H1 6679   3.764   0.649  16.550  1.8235  0.8226  0.7021
  448TMC3    H2 6680   4.020   0.351  16.406  2.3652  0.7679  1.8739
  448TMC3    C7 6681   3.937   0.467  16.630 -0.2917 -0.1164 -1.1065
  448TMC3    C8 6682   3.995   0.426  16.148 -0.4019 -0.0127  0.2499
  448TMC3    O1 6683   3.861   0.515  16.710  0.0806 -0.3664 -0.0979
  448TMC3    O2 6684   3.989   0.488  16.041  0.7226 -0.4978 -0.4138
  449MPD2     C 6685   0.106   0.149  12.614 -0.4120  0.3658  0.1592
  449MPD2    C1 6686   0.105   0.081  12.731  0.2142 -0.2927 -0.1559
  449MPD2    C2 6687   0.157   0.144  12.843  0.4604 -0.7303  0.2357
  449MPD2    C3 6688   0.203   0.273  12.829  0.2642  0.0187 -0.3034
  449MPD2    C4 6689   0.200   0.345  12.714  0.5270  0.3107  0.6960
  449MPD2    C5 6690   0.148   0.280  12.601 -0.8326 -1.0572  0.3600
  449MPD2     H 6691   0.168   0.095  12.939  0.7302  0.2802  0.7187
  449MPD2    H1 6692   0.237   0.446  12.700  0.5677  0.2319  0.2192
  449MPD2    H2 6693   0.080   0.109  12.516  1.2993  0.1448 -0.2117
  449MPD2    H3 6694   0.164   0.332  12.507  1.5554 -2.1819  0.1244
  449MPD2     N 6695   0.261   0.327  12.946  0.1786 -0.7646  0.5748
  449MPD2    H5 6696   0.241   0.273  13.030 -1.3960 -0.5742  0.3309
  449MPD2    N1 6697   0.063   4.674  12.753  0.6026  0.2775  0.4188
  449MPD2    H7 6698   0.068   4.638  12.848 -0.9741  3.4618  1.6916
  450TMC3    C1 6699   0.010   4.448  12.716  0.1787 -0.8023 -0.4826
  450TMC3    C2 6700   0.047   4.335  12.646 -0.0380  0.2031  0.3419
  450TMC3    C3 6701   0.073   4.218  12.715 -0.5359  0.1168 -0.0040
  450TMC3    C4 6702   4.724   4.442  12.853  0.1289 -0.6539  0.2590
  450TMC3    C5 6703   0.019   4.323  12.917 -0.1861  0.5983  0.0320
  450TMC3    C6 6704   0.058   4.210  12.850  0.6298 -0.0962  0.5367
  450TMC3     C 6705   0.038   4.576  12.655 -0.4977  0.0322 -0.3707
  450TMC3     O 6706   0.060   4.577  12.533  0.0312 -0.7955 -0.3265
  450TMC3     H 6707   0.076   4.338  12.542 -1.3042 -1.2388 -0.0560
  450TMC3    H1 6708   4.683   4.526  12.908  0.4438 -0.5713  0.3622
  450TMC3    H2 6709   0.086   4.119  12.901  3.8909  1.9484  2.4450
  450TMC3    C7 6710   0.045   4.320  13.068 -0.0520  0.3861  0.0611
  450TMC3    C8 6711   0.176   4.132  12.661  0.0279  0.2026  0.5175
  450TMC3    O1 6712   0.044   4.206  13.115 -0.1923 -0.7880 -0.7022
  450TMC3    O2 6713   0.149   4.057  12.567  1.0412 -0.2125 -0.5891
  451MPD2     C 6714   1.510   3.123   2.165  0.4080 -0.2547  0.7061
  451MPD2    C1 6715   1.560   3.197   2.054 -0.3801 -1.0749 -0.2275
  451MPD2    C2 6716   1.655   3.135   1.978  0.1758 -0.2769  0.8690
  451MPD2    C3 6717   1.689   3.002   1.994 -0.1061 -0.9416 -0.0048
  451MPD2    C4 6718   1.635   2.929   2.098  0.0825  0.4407 -0.0583
  451MPD2    C5 6719   1.555   2.992   2.183 -0.4752 -0.8337  0.1708
  451MPD2     H 6720   1.713   3.189   1.903  1.0261 -1.9200  0.3258
  451MPD2    H1 6721   1.657   2.824   2.116 -0.2727  0.2709 -0.5959
  451MPD2    H2 6722   1.431   3.154   2.233  0.4258 -3.0139  1.9888
  451MPD2    H3 6723   1.499   2.929   2.250  2.9137 -3.4634  0.5511
  451MPD2     N 6724   1.791   2.940   1.913  0.6443  0.4809  0.6408
  451MPD2    H5 6725   1.853   2.867   1.945 -0.1499 -0.0685  0.9319
  451MPD2    N1 6726   1.511   3.331   2.034 -0.4143 -1.4092  0.0561
  451MPD2    H7 6727   1.429   3.359   2.088  0.3236 -0.5184  0.7278
  452TMC3    C1 6728   1.946   2.910   1.736 -0.0890  0.6300  0.6441
  452TMC3    C2 6729   2.052   2.893   1.824 -0.3861  0.0941 -0.3926
  452TMC3    C3 6730   2.178   2.868   1.765 -0.0847  0.1252 -0.2937
  452TMC3    C4 6731   1.971   2.922   1.601 -0.5311 -0.6399 -0.3381
  452TMC3    C5 6732   2.087   2.887   1.549 -0.3219 -0.2035 -0.5550
  452TMC3    C6 6733   2.198   2.863   1.631 -0.2308 -0.2240  0.3239
  452TMC3     C 6734   1.830   2.988   1.785  0.2040  0.3936 -0.1102
  452TMC3     O 6735   1.764   3.060   1.706  0.1471  0.1434  0.3309
  452TMC3     H 6736   2.048   2.908   1.932  0.2191 -2.8280  0.0414
  452TMC3    H1 6737   1.887   2.941   1.536  0.4620  0.3378 -1.3439
  452TMC3    H2 6738   2.295   2.832   1.594  0.1888  0.3951  0.8866
  452TMC3    C7 6739   2.105   2.908   1.408  0.1577  0.2093 -0.0673
  452TMC3    C8 6740   2.299   2.885   1.837 -0.3459 -0.2594  0.2147
  452TMC3    O1 6741   2.004   2.922   1.341 -0.0849  0.1594  0.0020
  452TMC3    O2 6742   2.397   2.927   1.780 -0.0530  0.2932 -0.2285
  453TMC3    C1 6743   2.996   0.076  12.189 -0.1373 -0.7880 -0.1356
  453TMC3    C2 6744   2.891   0.038  12.266  0.3162 -0.2933 -0.3033
  453TMC3    C3 6745   2.788   4.699  12.213 -0.4069  0.5319  0.1125
  453TMC3    C4 6746   2.977   0.064  12.052 -0.4594  0.9489  0.8570
  453TMC3    C5 6747   2.868   0.004  11.989  0.4040  0.0889  0.8872
  453TMC3    C6 6748   2.771   4.696  12.080 -0.4963 -0.1628  0.3917
  453TMC3     C 6749   3.104   0.151  12.242 -0.6302 -0.2851 -0.1455
  453TMC3     O 6750   3.149   0.239  12.171 -0.1605 -0.0659  0.0608
  453TMC3     H 6751   2.888   0.052  12.374 -1.7199 -1.9546 -0.1404
  453TMC3    H1 6752   3.068   0.085  11.997 -0.4196 -0.3235  0.4573
  453TMC3    H2 6753   2.698   4.629  12.036 -2.3546  0.2330  2.9074
  453TMC3    C7 6754   2.893   4.624  11.889 -0.4230 -0.1640  0.0841
  453TMC3    C8 6755   2.766   4.577  12.278 -0.0128 -0.0025 -0.1611
  453TMC3    O1 6756   2.852   4.517  11.929  0.0646  0.2737 -0.3861
  453TMC3    O2 6757   2.730   4.578  12.396  0.2354  0.6197 -0.3220
  454MPD2     C 6758   1.819   4.541  16.343 -0.6326 -0.0516 -0.2182
  454MPD2    C1 6759   1.754   4.592  16.228  0.0758 -0.2177 -0.0688
  454MPD2    C2 6760   1.734   0.005  16.231 -0.4600  0.2866 -0.0619
  454MPD2    C3 6761   1.765   0.084  16.335 -0.0332  0.1308  0.7999
  454MPD2    C4 6762   1.831   0.033  16.440 -0.6420  0.2770  0.6805
  454MPD2    C5 6763   1.867   4.627  16.442  0.2302  0.1038  0.4338
  454MPD2     H 6764   1.682   0.046  16.145 -2.3133 -1.2336  0.3477
  454MPD2    H1 6765   1.868   0.104  16.514  0.4567  0.5514 -0.1238
  454MPD2    H2 6766   1.837   4.436  16.362  0.8046 -0.2474 -2.6352
  454MPD2    H3 6767   1.921   4.597  16.531  0.5510 -2.6874 -0.7068
  454MPD2     N 6768   1.719   0.218  16.350 -0.7069 -0.0863  0.4142
  454MPD2    H5 6769   1.735   0.254  16.443  1.8207  0.7678 -0.3436
  454MPD2    N1 6770   1.696   4.516  16.124 -0.1569  0.6241  0.5096
  454MPD2    H7 6771   1.649   4.568  16.051  0.3711 -0.2229 -0.4366
  455TMC3    C1 6772   1.528   0.345  16.346  0.1662  0.0891 -0.1500
  455TMC3    C2 6773   1.542   0.353  16.486 -0.8690 -0.5272  0.5047
  455TMC3    C3 6774   1.450   0.294  16.569 -0.0633  0.3869 -0.2567
  455TMC3    C4 6775   1.400   0.320  16.296 -0.1269  0.1261  0.3267
  455TMC3    C5 6776   1.312   0.247  16.380 -0.0928 -0.3792 -0.2196
  455TMC3    C6 6777   1.333   0.233  16.517  0.3571  0.2256  0.2774
  455TMC3     C 6778   1.628   0.280  16.267  0.2388 -0.4750 -0.0154
  455TMC3     O 6779   1.615   0.257  16.148  0.2398  0.1137 -0.0954
  455TMC3     H 6780   1.632   0.384  16.537 -0.8940 -0.3238  0.4242
  455TMC3    H1 6781   1.392   0.289  16.192  0.4133  0.2059  0.2612
  455TMC3    H2 6782   1.258   0.176  16.572  0.7392 -0.4812  0.0728
  455TMC3    C7 6783   1.275   0.123  16.316  0.3932 -0.4212  0.1216
  455TMC3    C8 6784   1.478   0.289  16.710  0.2109 -0.0991 -0.0075
  455TMC3    O1 6785   1.221   0.135  16.205  0.1674  0.4307 -0.2620
  455TMC3    O2 6786   1.557   0.375  16.753 -0.1360 -0.4610  0.2124
  456MPD2     C 6787   4.533   3.751  16.109  0.5299 -0.4080  0.2370
  456MPD2    C1 6788   4.576   3.834  16.210 -0.5601 -0.0829  0.7128
  456MPD2    C2 6789   4.498   3.937  16.259 -0.0067 -0.8642  0.0698
  456MPD2    C3 6790   4.378   3.965  16.195 -0.1850  0.1546 -0.9056
  456MPD2    C4 6791   4.334   3.885  16.088 -0.1329 -0.7831  0.4730
  456MPD2    C5 6792   4.416   3.780  16.051 -0.7508 -0.3543 -0.6652
  456MPD2     H 6793   4.524   3.993  16.349 -2.0754 -1.9048  1.3071
  456MPD2    H1 6794   4.244   3.907  16.032  0.3037  2.0096  0.8827
  456MPD2    H2 6795   4.595   3.668  16.077 -0.0338 -0.9954  0.6761
  456MPD2    H3 6796   4.393   3.707  15.973 -0.4047 -0.5054 -0.6287
  456MPD2     N 6797   4.301   4.077  16.235  0.1399  0.0792  0.5438
  456MPD2    H5 6798   4.333   4.119  16.321  2.7640  1.1260 -0.9410
  456MPD2    N1 6799   4.692   3.784  16.272 -0.5537  0.1685  0.1833
  456MPD2    H7 6800   0.009   3.695  16.247 -3.0974 -0.7895 -0.4824
  457TMC3    C1 6801   4.123   4.218  16.266  0.6854  0.3283  1.1714
  457TMC3    C2 6802   4.037   4.303  16.202  0.0376 -0.3575  0.0052
  457TMC3    C3 6803   3.940   4.362  16.281 -0.3852 -0.0226  0.3660
  457TMC3    C4 6804   4.107   4.191  16.399  0.3854  0.2354  0.3499
  457TMC3    C5 6805   4.009   4.243  16.478  0.0671 -0.2312 -0.2562
  457TMC3    C6 6806   3.927   4.336  16.417 -0.0443 -0.3985 -0.1592
  457TMC3     C 6807   4.180   4.110  16.185  0.2091  0.4709  0.2040
  457TMC3     O 6808   4.137   4.104  16.071  0.2963  0.1911  0.4312
  457TMC3     H 6809   4.038   4.313  16.094  2.1947  1.5629  0.1933
  457TMC3    H1 6810   4.171   4.117  16.445 -0.3051  0.4775  1.7153
  457TMC3    H2 6811   3.850   4.388  16.473  1.4075  0.3155  1.1555
  457TMC3    C7 6812   4.030   4.244  16.622 -0.3766  0.0524 -0.2486
  457TMC3    C8 6813   3.946   4.500  16.265 -0.7811  0.1084 -0.2637
  457TMC3    O1 6814   4.126   4.180  16.662  0.4540  0.4301 -0.2863
  457TMC3    O2 6815   3.979   4.570  16.362  0.4036 -0.0038  0.4871
  458MPD2     C 6816   1.901   3.913  12.588  0.1466  0.0230  0.9142
  458MPD2    C1 6817   1.881   3.847  12.706  0.4611 -0.0143  0.2505
  458MPD2    C2 6818   1.759   3.778  12.725  0.4001  0.6885  0.8128
  458MPD2    C3 6819   1.667   3.772  12.626 -0.1720  0.5044 -0.8299
  458MPD2    C4 6820   1.691   3.838  12.510  0.2223  0.2553 -0.2627
  458MPD2    C5 6821   1.806   3.907  12.491  0.4963  0.4845  0.6481
  458MPD2     H 6822   1.738   3.735  12.822 -0.1342 -2.0630 -0.5042
  458MPD2    H1 6823   1.608   3.847  12.441  0.1830 -3.7457 -0.7492
  458MPD2    H2 6824   1.990   3.964  12.553 -1.5161  1.8940 -0.5819
  458MPD2    H3 6825   1.821   3.949  12.393  0.2949  0.4869  0.6171
  458MPD2     N 6826   1.531   3.745  12.658 -0.2857 -0.1649 -0.2037
  458MPD2    H5 6827   1.458   3.778  12.595 -0.2325 -1.6971 -1.0660
  458MPD2    N1 6828   1.984   3.876  12.798  0.4614 -0.0433 -0.2603
  458MPD2    H7 6829   2.064   3.927  12.763  1.6563 -1.1226  0.8979
  459TMC3    C1 6830   2.109   3.854  13.002 -0.4865 -0.1279  0.0764
  459TMC3    C2 6831   2.206   3.952  12.977 -0.2746 -0.6524  0.2869
  459TMC3    C3 6832   2.315   3.958  13.054  0.5165 -0.7782  0.6155
  459TMC3    C4 6833   2.112   3.776  13.117  0.1115 -0.6327  0.2500
  459TMC3    C5 6834   2.229   3.793  13.193  0.3867 -0.0092 -0.3544
  459TMC3    C6 6835   2.330   3.881  13.170  0.2223  0.0138 -0.2274
  459TMC3     C 6836   1.986   3.831  12.933  0.6191 -0.1479 -0.5653
  459TMC3     O 6837   1.905   3.762  12.990 -0.2974  0.2236 -0.1760
  459TMC3     H 6838   2.203   3.998  12.879  0.8467 -0.0682  0.5157
  459TMC3    H1 6839   2.047   3.690  13.132  0.8498 -1.1055  0.7229
  459TMC3    H2 6840   2.414   3.896  13.236 -1.3247  2.3280  1.2251
  459TMC3    C7 6841   2.249   3.707  13.309  0.6085 -0.5578  0.1838
  459TMC3    C8 6842   2.412   4.060  13.013  0.3627 -0.3817 -0.2568
  459TMC3    O1 6843   2.367   3.690  13.348  0.0199 -0.9240 -0.7046
  459TMC3    O2 6844   2.527   4.058  13.054  0.5516 -0.2725 -0.4694
  460MPD2     C 6845   1.251   1.054  10.677 -0.9617 -0.2321 -0.4633
  460MPD2    C1 6846   1.260   1.191  10.665 -1.1892 -0.7304 -0.2442
  460MPD2    C2 6847   1.204   1.254  10.554 -0.1373  0.4838 -0.1857
  460MPD2    C3 6848   1.152   1.175  10.451 -0.0458  0.6044  0.3511
  460MPD2    C4 6849   1.138   1.037  10.472 -0.6896 -0.1504 -0.3584
  460MPD2    C5 6850   1.183   0.977  10.586 -0.0787  0.4047  0.3219
  460MPD2     H 6851   1.207   1.361  10.539  0.2633  0.7371  1.6836
  460MPD2    H1 6852   1.076   0.984  10.400  0.7322  0.4824 -2.0439
  460MPD2    H2 6853   1.283   1.005  10.768 -0.7754  1.6058  0.4582
  460MPD2    H3 6854   1.167   0.871  10.605 -0.5479  0.6085  1.0442
  460MPD2     N 6855   1.109   1.241  10.331 -0.2931 -0.1760 -1.2413
  460MPD2    H5 6856   1.108   1.342  10.331  0.8004 -0.1632 -1.2430
  460MPD2    N1 6857   1.324   1.260  10.770  0.2361  0.1983 -0.1364
  460MPD2    H7 6858   1.364   1.206  10.846  1.4433 -0.4724 -1.2526
  461TMC3    C1 6859   1.049   1.255  10.101 -0.3615  0.2515  0.2774
  461TMC3    C2 6860   1.034   1.186   9.986 -0.2170 -0.1903  0.2073
  461TMC3    C3 6861   1.003   1.255   9.880  1.3302 -0.0284 -1.1163
  461TMC3    C4 6862   1.022   1.380  10.114 -0.6142 -0.3901  0.7335
  461TMC3    C5 6863   0.970   1.449  10.002 -0.3010  0.0075  0.6773
  461TMC3    C6 6864   0.975   1.388   9.877 -0.1665  0.2758  0.1319
  461TMC3     C 6865   1.099   1.177  10.212  0.2167 -0.4127  0.2480
  461TMC3     O 6866   1.141   1.062  10.195  0.3167  0.6248 -0.0127
  461TMC3     H 6867   1.070   1.086   9.966 -0.1178 -0.2729  0.7897
  461TMC3    H1 6868   1.011   1.432  10.209  0.9339  2.0738 -0.4559
  461TMC3    H2 6869   0.937   1.434   9.787 -0.9726  0.2040  0.4310
  461TMC3    C7 6870   0.954   1.589  10.000 -0.0260  0.3203 -0.3182
  461TMC3    C8 6871   0.987   1.177   9.760 -0.2435 -0.4847 -0.3307
  461TMC3    O1 6872   0.952   1.648   9.888  0.6485  0.4173 -0.2043
  461TMC3    O2 6873   1.054   1.073   9.745 -0.5464  0.2842  0.0958
  462TMC3    C1 6874   1.711   2.356   0.466 -0.2185 -0.6924 -0.0663
  462TMC3    C2 6875   1.815   2.279   0.423 -0.1189  0.3439  0.2543
  462TMC3    C3 6876   1.833   2.247   0.293  0.3337  0.1561 -0.1180
  462TMC3    C4 6877   1.625   2.419   0.384 -0.4041  0.4759  0.1632
  462TMC3    C5 6878   1.632   2.376   0.254 -0.1925 -0.1204 -0.2073
  462TMC3    C6 6879   1.732   2.292   0.208  0.2535  0.1545  0.2858
  462TMC3     C 6880   1.695   2.388   0.605 -0.3819 -0.4153 -0.1545
  462TMC3     O 6881   1.703   2.291   0.679  0.1306  0.5936  0.2498
  462TMC3     H 6882   1.893   2.246   0.491 -0.3450 -0.3600  0.1719
  462TMC3    H1 6883   1.539   2.467   0.431 -0.2342  1.2551 -0.3283
  462TMC3    H2 6884   1.739   2.274   0.102  0.8837 -2.1479  0.7145
  462TMC3    C7 6885   1.511   2.397   0.177  0.2228 -0.1861  0.1412
  462TMC3    C8 6886   1.951   2.163   0.249 -0.4117  0.7486  0.6821
  462TMC3    O1 6887   1.487   2.316   0.091  0.0335 -0.4581  0.6171
  462TMC3    O2 6888   2.026   2.115   0.337  0.0887 -0.0180 -0.3278
  463MPD2     C 6889   2.279   2.364   2.363 -0.0584  0.2147 -0.2099
  463MPD2    C1 6890   2.237   2.396   2.238  1.1502 -0.5689 -0.6721
  463MPD2    C2 6891   2.319   2.461   2.149  0.2494  0.0021 -0.5188
  463MPD2    C3 6892   2.454   2.492   2.185 -0.1114  0.7148 -0.0582
  463MPD2    C4 6893   2.492   2.466   2.315  0.1903 -0.0850  0.8779
  463MPD2    C5 6894   2.406   2.400   2.404 -0.3277  0.5494  0.0843
  463MPD2     H 6895   2.284   2.486   2.050 -1.6971  1.2044  0.4591
  463MPD2    H1 6896   2.590   2.502   2.346 -0.5011  1.1855  1.5782
  463MPD2    H2 6897   2.219   2.312   2.436  0.4188 -0.5283 -0.3492
  463MPD2    H3 6898   2.434   2.377   2.506  0.2401  0.8218 -0.0052
  463MPD2     N 6899   2.542   2.556   2.091  0.4860  0.5787  0.1507
  463MPD2    H5 6900   2.636   2.583   2.119  1.5842 -1.1892 -1.7888
  463MPD2    N1 6901   2.112   2.358   2.182 -0.0211 -0.7343  0.5802
  463MPD2    H7 6902   2.099   2.390   2.087  0.1342 -0.9217  0.4955
  464TMC3    C1 6903   1.928   2.208   2.153  0.3480  0.1760 -0.0952
  464TMC3    C2 6904   1.929   2.224   2.015  0.9437 -0.4144 -0.1118
  464TMC3    C3 6905   1.825   2.195   1.945 -0.0503 -0.8636 -0.2258
  464TMC3    C4 6906   1.810   2.160   2.215  0.3055  0.0293  0.1547
  464TMC3    C5 6907   1.707   2.136   2.136 -0.0798 -0.3026 -0.1822
  464TMC3    C6 6908   1.707   2.151   2.002  0.0673 -0.0924 -0.2554
  464TMC3     C 6909   2.034   2.251   2.235 -0.1450  0.3811 -0.8495
  464TMC3     O 6910   2.035   2.198   2.348  0.3531 -0.1863  0.1977
  464TMC3     H 6911   2.021   2.247   1.962  1.0581 -0.3606  0.1101
  464TMC3    H1 6912   1.800   2.148   2.322  0.1420 -0.7934  0.0455
  464TMC3    H2 6913   1.618   2.116   1.951 -1.5452  0.6540  2.0485
  464TMC3    C7 6914   1.588   2.074   2.205 -0.8377  0.1154 -0.2072
  464TMC3    C8 6915   1.821   2.220   1.808  0.1389 -0.5871  0.9557
  464TMC3    O1 6916   1.559   2.109   2.322  0.6578 -0.2411 -0.3336
  464TMC3    O2 6917   1.927   2.228   1.744  0.1789  0.0146  0.5118
  465MPD2     C 6918   3.659   4.711  16.275 -0.3522 -0.3434 -0.3272
  465MPD2    C1 6919   3.635   4.666  16.405 -0.1947 -0.0669 -0.1793
  465MPD2    C2 6920   3.536   4.566  16.414  0.1199 -0.5313  0.5170
  465MPD2    C3 6921   3.473   4.511  16.306 -0.8979  0.5064  0.2184
  465MPD2    C4 6922   3.512   4.549  16.179  0.0775  1.1571  0.7722
  465MPD2    C5 6923   3.610   4.646  16.171 -0.4314  0.0696  0.2166
  465MPD2     H 6924   3.501   4.534  16.512  0.9282  1.6256  1.5055
  465MPD2    H1 6925   3.473   4.501  16.090  2.7283 -0.8167  0.6765
  465MPD2    H2 6926   3.712   0.079  16.254 -2.2254  1.1300  1.3264
  465MPD2    H3 6927   3.634   4.688  16.073 -1.1631  1.0650  0.4736
  465MPD2     N 6928   3.359   4.424  16.315 -0.0283 -0.0481  0.2596
  465MPD2    H5 6929   3.316   4.407  16.225  0.6302 -0.8624  0.1025
  465MPD2    N1 6930   3.683   0.010  16.520  0.5377 -0.2349  0.1559
  465MPD2    H7 6931   3.666   4.685  16.607 -1.8909 -0.0289 -0.2017
  466TMC3    C1 6932   2.953   4.318  16.495 -0.4396 -0.7381  0.5999
  466TMC3    C2 6933   2.893   4.395  16.396  0.9120  0.1450 -0.3030
  466TMC3    C3 6934   2.970   4.421  16.287  0.5406 -0.2852 -0.9304
  466TMC3    C4 6935   3.088   4.288  16.495 -0.3312 -0.1080  0.2342
  466TMC3    C5 6936   3.161   4.336  16.386 -0.5260 -0.7058 -0.2670
  466TMC3    C6 6937   3.103   4.390  16.273  0.1034  0.5572 -0.2965
  466TMC3     C 6938   2.888   4.305  16.620  0.4369 -0.3021 -0.7669
  466TMC3     O 6939   2.954   4.291  16.723  0.4566  0.5988  0.1466
  466TMC3     H 6940   2.786   4.415  16.391  0.6606 -1.2455 -0.3186
  466TMC3    H1 6941   3.139   4.233  16.573  0.5231 -0.5133 -0.6078
  466TMC3    H2 6942   3.159   4.435  16.192  1.5073 -1.5691 -0.5056
  466TMC3    C7 6943   3.285   4.387  16.428  0.3832 -0.2369  0.3671
  466TMC3    C8 6944   2.920   4.539  16.217  0.0482 -0.3690  0.1288
  466TMC3    O1 6945   3.298   4.429  16.542  0.0379  0.1065 -0.4345
  466TMC3    O2 6946   2.942   4.537  16.095  0.0967  0.0296 -0.0622
  467TMC3    C1 6947   4.479   3.418  13.736  0.2814 -0.2001 -0.4263
  467TMC3    C2 6948   4.388   3.488  13.663  0.0118 -0.2828 -0.5550
  467TMC3    C3 6949   4.263   3.426  13.650  0.8299 -1.1144  0.2699
  467TMC3    C4 6950   4.451   3.294  13.780 -0.0608  0.2246  0.4758
  467TMC3    C5 6951   4.335   3.236  13.764 -0.6052 -0.3944  0.4197
  467TMC3    C6 6952   4.241   3.299  13.703  0.0788  0.0262 -0.9531
  467TMC3     C 6953   4.596   3.481  13.791 -0.0950 -0.2932 -0.0429
  467TMC3     O 6954   4.671   3.430  13.871 -0.1490  0.1241  0.8407
  467TMC3     H 6955   4.411   3.579  13.610  2.0664  0.8286  2.2214
  467TMC3    H1 6956   4.521   3.240  13.843 -0.6711 -1.2599 -0.1153
  467TMC3    H2 6957   4.147   3.246  13.693  0.5115 -0.9198 -0.0272
  467TMC3    C7 6958   4.317   3.110  13.834 -0.9716  0.0739 -0.4258
  467TMC3    C8 6959   4.177   3.490  13.547 -0.5540  0.2390 -0.1324
  467TMC3    O1 6960   4.419   3.048  13.849 -0.0861 -0.4592  0.0698
  467TMC3    O2 6961   4.175   3.609  13.535 -0.4208  0.2799 -0.2610
  468MPD2     C 6962   3.627   1.189  10.359  0.2319 -0.8838 -0.0540
  468MPD2    C1 6963   3.620   1.183  10.499  0.2323 -0.4890  0.2365
  468MPD2    C2 6964   3.600   1.061  10.563  0.6772 -0.4278  0.0399
  468MPD2    C3 6965   3.589   0.942  10.493  0.1606 -0.1029  0.5293
  468MPD2    C4 6966   3.608   0.952  10.356 -0.1831  0.0952  0.1514
  468MPD2    C5 6967   3.624   1.072  10.288  0.4587  0.0324 -0.1155
  468MPD2     H 6968   3.611   1.057  10.671  1.3376 -0.4169 -0.0268
  468MPD2    H1 6969   3.599   0.862  10.296  4.1022 -0.1677 -0.0933
  468MPD2    H2 6970   3.643   1.284  10.307  0.9877 -1.2601 -0.5233
  468MPD2    H3 6971   3.625   1.076  10.180  3.3751 -2.5960 -0.2088
  468MPD2     N 6972   3.575   0.815  10.559 -0.0931  0.0541 -0.5816
  468MPD2    H5 6973   3.583   0.725  10.513 -0.6548  0.1093 -0.7898
  468MPD2    N1 6974   3.621   1.293  10.589  0.4945  0.4678  0.5890
  468MPD2    H7 6975   3.630   1.286  10.690 -3.9799 -1.2990  0.8863
  469TMC3    C1 6976   3.609   1.521  10.651 -0.3787  0.5847 -0.6876
  469TMC3    C2 6977   3.707   1.509  10.740  0.0670 -0.0843 -0.5966
  469TMC3    C3 6978   3.705   1.584  10.852 -0.4037 -0.2672  0.4706
  469TMC3    C4 6979   3.507   1.613  10.662  0.2344  0.0687  0.1760
  469TMC3    C5 6980   3.508   1.684  10.784 -0.5955  0.0297 -0.1137
  469TMC3    C6 6981   3.610   1.680  10.878  0.2641 -0.0363  0.3996
  469TMC3     C 6982   3.595   1.419  10.545  0.1274 -0.1904  0.5638
  469TMC3     O 6983   3.551   1.464  10.436  0.4391  0.1417 -0.4130
  469TMC3     H 6984   3.793   1.445  10.719  0.1787  0.0551 -0.5633
  469TMC3    H1 6985   3.424   1.618  10.593  0.8846  0.4467 -0.5838
  469TMC3    H2 6986   3.614   1.759  10.952  1.0907  1.7444 -1.5848
  469TMC3    C7 6987   3.395   1.768  10.809  0.1666  0.1681  0.1946
  469TMC3    C8 6988   3.808   1.550  10.952 -0.2014  0.5260 -0.1149
  469TMC3    O1 6989   3.321   1.789  10.714  0.0570  0.2678  0.4718
  469TMC3    O2 6990   3.887   1.463  10.924 -0.4223 -0.5493 -0.2471
  470TMC3    C1 6991   0.747   3.094   1.060 -0.6074 -0.2682 -0.0663
  470TMC3    C2 6992   0.754   3.222   1.104  0.4169  0.3495 -0.4545
  470TMC3    C3 6993   0.742   3.236   1.238 -0.1404 -0.2124 -0.3553
  470TMC3    C4 6994   0.749   2.982   1.143 -0.3740  0.3452 -1.3586
  470TMC3    C5 6995   0.732   2.996   1.278 -0.1369 -0.4184 -0.2273
  470TMC3    C6 6996   0.725   3.126   1.321  0.0790  0.2364 -0.1688
  470TMC3     C 6997   0.747   3.077   0.920  0.3005 -0.3041  0.0247
  470TMC3     O 6998   0.705   3.173   0.860 -0.2185 -0.4145 -0.4212
  470TMC3     H 6999   0.760   3.310   1.041 -1.7779  1.1260  0.4443
  470TMC3    H1 7000   0.765   2.878   1.116  2.2399 -0.3851  3.1686
  470TMC3    H2 7001   0.711   3.141   1.427  2.1485 -0.5129  0.2113
  470TMC3    C7 7002   0.661   2.889   1.341 -0.5969 -0.5680 -0.0567
  470TMC3    C8 7003   0.648   3.345   1.277  0.4283  0.5229  0.1734
  470TMC3    O1 7004   0.688   2.774   1.306 -0.5469 -0.2149 -0.4857
  470TMC3    O2 7005   0.639   3.368   1.396  0.3783 -0.0811 -0.5324
  471MPD2     C 7006   0.939   3.354  16.135  0.3444 -0.1554  0.0395
  471MPD2    C1 7007   0.855   3.265  16.203 -0.2939  0.0532  0.6579
  471MPD2    C2 7008   0.853   3.274  16.342 -0.7510  0.3902 -0.4609
  471MPD2    C3 7009   0.914   3.372  16.407  0.1572 -0.5696 -0.1193
  471MPD2    C4 7010   1.004   3.458  16.343 -0.2224 -0.4407 -0.0356
  471MPD2    C5 7011   1.009   3.453  16.203 -0.5818 -0.3595  0.3041
  471MPD2     H 7012   0.800   3.195  16.395  0.0306 -1.2535 -2.1031
  471MPD2    H1 7013   1.055   3.538  16.395  0.2236 -0.1776 -0.8781
  471MPD2    H2 7014   0.943   3.351  16.026 -0.7674  1.1267 -0.0387
  471MPD2    H3 7015   1.090   3.510  16.158 -0.4076  0.2782  1.4219
  471MPD2     N 7016   0.889   3.390  16.548 -0.6999  0.8774 -0.1858
  471MPD2    H5 7017   0.949   3.462  16.586 -2.1093  1.5565  0.7597
  471MPD2    N1 7018   0.765   3.179  16.136 -0.4954  0.1243  0.4806
  471MPD2    H7 7019   0.694   3.132  16.191 -1.2025  0.8744  0.2097
  472TMC3    C1 7020   0.678   3.030  15.973  0.3529  0.1505  0.1441
  472TMC3    C2 7021   0.552   3.059  15.943  0.3866 -0.3808 -0.1876
  472TMC3    C3 7022   0.456   2.974  15.985  0.0981 -0.3148 -0.5662
  472TMC3    C4 7023   0.713   2.933  16.063  0.3825  0.0144 -0.2284
  472TMC3    C5 7024   0.611   2.857  16.110 -0.7652 -0.4217 -0.5844
  472TMC3    C6 7025   0.482   2.870  16.065  0.7583  0.0601 -0.0963
  472TMC3     C 7026   0.759   3.150  16.001 -0.3716 -0.7230 -0.1401
  472TMC3     O 7027   0.850   3.175  15.924 -0.2916 -0.4789  0.5619
  472TMC3     H 7028   0.527   3.144  15.880  1.0634  0.1596  0.2609
  472TMC3    H1 7029   0.813   2.903  16.090  0.2551 -0.8650 -0.7165
  472TMC3    H2 7030   0.408   2.798  16.100  2.4580 -2.8990 -2.6743
  472TMC3    C7 7031   0.642   2.776  16.221 -0.1693  0.4809 -0.0621
  472TMC3    C8 7032   0.327   2.987  15.925 -0.5467  0.8213 -0.8659
  472TMC3    O1 7033   0.746   2.711  16.219  0.8643  0.2729  0.2779
  472TMC3    O2 7034   0.321   3.060  15.828 -0.0553  0.7341  0.4191
  473MPD2     C 7035   1.194   1.067  14.011 -0.9739 -0.0853  0.4382
  473MPD2    C1 7036   1.101   1.155  14.063  0.4212  0.1100  0.1033
  473MPD2    C2 7037   1.143   1.242  14.161  0.4360  0.6830  0.1059
  473MPD2    C3 7038   1.277   1.253  14.199  0.3458 -0.9091 -0.0757
  473MPD2    C4 7039   1.367   1.166  14.147 -0.2013 -0.2193 -0.8003
  473MPD2    C5 7040   1.326   1.073  14.053  0.3913 -0.5957 -0.1919
  473MPD2     H 7041   1.070   1.306  14.209  0.4345  0.5104  0.3314
  473MPD2    H1 7042   1.471   1.175  14.173 -0.4294  2.5886 -0.9588
  473MPD2    H2 7043   1.164   0.983  13.949 -0.6570  1.1949 -1.4525
  473MPD2    H3 7044   1.397   1.007  14.004  0.9098 -0.1621 -0.0329
  473MPD2     N 7045   1.319   1.348  14.293  0.6846 -0.2169 -0.4215
  473MPD2    H5 7046   1.410   1.330  14.336  1.4514  2.9456 -0.7112
  473MPD2    N1 7047   0.966   1.152  14.023  0.1685 -0.4344 -0.0804
  473MPD2    H7 7048   0.905   1.224  14.060  0.8266 -0.0159  0.1823
  474TMC3    C1 7049   1.311   1.518  14.460  0.4152  0.1004  0.1316
  474TMC3    C2 7050   1.232   1.609  14.536 -0.4927 -0.1399  0.2179
  474TMC3    C3 7051   1.277   1.659  14.658 -0.7319  0.3102 -0.1372
  474TMC3    C4 7052   1.436   1.498  14.503 -0.3974  0.3025  0.1592
  474TMC3    C5 7053   1.481   1.565  14.614 -0.1083 -0.4758 -0.4629
  474TMC3    C6 7054   1.406   1.645  14.699  0.0371  0.4805  0.5254
  474TMC3     C 7055   1.243   1.442  14.359 -0.1127  0.6410  0.1698
  474TMC3     O 7056   1.128   1.468  14.337 -0.5244 -0.3252 -0.8384
  474TMC3     H 7057   1.130   1.629  14.504  0.4991  1.4876 -1.9448
  474TMC3    H1 7058   1.500   1.429  14.451 -0.2600  1.1212 -0.7589
  474TMC3    H2 7059   1.441   1.704  14.783 -0.0167  1.4887 -0.1760
  474TMC3    C7 7060   1.625   1.567  14.613 -0.4424  0.4688 -0.3438
  474TMC3    C8 7061   1.238   1.801  14.674 -0.8226 -0.5231 -0.7368
  474TMC3    O1 7062   1.689   1.554  14.504 -0.7072 -0.2943  0.1257
  474TMC3    O2 7063   1.268   1.858  14.778 -0.3308  0.1716 -0.1262
  475MPD2     C 7064   3.979   4.140  10.692  0.1713  0.4364  0.2143
  475MPD2    C1 7065   4.004   4.051  10.590  0.3517 -0.2865 -0.2236
  475MPD2    C2 7066   3.897   4.010  10.514 -0.3514 -0.6664 -0.1504
  475MPD2    C3 7067   3.761   4.033  10.553  0.3044  0.6290 -0.2800
  475MPD2    C4 7068   3.739   4.121  10.661 -0.5630 -0.2368  0.9221
  475MPD2    C5 7069   3.847   4.175  10.719  0.9783  0.0271 -0.4253
  475MPD2     H 7070   3.918   3.960  10.421  0.9944  1.2376 -0.8712
  475MPD2    H1 7071   3.640   4.138  10.701 -1.3271 -0.2678 -0.9360
  475MPD2    H2 7072   4.059   4.165  10.759  0.6999 -1.6313  0.3742
  475MPD2    H3 7073   3.819   4.230  10.809  0.8151  0.6160 -0.8387
  475MPD2     N 7074   3.654   3.992  10.475  0.2196 -0.5660  0.4509
  475MPD2    H5 7075   3.674   3.935  10.393 -1.6599 -3.5202  2.0867
  475MPD2    N1 7076   4.136   4.025  10.559  0.5161 -0.1655 -0.5461
  475MPD2    H7 7077   4.209   4.079  10.605  0.1252 -0.2464  0.1717
  476TMC3    C1 7078   4.322   3.928  10.436  0.2179  0.3255  0.6919
  476TMC3    C2 7079   4.357   3.863  10.319 -0.5088  1.2371 -0.1864
  476TMC3    C3 7080   4.486   3.856  10.289 -0.1273  0.6520  0.1123
  476TMC3    C4 7081   4.407   4.001  10.509  0.0208 -0.1554  0.1276
  476TMC3    C5 7082   4.536   3.998  10.463 -0.3913 -0.0169 -0.3674
  476TMC3    C6 7083   4.585   3.919  10.360  0.2500  0.0071 -0.3028
  476TMC3     C 7084   4.173   3.933  10.467  0.4497  0.4862  0.2474
  476TMC3     O 7085   4.109   3.868  10.387  0.6084 -0.5211  0.1117
  476TMC3     H 7086   4.280   3.811  10.262  1.7152 -1.9257 -0.3005
  476TMC3    H1 7087   4.374   4.066  10.590  1.3798  0.8911 -0.1726
  476TMC3    H2 7088   4.689   3.894  10.340 -0.0739  0.5930 -2.7526
  476TMC3    C7 7089   4.643   4.078  10.520 -0.6037  0.0761  0.5186
  476TMC3    C8 7090   4.536   3.840  10.154 -0.6482  0.5184  0.4191
  476TMC3    O1 7091   0.034   4.072  10.479 -0.0121  0.3204  0.6134
  476TMC3    O2 7092   4.646   3.886  10.124 -0.4162 -0.3586  0.0414
  477MPD2     C 7093   1.624   0.630  11.366 -0.5289  0.2019 -0.0933
  477MPD2    C1 7094   1.570   0.667  11.490 -0.2368  0.6442  0.4269
  477MPD2    C2 7095   1.617   0.603  11.604 -0.0539  0.0409  0.1199
  477MPD2    C3 7096   1.723   0.522  11.601  0.3693  0.3358 -0.0962
  477MPD2    C4 7097   1.789   0.505  11.483 -0.3297 -0.6520  0.0079
  477MPD2    C5 7098   1.733   0.548  11.367 -0.2024 -0.3407 -0.4228
  477MPD2     H 7099   1.584   0.618  11.706  1.9595  4.0859  0.1705
  477MPD2    H1 7100   1.878   0.444  11.482 -0.5273 -0.9586  1.5161
  477MPD2    H2 7101   1.577   0.658  11.272 -0.7493 -2.8745 -0.8849
  477MPD2    H3 7102   1.774   0.520  11.271  2.0499 -0.7575  0.6610
  477MPD2     N 7103   1.779   0.489  11.723  0.0228  0.5253  0.0947
  477MPD2    H5 7104   1.729   0.501  11.811 -1.8263 -2.0060 -0.6416
  477MPD2    N1 7105   1.467   0.756  11.492 -0.3688  0.2463 -0.4518
  477MPD2    H7 7106   1.426   0.777  11.402  0.9077 -1.9071 -1.5483
  478TMC3    C1 7107   1.340   0.930  11.587  0.5640 -0.4374  0.2918
  478TMC3    C2 7108   1.367   1.037  11.658  0.2985  0.0873  0.0926
  478TMC3    C3 7109   1.329   1.158  11.616 -0.3239 -0.3969  0.0366
  478TMC3    C4 7110   1.282   0.942  11.465 -0.0637  0.4122  0.4631
  478TMC3    C5 7111   1.241   1.068  11.422 -0.2251  0.1189  0.1828
  478TMC3    C6 7112   1.276   1.177  11.494 -0.1580 -0.0584 -0.4149
  478TMC3     C 7113   1.436   0.824  11.606 -0.2101  0.0278  0.2042
  478TMC3     O 7114   1.495   0.835  11.710  0.1587 -0.4981 -0.1712
  478TMC3     H 7115   1.429   1.042  11.746  3.3950  1.8856 -2.1828
  478TMC3    H1 7116   1.246   0.856  11.409 -0.1271 -0.1625  1.3904
  478TMC3    H2 7117   1.254   1.277  11.457 -0.5838  0.4141  1.1109
  478TMC3    C7 7118   1.188   1.090  11.291  0.3870 -0.3673  0.5452
  478TMC3    C8 7119   1.285   1.252  11.717 -0.1371 -0.0498 -0.2544
  478TMC3    O1 7120   1.255   1.164  11.222  0.2174  0.1520  0.5460
  478TMC3    O2 7121   1.249   1.212  11.823  0.1891 -0.2142 -0.3283
  479MPD2     C 7122   0.592   3.123  14.991 -0.7974 -0.9917  0.5742
  479MPD2    C1 7123   0.586   3.017  15.076  0.4216  0.2237 -0.7602
  479MPD2    C2 7124   0.611   3.047  15.214  0.1841  0.4786  0.8136
  479MPD2    C3 7125   0.648   3.179  15.253  0.1614  0.0690 -0.1427
  479MPD2    C4 7126   0.669   3.275  15.154  0.7356 -0.1680 -0.2174
  479MPD2    C5 7127   0.634   3.254  15.025  0.1191  0.2556  0.1916
  479MPD2     H 7128   0.600   2.973  15.292  0.7116  1.3331  1.6940
  479MPD2    H1 7129   0.681   3.377  15.189 -0.4305 -0.8291  2.1431
  479MPD2    H2 7130   0.586   3.108  14.884  1.0300  0.4769  0.2678
  479MPD2    H3 7131   0.639   3.327  14.945 -0.5094  0.8778  0.7180
  479MPD2     N 7132   0.680   3.226  15.385  0.2391 -0.2958 -0.4846
  479MPD2    H5 7133   0.722   3.318  15.385 -2.2908  0.8627 -0.2165
  479MPD2    N1 7134   0.547   2.891  15.030 -0.2912 -0.3637  0.8871
  479MPD2    H7 7135   0.514   2.879  14.935 -1.7479  0.3764  1.3057
  480TMC3    C1 7136   0.467   2.858  15.586  0.1580  0.3088 -0.4336
  480TMC3    C2 7137   0.357   2.863  15.503 -0.3419  0.1995  0.3546
  480TMC3    C3 7138   0.341   2.978  15.427  0.1292  0.4289  0.0707
  480TMC3    C4 7139   0.563   2.955  15.587  1.0600  0.0543 -0.2048
  480TMC3    C5 7140   0.538   3.068  15.518  0.3296  0.2949 -0.2967
  480TMC3    C6 7141   0.426   3.078  15.441 -0.7735  0.1384 -0.3430
  480TMC3     C 7142   0.482   2.755  15.693  0.5077  0.3555 -0.1043
  480TMC3     O 7143   0.582   2.763  15.764 -0.0841 -0.6757  0.4984
  480TMC3     H 7144   0.278   2.788  15.505 -0.1991  0.0301 -0.2409
  480TMC3    H1 7145   0.654   2.947  15.646  1.0321  1.2411 -0.0035
  480TMC3    H2 7146   0.411   3.175  15.395 -0.0151 -0.3010 -1.5187
  480TMC3    C7 7147   0.650   3.164  15.503 -0.4445 -0.0890 -0.8876
  480TMC3    C8 7148   0.247   2.979  15.320 -0.1608 -0.3215 -0.0285
  480TMC3    O1 7149   0.714   3.181  15.608 -0.1119  0.3548  0.4463
  480TMC3    O2 7150   0.176   2.881  15.299  0.1628  0.8518 -0.2426
  481MPD2     C 7151   2.451   2.877  14.584  0.2214 -0.2480  0.8059
  481MPD2    C1 7152   2.393   2.751  14.576 -0.9609  0.0365  0.2510
  481MPD2    C2 7153   2.428   2.666  14.680  0.6261 -0.2290 -0.5277
  481MPD2    C3 7154   2.527   2.701  14.774 -0.2844 -0.4950  0.2100
  481MPD2    C4 7155   2.588   2.821  14.759  0.0387 -0.3568  0.4261
  481MPD2    C5 7156   2.546   2.912  14.669 -0.0933 -0.3993 -0.6511
  481MPD2     H 7157   2.377   2.572  14.700 -2.1838  1.3200 -0.4410
  481MPD2    H1 7158   2.670   2.851  14.823  2.1012  0.3740 -2.5444
  481MPD2    H2 7159   2.424   2.959  14.518  0.8518 -0.6125  0.0921
  481MPD2    H3 7160   2.602   3.004  14.656  0.1682 -0.0030  3.3266
  481MPD2     N 7161   2.585   2.612  14.873 -0.2507  0.2008  0.5677
  481MPD2    H5 7162   2.676   2.634  14.911  0.6640 -0.3652 -1.2698
  481MPD2    N1 7163   2.281   2.728  14.496  0.2046 -0.3353 -0.2672
  481MPD2    H7 7164   2.252   2.798  14.429 -1.4696 -1.6763 -0.9640
  482TMC3    C1 7165   2.139   2.605  14.352 -0.3063 -0.4811  0.6426
  482TMC3    C2 7166   2.150   2.492  14.278  0.0633  0.4721  0.0267
  482TMC3    C3 7167   2.093   2.496  14.156  0.0603 -0.0687 -0.0465
  482TMC3    C4 7168   2.083   2.729  14.306 -0.6769 -0.4803 -0.5018
  482TMC3    C5 7169   2.023   2.718  14.182  0.3237 -0.2321  0.4374
  482TMC3    C6 7170   2.023   2.602  14.105  0.2840  0.1195  0.4709
  482TMC3     C 7171   2.224   2.606  14.470 -1.0460  0.6850  0.0074
  482TMC3     O 7172   2.223   2.501  14.530  0.2463 -0.3930  0.4870
  482TMC3     H 7173   2.203   2.404  14.314 -0.0611  0.5240  0.3391
  482TMC3    H1 7174   2.051   2.801  14.381 -1.6971 -2.5076  1.0163
  482TMC3    H2 7175   1.976   2.605  14.007  2.2503  1.2634 -0.4341
  482TMC3    C7 7176   1.972   2.849  14.132 -0.9255 -0.1099  0.0907
  482TMC3    C8 7177   2.113   2.377  14.077 -0.0960 -0.7222  0.1653
  482TMC3    O1 7178   1.959   2.942  14.206  0.1471 -0.4261  0.6339
  482TMC3    O2 7179   2.141   2.276  14.135  0.6918  0.1418  0.5827
  483TMC3    C1 7180   0.400   1.436   0.123 -0.8202 -0.3930  0.4063
  483TMC3    C2 7181   0.432   1.447  17.691  0.4292 -0.0149 -1.0011
  483TMC3    C3 7182   0.553   1.513  17.664  0.3998  0.9931  0.0439
  483TMC3    C4 7183   0.469   1.495   0.228  0.1091  0.1347 -0.1129
  483TMC3    C5 7184   0.582   1.569   0.198  0.0613 -0.4138 -0.3851
  483TMC3    C6 7185   0.624   1.574   0.066 -0.0843  0.2283  0.4760
  483TMC3     C 7186   0.301   1.334   0.156  0.0971  0.2015  0.5322
  483TMC3     O 7187   0.221   1.309   0.067  0.2493 -0.2620 -0.4180
  483TMC3     H 7188   0.371   1.402  17.614 -3.2548  1.3395  1.1538
  483TMC3    H1 7189   0.418   1.496   0.324 -1.0202  1.2206 -0.7319
  483TMC3    H2 7190   0.707   1.638   0.037  0.2274 -0.6115 -0.4924
  483TMC3    C7 7191   0.647   1.650   0.301 -0.4790 -1.1583 -0.4398
  483TMC3    C8 7192   0.579   1.571  17.535  0.1706 -0.7823 -0.7511
  483TMC3    O1 7193   0.620   1.602   0.406  0.5541  0.3012  0.4533
  483TMC3    O2 7194   0.699   1.574  17.504 -0.3520 -0.5071  0.3474
  484MPD2     C 7195   2.336   4.375  12.823  0.2762 -0.4001  1.1414
  484MPD2    C1 7196   2.416   4.266  12.863  0.3962  0.2158  0.1214
  484MPD2    C2 7197   2.544   4.242  12.818  0.0214  0.5678 -0.1066
  484MPD2    C3 7198   2.593   4.339  12.729 -0.6123  0.6893 -0.7205
  484MPD2    C4 7199   2.521   4.457  12.697 -0.7754  0.1554 -0.2102
  484MPD2    C5 7200   2.396   4.471  12.744 -0.0094 -0.8126 -0.0264
  484MPD2     H 7201   2.595   4.151  12.845  0.1883  0.3450 -1.1605
  484MPD2    H1 7202   2.562   4.533  12.631 -2.0829 -0.3083 -1.5331
  484MPD2    H2 7203   2.238   4.394  12.864 -0.3225 -1.0437  0.0089
  484MPD2    H3 7204   2.326   4.551  12.721  0.1719 -1.0724 -1.4843
  484MPD2     N 7205   2.728   4.338  12.677  0.3474 -0.3954  0.1095
  484MPD2    H5 7206   2.762   4.427  12.641 -4.0030  1.1421 -0.1131
  484MPD2    N1 7207   2.357   4.167  12.944  0.2437  0.1537  0.5738
  484MPD2    H7 7208   2.260   4.178  12.972 -0.4262 -3.5314 -0.3405
  485TMC3    C1 7209   2.950   4.255  12.626 -0.1218  0.0776  0.4593
  485TMC3    C2 7210   3.052   4.168  12.651  0.4618 -0.6704 -0.1530
  485TMC3    C3 7211   3.180   4.207  12.629 -1.3168 -0.2910  0.0104
  485TMC3    C4 7212   2.972   4.378  12.556 -0.5107 -0.0414 -0.4102
  485TMC3    C5 7213   3.099   4.402  12.518 -0.0567  0.4888 -0.2363
  485TMC3    C6 7214   3.204   4.324  12.557  0.2496  0.4967 -0.4419
  485TMC3     C 7215   2.822   4.236  12.692 -0.0176 -0.2992  0.4949
  485TMC3     O 7216   2.791   4.128  12.739  0.0636  0.0067 -0.1808
  485TMC3     H 7217   3.026   4.072  12.695  0.3040 -1.0395 -1.0481
  485TMC3    H1 7218   2.902   4.456  12.529  0.2439  1.6078  2.3408
  485TMC3    H2 7219   3.306   4.350  12.533 -0.2055  0.5106 -2.4253
  485TMC3    C7 7220   3.102   4.425  12.379  0.4280  0.1733  0.1147
  485TMC3    C8 7221   3.269   4.107  12.582 -0.0435  0.4785  0.6139
  485TMC3    O1 7222   3.077   4.544  12.350 -0.8553  0.4218  0.3062
  485TMC3    O2 7223   3.332   4.145  12.484 -0.8539  0.1547  0.7974
  486MPD2     C 7224   4.562   3.316  12.859 -0.3726  0.1996  0.2601
  486MPD2    C1 7225   4.533   3.305  12.726  0.0734  0.2195 -0.1764
  486MPD2    C2 7226   4.526   3.425  12.658 -0.5808  0.6759  0.0488
  486MPD2    C3 7227   4.540   3.551  12.724 -0.4959  0.7861  0.0502
  486MPD2    C4 7228   4.573   3.553  12.856  0.0606  0.3893  0.0766
  486MPD2    C5 7229   4.583   3.435  12.921  0.3757  0.4210  0.3156
  486MPD2     H 7230   4.517   3.428  12.550 -0.4980  0.2571  0.0316
  486MPD2    H1 7231   4.577   3.645  12.913 -1.6826  1.0803 -0.9150
  486MPD2    H2 7232   4.571   3.233  12.928 -0.2926  0.2201  0.2748
  486MPD2    H3 7233   4.614   3.436  13.025 -0.9515  0.9533  0.7120
  486MPD2     N 7234   4.535   3.666  12.637  0.2148 -0.2367  0.7188
  486MPD2    H5 7235   4.475   3.644  12.558 -0.0407  0.4425  0.7206
  486MPD2    N1 7236   4.529   3.174  12.671 -0.4801 -0.5410  0.5061
  486MPD2    H7 7237   4.534   3.093  12.732  1.3349 -0.6013  0.3076
  487TMC3    C1 7238   4.541   3.013  12.515  0.8434  0.0708 -0.6455
  487TMC3    C2 7239   4.448   2.908  12.511 -0.8197 -0.2179  0.3773
  487TMC3    C3 7240   4.490   2.777  12.521 -0.6594  0.2637  0.5646
  487TMC3    C4 7241   4.668   2.975  12.541 -1.3971 -0.2673 -0.2266
  487TMC3    C5 7242   4.706   2.850  12.569  0.0828  0.0063 -0.9364
  487TMC3    C6 7243   4.624   2.744  12.533 -0.6541  0.0921  0.1240
  487TMC3     C 7244   4.512   3.146  12.541 -0.7502 -0.4614 -0.2254
  487TMC3     O 7245   4.482   3.218  12.448  0.1591  0.1937 -0.3939
  487TMC3     H 7246   4.344   2.932  12.529 -0.3870  0.6129  1.8134
  487TMC3    H1 7247   0.019   3.054  12.540 -0.8132 -0.8094  0.7360
  487TMC3    H2 7248   4.651   2.642  12.552  1.1895  0.5536 -0.0681
  487TMC3    C7 7249   0.036   2.844  12.699  0.1357  0.0016 -0.1070
  487TMC3    C8 7250   4.405   2.702  12.615 -0.0223 -0.1831  0.0238
  487TMC3    O1 7251   0.102   2.941  12.736 -0.2312 -0.0681 -0.0832
  487TMC3    O2 7252   4.336   2.770  12.692  0.2475  0.2371 -0.2473
  488MPD2     C 7253   0.409   4.600  16.456 -0.0186 -0.7345  0.0446
  488MPD2    C1 7254   0.469   4.721  16.481  0.0249 -0.0159 -0.3370
  488MPD2    C2 7255   0.490   0.040  16.613 -0.1184 -0.0612 -0.2232
  488MPD2    C3 7256   0.428   4.695  16.717  0.1695 -0.4075 -0.0670
  488MPD2    C4 7257   0.358   4.579  16.690  0.6087 -0.8876 -0.5907
  488MPD2    C5 7258   0.357   4.521  16.565  0.2959  0.5304  0.1866
  488MPD2     H 7259   0.534   0.137  16.636 -0.5947  0.5898 -2.0873
  488MPD2    H1 7260   0.311   4.520  16.769 -1.2574  1.0558 -0.2399
  488MPD2    H2 7261   0.393   4.556  16.359  0.9853 -0.1388 -0.3917
  488MPD2    H3 7262   0.309   4.426  16.547  3.4427 -0.9366 -0.4162
  488MPD2     N 7263   0.449   0.018  16.850 -0.1222  0.2911 -0.2313
  488MPD2    H5 7264   0.517   0.093  16.861  1.2595 -1.3603  2.4876
  488MPD2    N1 7265   0.520   0.086  16.384  0.1781 -0.0062  0.2915
  488MPD2    H7 7266   0.555   0.176  16.417 -1.0323  0.6778 -0.2895
  489TMC3    C1 7267   0.424   0.068  17.081 -0.0409 -0.0683 -0.4377
  489TMC3    C2 7268   0.502   0.182  17.052 -0.3040  0.3393  0.2470
  489TMC3    C3 7269   0.498   0.285  17.144 -0.3459  0.7522 -0.3524
  489TMC3    C4 7270   0.357   0.054  17.195 -0.3376  0.0847  0.3391
  489TMC3    C5 7271   0.352   0.162  17.280 -0.5757  0.1679 -1.1190
  489TMC3    C6 7272   0.427   0.275  17.263 -0.7622  0.0336 -0.5023
  489TMC3     C 7273   0.391   4.697  16.971  0.6015 -1.1073 -0.3719
  489TMC3     O 7274   0.323   4.596  16.984 -0.1469 -0.3049 -0.2497
  489TMC3     H 7275   0.554   0.196  16.957  2.0180 -1.1174  1.2960
  489TMC3    H1 7276   0.299   4.687  17.210  2.6694 -2.2304 -1.7574
  489TMC3    H2 7277   0.398   0.364  17.318  0.6180  0.1380  0.0556
  489TMC3    C7 7278   0.232   0.184  17.357  0.7300 -0.1916 -0.1621
  489TMC3    C8 7279   0.549   0.411  17.098  0.1339  0.5601 -0.4205
  489TMC3    O1 7280   0.193   0.301  17.363  0.0939  0.2362 -1.0039
  489TMC3    O2 7281   0.610   0.414  16.991  0.3665 -0.3411  0.3565
  490MPD2     C 7282   1.143   0.031  17.424 -0.6967 -0.6575  0.4334
  490MPD2    C1 7283   1.114   4.681  17.538 -0.1242 -0.2502 -0.3673
  490MPD2    C2 7284   1.198   4.696  17.640  0.8305  0.4991 -0.6351
  490MPD2    C3 7285   1.313   0.051  17.635 -0.1196  0.3359  0.5450
  490MPD2    C4 7286   1.340   0.121  17.519  0.2517 -0.3435  0.3968
  490MPD2    C5 7287   1.251   0.117  17.417 -0.2795 -0.2035  0.1077
  490MPD2     H 7288   1.172   4.636   0.030  1.0334 -0.9228 -1.5621
  490MPD2    H1 7289   1.428   0.183  17.508  0.5860 -1.2296 -1.8402
  490MPD2    H2 7290   1.089   0.032  17.329  0.7690  1.2320 -0.3761
  490MPD2    H3 7291   1.255   0.176  17.326  0.2706 -0.4719 -0.0388
  490MPD2     N 7292   1.406   0.046   0.044 -0.6368  0.4925 -0.3547
  490MPD2    H5 7293   1.503   0.069   0.029 -0.3365  0.5453  1.5877
  490MPD2    N1 7294   1.013   4.588  17.554 -0.1328  0.1775 -0.0176
  490MPD2    H7 7295   1.000   4.543  17.644 -2.3432  1.2283  0.2050
  491TMC3    C1 7296   0.894   4.399  17.484  0.2108  0.1023 -0.1727
  491TMC3    C2 7297   0.970   4.323  17.571  0.4410 -0.4261 -0.7554
  491TMC3    C3 7298   0.937   4.197  17.584 -0.0406  0.0524  0.2144
  491TMC3    C4 7299   0.809   4.338  17.399 -0.0796 -0.3196  0.2149
  491TMC3    C5 7300   0.769   4.206  17.417 -0.3073 -0.5650  0.3449
  491TMC3    C6 7301   0.842   4.133  17.508  0.3727 -0.9162  1.1853
  491TMC3     C 7302   0.949   4.530  17.447 -0.3902 -0.5335 -0.1431
  491TMC3     O 7303   0.937   4.565  17.331 -1.0606  0.1343 -0.0098
  491TMC3     H 7304   1.046   4.364  17.637  0.0033  1.8213 -1.6597
  491TMC3    H1 7305   0.751   4.407  17.338  0.8271  1.6417  1.6035
  491TMC3    H2 7306   0.805   4.032  17.521  2.4364 -1.7429  0.7790
  491TMC3    C7 7307   0.675   4.131  17.325  0.0659  0.2848  0.3588
  491TMC3    C8 7308   0.955   4.149   0.023  0.6014  0.0584 -0.7031
  491TMC3    O1 7309   0.676   4.006  17.346  0.0308  0.2157  0.0203
  491TMC3    O2 7310   0.957   4.233   0.115  0.2367  0.3461  0.1895
  492MPD2     C 7311   1.487   4.170  11.297  0.7403 -0.0567 -0.0902
  492MPD2    C1 7312   1.378   4.111  11.242 -0.0917 -0.5492  0.1053
  492MPD2    C2 7313   1.294   4.035  11.322  0.9037  0.7263 -0.2571
  492MPD2    C3 7314   1.320   4.009  11.457  1.1629  0.4954 -0.2981
  492MPD2    C4 7315   1.434   4.066  11.513  0.4634  0.1785  0.2895
  492MPD2    C5 7316   1.509   4.153  11.432 -0.4539 -0.4169 -0.0862
  492MPD2     H 7317   1.208   3.989  11.275 -0.5058  2.4025  0.6921
  492MPD2    H1 7318   1.469   4.065  11.616 -1.7142  1.5793  1.0462
  492MPD2    H2 7319   1.558   4.229  11.240  1.3116  0.5871  1.2711
  492MPD2    H3 7320   1.602   4.192  11.471  0.2293 -1.5586 -0.5517
  492MPD2     N 7321   1.233   3.940  11.545  0.3437  1.1312 -0.1789
  492MPD2    H5 7322   1.273   3.925  11.637 -0.4057  0.6399  0.0754
  492MPD2    N1 7323   1.356   4.139  11.106 -0.2478 -0.1408 -0.1600
  492MPD2    H7 7324   1.424   4.201  11.062 -0.3172 -0.8954 -1.3267
  493TMC3    C1 7325   1.233   4.132  10.897  0.8200  0.2341  0.3050
  493TMC3    C2 7326   1.338   4.192  10.835  0.2697 -0.2815  0.7968
  493TMC3    C3 7327   1.352   4.182  10.700 -0.5356 -0.4940  0.1010
  493TMC3    C4 7328   1.133   4.068  10.833  1.0692 -0.3748 -0.3199
  493TMC3    C5 7329   1.154   4.066  10.702  0.3270 -0.6475 -0.3312
  493TMC3    C6 7330   1.261   4.117  10.633 -0.2906  0.3006 -0.2773
  493TMC3     C 7331   1.238   4.109  11.044  1.1673 -0.2848  0.6109
  493TMC3     O 7332   1.131   4.067  11.094 -0.1103  0.0505 -0.2859
  493TMC3     H 7333   1.411   4.244  10.897  0.1726  0.8109 -0.0062
  493TMC3    H1 7334   1.048   4.023  10.882  1.9192 -0.7435  0.8172
  493TMC3    H2 7335   1.266   4.102  10.526  1.0857 -0.6035 -0.0852
  493TMC3    C7 7336   1.064   3.998  10.609 -0.1372  0.2898 -0.0846
  493TMC3    C8 7337   1.482   4.202  10.633 -0.3570 -0.9141 -0.0255
  493TMC3    O1 7338   1.042   4.037  10.494 -0.3277 -0.1911 -0.7825
  493TMC3    O2 7339   1.466   4.235  10.513  0.7870 -0.3533 -0.2627
  494TMC3    C1 7340   1.821   1.403   0.449 -0.1706  0.5822  0.0508
  494TMC3    C2 7341   1.866   1.301   0.526  0.1797 -0.6489  0.4909
  494TMC3    C3 7342   1.870   1.179   0.476  0.0983 -0.4888 -0.3554
  494TMC3    C4 7343   1.789   1.379   0.315  0.8817 -0.4402 -0.4206
  494TMC3    C5 7344   1.785   1.255   0.264 -0.1306  1.0174 -0.7064
  494TMC3    C6 7345   1.834   1.160   0.347  0.6955  0.7933  0.0904
  494TMC3     C 7346   1.824   1.538   0.500  1.1174 -0.3259 -0.3532
  494TMC3     O 7347   1.881   1.555   0.608  0.0236  0.2999  0.5190
  494TMC3     H 7348   1.922   1.321   0.616  0.7921  1.8280 -0.4309
  494TMC3    H1 7349   1.781   1.467   0.252  1.9952  1.2824  1.8710
  494TMC3    H2 7350   1.862   1.061   0.312 -1.7117 -0.8286  2.7528
  494TMC3    C7 7351   1.791   1.232   0.120  0.1967 -0.5833  0.3425
  494TMC3    C8 7352   1.903   1.059   0.552 -0.4097  0.4040 -0.2058
  494TMC3    O1 7353   1.784   1.329   0.043  0.0055  0.4285  0.3834
  494TMC3    O2 7354   1.947   0.963   0.494 -0.1819 -0.3477  0.0607
  495TMC3    C1 7355   0.600   3.588  14.659 -0.0549  0.1793 -0.4323
  495TMC3    C2 7356   0.525   3.607  14.552 -0.0388  0.0813  0.6250
  495TMC3    C3 7357   0.389   3.576  14.562 -0.7573 -0.2318 -0.5218
  495TMC3    C4 7358   0.540   3.555  14.771  0.0065  0.1662 -0.3833
  495TMC3    C5 7359   0.409   3.541  14.786 -0.0831 -0.3096 -1.4647
  495TMC3    C6 7360   0.326   3.555  14.684  0.7069 -0.1990  0.4327
  495TMC3     C 7361   0.713   3.505  14.607  0.7592 -0.2050  0.4935
  495TMC3     O 7362   0.708   3.384  14.635  0.5840 -0.3530 -0.3833
  495TMC3     H 7363   0.569   3.648  14.461 -1.5235  0.0193 -0.1148
  495TMC3    H1 7364   0.606   3.539  14.855 -1.4156  1.1793  0.9243
  495TMC3    H2 7365   0.221   3.533  14.694 -0.2575  2.9669 -2.6942
  495TMC3    C7 7366   0.366   3.446  14.890  0.0100  0.2858 -0.1891
  495TMC3    C8 7367   0.307   3.543  14.452  0.4902 -0.2886 -0.1007
  495TMC3    O1 7368   0.409   3.461  15.004 -0.3203  0.2918  0.2623
  495TMC3    O2 7369   0.188   3.531  14.473  0.1945  0.3013 -0.1749
  496MPD2     C 7370   2.845   3.140  15.242 -0.1482  0.4118 -0.5030
  496MPD2    C1 7371   2.858   3.090  15.371  0.0251 -0.8604  0.0076
  496MPD2    C2 7372   2.777   3.125  15.475  0.5771 -0.2945  0.5254
  496MPD2    C3 7373   2.666   3.203  15.449  0.2010 -0.2488  0.1103
  496MPD2    C4 7374   2.652   3.257  15.322  0.5021  0.0758 -0.8467
  496MPD2    C5 7375   2.743   3.230  15.220 -0.1852  0.7861  0.8643
  496MPD2     H 7376   2.788   3.079  15.573  2.4343  2.3577  1.5660
  496MPD2    H1 7377   2.565   3.318  15.297 -0.3571 -0.5951  0.4770
  496MPD2    H2 7378   2.916   3.107  15.167 -1.9874 -0.5645 -1.8219
  496MPD2    H3 7379   2.728   3.265  15.118  4.8295 -0.3885 -0.3111
  496MPD2     N 7380   2.564   3.229  15.539  0.0550  0.4663 -0.6555
  496MPD2    H5 7381   2.487   3.273  15.491 -0.4414  0.4105  0.0889
  496MPD2    N1 7382   2.967   3.007  15.388 -0.5921  0.0870 -0.9495
  496MPD2    H7 7383   3.015   2.981  15.302 -0.8362 -1.5343 -0.6039
  497TMC3    C1 7384   2.426   3.204  15.726 -0.1583  0.2817  0.4497
  497TMC3    C2 7385   2.317   3.175  15.641 -0.5150  0.1023  0.4416
  497TMC3    C3 7386   2.199   3.187  15.704 -0.1298 -0.2656  0.0130
  497TMC3    C4 7387   2.419   3.251  15.856 -0.6333 -0.0615  0.2341
  497TMC3    C5 7388   2.290   3.253  15.911  0.1596 -0.1200 -0.1848
  497TMC3    C6 7389   2.179   3.215  15.833 -0.2301  0.4805  0.3916
  497TMC3     C 7390   2.556   3.187  15.677 -0.7314  0.3118  0.4802
  497TMC3     O 7391   2.642   3.135  15.746 -0.6488 -0.1478 -0.6888
  497TMC3     H 7392   2.319   3.152  15.535 -0.3743 -3.3427  1.1961
  497TMC3    H1 7393   2.508   3.287  15.906  1.1505 -0.7317 -2.4640
  497TMC3    H2 7394   2.086   3.188  15.883  1.1760 -0.3909  2.5558
  497TMC3    C7 7395   2.263   3.279  16.056  0.4071  1.1382 -0.0508
  497TMC3    C8 7396   2.078   3.165  15.634 -0.1927 -0.6284 -0.0823
  497TMC3    O1 7397   2.150   3.306  16.095  0.3916 -0.5689 -0.1342
  497TMC3    O2 7398   2.097   3.087  15.542  0.4332 -0.5204  0.1966
  498MPD2     C 7399   3.261   3.073   9.260  0.3776  0.0147  0.4567
  498MPD2    C1 7400   3.308   3.122   9.383 -0.3840 -0.0702  0.2279
  498MPD2    C2 7401   3.227   3.095   9.495 -0.5337  0.4866  0.1381
  498MPD2    C3 7402   3.113   3.020   9.489  0.3401  0.0779 -0.1005
  498MPD2    C4 7403   3.083   2.958   9.367  0.3848  0.2305 -0.5739
  498MPD2    C5 7404   3.155   2.979   9.256  0.4014  0.1020  0.1757
  498MPD2     H 7405   3.251   3.132   9.594 -1.8695 -0.8664  0.9730
  498MPD2    H1 7406   2.996   2.894   9.356 -0.6770  1.3553  1.3142
  498MPD2    H2 7407   3.301   3.104   9.165  0.9236 -0.9421  0.3714
  498MPD2    H3 7408   3.124   2.933   9.163 -2.2241  1.2123  0.4953
  498MPD2     N 7409   3.030   3.000   9.600  0.1167 -0.2886 -0.0985
  498MPD2    H5 7410   3.057   3.050   9.684 -0.8741 -1.7082  1.0746
  498MPD2    N1 7411   3.415   3.214   9.388  0.2288  0.2642  0.1263
  498MPD2    H7 7412   3.433   3.239   9.485 -1.6460 -0.2629  0.6174
  499TMC3    C1 7413   3.617   3.317   9.321 -0.5412  0.3208 -0.3455
  499TMC3    C2 7414   3.722   3.278   9.248  0.0514  0.0599  0.4865
  499TMC3    C3 7415   3.843   3.318   9.300 -0.8645  0.3702  0.1842
  499TMC3    C4 7416   3.619   3.396   9.436 -0.2452 -0.3499 -0.0001
  499TMC3    C5 7417   3.744   3.435   9.476  0.2042  0.7272  0.0046
  499TMC3    C6 7418   3.857   3.398   9.417  0.2711  0.8248  0.7714
  499TMC3     C 7419   3.494   3.254   9.283 -0.0588 -0.3185  0.3060
  499TMC3     O 7420   3.493   3.222   9.167  0.2413 -0.2104  0.4304
  499TMC3     H 7421   3.709   3.211   9.164  1.0564 -0.5361  0.8088
  499TMC3    H1 7422   3.531   3.432   9.489  2.0529 -0.4617  3.8586
  499TMC3    H2 7423   3.956   3.428   9.449  0.3048  1.7257 -0.1542
  499TMC3    C7 7424   3.763   3.511   9.604  0.2098  0.2908  0.2610
  499TMC3    C8 7425   3.962   3.300   9.218  0.2091 -0.5425 -0.5811
  499TMC3    O1 7426   3.877   3.556   9.626 -0.3017 -0.0503  0.3497
  499TMC3    O2 7427   4.065   3.332   9.275  0.1893  0.2194  0.2939
  500MPD2     C 7428   0.829   0.069  10.070 -0.2109  0.5049 -0.2906
  500MPD2    C1 7429   0.746   0.161  10.128 -0.5946 -0.0787 -0.5070
  500MPD2    C2 7430   0.612   0.134  10.121  0.3933 -0.1672  0.0546
  500MPD2    C3 7431   0.563   0.022  10.054 -0.2515 -0.4373  0.3310
  500MPD2    C4 7432   0.651   4.664   9.987 -0.2479 -0.1685 -0.2659
  500MPD2    C5 7433   0.788   4.697   9.996  0.8384  0.6593 -0.5787
  500MPD2     H 7434   0.540   0.205  10.159 -0.5267 -2.2542  2.2596
  500MPD2    H1 7435   0.604   4.604   9.910 -0.5751  1.1397 -1.0927
  500MPD2    H2 7436   0.934   0.095  10.059 -0.5887  0.9719 -2.8120
  500MPD2    H3 7437   0.857   4.635   9.939  0.2361 -0.8354  0.3030
  500MPD2     N 7438   0.420   0.005  10.041  0.0790  0.6047 -0.2405
  500MPD2    H5 7439   0.387   4.641  10.002 -1.9857  1.2775 -0.0022
  500MPD2    N1 7440   0.794   0.267  10.203  0.3689 -0.1057  0.5104
  500MPD2    H7 7441   0.722   0.331  10.236  1.0109  0.9733 -0.1962
  501TMC3    C1 7442   0.952   0.403  10.319 -0.3146  0.1466 -0.5572
  501TMC3    C2 7443   0.887   0.521  10.295 -0.2692  0.2760 -0.5439
  501TMC3    C3 7444   0.943   0.625  10.361  0.0458  0.7551 -0.7150
  501TMC3    C4 7445   1.048   0.388  10.414  0.6334 -0.0737 -0.2309
  501TMC3    C5 7446   1.104   0.498  10.470 -0.2653  0.5554  0.0290
  501TMC3    C6 7447   1.059   0.625  10.435  0.1241  0.2870 -0.3727
  501TMC3     C 7448   0.921   0.280  10.245 -0.2312 -0.2469  0.7157
  501TMC3     O 7449   1.009   0.198  10.246 -0.3641  0.0311  0.2733
  501TMC3     H 7450   0.798   0.526  10.233 -2.6336 -0.3018  2.8050
  501TMC3    H1 7451   1.092   0.292  10.439 -1.2777 -0.1310  2.9271
  501TMC3    H2 7452   1.095   0.715  10.484 -0.1175 -0.9203  2.0212
  501TMC3    C7 7453   1.211   0.487  10.573 -0.5140 -0.3759  0.4215
  501TMC3    C8 7454   0.878   0.756  10.366 -0.1509 -0.9825  0.3821
  501TMC3    O1 7455   1.226   0.373  10.616 -0.1880  0.3075 -0.1497
  501TMC3    O2 7456   0.886   0.811  10.478  0.7975  0.7511  0.3001
  502TMC3    C1 7457   0.270   4.097  15.286 -0.3630 -0.1610 -0.2835
  502TMC3    C2 7458   0.258   4.229  15.256 -0.2814  0.4155 -0.6270
  502TMC3    C3 7459   0.129   4.280  15.245  0.5324  0.8930 -0.1588
  502TMC3    C4 7460   0.159   4.010  15.302 -0.0417  0.6678  0.3935
  502TMC3    C5 7461   0.035   4.061  15.284 -0.0617 -0.6510 -0.5617
  502TMC3    C6 7462   0.015   4.199  15.256  0.4044  0.4224 -0.5359
  502TMC3     C 7463   0.387   4.065  15.370  1.2074 -0.2134 -0.6902
  502TMC3     O 7464   0.492   4.118  15.335 -0.2844  0.6166  0.2110
  502TMC3     H 7465   0.346   4.292  15.249  0.4130 -0.6486 -1.4073
  502TMC3    H1 7466   0.169   3.904  15.322 -0.2356  0.6920  0.6133
  502TMC3    H2 7467   4.640   4.244  15.254 -0.4842 -1.4510  0.1556
  502TMC3    C7 7468   4.649   3.973  15.297  0.2412 -0.0599  0.1624
  502TMC3    C8 7469   0.107   4.421  15.228 -0.9835 -0.4455  0.0195
  502TMC3    O1 7470   4.674   3.856  15.326  0.3670 -0.0809  0.7698
  502TMC3    O2 7471   4.720   4.465  15.205 -0.2884  0.0714  0.1387
  503MPD2     C 7472   1.981   4.426  16.799  0.3204  0.3150  0.5052
  503MPD2    C1 7473   2.025   4.487  16.917 -0.4829  0.1778 -0.4165
  503MPD2    C2 7474   2.088   4.406  17.011 -0.6157  0.1992  0.1999
  503MPD2    C3 7475   2.102   4.270  16.988 -0.3009 -0.1905 -0.2463
  503MPD2    C4 7476   2.050   4.213  16.875 -0.3830  0.2406  0.0407
  503MPD2    C5 7477   1.998   4.293  16.776 -0.1781 -0.0595 -0.1135
  503MPD2     H 7478   2.124   4.453  17.102  1.4616 -0.7868 -0.1228
  503MPD2    H1 7479   2.034   4.108  16.854  0.6842 -0.0859  0.8933
  503MPD2    H2 7480   1.929   4.483  16.723  1.2284  1.9664  1.1317
  503MPD2    H3 7481   1.962   4.248  16.685 -1.2308 -2.5141  1.5047
  503MPD2     N 7482   2.171   4.195  17.088 -0.1710 -0.5347 -0.3166
  503MPD2    H5 7483   2.222   4.243  17.161 -1.1316  3.4557 -2.2334
  503MPD2    N1 7484   2.015   4.623  16.948 -0.0521 -1.2096  0.2426
  503MPD2    H7 7485   2.070   4.649  17.029  2.4478 -0.8150 -1.5967
  504TMC3    C1 7486   2.284   4.020  17.179  0.4258 -0.2016  0.2032
  504TMC3    C2 7487   2.266   4.064  17.303 -0.0623  0.0015 -0.3001
  504TMC3    C3 7488   2.354   4.019  17.399  0.7036  0.6750  0.4873
  504TMC3    C4 7489   2.387   3.940  17.138 -0.4031 -0.3847  1.0420
  504TMC3    C5 7490   2.475   3.900  17.232  0.1841 -0.1804  0.1676
  504TMC3    C6 7491   2.462   3.942  17.361  0.0450 -0.0127 -0.3478
  504TMC3     C 7492   2.189   4.058  17.081 -0.2661 -0.4306  0.7758
  504TMC3     O 7493   2.159   3.976  17.000 -0.0038  0.1233 -0.2649
  504TMC3     H 7494   2.173   4.111  17.332  1.1551  1.1418  1.7378
  504TMC3    H1 7495   2.378   3.903  17.036  0.5536 -1.5260  1.3719
  504TMC3    H2 7496   2.535   3.908  17.434  0.1839  0.5393 -0.2315
  504TMC3    C7 7497   2.609   3.898  17.164 -0.6983  0.3124 -0.6803
  504TMC3    C8 7498   2.357   4.099  17.514 -1.3042 -0.1445 -0.1704
  504TMC3    O1 7499   2.615   3.898  17.046 -0.1689  0.2511  0.4312
  504TMC3    O2 7500   2.328   4.221  17.513 -0.0324  0.2523 -0.4853
  505MPD2     C 7501   2.359   3.122  10.670 -0.1129  0.7013  0.5725
  505MPD2    C1 7502   2.403   3.037  10.771  0.8058  0.1091 -0.1518
  505MPD2    C2 7503   2.503   3.080  10.856  1.0123 -0.1931  0.5518
  505MPD2    C3 7504   2.570   3.199  10.841  0.1730  0.2083  0.4881
  505MPD2    C4 7505   2.526   3.284  10.742 -1.0243  0.3691 -0.7345
  505MPD2    C5 7506   2.427   3.241  10.659  0.3136 -0.3013 -0.3576
  505MPD2     H 7507   2.539   3.014  10.934 -2.2916 -0.8445  1.5409
  505MPD2    H1 7508   2.588   3.370  10.718 -2.6290  2.0415  1.1283
  505MPD2    H2 7509   2.265   3.111  10.618  1.4886 -3.7333 -1.4087
  505MPD2    H3 7510   2.399   3.311  10.581 -0.5529  1.1931  1.2967
  505MPD2     N 7511   2.673   3.233  10.934  0.1196 -0.1749 -0.1843
  505MPD2    H5 7512   2.698   3.158  10.998 -1.0432 -2.2461 -2.1704
  505MPD2    N1 7513   2.326   2.923  10.782 -0.3565  0.3231  0.0659
  505MPD2    H7 7514   2.270   2.894  10.703 -1.0530  2.4839 -0.2297
  506TMC3    C1 7515   2.296   2.694  10.833 -0.6799  0.7286 -0.8822
  506TMC3    C2 7516   2.282   2.655  10.703  0.1160 -0.1840  0.4823
  506TMC3    C3 7517   2.305   2.523  10.669 -0.5606  0.5285 -0.1044
  506TMC3    C4 7518   2.329   2.598  10.922  0.6447  0.0846 -0.6336
  506TMC3    C5 7519   2.363   2.474  10.887  0.1360  0.4818 -0.0479
  506TMC3    C6 7520   2.359   2.436  10.759  0.3963  0.1975 -0.0781
  506TMC3     C 7521   2.345   2.823  10.870 -0.2602 -0.2363 -0.3133
  506TMC3     O 7522   2.393   2.830  10.985 -0.0483 -0.2119 -0.2295
  506TMC3     H 7523   2.236   2.715  10.626  0.2400  0.9507  1.2940
  506TMC3    H1 7524   2.338   2.622  11.027  2.5032  1.5666 -1.1261
  506TMC3    H2 7525   2.401   2.341  10.728  3.3748  1.4612  0.0704
  506TMC3    C7 7526   2.490   2.428  10.946  0.3761  0.0690  0.2611
  506TMC3    C8 7527   2.286   2.489  10.527 -0.0500  0.6295  0.5131
  506TMC3    O1 7528   2.524   2.311  10.924 -0.3153  0.0733  0.1624
  506TMC3    O2 7529   2.221   2.391  10.494 -0.3288  0.3161  0.2703
  507TMC3    C1 7530   3.461   4.138  14.718  0.0225 -0.0809  0.3378
  507TMC3    C2 7531   3.417   4.014  14.674  0.1740 -0.3967 -0.6335
  507TMC3    C3 7532   3.357   4.004  14.552 -0.2037  0.5856 -0.2118
  507TMC3    C4 7533   3.481   4.242  14.626 -0.3122 -0.5326  0.1337
  507TMC3    C5 7534   3.424   4.230  14.498  0.3746  0.3991 -0.3308
  507TMC3    C6 7535   3.366   4.109  14.457 -0.2210  0.4512  0.2791
  507TMC3     C 7536   3.397   4.188  14.837 -0.4354 -0.0230  0.4823
  507TMC3     O 7537   3.416   4.304  14.878  0.3254  0.2514 -0.0736
  507TMC3     H 7538   3.397   3.932  14.743  2.3691  1.9951  2.8410
  507TMC3    H1 7539   3.525   4.335  14.661 -1.1750  0.6940 -2.0546
  507TMC3    H2 7540   3.321   4.097  14.359  0.3402  0.1129  0.0648
  507TMC3    C7 7541   3.334   4.346  14.461  0.0713 -0.0835 -0.1019
  507TMC3    C8 7542   3.219   3.977  14.592  0.1407  0.1899 -0.5190
  507TMC3    O1 7543   3.231   4.322  14.404  0.7904  0.3302  0.2122
  507TMC3    O2 7544   3.202   3.897  14.679  0.7149  0.6828 -0.3097
  508MPD2     C 7545   3.916   2.338  16.745 -0.8034 -0.1728 -0.0091
  508MPD2    C1 7546   4.016   2.304  16.650  0.4066  0.8844  0.3324
  508MPD2    C2 7547   4.001   2.336  16.512 -0.0342  0.2612 -0.5992
  508MPD2    C3 7548   3.885   2.402  16.471 -0.1744 -0.1751  0.1296
  508MPD2    C4 7549   3.795   2.434  16.577 -0.3905 -0.5441 -0.3758
  508MPD2    C5 7550   3.806   2.412  16.713  0.3508 -0.7532  0.7159
  508MPD2     H 7551   4.065   2.299  16.434 -0.2307  0.9471 -1.0791
  508MPD2    H1 7552   3.704   2.487  16.549  1.2787  1.6530 -1.5623
  508MPD2    H2 7553   3.926   2.311  16.849 -2.3879 -1.7172 -0.2537
  508MPD2    H3 7554   3.728   2.454  16.775  0.2768  0.0647  0.0742
  508MPD2     N 7555   3.866   2.421  16.332  0.3965 -0.1907  0.3190
  508MPD2    H5 7556   3.948   2.394  16.279  0.3716 -0.3699  0.3713
  508MPD2    N1 7557   4.135   2.240  16.696 -0.1620  0.1784 -0.3740
  508MPD2    H7 7558   4.146   2.224  16.796 -0.6294  0.7052 -0.2402
  509TMC3    C1 7559   3.756   2.737  16.027 -0.1080 -0.1518  0.5337
  509TMC3    C2 7560   3.887   2.718  15.979 -0.2860 -1.0191 -1.2421
  509TMC3    C3 7561   3.946   2.599  16.004 -0.5963 -0.2503  0.1926
  509TMC3    C4 7562   3.695   2.647  16.109 -0.6346  0.2996  0.4746
  509TMC3    C5 7563   3.771   2.532  16.142 -0.1654  0.2617  0.4281
  509TMC3    C6 7564   3.894   2.503  16.088 -0.7429  0.3243  0.3901
  509TMC3     C 7565   3.670   2.830  15.948  1.3316 -0.2138 -1.3282
  509TMC3     O 7566   3.589   2.905  16.007  0.1036 -0.6164 -0.6264
  509TMC3     H 7567   3.931   2.798  15.921 -3.2874  1.6540  0.1724
  509TMC3    H1 7568   3.599   2.678  16.149 -1.7632 -1.5292 -0.8342
  509TMC3    H2 7569   3.931   2.402  16.095 -0.0079  0.3883 -2.8284
  509TMC3    C7 7570   3.755   2.487  16.278 -0.4545 -0.1477 -0.2604
  509TMC3    C8 7571   4.067   2.557  15.949 -0.3932  0.9058 -0.3795
  509TMC3    O1 7572   3.650   2.526  16.330  0.1188  0.3806  0.7094
  509TMC3    O2 7573   4.121   2.458  15.988 -0.5155 -0.6607 -0.2136
  510MPD2     C 7574   1.871   3.781  14.953  0.3150  0.8702 -0.4810
  510MPD2    C1 7575   1.876   3.651  14.976 -0.5303 -0.5149 -0.2524
  510MPD2    C2 7576   1.975   3.582  14.917  0.1418 -0.7296  0.5090
  510MPD2    C3 7577   2.068   3.636  14.834  0.4582  0.3023 -0.1045
  510MPD2    C4 7578   2.059   3.775  14.820  0.4753 -0.0745  0.1889
  510MPD2    C5 7579   1.968   3.844  14.888  0.1728 -0.7000  0.4834
  510MPD2     H 7580   1.984   3.475  14.929  1.3711 -0.8062 -1.0691
  510MPD2    H1 7581   2.119   3.833  14.750  1.0291  0.1985  0.8867
  510MPD2    H2 7582   1.793   3.847  14.989 -0.8084 -1.2119  0.8727
  510MPD2    H3 7583   1.961   3.950  14.865  0.6373 -0.9431 -0.8137
  510MPD2     N 7584   2.169   3.563  14.777 -0.4771 -0.3427  0.0264
  510MPD2    H5 7585   2.174   3.466  14.807  1.4423  0.4732  2.3339
  510MPD2    N1 7586   1.766   3.597  15.058  0.5819  0.0221 -0.9241
  510MPD2    H7 7587   1.702   3.664  15.101  0.0788 -0.7444 -0.4914
  511TMC3    C1 7588   1.625   3.425  15.150 -0.1701 -0.7229  0.3921
  511TMC3    C2 7589   1.589   3.498  15.259  0.5000 -0.5281 -0.9924
  511TMC3    C3 7590   1.492   3.445  15.343  0.3386  0.8224 -0.1308
  511TMC3    C4 7591   1.585   3.292  15.142 -0.7153 -0.1773 -0.4042
  511TMC3    C5 7592   1.477   3.251  15.217 -0.6194 -0.2844 -0.3195
  511TMC3    C6 7593   1.431   3.327  15.317 -0.2983 -0.3567 -0.1363
  511TMC3     C 7594   1.738   3.463  15.061 -0.2279  0.7855  0.7891
  511TMC3     O 7595   1.788   3.373  15.002  0.4851 -0.3878  0.2981
  511TMC3     H 7596   1.622   3.598  15.284 -3.3681  0.8281 -1.3097
  511TMC3    H1 7597   1.629   3.230  15.065 -0.0269 -2.4934  1.8723
  511TMC3    H2 7598   1.337   3.300  15.364 -0.2038 -1.9523 -0.8520
  511TMC3    C7 7599   1.442   3.109  15.204  0.6069  0.3588  0.2380
  511TMC3    C8 7600   1.437   3.529  15.453 -0.1644 -0.1453  0.1513
  511TMC3    O1 7601   1.512   3.050  15.122  0.2171  0.6030  0.4813
  511TMC3    O2 7602   1.450   3.650  15.451  0.0924 -0.4435 -0.4995
  512TMC3    C1 7603   0.750   2.824  12.982  0.5202 -0.5653  0.7623
  512TMC3    C2 7604   0.855   2.821  13.069 -0.0779 -0.4116  0.5411
  512TMC3    C3 7605   0.901   2.695  13.090 -0.4968  0.5077 -0.0626
  512TMC3    C4 7606   0.693   2.713  12.923  0.2198  0.3184 -0.2845
  512TMC3    C5 7607   0.734   2.589  12.962 -0.4036  0.2201 -0.1674
  512TMC3    C6 7608   0.839   2.577  13.049  0.4252 -0.4975 -0.3157
  512TMC3     C 7609   0.719   2.956  12.937  0.6160 -0.2673  0.4968
  512TMC3     O 7610   0.812   3.029  12.939 -0.2843  0.0043  0.1592
  512TMC3     H 7611   0.888   2.909  13.122 -0.5363 -0.2706  0.5945
  512TMC3    H1 7612   0.605   2.728  12.862 -0.3384 -2.6328 -0.2034
  512TMC3    H2 7613   0.892   2.484  13.069  2.4335  0.4592 -1.2163
  512TMC3    C7 7614   0.666   2.481  12.911 -0.1494 -0.0070  0.2442
  512TMC3    C8 7615   0.994   2.674  13.206 -0.0364 -1.1371 -0.7382
  512TMC3    O1 7616   0.586   2.503  12.819  0.0092 -0.4707 -0.2535
  512TMC3    O2 7617   1.032   2.560  13.235  0.2717  0.5574  0.1145
  513MPD2     C 7618   2.158   2.943  13.462 -0.3981  0.1976 -0.6991
  513MPD2    C1 7619   2.249   2.848  13.411  0.0600  0.8011 -0.1700
  513MPD2    C2 7620   2.358   2.818  13.497  0.3523  0.1414  0.2483
  513MPD2    C3 7621   2.362   2.864  13.629  0.7639  0.4923 -0.0224
  513MPD2    C4 7622   2.276   2.963  13.678  0.1238  0.2839 -0.2961
  513MPD2    C5 7623   2.174   3.000  13.588  0.0743  0.3504  0.0141
  513MPD2     H 7624   2.435   2.748  13.467 -0.0647  0.0692 -0.6621
  513MPD2    H1 7625   2.288   3.012  13.774  3.4924 -3.8199  1.4003
  513MPD2    H2 7626   2.075   2.983  13.406 -0.4521 -0.3370 -1.0063
  513MPD2    H3 7627   2.098   3.075  13.607  0.5660  0.7617  0.3464
  513MPD2     N 7628   2.460   2.798  13.712 -0.0134  0.8030  0.2104
  513MPD2    H5 7629   2.509   2.719  13.671 -0.1362  1.5687 -1.4069
  513MPD2    N1 7630   2.243   2.794  13.280  0.0727 -0.5035  0.2922
  513MPD2    H7 7631   2.320   2.730  13.265  0.9296  0.2322  1.4733
  514TMC3    C1 7632   2.209   2.785  13.042  1.1535  0.0214  0.1187
  514TMC3    C2 7633   2.247   2.885  12.949  0.0421  0.2901  0.0746
  514TMC3    C3 7634   2.359   2.859  12.883 -0.4719 -0.4808  0.4072
  514TMC3    C4 7635   2.274   2.668  13.053  0.4145 -0.4576 -0.1097
  514TMC3    C5 7636   2.394   2.651  12.996  0.5724 -0.7016 -0.6677
  514TMC3    C6 7637   2.441   2.753  12.915  0.1267 -0.5085 -0.2598
  514TMC3     C 7638   2.165   2.841  13.174  0.5332 -0.7826  0.0778
  514TMC3     O 7639   2.081   2.925  13.173 -0.1327 -0.2268  0.5253
  514TMC3     H 7640   2.204   2.984  12.936 -1.7307 -0.0630  3.2831
  514TMC3    H1 7641   2.226   2.590  13.110  0.2945  0.7519  1.4595
  514TMC3    H2 7642   2.544   2.756  12.881  0.6226 -0.5440  1.2469
  514TMC3    C7 7643   2.486   2.618  13.108 -0.3796 -0.1116  0.4211
  514TMC3    C8 7644   2.428   2.980  12.844 -0.2526  0.6163 -0.1227
  514TMC3    O1 7645   2.425   2.618  13.216 -0.0761 -0.7293 -0.6062
  514TMC3    O2 7646   2.417   3.078  12.914  0.4621  0.0107  0.2717
  515MPD2     C 7647   0.690   0.308  14.755 -0.2423 -0.1239  0.1766
  515MPD2    C1 7648   0.638   0.195  14.811 -0.0040  0.5616  0.7407
  515MPD2    C2 7649   0.725   0.127  14.897  0.2608  0.6932 -0.1457
  515MPD2    C3 7650   0.861   0.159  14.900 -0.1671  0.2254 -0.0746
  515MPD2    C4 7651   0.907   0.271  14.830  0.0938  0.4771  0.5727
  515MPD2    C5 7652   0.819   0.344  14.760 -0.8949  0.3365  0.6916
  515MPD2     H 7653   0.692   0.037  14.947  1.5814  1.1230  1.5255
  515MPD2    H1 7654   1.012   0.299  14.827  0.6440 -2.0575 -4.0176
  515MPD2    H2 7655   0.621   0.375  14.706  0.3929 -0.5760 -1.3201
  515MPD2    H3 7656   0.849   0.434  14.708  0.4990 -0.6471 -0.1902
  515MPD2     N 7657   0.953   0.088  14.976 -0.2588 -0.1878 -0.1274
  515MPD2    H5 7658   1.045   0.129  14.981  0.6975 -2.3565 -0.3785
  515MPD2    N1 7659   0.507   0.146  14.786 -0.2138  0.4787  0.4538
  515MPD2    H7 7660   0.473   0.068  14.841 -0.9892 -1.5778 -2.9821
  516TMC3    C1 7661   0.298   0.128  14.680  0.2076 -0.5163  0.6371
  516TMC3    C2 7662   0.251   0.132  14.553  0.7401 -0.4982 -0.0872
  516TMC3    C3 7663   0.144   0.047  14.515  0.7830 -0.4552  0.3061
  516TMC3    C4 7664   0.263   0.023  14.762  0.2384  0.0160  0.5630
  516TMC3    C5 7665   0.155   4.668  14.731 -0.6285  0.1160  0.0565
  516TMC3    C6 7666   0.083   4.682  14.608  0.7463 -0.3136 -0.5053
  516TMC3     C 7667   0.417   0.207  14.701 -0.5258  0.2829  0.0118
  516TMC3     O 7668   0.408   0.320  14.644  0.1160  0.3036  0.1048
  516TMC3     H 7669   0.296   0.198  14.480 -0.1354 -0.6689 -0.7852
  516TMC3    H1 7670   0.314   0.011  14.857 -1.4852  1.9569  1.7026
  516TMC3    H2 7671   4.720   4.623  14.579 -0.3880  1.0352  0.1728
  516TMC3    C7 7672   0.165   4.539  14.792  0.3426  0.7076  0.4354
  516TMC3    C8 7673   0.083   0.059  14.384  0.0245  0.6223  0.4637
  516TMC3    O1 7674   0.270   4.512  14.852  0.0216  0.0156 -0.4120
  516TMC3    O2 7675   0.006   4.694  14.355 -0.0437 -0.0838 -0.5419
  517MPD2     C 7676   1.025   1.540   0.175 -0.3505  0.8641 -0.5876
  517MPD2    C1 7677   0.963   1.550   0.053 -0.1747  0.5152 -0.1205
  517MPD2    C2 7678   0.968   1.670  17.680  0.6108  0.0261  0.2881
  517MPD2    C3 7679   1.053   1.774   0.022  0.2800 -0.0500  0.0833
  517MPD2    C4 7680   1.121   1.758   0.138 -0.1321 -0.2610 -0.0041
  517MPD2    C5 7681   1.108   1.643   0.212 -0.6489  0.2362  0.3936
  517MPD2     H 7682   0.906   1.679  17.592  1.2676 -1.2662 -0.3128
  517MPD2    H1 7683   1.173   1.842   0.181 -1.1349  0.6386 -0.5454
  517MPD2    H2 7684   1.023   1.444   0.225  0.6869  0.9271 -0.4269
  517MPD2    H3 7685   1.163   1.639   0.305 -0.2869  2.0277  0.2728
  517MPD2     N 7686   1.058   1.900  17.647 -0.3042  0.7688 -0.2851
  517MPD2    H5 7687   1.120   1.974  17.678 -0.4561  0.5943  0.4339
  517MPD2    N1 7688   0.884   1.451  17.693 -0.7508 -0.0819  0.3723
  517MPD2    H7 7689   0.839   1.472  17.604  1.0814  0.2814 -0.4781
  518TMC3    C1 7690   0.775   1.249  17.673 -0.3990  0.1635 -0.4735
  518TMC3    C2 7691   0.688   1.162   0.030  0.2461  0.2828 -0.6635
  518TMC3    C3 7692   0.610   1.096  17.636 -0.2237  0.0994  0.5012
  518TMC3    C4 7693   0.809   1.249  17.541 -0.5262  0.2311  0.0286
  518TMC3    C5 7694   0.729   1.185  17.456  0.0070 -0.4337  0.5617
  518TMC3    C6 7695   0.624   1.116  17.503 -0.6645  0.3825  0.2088
  518TMC3     C 7696   0.849   1.334   0.061  0.0856  0.1702 -1.4399
  518TMC3     O 7697   0.852   1.317   0.179 -0.5044 -0.4110 -0.4005
  518TMC3     H 7698   0.660   1.148   0.134  0.6027 -1.7977 -0.8515
  518TMC3    H1 7699   0.898   1.303  17.511 -1.2705  1.3990 -0.1036
  518TMC3    H2 7700   0.560   1.058  17.438 -0.2836 -0.1450  0.3039
  518TMC3    C7 7701   0.789   1.128  17.344 -0.7503  0.0812 -0.4012
  518TMC3    C8 7702   0.600   0.957  17.673  0.0605  0.4350  0.0355
  518TMC3    O1 7703   0.729   1.121  17.238 -0.3658 -0.7856 -0.3490
  518TMC3    O2 7704   0.682   0.916   0.055  0.1810 -0.0612 -0.5706
  519MPD2     C 7705   1.972   4.592  14.244 -0.1225 -0.8433 -0.3507
  519MPD2    C1 7706   1.907   4.489  14.177  0.5216  0.1871 -1.0104
  519MPD2    C2 7707   1.974   4.364  14.162  0.1356  0.1172  0.0484
  519MPD2    C3 7708   2.111   4.355  14.186  0.1533  0.3250 -0.4027
  519MPD2    C4 7709   2.173   4.470  14.241 -0.1201  0.0960  0.2814
  519MPD2    C5 7710   2.104   4.584  14.275  0.3783  0.1240  0.4571
  519MPD2     H 7711   1.925   4.272  14.134  0.6036 -0.1689  0.1649
  519MPD2    H1 7712   2.279   4.465  14.265  0.4120 -0.1135 -2.0941
  519MPD2    H2 7713   1.919   4.684  14.267  2.1842 -0.0239  1.7146
  519MPD2    H3 7714   2.144   4.680  14.308  1.4725 -0.0147 -0.4341
  519MPD2     N 7715   2.194   4.239  14.156  0.1922  0.8571 -0.1700
  519MPD2    H5 7716   2.294   4.254  14.155  0.1813  0.9493  0.0944
  519MPD2    N1 7717   1.775   4.508  14.144 -0.3701  0.0823  0.0483
  519MPD2    H7 7718   1.732   4.595  14.173  3.3606  1.0886  2.4763
  520TMC3    C1 7719   2.254   4.036  14.066  0.6261  0.0509  0.4616
  520TMC3    C2 7720   2.202   3.972  13.955  0.0994 -0.3079 -0.0079
  520TMC3    C3 7721   2.289   3.924  13.860 -0.1817 -0.5371  0.5593
  520TMC3    C4 7722   2.385   4.054  14.084 -0.1048 -0.1392 -0.6137
  520TMC3    C5 7723   2.465   3.988  13.993  0.0154  0.2512  0.4492
  520TMC3    C6 7724   2.427   3.923  13.881 -0.0424  0.3422 -0.5373
  520TMC3     C 7725   2.148   4.117  14.126 -0.8368  0.2046 -0.0225
  520TMC3     O 7726   2.038   4.068  14.136  0.2158 -0.4495 -0.1924
  520TMC3     H 7727   2.097   3.960  13.933 -0.4324  3.5876  0.4607
  520TMC3    H1 7728   2.421   4.101  14.175  1.7602 -2.7521  0.0026
  520TMC3    H2 7729   2.493   3.866  13.817 -0.2132  1.7504 -1.9811
  520TMC3    C7 7730   2.593   3.942  14.042 -0.6335  0.4570  0.7538
  520TMC3    C8 7731   2.257   3.948  13.723  0.2149 -0.3123 -0.5249
  520TMC3    O1 7732   2.626   3.830  14.016  0.1530  0.5980  0.2966
  520TMC3    O2 7733   2.351   3.944  13.640  0.6006  0.3945  0.0438
  521MPD2     C 7734   3.224   2.254  17.460  0.1088  0.2811 -0.0807
  521MPD2    C1 7735   3.150   2.142  17.443  0.1812 -0.1475 -0.2031
  521MPD2    C2 7736   3.217   2.027  17.408  0.9361  0.1653 -0.5268
  521MPD2    C3 7737   3.353   2.019  17.397 -0.1110  0.6206 -0.0179
  521MPD2    C4 7738   3.426   2.133  17.412 -0.2532 -0.1008 -0.4542
  521MPD2    C5 7739   3.356   2.246  17.443  0.5063  0.3665  0.4878
  521MPD2     H 7740   3.157   1.940  17.382  2.2138 -1.1996  1.1435
  521MPD2    H1 7741   3.534   2.143  17.417  0.0927 -3.9558  0.1535
  521MPD2    H2 7742   3.172   2.348  17.470  2.2763  1.4401  0.0880
  521MPD2    H3 7743   3.413   2.338  17.449  0.1157  0.6809 -0.5910
  521MPD2     N 7744   3.404   1.891  17.376  0.7188  0.0512  0.1701
  521MPD2    H5 7745   3.336   1.816  17.381  0.9520 -0.2799 -1.5458
  521MPD2    N1 7746   3.012   2.154  17.458  0.1288 -0.3448 -0.0414
  521MPD2    H7 7747   2.978   2.250  17.460 -1.6400 -0.9793  0.2262
  522TMC3    C1 7748   3.563   1.725  17.337 -0.3533  0.9361 -0.0644
  522TMC3    C2 7749   3.691   1.672  17.351  0.2983 -0.8512 -0.3601
  522TMC3    C3 7750   3.708   1.537  17.336  0.5540  0.9837  0.3927
  522TMC3    C4 7751   3.454   1.644  17.310 -0.1137  0.3740  0.4268
  522TMC3    C5 7752   3.478   1.507  17.302 -0.1936 -0.5045 -0.2120
  522TMC3    C6 7753   3.603   1.456  17.309  0.2208 -0.1705  0.6761
  522TMC3     C 7754   3.537   1.860  17.368 -0.0056  0.3839 -1.2353
  522TMC3     O 7755   3.636   1.928  17.371  0.1523 -0.5818  0.1984
  522TMC3     H 7756   3.770   1.743  17.370 -2.2370  1.4823  1.4376
  522TMC3    H1 7757   3.363   1.690  17.272 -0.6923 -0.5873  0.6605
  522TMC3    H2 7758   3.624   1.355  17.276  1.0284  0.0938  0.3771
  522TMC3    C7 7759   3.379   1.429  17.231 -0.4469 -0.1484  0.6329
  522TMC3    C8 7760   3.848   1.490  17.326 -0.0256 -0.0039  0.2489
  522TMC3    O1 7761   3.427   1.331  17.174  0.2430 -0.0605 -0.7056
  522TMC3    O2 7762   3.870   1.371  17.354 -0.3099  0.1141 -0.1674
  523MPD2     C 7763   0.955   1.835  10.268 -0.1609  0.2915 -0.1118
  523MPD2    C1 7764   0.948   1.793  10.140 -0.2014  0.3371  0.4693
  523MPD2    C2 7765   0.947   1.891  10.042 -0.5558  0.6193 -0.9815
  523MPD2    C3 7766   0.931   2.026  10.064  0.1731 -0.1283 -0.4434
  523MPD2    C4 7767   0.940   2.068  10.197  0.3242  0.3359 -0.8970
  523MPD2    C5 7768   0.966   1.973  10.293  0.8394  1.0393  0.3275
  523MPD2     H 7769   0.943   1.855   9.940 -1.6805 -2.7531  0.2698
  523MPD2    H1 7770   0.930   2.168  10.239  0.2886  0.5973 -1.5337
  523MPD2    H2 7771   0.955   1.765  10.351 -3.0157  1.0186  0.4943
  523MPD2    H3 7772   0.978   2.010  10.395 -0.5695 -0.3403  0.9897
  523MPD2     N 7773   0.891   2.121   9.966 -0.1957  0.0402  0.7729
  523MPD2    H5 7774   0.878   2.214  10.004 -2.1030  0.5396 -1.1384
  523MPD2    N1 7775   0.949   1.649  10.121 -0.3711  0.5042  0.0078
  523MPD2    H7 7776   0.942   1.589  10.202  0.4548 -1.7937 -1.6292
  524TMC3    C1 7777   0.798   2.212   9.771  0.4169 -0.1240  0.2202
  524TMC3    C2 7778   0.727   2.188   9.655  0.0713 -0.0779  0.6062
  524TMC3    C3 7779   0.686   2.299   9.585 -0.3456 -0.0026  0.4973
  524TMC3    C4 7780   0.830   2.336   9.808 -0.2451  0.9460  0.1135
  524TMC3    C5 7781   0.783   2.447   9.742  0.2792 -0.2673  1.0015
  524TMC3    C6 7782   0.712   2.432   9.626 -0.1276  0.3145  0.7912
  524TMC3     C 7783   0.870   2.098   9.830 -0.1066 -0.3091  0.0099
  524TMC3     O 7784   0.869   1.995   9.768  0.4082  0.7432  0.8798
  524TMC3     H 7785   0.687   2.088   9.651  0.6977 -0.4228  3.0646
  524TMC3    H1 7786   0.878   2.352   9.903  1.1079 -1.6731 -0.1317
  524TMC3    H2 7787   0.677   2.513   9.562 -0.1899 -0.6346 -0.3756
  524TMC3    C7 7788   0.784   2.577   9.807  0.2831 -0.7435 -0.2113
  524TMC3    C8 7789   0.656   2.277   9.447 -0.7356 -0.0101  0.2941
  524TMC3    O1 7790   0.809   2.567   9.925 -0.3492 -0.5390 -0.0154
  524TMC3    O2 7791   0.607   2.369   9.380 -0.1510 -0.5132 -0.1921
  525MPD2     C 7792   3.628   3.800  14.476  0.6053  0.0489 -0.9605
  525MPD2    C1 7793   3.734   3.835  14.551 -0.2496  0.1190  0.2905
  525MPD2    C2 7794   3.804   3.952  14.523  0.7753  0.7265 -0.2734
  525MPD2    C3 7795   3.760   4.024  14.409 -0.2940  0.2542 -0.3733
  525MPD2    C4 7796   3.670   3.971  14.328  0.1513 -0.5750  0.0736
  525MPD2    C5 7797   3.590   3.867  14.366 -0.0119 -0.1807  0.3990
  525MPD2     H 7798   3.889   3.989  14.578  0.5144 -0.5051  0.9680
  525MPD2    H1 7799   3.645   4.013  14.231  1.1513 -0.7986 -0.2816
  525MPD2    H2 7800   3.572   3.709  14.495  3.1699 -1.3603 -0.1992
  525MPD2    H3 7801   3.517   3.824  14.299  0.5167 -1.5911  0.7219
  525MPD2     N 7802   3.801   4.155  14.375  0.0506  0.1520 -0.2437
  525MPD2    H5 7803   3.749   4.212  14.309  1.5447  0.3119 -1.2796
  525MPD2    N1 7804   3.775   3.760  14.664 -0.3983  0.3176 -0.2332
  525MPD2    H7 7805   3.865   3.786  14.702  0.7760 -2.0611 -1.3796
  526TMC3    C1 7806   3.776   3.587  14.823  0.1841  0.1653 -0.0160
  526TMC3    C2 7807   3.710   3.571  14.937  0.0304 -0.0976  0.3608
  526TMC3    C3 7808   3.779   3.534  15.047  0.3904 -0.2789 -0.4033
  526TMC3    C4 7809   3.905   3.552  14.801  0.0690  0.2217 -0.1618
  526TMC3    C5 7810   3.971   3.518  14.918  0.1157  0.1553  1.0049
  526TMC3    C6 7811   3.908   3.506  15.041  0.2667 -0.2914 -0.5571
  526TMC3     C 7812   3.696   3.658  14.717  0.2243 -0.7083 -0.8490
  526TMC3     O 7813   3.578   3.637  14.710  0.0612  0.2220  0.1262
  526TMC3     H 7814   3.610   3.612  14.948  0.3064  1.1110 -1.6134
  526TMC3    H1 7815   3.951   3.551  14.703  0.6044  1.8467  0.0725
  526TMC3    H2 7816   3.968   3.474  15.126  0.3189 -0.7114 -0.7545
  526TMC3    C7 7817   4.093   3.431  14.917 -0.9379 -0.2142  0.2341
  526TMC3    C8 7818   3.758   3.601  15.173 -0.5172  0.1560 -0.2754
  526TMC3    O1 7819   4.141   3.399  15.022  0.5090 -0.1771 -0.1167
  526TMC3    O2 7820   3.859   3.659  15.216  0.2367 -0.5650 -0.5725
  527MPD2     C 7821   3.035   2.376   0.711  0.5377 -0.4930  0.3755
  527MPD2    C1 7822   2.928   2.350   0.788  0.2736 -0.0387 -0.5039
  527MPD2    C2 7823   2.871   2.228   0.787  0.3703 -0.2229 -0.6316
  527MPD2    C3 7824   2.925   2.122   0.710 -0.9745 -0.1176 -0.8172
  527MPD2    C4 7825   3.041   2.148   0.642  0.3212 -0.4363  0.6064
  527MPD2    C5 7826   3.098   2.274   0.643 -0.1118  0.1341 -0.4623
  527MPD2     H 7827   2.776   2.225   0.840  0.5932  3.6432 -0.0507
  527MPD2    H1 7828   3.070   2.092   0.555 -1.7818 -2.7139  1.3796
  527MPD2    H2 7829   3.075   2.476   0.707  4.4641 -2.0605  0.5440
  527MPD2    H3 7830   3.184   2.296   0.582  0.9607  0.1507  1.0421
  527MPD2     N 7831   2.842   2.000   0.696  0.0932  0.4131 -0.3297
  527MPD2    H5 7832   2.879   1.927   0.636 -2.5358 -1.5049  0.3373
  527MPD2    N1 7833   2.858   2.448   0.860  0.1098 -0.2001 -0.2762
  527MPD2    H7 7834   2.778   2.421   0.917 -0.6896 -0.3264 -1.4377
  528TMC3    C1 7835   2.786   2.637   0.980  0.3194  0.1778 -0.3661
  528TMC3    C2 7836   2.838   2.704   1.085 -0.7398  0.0977  0.6541
  528TMC3    C3 7837   2.772   2.711   1.202  0.0698 -0.1837  0.3062
  528TMC3    C4 7838   2.663   2.581   0.991 -0.0464 -0.7608 -0.6565
  528TMC3    C5 7839   2.595   2.595   1.106 -0.1877  1.1163  0.0966
  528TMC3    C6 7840   2.652   2.657   1.215  0.0148 -0.5205 -0.2864
  528TMC3     C 7841   2.884   2.581   0.879  0.4049  0.0384 -0.2346
  528TMC3     O 7842   2.986   2.641   0.839 -0.0601  0.5072  0.0363
  528TMC3     H 7843   2.933   2.754   1.071 -0.1520 -0.5485  2.3287
  528TMC3    H1 7844   2.619   2.522   0.911 -0.3737  0.8794 -1.6924
  528TMC3    H2 7845   2.596   2.685   1.303  1.2514  1.0321  0.0079
  528TMC3    C7 7846   2.458   2.560   1.112 -0.5798  0.0077  0.4510
  528TMC3    C8 7847   2.834   2.759   1.322  0.0031  0.5399 -0.2137
  528TMC3    O1 7848   2.414   2.558   1.227  0.1379 -0.4124  0.2679
  528TMC3    O2 7849   2.765   2.824   1.400 -0.2570 -0.0559 -0.1574
  529MPD2     C 7850   4.685   0.841   0.083 -0.0451 -0.2137  0.3504
  529MPD2    C1 7851   4.590   0.777   0.157  0.2660 -0.5584  0.1929
  529MPD2    C2 7852   4.463   0.772   0.105 -0.1276 -0.2915  0.1857
  529MPD2    C3 7853   4.442   0.809  17.671  0.2296 -0.1377 -0.3988
  529MPD2    C4 7854   4.544   0.863  17.594 -0.4480 -0.4919  0.1210
  529MPD2    C5 7855   4.664   0.891  17.655  0.2353 -0.2328  0.1726
  529MPD2     H 7856   4.381   0.727   0.160 -1.2068 -0.3075 -1.4038
  529MPD2    H1 7857   4.523   0.894  17.492 -0.3072 -0.5245  0.0830
  529MPD2    H2 7858   0.063   0.861   0.114  0.5478  0.3300 -1.9038
  529MPD2    H3 7859   0.018   0.938  17.596 -0.7350 -0.2786 -1.1364
  529MPD2     N 7860   4.315   0.790  17.606  0.3650 -0.3189 -0.4185
  529MPD2    H5 7861   4.300   0.804  17.507 -1.4664 -1.4809 -0.3129
  529MPD2    N1 7862   4.606   0.710   0.281  0.8815 -0.1087 -0.2687
  529MPD2    H7 7863   4.522   0.674   0.324 -0.9915  4.5577 -0.0908
  530TMC3    C1 7864   4.712   0.599   0.464  0.8395 -0.4201  0.0794
  530TMC3    C2 7865   0.098   0.532   0.508 -0.2671 -0.6230  0.3853
  530TMC3    C3 7866   0.101   0.485   0.633  0.0256 -0.4582 -0.1277
  530TMC3    C4 7867   4.607   0.618   0.539  0.1554  0.4605  0.1006
  530TMC3    C5 7868   4.603   0.571   0.668 -0.3599  0.3931 -0.5128
  530TMC3    C6 7869   4.712   0.501   0.715  0.0885 -0.9079 -0.0421
  530TMC3     C 7870   0.003   0.674   0.339  0.2428 -0.6219 -0.3370
  530TMC3     O 7871   0.113   0.708   0.306  0.5990  0.1289  0.1235
  530TMC3     H 7872   0.180   0.520   0.437 -2.3024 -0.6203 -1.9766
  530TMC3    H1 7873   4.534   0.693   0.512 -2.3907 -1.4640  1.6577
  530TMC3    H2 7874   4.702   0.465   0.816 -0.3602  0.5811  0.4471
  530TMC3    C7 7875   4.471   0.574   0.726  0.3142  0.0927  0.0178
  530TMC3    C8 7876   0.226   0.415   0.666  0.5274  0.6225 -0.5432
  530TMC3    O1 7877   4.395   0.662   0.680  1.1300  0.2133  0.2901
  530TMC3    O2 7878   0.289   0.370   0.569  0.4118  0.2743  0.3178
  531MPD2     C 7879   2.948   2.538  13.313  0.6270 -0.7227 -0.2749
  531MPD2    C1 7880   2.828   2.562  13.377 -0.5531 -0.4112  0.1904
  531MPD2    C2 7881   2.721   2.590  13.295  0.3534 -0.2499 -0.4415
  531MPD2    C3 7882   2.728   2.580  13.157 -0.0631  0.3447  0.6611
  531MPD2    C4 7883   2.847   2.551  13.100 -0.0891 -0.4615 -0.3047
  531MPD2    C5 7884   2.958   2.535  13.182  0.5148  0.2608  0.4276
  531MPD2     H 7885   2.624   2.614  13.336 -0.0210 -1.6873 -0.4795
  531MPD2    H1 7886   2.853   2.559  12.992  0.0737 -0.0158 -0.2659
  531MPD2    H2 7887   3.042   2.533  13.367  2.0438 -2.0697 -2.8578
  531MPD2    H3 7888   3.057   2.521  13.142  0.8370 -1.7063  1.8687
  531MPD2     N 7889   2.619   2.606  13.070 -0.8786 -0.0522 -0.3001
  531MPD2    H5 7890   2.649   2.608  12.973 -0.2233  2.0135 -0.0465
  531MPD2    N1 7891   2.836   2.577  13.518  0.5350  0.3474 -0.2653
  531MPD2    H7 7892   2.930   2.591  13.552  0.8510 -0.9496 -0.6007
  532TMC3    C1 7893   2.742   2.636  13.727  0.5897 -0.4534  0.4937
  532TMC3    C2 7894   2.628   2.639  13.801 -0.5534 -0.5939 -0.0895
  532TMC3    C3 7895   2.602   2.745  13.890  0.2103 -0.5062  0.8027
  532TMC3    C4 7896   2.846   2.715  13.757 -0.1509 -0.3750  0.7876
  532TMC3    C5 7897   2.831   2.808  13.863  0.2888  0.0713  0.0109
  532TMC3    C6 7898   2.709   2.824  13.929  0.0566  0.1318  0.3467
  532TMC3     C 7899   2.723   2.597  13.590 -0.5619 -0.0835 -0.4235
  532TMC3     O 7900   2.605   2.606  13.558  0.1217 -0.2513 -0.0275
  532TMC3     H 7901   2.548   2.568  13.781 -2.9726  2.2115 -0.3559
  532TMC3    H1 7902   2.934   2.724  13.695 -0.6899  0.9733  0.2130
  532TMC3    H2 7903   2.692   2.908  13.995 -0.2927  1.1014 -0.9762
  532TMC3    C7 7904   2.951   2.841  13.944 -0.3971 -0.0876  0.3850
  532TMC3    C8 7905   2.493   2.829  13.838 -0.0509  0.1662 -0.0464
  532TMC3    O1 7906   2.930   2.901  14.048 -0.5260 -0.1504 -0.2078
  532TMC3    O2 7907   2.450   2.916  13.908 -0.7848  0.1400  0.0240
  533TMC3    C1 7908   3.932   4.349  14.380  0.0223 -0.0085  0.2898
  533TMC3    C2 7909   4.055   4.407  14.389  0.1836 -0.2662 -0.3451
  533TMC3    C3 7910   4.053   4.539  14.383  0.1251  0.1104  0.4005
  533TMC3    C4 7911   3.816   4.417  14.355  0.1382  0.1028 -0.4863
  533TMC3    C5 7912   3.823   4.550  14.370 -0.5633 -0.1147 -0.1040
  533TMC3    C6 7913   3.944   4.615  14.367 -0.1850  0.4702  0.1522
  533TMC3     C 7914   3.919   4.209  14.422 -0.1556  0.1261 -0.5310
  533TMC3     O 7915   4.002   4.167  14.504  0.0766 -0.1303  0.1939
  533TMC3     H 7916   4.143   4.349  14.415  1.5721  2.2729  0.7097
  533TMC3    H1 7917   3.723   4.360  14.352  0.9079 -1.1185 -1.1435
  533TMC3    H2 7918   3.956   4.722  14.362 -2.1411  0.7619  1.5170
  533TMC3    C7 7919   3.740   4.586  14.481  0.3373  0.2020 -0.1323
  533TMC3    C8 7920   4.171   4.605  14.427  0.1408 -0.2141  0.1964
  533TMC3    O1 7921   3.667   4.493  14.514  0.2822  0.4106 -0.3159
  533TMC3    O2 7922   4.226   4.568  14.527  0.4515 -0.5075 -0.0134
  534MPD2     C 7923   1.341   1.912   2.264 -0.2704 -0.2479 -0.0503
  534MPD2    C1 7924   1.436   1.885   2.165 -0.3791  0.2045 -0.2209
  534MPD2    C2 7925   1.400   1.779   2.087 -0.0065 -0.0423 -0.1240
  534MPD2    C3 7926   1.293   1.695   2.101  0.5295  0.4596 -0.6453
  534MPD2    C4 7927   1.206   1.724   2.204 -0.0440 -0.8439  0.9594
  534MPD2    C5 7928   1.234   1.828   2.290  0.6488  0.0556 -0.7306
  534MPD2     H 7929   1.478   1.750   2.017 -0.2412  1.8803 -1.1790
  534MPD2    H1 7930   1.119   1.662   2.222 -1.2576  0.6919  0.4688
  534MPD2    H2 7931   1.351   1.992   2.337 -2.0923  2.1311 -2.4085
  534MPD2    H3 7932   1.172   1.844   2.378 -0.2460 -1.1270 -1.1436
  534MPD2     N 7933   1.270   1.574   2.029  0.3935  0.0023  0.0205
  534MPD2    H5 7934   1.199   1.504   2.046 -0.7815  0.5068 -2.9082
  534MPD2    N1 7935   1.547   1.964   2.138 -0.2355  0.3571  0.1416
  534MPD2    H7 7936   1.595   1.942   2.051  0.0529  0.7526  0.1987
  535TMC3    C1 7937   1.307   1.415   1.858  0.9365  0.4588  0.6037
  535TMC3    C2 7938   1.198   1.348   1.909 -0.3931 -0.4232 -0.2222
  535TMC3    C3 7939   1.174   1.219   1.855 -0.5520 -0.2830 -0.7245
  535TMC3    C4 7940   1.392   1.365   1.760  1.2945 -0.3385 -0.4117
  535TMC3    C5 7941   1.351   1.248   1.706  0.0806 -0.1490 -0.4449
  535TMC3    C6 7942   1.244   1.176   1.747  0.0737 -0.1993  0.1366
  535TMC3     C 7943   1.339   1.542   1.914  0.5633  0.9040  0.3522
  535TMC3     O 7944   1.415   1.612   1.847  0.4230 -0.0696  0.0009
  535TMC3     H 7945   1.125   1.388   1.979  0.6807  0.0071  0.6494
  535TMC3    H1 7946   1.488   1.406   1.729  0.2930  0.9492 -1.8128
  535TMC3    H2 7947   1.237   1.076   1.705 -0.1393  0.4630 -1.3946
  535TMC3    C7 7948   1.437   1.193   1.602  0.0854 -0.4483 -0.8906
  535TMC3    C8 7949   1.061   1.142   1.901  0.0847  0.0564  0.0093
  535TMC3    O1 7950   1.432   1.074   1.577  0.0361 -0.2589  0.4288
  535TMC3    O2 7951   1.038   1.042   1.841 -0.4561  0.0471  0.2170
  536MPD2     C 7952   0.617   3.655  16.579  0.6315  0.1305  0.3396
  536MPD2    C1 7953   0.517   3.552  16.588 -0.4585 -0.1276 -0.1597
  536MPD2    C2 7954   0.487   3.478  16.476  1.0444  0.0343  0.1341
  536MPD2    C3 7955   0.558   3.504  16.359  0.6597  0.0759 -0.2507
  536MPD2    C4 7956   0.656   3.599  16.356 -0.3903 -0.1983 -0.0947
  536MPD2    C5 7957   0.684   3.673  16.463 -0.0675  0.4608 -0.2226
  536MPD2     H 7958   0.402   3.411  16.477 -0.0523  1.4343  0.2736
  536MPD2    H1 7959   0.710   3.622  16.264 -0.1877 -1.2476 -0.2358
  536MPD2    H2 7960   0.652   3.719  16.660  0.6184  3.1842 -2.0541
  536MPD2    H3 7961   0.756   3.754  16.456  0.0174  0.6380  2.4633
  536MPD2     N 7962   0.521   3.453  16.237  0.3746 -0.1550 -0.7827
  536MPD2    H5 7963   0.587   3.468  16.162  0.3999 -2.0619 -1.1506
  536MPD2    N1 7964   0.469   3.528  16.721 -0.2877 -0.6898  0.1755
  536MPD2    H7 7965   0.520   3.568  16.799 -1.3969  2.9844 -0.9448
  537TMC3    C1 7966   0.319   3.472  16.890  0.2852  0.6208  0.1000
  537TMC3    C2 7967   0.318   3.600  16.937  0.5766  0.5487 -0.6404
  537TMC3    C3 7968   0.326   3.617  17.074 -0.3327  0.6245 -0.0883
  537TMC3    C4 7969   0.323   3.364  16.975 -0.3609  0.1166 -0.1341
  537TMC3    C5 7970   0.330   3.387  17.109  0.9042  0.2040  0.3888
  537TMC3    C6 7971   0.331   3.511  17.162  0.3723 -1.0715  0.0668
  537TMC3     C 7972   0.355   3.459  16.749  0.4371  0.3779 -0.1238
  537TMC3     O 7973   0.298   3.377  16.681  0.4364 -0.1063 -0.2502
  537TMC3     H 7974   0.323   3.675  16.859 -2.0577  1.6287  0.2373
  537TMC3    H1 7975   0.306   3.269  16.927  2.1750  0.0230 -0.8281
  537TMC3    H2 7976   0.343   3.538  17.266  0.0897 -0.3245 -0.0918
  537TMC3    C7 7977   0.414   3.290  17.174  0.1976 -0.2816 -0.5434
  537TMC3    C8 7978   0.372   3.743  17.118 -0.1053 -0.2749 -0.5178
  537TMC3    O1 7979   0.509   3.340  17.236  0.0557  0.2581  0.1179
  537TMC3    O2 7980   0.429   3.743  17.222 -1.1497  0.4888  0.4081
  538TMC3    C1 7981   1.357   1.954  11.032 -0.2053 -0.3348 -0.4717
  538TMC3    C2 7982   1.451   1.862  10.996 -0.2341 -0.5214 -0.8347
  538TMC3    C3 7983   1.425   1.797  10.877 -0.2787  0.8713 -1.0668
  538TMC3    C4 7984   1.246   1.981  10.958  0.1002 -0.0072  0.1749
  538TMC3    C5 7985   1.222   1.910  10.843 -0.0197  0.0621 -0.4038
  538TMC3    C6 7986   1.312   1.814  10.806 -0.3684  0.1764  0.1093
  538TMC3     C 7987   1.366   2.028  11.151 -0.4564 -0.4662  0.1688
  538TMC3     O 7988   1.300   2.126  11.161  0.2815 -0.0517  0.3680
  538TMC3     H 7989   1.535   1.839  11.061 -1.4518  0.3566  1.0581
  538TMC3    H1 7990   1.174   2.056  10.988 -0.4201  0.1359 -1.4555
  538TMC3    H2 7991   1.301   1.769  10.708 -1.0738 -0.4182  0.4572
  538TMC3    C7 7992   1.165   1.995  10.735  0.0701 -0.5117  0.5862
  538TMC3    C8 7993   1.547   1.784  10.797 -0.2264 -0.1090  0.4368
  538TMC3    O1 7994   1.109   1.947  10.639  0.3109  0.6670  0.2745
  538TMC3    O2 7995   1.646   1.841  10.833 -0.1476 -0.4437 -0.0795
  539MPD2     C 7996   1.277   1.491  11.900 -0.2993  0.0599 -0.2480
  539MPD2    C1 7997   1.267   1.494  11.765 -0.2740  0.1899 -0.1461
  539MPD2    C2 7998   1.235   1.610  11.699 -0.5421  0.0069 -0.0037
  539MPD2    C3 7999   1.214   1.722  11.775 -0.4064 -0.0456  0.5063
  539MPD2    C4 8000   1.231   1.725  11.912  0.2976 -0.5487 -0.7038
  539MPD2    C5 8001   1.265   1.606  11.974  0.7185  0.2269  0.7962
  539MPD2     H 8002   1.232   1.608  11.590 -1.4339 -0.4154  0.0271
  539MPD2    H1 8003   1.212   1.813  11.971 -1.0234 -0.9413 -0.5395
  539MPD2    H2 8004   1.299   1.398  11.951 -1.8054  0.1507  0.5848
  539MPD2    H3 8005   1.272   1.613  12.082 -2.9690  0.1719  1.0248
  539MPD2     N 8006   1.172   1.839  11.715  0.4329 -0.4118 -0.5128
  539MPD2    H5 8007   1.166   1.918  11.778 -0.6601 -1.7702  1.0714
  539MPD2    N1 8008   1.287   1.381  11.675  0.1283 -0.0111 -0.1044
  539MPD2    H7 8009   1.311   1.401  11.578 -2.2421 -2.6190 -1.2253
  540TMC3    C1 8010   1.086   1.994  11.565 -0.4884 -0.7715  0.2275
  540TMC3    C2 8011   1.092   2.046  11.439 -0.4565  0.5159 -0.1397
  540TMC3    C3 8012   1.017   2.154  11.408  0.1266 -0.3611 -0.6900
  540TMC3    C4 8013   1.018   2.052  11.665  0.9576 -0.0691  0.1785
  540TMC3    C5 8014   0.964   2.178  11.639 -0.4745  0.3760  0.6768
  540TMC3    C6 8015   0.949   2.225  11.507 -0.8359  0.4967  0.1120
  540TMC3     C 8016   1.141   1.863  11.582 -0.1151  0.6059  0.1603
  540TMC3     O 8017   1.162   1.802  11.477 -0.6072  0.0818 -0.2446
  540TMC3     H 8018   1.163   2.003  11.369 -0.0669  0.5570  0.2283
  540TMC3    H1 8019   1.022   2.014  11.767  1.0890  3.2468  1.4078
  540TMC3    H2 8020   0.896   2.314  11.476 -1.2651 -0.6872 -2.5246
  540TMC3    C7 8021   0.857   2.204  11.732  0.3973  0.5092 -0.6750
  540TMC3    C8 8022   0.975   2.179  11.274  0.7638  0.3910  1.6018
  540TMC3    O1 8023   0.827   2.122  11.814 -0.1406 -0.2876  0.9054
  540TMC3    O2 8024   0.937   2.298  11.257  0.2423 -0.0366 -0.1311
  541MPD2     C 8025   4.356   3.131  13.417  0.4232  0.5778  0.4148
  541MPD2    C1 8026   4.281   3.056  13.329 -0.5157 -0.3827 -0.2704
  541MPD2    C2 8027   4.249   3.107  13.207 -0.0782 -0.2234  0.4740
  541MPD2    C3 8028   4.300   3.225  13.166 -0.2788 -0.2925 -0.3977
  541MPD2    C4 8029   4.372   3.296  13.256  0.4832 -0.1650 -0.7520
  541MPD2    C5 8030   4.413   3.245  13.377 -0.1919  0.1919 -0.3494
  541MPD2     H 8031   4.195   3.050  13.132  1.1093  1.1201 -1.4072
  541MPD2    H1 8032   4.407   3.393  13.222 -1.7922 -0.0208 -2.7007
  541MPD2    H2 8033   4.386   3.084  13.510  2.2758  2.4252  0.7631
  541MPD2    H3 8034   4.476   3.295  13.449  1.7267 -1.0737 -1.1450
  541MPD2     N 8035   4.276   3.273  13.037 -0.7127 -0.2236 -0.0510
  541MPD2    H5 8036   4.309   3.366  13.016  0.5552 -0.7982 -0.5692
  541MPD2    N1 8037   4.240   2.933  13.379 -0.3095  0.6335  0.4442
  541MPD2    H7 8038   4.288   2.891  13.458  1.3287 -0.9695 -1.4338
  542TMC3    C1 8039   4.169   3.297  12.815  0.3803 -0.3633  0.0281
  542TMC3    C2 8040   4.164   3.243  12.697  0.2851 -0.1841  0.4624
  542TMC3    C3 8041   4.153   3.322  12.585  0.1413 -0.4526  0.0879
  542TMC3    C4 8042   4.156   3.425  12.837  0.1228 -0.3196  0.5452
  542TMC3    C5 8043   4.154   3.507  12.727 -0.3993 -0.0779 -0.5599
  542TMC3    C6 8044   4.150   3.458  12.596 -0.2837 -0.9899  0.7170
  542TMC3     C 8045   4.204   3.212  12.931 -0.3026  0.1409  0.2969
  542TMC3     O 8046   4.156   3.098  12.916  0.6202 -0.2929 -0.3502
  542TMC3     H 8047   4.191   3.138  12.691 -1.2234 -0.4977 -0.8971
  542TMC3    H1 8048   4.173   3.463  12.937 -0.8697 -0.5179  0.7882
  542TMC3    H2 8049   4.147   3.522  12.509 -3.2301 -0.1961  1.3964
  542TMC3    C7 8050   4.172   3.650  12.756  0.4837 -0.2619 -0.3739
  542TMC3    C8 8051   4.173   3.275  12.450 -0.5050 -0.5051 -0.5733
  542TMC3    O1 8052   4.224   3.680  12.865  0.1514 -0.1143  0.3615
  542TMC3    O2 8053   4.196   3.361  12.362  0.5278  0.4460 -0.0281
  543TMC3    C1 8054   3.597   4.274  17.023  0.0045  0.0404  0.8813
  543TMC3    C2 8055   3.565   4.155  17.072  0.1460  0.6792 -0.0778
  543TMC3    C3 8056   3.505   4.155  17.195 -0.5472  0.1147 -0.3827
  543TMC3    C4 8057   3.546   4.386  17.067 -0.3636 -0.4746 -0.1352
  543TMC3    C5 8058   3.478   4.390  17.185 -0.4382 -0.6064  0.5780
  543TMC3    C6 8059   3.477   4.272  17.256 -0.8550  0.4510 -0.1797
  543TMC3     C 8060   3.615   4.272  16.873 -0.3444  0.6474 -0.1382
  543TMC3     O 8061   3.581   4.371  16.807  0.3229  0.2087 -0.3542
  543TMC3     H 8062   3.607   4.065  17.029 -2.1435 -1.1817  1.5928
  543TMC3    H1 8063   3.547   4.479  17.012 -0.6262 -0.2713  0.2016
  543TMC3    H2 8064   3.450   4.264  17.361  1.5476 -1.3924  0.2938
  543TMC3    C7 8065   3.428   4.509  17.242  0.6188  0.2006 -0.1671
  543TMC3    C8 8066   3.506   4.027  17.260 -0.5300  0.2057  0.1629
  543TMC3    O1 8067   3.455   4.610  17.177  0.2512 -0.4989 -0.3012
  543TMC3    O2 8068   3.583   3.946  17.217 -0.3934  0.0824  0.6764
  544MPD2     C 8069   3.349   3.670  17.587  0.6136  0.2970  0.5069
  544MPD2    C1 8070   3.424   3.659  17.473  0.0737 -0.2079  0.0956
  544MPD2    C2 8071   3.471   3.777  17.412 -0.6373 -0.3764 -0.1363
  544MPD2    C3 8072   3.409   3.901  17.445 -0.2802 -0.2973 -0.2713
  544MPD2    C4 8073   3.315   3.904  17.546  0.3141 -0.0249  0.0636
  544MPD2    C5 8074   3.298   3.797  17.623 -0.3002  0.3311  0.7763
  544MPD2     H 8075   3.545   3.770  17.333  2.3227 -0.3508  2.6171
  544MPD2    H1 8076   3.264   3.995  17.577 -1.0993 -0.5466 -0.7124
  544MPD2    H2 8077   3.311   3.582  17.638 -0.4446 -0.4622 -1.5785
  544MPD2    H3 8078   3.248   3.811   0.021  0.0228 -1.1435  1.1690
  544MPD2     N 8079   3.427   4.021  17.372  0.1826 -1.2818  0.0131
  544MPD2    H5 8080   3.360   4.096  17.389  1.5021  0.2957 -1.7739
  544MPD2    N1 8081   3.471   3.527  17.449 -0.1632 -0.3361  0.2888
  544MPD2    H7 8082   3.431   3.454  17.508 -2.4637  0.1575 -0.6754
  545TMC3    C1 8083   3.635   3.373  17.381 -0.0326  0.1828 -0.3293
  545TMC3    C2 8084   3.759   3.351  17.329 -0.4353 -0.9325 -0.4108
  545TMC3    C3 8085   3.832   3.238  17.360  0.1842 -0.0873  0.1649
  545TMC3    C4 8086   3.595   3.286  17.475  0.2825  0.1107  0.1301
  545TMC3    C5 8087   3.673   3.176  17.511 -0.7114 -0.8987  0.7001
  545TMC3    C6 8088   3.804   3.157  17.465  0.0359 -0.1502 -0.7286
  545TMC3     C 8089   3.571   3.501  17.363 -0.3185  0.0292  0.2181
  545TMC3     O 8090   3.629   3.574  17.282 -0.5762 -0.0362 -0.1541
  545TMC3     H 8091   3.797   3.424  17.258 -0.3418  0.2124  0.8278
  545TMC3    H1 8092   3.504   3.295  17.533  1.0610  0.9695  1.2385
  545TMC3    H2 8093   3.871   3.092  17.521 -0.9062 -0.4956 -0.0028
  545TMC3    C7 8094   3.629   3.109  17.633  0.8174  0.8870 -0.2051
  545TMC3    C8 8095   3.931   3.191  17.266  0.7350  0.1183 -0.8541
  545TMC3    O1 8096   3.512   3.116  17.669 -0.0359 -0.0048 -0.0638
  545TMC3    O2 8097   3.944   3.254  17.160  0.4599 -0.4803 -0.1646
  546MPD2     C 8098   0.542   4.115   0.014  0.0630 -0.4122  0.6028
  546MPD2    C1 8099   0.478   4.166  17.597  0.5198 -0.1689 -0.0931
  546MPD2    C2 8100   0.490   4.302  17.578 -0.3123 -0.4655 -0.2641
  546MPD2    C3 8101   0.558   4.388  17.659  0.6633  0.8883  0.0791
  546MPD2    C4 8102   0.622   4.336   0.075  1.0281  0.6192  0.2589
  546MPD2    C5 8103   0.606   4.201   0.098  0.2689 -0.2756  0.1846
  546MPD2     H 8104   0.443   4.352  17.493  0.2306 -0.7554 -0.7322
  546MPD2    H1 8105   0.682   4.401   0.138  0.4862  3.3242 -2.0342
  546MPD2    H2 8106   0.520   4.011   0.037 -1.8577  0.0622  0.8805
  546MPD2    H3 8107   0.652   4.152   0.183 -0.6595 -0.9694  0.2796
  546MPD2     N 8108   0.574   4.529  17.626  0.1009  0.3734  0.1860
  546MPD2    H5 8109   0.621   4.588  17.693  1.2646 -0.9071  0.4916
  546MPD2    N1 8110   0.413   4.078  17.509 -0.1423  0.0942  0.4189
  546MPD2    H7 8111   0.422   3.980  17.536 -0.4370  0.1303  0.6538
  547TMC3    C1 8112   0.241   3.996  17.385 -0.2747 -0.3830  0.8494
  547TMC3    C2 8113   0.142   4.013  17.289  0.2675 -0.4040 -0.2764
  547TMC3    C3 8114   0.052   3.912  17.266 -0.2825  0.4675 -0.2811
  547TMC3    C4 8115   0.249   3.872  17.449  0.1262  0.3257 -0.1405
  547TMC3    C5 8116   0.164   3.776  17.416  0.5248 -0.0541  0.0925
  547TMC3    C6 8117   0.062   3.790  17.332 -0.4234 -0.2475 -0.1731
  547TMC3     C 8118   0.310   4.112  17.429  0.8955  0.0980  0.1446
  547TMC3     O 8119   0.276   4.222  17.386 -0.1399  0.2386  0.1110
  547TMC3     H 8120   0.133   4.114  17.250 -1.6147 -0.3807  0.1783
  547TMC3    H1 8121   0.334   3.840  17.509 -0.6916  0.0567  0.8814
  547TMC3    H2 8122   4.714   3.709  17.328  0.0857 -0.8970  3.2093
  547TMC3    C7 8123   0.151   3.676  17.525  0.1099 -0.1532  0.5916
  547TMC3    C8 8124   4.666   3.927  17.179  0.2948 -0.2709 -0.1272
  547TMC3    O1 8125   0.174   3.724  17.633 -0.4728 -0.2089 -0.2414
  547TMC3    O2 8126   4.602   3.829  17.161  0.0053 -0.2595  0.0145
  548MPD2     C 8127   4.433   0.141  12.185  0.3185 -0.2461  0.2494
  548MPD2    C1 8128   4.474   0.116  12.312  0.2081  0.0069  0.7617
  548MPD2    C2 8129   4.567   0.013  12.336 -0.4694  0.3355 -0.2305
  548MPD2    C3 8130   4.604   4.662  12.227 -0.3232  0.2150 -0.1389
  548MPD2    C4 8131   4.567   4.687  12.103 -0.8201 -0.2407 -0.1214
  548MPD2    C5 8132   4.484   0.067  12.081  0.3524 -0.0255  0.4458
  548MPD2     H 8133   4.601   4.710  12.436  1.5574  1.4713 -0.6199
  548MPD2    H1 8134   4.604   4.632  12.017 -1.8103 -2.0604  0.6085
  548MPD2    H2 8135   4.382   0.233  12.159  1.8302  0.8610  1.1354
  548MPD2    H3 8136   4.445   0.083  11.981  2.0847 -0.0490 -0.2375
  548MPD2     N 8137   4.704   4.567  12.254 -0.3869  1.0098 -0.0907
  548MPD2    H5 8138   0.017   4.566  12.348 -0.4729 -0.5615 -0.0748
  548MPD2    N1 8139   4.448   0.207  12.416 -0.5409  0.1153 -0.3780
  548MPD2    H7 8140   4.385   0.282  12.391 -2.6103 -0.7971  2.2300
  549TMC3    C1 8141   4.444   0.280  12.642 -0.4294 -0.2991 -0.2624
  549TMC3    C2 8142   4.343   0.363  12.618  0.0789 -0.3231 -0.0884
  549TMC3    C3 8143   4.253   0.382  12.716 -0.1043  0.3781 -0.0174
  549TMC3    C4 8144   4.465   0.228  12.766 -0.4998 -0.0565 -0.5139
  549TMC3    C5 8145   4.363   0.236  12.860 -0.1491  0.1179  0.0728
  549TMC3    C6 8146   4.254   0.319  12.837  0.3150  0.0111 -0.0961
  549TMC3     C 8147   4.467   0.180  12.548 -0.7745  0.3111 -0.7312
  549TMC3     O 8148   4.477   0.066  12.594 -0.8497  0.3254  0.0406
  549TMC3     H 8149   4.351   0.414  12.523 -1.2552  1.0727  0.5405
  549TMC3    H1 8150   4.551   0.167  12.791 -0.0318  0.9307  0.2405
  549TMC3    H2 8151   4.184   0.334  12.919  0.0858  1.5711 -0.5806
  549TMC3    C7 8152   4.333   0.111  12.932  0.0784  0.4845  0.2279
  549TMC3    C8 8153   4.150   0.477  12.697 -0.0230  0.1646  0.2298
  549TMC3    O1 8154   4.239   0.118  13.016 -0.2830 -0.0194 -0.2333
  549TMC3    O2 8155   4.051   0.478  12.771 -0.1383 -0.0748 -0.0109
  550TMC3    C1 8156   3.280   2.223  12.693  0.0916  0.0244  0.1776
  550TMC3    C2 8157   3.243   2.300  12.802  0.2742  0.3188  0.5214
  550TMC3    C3 8158   3.350   2.360  12.867 -0.2878  0.6952 -0.2170
  550TMC3    C4 8159   3.410   2.200  12.656 -0.7292 -0.4526 -0.1389
  550TMC3    C5 8160   3.502   2.280  12.715  0.1642 -0.6573 -0.1599
  550TMC3    C6 8161   3.476   2.364  12.819  0.2436  0.5635  0.7697
  550TMC3     C 8162   3.173   2.201  12.596 -0.5612  0.3651 -0.1044
  550TMC3     O 8163   3.061   2.221  12.648  0.4539  0.1225 -0.5675
  550TMC3     H 8164   3.141   2.320  12.833 -0.7118 -1.5588 -1.5188
  550TMC3    H1 8165   3.423   2.125  12.578  1.6171 -0.6631  0.4821
  550TMC3    H2 8166   3.550   2.432  12.860  0.9561 -0.8637  1.8515
  550TMC3    C7 8167   3.570   2.337  12.607  1.1083  0.5395 -0.8806
  550TMC3    C8 8168   3.296   2.464  12.949 -0.2779 -0.2184 -0.1893
  550TMC3    O1 8169   3.650   2.267  12.544 -0.1889 -0.7270 -0.1311
  550TMC3    O2 8170   3.183   2.502  12.927  0.0359  0.4487  0.1966
  551TMC3    C1 8171   1.355   0.505  13.032  0.0220  0.7113  0.4593
  551TMC3    C2 8172   1.483   0.466  12.994  0.6684  0.3123 -0.5046
  551TMC3    C3 8173   1.581   0.484  13.090 -0.1585 -0.6712  0.3510
  551TMC3    C4 8174   1.319   0.534  13.166  0.3718  0.4690  0.9296
  551TMC3    C5 8175   1.420   0.541  13.261 -1.3215 -0.2911  0.7334
  551TMC3    C6 8176   1.552   0.521  13.220 -0.0645  0.7312  0.1810
  551TMC3     C 8177   1.254   0.479  12.926 -0.3536 -0.1886 -0.6388
  551TMC3     O 8178   1.288   0.437  12.815 -0.0202  0.1205  0.5128
  551TMC3     H 8179   1.514   0.445  12.892  2.8842 -1.3175  0.4797
  551TMC3    H1 8180   1.214   0.542  13.193  0.2877 -0.3707  0.8589
  551TMC3    H2 8181   1.635   0.524  13.289 -0.7433  0.6826  1.0052
  551TMC3    C7 8182   1.400   0.584  13.399 -0.1462  0.2800 -0.2093
  551TMC3    C8 8183   1.720   0.486  13.041  0.4843 -0.0650  0.0849
  551TMC3    O1 8184   1.501   0.617  13.460 -0.1340 -0.0490 -0.1761
  551TMC3    O2 8185   1.742   0.443  12.931 -0.8878  0.6149  1.1366
  552MPD2     C 8186   3.170   2.678  14.411 -1.0250 -0.5243  0.2402
  552MPD2    C1 8187   3.207   2.557  14.364  0.0857 -0.2468 -0.1598
  552MPD2    C2 8188   3.331   2.508  14.392  0.2791  0.0233 -0.3681
  552MPD2    C3 8189   3.422   2.587  14.464 -0.5316 -0.3165  0.2170
  552MPD2    C4 8190   3.381   2.709  14.514  0.2987  0.2179  0.0281
  552MPD2    C5 8191   3.256   2.757  14.479 -0.7326  0.1688  0.0293
  552MPD2     H 8192   3.366   2.418  14.343 -1.6163 -1.8522  1.7122
  552MPD2    H1 8193   3.433   2.767  14.590 -2.2361  2.5453 -0.0371
  552MPD2    H2 8194   3.065   2.702  14.395 -0.5109  1.6521  0.1141
  552MPD2    H3 8195   3.221   2.847  14.527  0.0008  0.8021 -0.6347
  552MPD2     N 8196   3.555   2.545  14.504  0.0075 -0.6418  0.5302
  552MPD2    H5 8197   3.624   2.616  14.524  0.2728 -0.3488 -1.4555
  552MPD2    N1 8198   3.122   2.474  14.284  0.1719 -0.0362  0.7241
  552MPD2    H7 8199   3.160   2.383  14.259 -0.5614 -0.8643  2.6564
  553TMC3    C1 8200   2.964   2.417  14.116 -0.3962  0.1178 -0.8988
  553TMC3    C2 8201   2.923   2.459  13.997  0.4630  0.0820  0.0609
  553TMC3    C3 8202   2.912   2.360  13.902 -0.0039 -0.4010  0.0604
  553TMC3    C4 8203   2.991   2.285  14.152  0.2380 -0.3009  0.3141
  553TMC3    C5 8204   2.968   2.192  14.049  0.0089  0.5501 -0.1008
  553TMC3    C6 8205   2.920   2.225  13.927 -0.2339 -0.1380 -0.5816
  553TMC3     C 8206   3.011   2.519  14.212 -0.3067  0.3110  0.6024
  553TMC3     O 8207   2.960   2.631  14.193 -0.1942 -0.1190  0.2507
  553TMC3     H 8208   2.915   2.563  13.970  0.1096  0.2265  0.7344
  553TMC3    H1 8209   3.018   2.257  14.253  0.5879  1.2265  0.6440
  553TMC3    H2 8210   2.929   2.148  13.851 -0.7198  1.0371 -1.8359
  553TMC3    C7 8211   3.039   2.060  14.052 -0.4183  0.0454  0.8826
  553TMC3    C8 8212   2.984   2.403  13.778 -0.6383  0.0538 -0.5769
  553TMC3    O1 8213   2.974   1.963  14.006 -0.4517 -0.3647  0.1071
  553TMC3    O2 8214   3.062   2.498  13.790  0.0926 -0.1627  0.7747
  554TMC3    C1 8215   0.191   1.701  11.581 -0.0329  0.1826 -0.7766
  554TMC3    C2 8216   0.084   1.687  11.495 -0.1777 -0.1922 -0.2676
  554TMC3    C3 8217   0.081   1.761  11.379 -0.4321  0.5692 -0.3644
  554TMC3    C4 8218   0.288   1.800  11.565 -0.2313  0.3694 -0.9117
  554TMC3    C5 8219   0.273   1.886  11.459  0.2153  0.2896  0.8085
  554TMC3    C6 8220   0.168   1.864  11.368 -0.2223  0.4011 -0.5067
  554TMC3     C 8221   0.200   1.610  11.691  0.0500 -0.2245 -0.2053
  554TMC3     O 8222   0.093   1.551  11.703  0.1768  0.2507  0.6902
  554TMC3     H 8223   0.026   1.596  11.509 -1.6872  0.7416 -0.5504
  554TMC3    H1 8224   0.374   1.821  11.628 -1.4107  2.1406  0.1006
  554TMC3    H2 8225   0.162   1.928  11.281 -1.4159 -0.5184 -1.1036
  554TMC3    C7 8226   0.375   1.988  11.431  0.4065 -0.6192  0.4210
  554TMC3    C8 8227   0.011   1.713  11.261  0.8460  0.2881  0.0544
  554TMC3    O1 8228   0.450   2.020  11.526 -0.2392  0.1108 -0.3225
  554TMC3    O2 8229   0.064   1.746  11.156  0.1594 -0.1226  0.4010
  555TMC3    C1 8230   4.283   1.118  15.085 -0.3241  0.4442  0.2386
  555TMC3    C2 8231   4.257   1.166  15.206 -0.1884  0.2441 -0.2261
  555TMC3    C3 8232   4.244   1.077  15.313 -0.3183  0.9638 -0.1886
  555TMC3    C4 8233   4.296   0.982  15.061 -0.0595 -0.6036 -0.5644
  555TMC3    C5 8234   4.283   0.897  15.171  0.4176 -0.1143 -0.5642
  555TMC3    C6 8235   4.260   0.943  15.300  0.1693 -0.4699 -0.5824
  555TMC3     C 8236   4.289   1.202  14.968  0.5879  0.1592 -0.2829
  555TMC3     O 8237   4.372   1.184  14.878  0.4342  0.0416 -0.3878
  555TMC3     H 8238   4.268   1.272  15.226 -0.3525  0.2115  0.0392
  555TMC3    H1 8239   4.300   0.951  14.957  0.6015  2.3398 -1.4392
  555TMC3    H2 8240   4.243   0.877  15.384  2.9893  0.0845  0.3869
  555TMC3    C7 8241   4.260   0.752  15.151  0.4922 -0.2821  0.5424
  555TMC3    C8 8242   4.238   1.129  15.445  0.1583 -0.3354  0.4510
  555TMC3    O1 8243   4.228   0.688  15.245 -0.2799  0.0020  0.0368
  555TMC3    O2 8244   4.187   1.242  15.458 -0.0607 -0.4119  0.0732
  556MPD2     C 8245   1.992   2.853  10.917  0.2005  0.0234 -0.1031
  556MPD2    C1 8246   1.995   2.726  10.964 -0.2983 -1.4261 -0.2822
  556MPD2    C2 8247   1.974   2.617  10.883  0.1141  0.3378 -0.3540
  556MPD2    C3 8248   1.960   2.639  10.749  0.3549 -0.9320 -0.1036
  556MPD2    C4 8249   1.959   2.775  10.705  0.5835  0.2725  0.3284
  556MPD2    C5 8250   1.976   2.882  10.787  0.1858 -0.4593  0.3605
  556MPD2     H 8251   1.981   2.520  10.931 -0.4098 -0.2069 -1.3561
  556MPD2    H1 8252   1.941   2.802  10.602  0.7595 -0.3878  0.1252
  556MPD2    H2 8253   1.995   2.943  10.976  0.5363 -0.2432  0.2843
  556MPD2    H3 8254   1.978   2.986  10.758  0.9371 -0.4105  0.5608
  556MPD2     N 8255   1.946   2.534  10.657 -0.0047  0.3412  0.4927
  556MPD2    H5 8256   1.935   2.440  10.692  0.1601 -0.3135 -1.2369
  556MPD2    N1 8257   2.029   2.691  11.100 -0.2662  0.2032 -0.1880
  556MPD2    H7 8258   2.028   2.593  11.127  0.9001 -0.2324 -1.7365
  557TMC3    C1 8259   1.921   2.417  10.451 -0.0295  0.0197 -0.3333
  557TMC3    C2 8260   1.888   2.433  10.317  0.3830 -0.9709 -0.5766
  557TMC3    C3 8261   1.863   2.329  10.238  0.1721 -0.3917  0.2343
  557TMC3    C4 8262   1.917   2.295  10.509 -0.4197  0.4236 -0.3002
  557TMC3    C5 8263   1.876   2.188  10.432 -0.0716 -0.3703 -0.0040
  557TMC3    C6 8264   1.869   2.204  10.292  0.0224  0.4055 -0.4013
  557TMC3     C 8265   1.939   2.544  10.520  0.1762 -0.7345 -0.1632
  557TMC3     O 8266   1.962   2.640  10.453 -0.0178  0.3005  0.4494
  557TMC3     H 8267   1.890   2.535  10.279 -0.3069 -1.3015 -1.4882
  557TMC3    H1 8268   1.928   2.281  10.616 -0.3282  2.9212  0.0207
  557TMC3    H2 8269   1.822   2.127  10.233 -1.6265 -0.4661  2.0647
  557TMC3    C7 8270   1.867   2.056  10.483 -0.4471 -0.3059 -0.7563
  557TMC3    C8 8271   1.864   2.356  10.097 -0.2864  0.0114 -0.4560
  557TMC3    O1 8272   1.889   2.049  10.598 -0.2417 -0.2293  0.3097
  557TMC3    O2 8273   1.874   2.470  10.067  0.7163 -0.3203  0.3714
  558TMC3    C1 8274   0.187   0.035  10.056  0.0221  0.3747  0.2850
  558TMC3    C2 8275   0.085   0.072  10.143 -0.2430  0.2523  0.1816
  558TMC3    C3 8276   4.681   0.045  10.102  0.3310  0.2781  0.0041
  558TMC3    C4 8277   0.168   4.715   9.929  0.3123  0.8253  0.4979
  558TMC3    C5 8278   0.042   4.700   9.895 -0.0384 -0.1612  0.0873
  558TMC3    C6 8279   4.660   0.002   9.976  0.6122  0.1168 -0.5914
  558TMC3     C 8280   0.317   0.085  10.095 -0.7156 -0.1113  0.1814
  558TMC3     O 8281   0.323   0.177  10.179  0.2151  0.0798  0.0689
  558TMC3     H 8282   0.114   0.124  10.233 -1.4348  0.7327  0.2885
  558TMC3    H1 8283   0.248   4.683   9.863 -0.5744  0.5231 -0.4129
  558TMC3    H2 8284   4.562   4.697   9.940 -0.3040  0.4926  1.6280
  558TMC3    C7 8285   0.026   4.579   9.809  0.2634  0.1825 -0.4850
  558TMC3    C8 8286   4.597   4.674  10.185 -0.8691 -0.0446 -0.5605
  558TMC3    O1 8287   0.108   4.539   9.727 -0.4873  0.2286  0.0184
  558TMC3    O2 8288   4.560   4.569  10.131  0.1474 -0.0616  0.1545
  559MPD2     C 8289   0.211   1.111  10.388 -0.2619  0.1163 -0.2409
  559MPD2    C1 8290   0.161   1.004  10.457 -0.2244 -0.8398  0.6068
  559MPD2    C2 8291   0.191   0.987  10.588  0.1826  0.0927 -0.3430
  559MPD2    C3 8292   0.293   1.059  10.638  0.2801 -0.0636  0.1237
  559MPD2    C4 8293   0.350   1.161  10.569 -0.4898 -0.2779 -0.0923
  559MPD2    C5 8294   0.316   1.183  10.442 -0.7774 -0.2611 -0.2536
  559MPD2     H 8295   0.146   0.910  10.649 -1.2908  1.7422  0.6274
  559MPD2    H1 8296   0.430   1.226  10.604 -1.3737  0.9447 -0.3767
  559MPD2    H2 8297   0.176   1.128  10.287  0.5741  1.2142 -0.3361
  559MPD2    H3 8298   0.363   1.254  10.375  0.0879  0.7609  1.4620
  559MPD2     N 8299   0.313   1.041  10.775  0.0473  0.0521  0.4623
  559MPD2    H5 8300   0.246   0.978  10.818 -0.1491 -0.4814 -0.6294
  559MPD2    N1 8301   0.057   0.924  10.399  0.9125  0.6869  0.0604
  559MPD2    H7 8302   0.025   0.960  10.310  3.6807  1.6134 -0.5472
  560TMC3    C1 8303   0.438   1.042  10.983 -0.1324  0.5267 -0.0121
  560TMC3    C2 8304   0.343   0.955  11.041 -0.3402  0.0756 -0.0554
  560TMC3    C3 8305   0.343   0.938  11.176 -0.3679 -1.0915 -0.1662
  560TMC3    C4 8306   0.524   1.110  11.062 -0.2998  0.0248  0.1069
  560TMC3    C5 8307   0.510   1.098  11.194 -0.8594 -0.5212  0.0467
  560TMC3    C6 8308   0.425   1.009  11.254 -0.0196 -0.3161  0.6565
  560TMC3     C 8309   0.417   1.100  10.849  0.6239  1.0620  0.5091
  560TMC3     O 8310   0.495   1.192  10.823  0.4860 -0.3321  0.4238
  560TMC3     H 8311   0.276   0.894  10.982 -0.3303 -1.2814  1.3179
  560TMC3    H1 8312   0.587   1.187  11.019 -1.8918  0.8216 -0.7943
  560TMC3    H2 8313   0.436   0.989  11.360  2.4555  2.9958  1.0106
  560TMC3    C7 8314   0.586   1.173  11.290  0.3268  0.5439 -0.1296
  560TMC3    C8 8315   0.276   0.817  11.216 -0.5504  0.0053 -0.0525
  560TMC3    O1 8316   0.539   1.187  11.401  0.0857  0.1236 -0.0055
  560TMC3    O2 8317   0.185   0.772  11.141 -0.2370 -0.4727 -0.3663
  561TMC3    C1 8318   2.760   4.585  11.293  0.0019  0.6240  0.3940
  561TMC3    C2 8319   2.704   4.558  11.418 -0.1321  0.9227  0.2383
  561TMC3    C3 8320   2.706   4.654  11.517 -0.3951 -0.1641  0.0136
  561TMC3    C4 8321   2.813   4.708  11.275  0.1231  0.3755 -0.5754
  561TMC3    C5 8322   2.812   0.077  11.379  0.4344  0.1956  0.1634
  561TMC3    C6 8323   2.761   0.052  11.501 -0.1110  0.4857  0.4889
  561TMC3     C 8324   2.729   4.497  11.188 -0.2387  0.5408  0.0769
  561TMC3     O 8325   2.669   4.394  11.220 -0.5415 -0.0402  0.1947
  561TMC3     H 8326   2.665   4.462  11.449 -0.7408  0.6802 -1.2895
  561TMC3    H1 8327   2.839   0.013  11.174 -0.1186  1.1371 -0.4191
  561TMC3    H2 8328   2.780   0.121  11.583 -0.4854  1.9188 -0.6375
  561TMC3    C7 8329   2.847   0.211  11.349 -0.6634  0.8752  0.6676
  561TMC3    C8 8330   2.650   4.617  11.645 -0.0449 -0.2537 -0.2835
  561TMC3    O1 8331   2.794   0.291  11.426 -1.1533 -0.7515 -0.6875
  561TMC3    O2 8332   2.617   4.501  11.666  0.2631  0.5922 -0.3175
  562TMC3    C1 8333   4.187   0.829  16.133  0.2530 -0.0402 -0.4546
  562TMC3    C2 8334   4.143   0.959  16.149 -0.2815  0.7703 -0.2476
  562TMC3    C3 8335   4.074   1.017  16.048  0.2025  0.3716 -0.1462
  562TMC3    C4 8336   4.172   0.766  16.016 -0.0262 -0.2124  0.1096
  562TMC3    C5 8337   4.099   0.828  15.915  0.7993  0.1451  0.4830
  562TMC3    C6 8338   4.039   0.952  15.934  0.1344 -0.3124 -0.5784
  562TMC3     C 8339   4.253   0.762  16.239  0.2660  0.5623  0.6643
  562TMC3     O 8340   4.354   0.695  16.227  0.2779  0.8812  0.0678
  562TMC3     H 8341   4.163   1.017  16.238 -2.3534  0.7608  0.2064
  562TMC3    H1 8342   4.216   0.667  16.015  1.7010  0.5371  1.8539
  562TMC3    H2 8343   3.980   0.999  15.856  0.0883 -2.1325 -1.6484
  562TMC3    C7 8344   4.081   0.768  15.788  0.0242  0.0441  0.4013
  562TMC3    C8 8345   4.043   1.160  16.075 -0.8217  0.3487 -0.4001
  562TMC3    O1 8346   4.080   0.828  15.683 -0.2888 -0.0290 -0.1906
  562TMC3    O2 8347   4.050   1.191  16.191 -0.1515 -0.5132  0.2172
  563MPD2     C 8348   2.054   2.905  15.811 -0.3715 -0.6136 -0.4706
  563MPD2    C1 8349   1.979   2.944  15.922  0.2541 -0.8188  0.1215
  563MPD2    C2 8350   2.045   2.952  16.044  0.3216 -0.1554 -0.0017
  563MPD2    C3 8351   2.181   2.939  16.057 -0.0784 -0.9154  0.4006
  563MPD2    C4 8352   2.251   2.902  15.944 -0.6997 -0.1712  0.2842
  563MPD2    C5 8353   2.184   2.889  15.822 -1.0877 -0.0216 -0.5809
  563MPD2     H 8354   1.996   2.984  16.135  0.4405  1.0642 -0.3760
  563MPD2    H1 8355   2.358   2.890  15.934 -0.7927 -2.5813  2.1225
  563MPD2    H2 8356   2.010   2.892  15.713 -2.5834 -1.9900  0.7045
  563MPD2    H3 8357   2.239   2.842  15.741  2.8510  0.4725  1.7806
  563MPD2     N 8358   2.240   2.954  16.188 -0.3827  0.1751  0.3493
  563MPD2    H5 8359   2.191   2.981  16.273 -0.8504  1.5823 -0.3703
  563MPD2    N1 8360   1.840   2.946  15.919  0.0335 -0.2427 -0.1212
  563MPD2    H7 8361   1.783   2.901  15.848  0.0262  0.2776 -0.4465
  564TMC3    C1 8362   1.643   2.967  16.035 -0.2557  0.0836  0.3082
  564TMC3    C2 8363   1.592   2.871  15.954 -0.1343  0.3342  0.5114
  564TMC3    C3 8364   1.533   2.762  16.012 -0.6889  0.6798  0.0757
  564TMC3    C4 8365   1.639   2.942  16.173  0.1546 -0.5379  0.5856
  564TMC3    C5 8366   1.600   2.825  16.222 -0.1953 -0.2744  0.6996
  564TMC3    C6 8367   1.540   2.734  16.144  0.4428 -0.1301 -0.2184
  564TMC3     C 8368   1.769   3.030  16.000 -0.0797  0.0931  0.2058
  564TMC3     O 8369   1.806   3.115  16.080  0.5403  0.4380  0.0810
  564TMC3     H 8370   1.584   2.899  15.849 -0.6675  0.1064  0.4915
  564TMC3    H1 8371   1.691   3.005  16.244 -0.9727  0.5177  0.4734
  564TMC3    H2 8372   1.507   2.636  16.178  2.7511 -0.4517  1.0878
  564TMC3    C7 8373   1.681   2.769  16.320 -0.6625 -0.0795  0.0515
  564TMC3    C8 8374   1.476   2.661  15.928 -0.4738  0.1768  0.6246
  564TMC3    O1 8375   1.712   2.650  16.317 -0.3976  0.2884  0.7418
  564TMC3    O2 8376   1.412   2.581  15.995 -0.3191 -0.3069 -0.3618
  565TMC3    C1 8377   2.100   3.941  10.728  0.2543  0.3285 -0.1836
  565TMC3    C2 8378   2.035   3.851  10.808 -0.2620  0.6896 -0.2481
  565TMC3    C3 8379   1.903   3.824  10.775  0.1922 -1.1615  0.2926
  565TMC3    C4 8380   2.042   3.992  10.615 -0.6770  0.2537  0.6018
  565TMC3    C5 8381   1.914   3.953  10.578  0.2228  0.6662 -0.6215
  565TMC3    C6 8382   1.839   3.861  10.653  0.8463  0.1972  0.0082
  565TMC3     C 8383   2.230   3.989  10.766 -0.2233  0.0439 -0.4515
  565TMC3     O 8384   2.300   4.049  10.686  0.6113  0.1175  0.3657
  565TMC3     H 8385   2.089   3.805  10.891 -1.5662 -0.3612  0.0112
  565TMC3    H1 8386   2.100   4.048  10.542  0.4076 -0.9345  0.5667
  565TMC3    H2 8387   1.732   3.855  10.642  0.9895  2.3528 -2.6136
  565TMC3    C7 8388   1.845   3.991  10.459  1.3423 -0.2638 -0.8068
  565TMC3    C8 8389   1.841   3.724  10.851  0.9581  0.1371 -0.4857
  565TMC3    O1 8390   1.728   3.958  10.437  0.4893  0.0267  0.4349
  565TMC3    O2 8391   1.882   3.720  10.964 -1.0686 -0.6079  0.3834
  566MPD2     C 8392   3.257   1.275  14.597  0.3493 -1.0336  0.4664
  566MPD2    C1 8393   3.348   1.257  14.492  0.3199  0.0015  0.9858
  566MPD2    C2 8394   3.318   1.181  14.387  0.0461 -0.0959  0.3423
  566MPD2    C3 8395   3.207   1.107  14.383  0.3279  0.3944  0.2965
  566MPD2    C4 8396   3.117   1.133  14.481  0.1822 -0.8704  0.0970
  566MPD2    C5 8397   3.144   1.207  14.592 -0.3211  0.6518  0.3409
  566MPD2     H 8398   3.376   1.186  14.295 -1.3894 -1.5894 -0.6393
  566MPD2    H1 8399   3.019   1.089  14.476 -2.4399  5.1859 -1.5658
  566MPD2    H2 8400   3.279   1.341  14.680 -2.5744 -0.5603  0.8697
  566MPD2    H3 8401   3.075   1.218  14.675  1.5167  1.6361  1.7390
  566MPD2     N 8402   3.175   1.017  14.277  0.2532 -0.8729 -0.0729
  566MPD2    H5 8403   3.082   0.977  14.281 -0.6195  1.0902 -0.6838
  566MPD2    N1 8404   3.473   1.318  14.485 -0.1846 -0.4323  0.1187
  566MPD2    H7 8405   3.521   1.316  14.396  1.0212 -1.6606  0.7860
  567TMC3    C1 8406   3.656   1.439  14.545  0.0590 -0.3735 -0.5348
  567TMC3    C2 8407   3.660   1.493  14.417  0.1362  0.0323 -0.7968
  567TMC3    C3 8408   3.771   1.489  14.337  0.3853 -0.1068  0.4814
  567TMC3    C4 8409   3.769   1.374  14.590  0.6841 -0.3344  0.5809
  567TMC3    C5 8410   3.873   1.363  14.502  0.3149 -0.2676 -0.5868
  567TMC3    C6 8411   3.865   1.405  14.372  0.2685 -0.4183 -0.5188
  567TMC3     C 8412   3.537   1.376  14.588  0.1737 -0.0101  0.0362
  567TMC3     O 8413   3.521   1.373  14.709  0.1569  0.3766 -0.3233
  567TMC3     H 8414   3.575   1.551  14.381  0.8674  0.8444 -1.2175
  567TMC3    H1 8415   3.779   1.339  14.692  1.7128  0.6345  0.8260
  567TMC3    H2 8416   3.950   1.401  14.305 -0.9603  0.7226 -2.1495
  567TMC3    C7 8417   3.966   1.253  14.520 -0.2404  0.9571 -0.1422
  567TMC3    C8 8418   3.737   1.512  14.190  0.0496 -0.5037  0.8076
  567TMC3    O1 8419   4.055   1.247  14.431 -0.5356  0.0551  0.4710
  567TMC3    O2 8420   3.626   1.556  14.164  0.7327 -0.0477 -0.7428
  568MPD2     C 8421   1.320   1.111  15.894  0.1950 -0.1243 -0.0189
  568MPD2    C1 8422   1.336   1.163  16.021  0.4957  0.6359 -0.8090
  568MPD2    C2 8423   1.344   1.295  16.034 -0.6808  0.2668  0.2308
  568MPD2    C3 8424   1.329   1.378  15.927  0.2039  0.1518 -0.2118
  568MPD2    C4 8425   1.328   1.327  15.800 -0.1237 -0.0724  0.2124
  568MPD2    C5 8426   1.318   1.194  15.790  0.3127  0.1916 -0.5700
  568MPD2     H 8427   1.341   1.340  16.133  3.3821 -1.2955  1.0717
  568MPD2    H1 8428   1.313   1.379  15.706  1.7597  1.2119  0.6353
  568MPD2    H2 8429   1.325   1.005  15.870 -1.0348 -0.1526 -0.1437
  568MPD2    H3 8430   1.302   1.148  15.693  1.3282 -3.2924  0.9290
  568MPD2     N 8431   1.325   1.521  15.947 -0.3789 -0.3319 -0.4670
  568MPD2    H5 8432   1.305   1.544  16.044  0.6943  0.4034 -0.4149
  568MPD2    N1 8433   1.366   1.069  16.126  0.6943 -0.0677  0.4714
  568MPD2    H7 8434   1.380   0.971  16.101  0.3528  0.0564 -0.1947
  569TMC3    C1 8435   1.322   1.754  15.871 -0.0969 -0.1088 -0.1689
  569TMC3    C2 8436   1.297   1.791  15.993  0.0988 -0.1478  0.4333
  569TMC3    C3 8437   1.323   1.918  16.029  0.2977  0.3913 -0.0773
  569TMC3    C4 8438   1.359   1.843  15.771 -0.0367 -0.5322  0.1650
  569TMC3    C5 8439   1.377   1.969  15.811  0.6370 -0.5017 -0.4160
  569TMC3    C6 8440   1.365   2.018  15.939 -0.0229  0.2053 -0.6927
  569TMC3     C 8441   1.358   1.618  15.845  0.5450  0.2979  0.5075
  569TMC3     O 8442   1.402   1.593  15.731  0.0588  0.2259 -0.1897
  569TMC3     H 8443   1.263   1.721  16.068  1.5385  0.1964  1.4016
  569TMC3    H1 8444   1.378   1.806  15.670  0.2723 -0.5224  0.2204
  569TMC3    H2 8445   1.368   2.120  15.975  1.1100 -0.0983  0.0721
  569TMC3    C7 8446   1.398   2.055  15.704  0.0423  0.8862 -0.8727
  569TMC3    C8 8447   1.257   1.967  16.150 -0.2245  0.3134 -0.1310
  569TMC3    O1 8448   1.390   2.021  15.587 -0.5610 -0.2543  0.1458
  569TMC3    O2 8449   1.146   1.925  16.167  0.0575 -0.2195  0.8970
  570TMC3    C1 8450   0.557   0.175  16.165 -0.7141  0.9340 -0.0313
  570TMC3    C2 8451   0.584   0.150  16.028 -0.1270  0.1891  0.7387
  570TMC3    C3 8452   0.603   0.257  15.944  0.3927 -0.4246  0.0975
  570TMC3    C4 8453   0.550   0.298  16.219  0.4623 -0.7005  0.6958
  570TMC3    C5 8454   0.578   0.403  16.132  0.9577 -0.1682  0.1486
  570TMC3    C6 8455   0.607   0.384  15.999 -0.3583  0.3256  0.1132
  570TMC3     C 8456   0.522   0.061  16.248 -0.2511  0.3965 -0.1000
  570TMC3     O 8457   0.495   4.680  16.181 -0.0504  0.0321 -0.1562
  570TMC3     H 8458   0.603   0.052  15.987  0.9941  0.4266  0.6856
  570TMC3    H1 8459   0.510   0.328  16.316  0.1028 -1.0529  0.6553
  570TMC3    H2 8460   0.649   0.465  15.940 -0.6175 -1.0063 -1.8779
  570TMC3    C7 8461   0.565   0.533  16.183 -0.2044 -0.8919 -0.4919
  570TMC3    C8 8462   0.705   0.244  15.840  0.3617 -0.3686 -0.0205
  570TMC3    O1 8463   0.536   0.555  16.297 -0.3674 -0.2399  0.3029
  570TMC3    O2 8464   0.816   0.287  15.872 -0.4566 -0.3163 -0.1191
  571MPD2     C 8465   3.510   1.240  17.612 -0.1792 -1.1290 -0.2002
  571MPD2    C1 8466   3.431   1.350  17.637  0.5241 -0.3762 -0.5442
  571MPD2    C2 8467   3.481   1.473  17.669 -0.2623 -0.2543  0.3085
  571MPD2    C3 8468   3.624   1.487  17.676  0.0402 -0.5008  0.3855
  571MPD2    C4 8469   3.708   1.372  17.664 -0.2460 -0.9670 -0.1690
  571MPD2    C5 8470   3.648   1.251  17.636  0.0223  0.2975 -0.2948
  571MPD2     H 8471   3.421   1.562  17.682 -1.2984 -1.0256  0.7794
  571MPD2    H1 8472   3.816   1.377  17.673 -0.4378 -1.0641  2.2870
  571MPD2    H2 8473   3.463   1.145  17.592  3.5325 -2.8412 -0.6976
  571MPD2    H3 8474   3.713   1.164  17.628 -0.7367 -0.1397 -1.6216
  571MPD2     N 8475   3.682   1.610   0.013  0.6343  0.5950  0.2556
  571MPD2    H5 8476   3.784   1.614   0.015  0.5226  3.0312  1.8631
  571MPD2    N1 8477   3.288   1.327  17.647  0.0892 -0.0101  0.1618
  571MPD2    H7 8478   3.262   1.231  17.627 -0.8326  0.3221 -0.2126
  572TMC3    C1 8479   3.713   1.834   0.051 -0.7631 -0.1327  0.0332
  572TMC3    C2 8480   3.818   1.815   0.142 -0.2872  0.7170 -0.2471
  572TMC3    C3 8481   3.846   1.922   0.221 -0.0550 -0.2529 -0.0003
  572TMC3    C4 8482   3.672   1.958   0.026 -0.0644 -0.0077 -0.3234
  572TMC3    C5 8483   3.722   2.067   0.101 -0.3465  0.4552  0.7027
  572TMC3    C6 8484   3.811   2.048   0.199 -0.0750 -0.7838 -0.1952
  572TMC3     C 8485   3.617   1.728   0.036  0.2436  0.3295 -0.1594
  572TMC3     O 8486   3.505   1.765   0.004 -0.1913  0.0150  0.4558
  572TMC3     H 8487   3.834   1.719   0.189  1.8722  0.3055 -1.8003
  572TMC3    H1 8488   3.605   1.979  17.641 -0.2358  2.4535  0.4390
  572TMC3    H2 8489   3.813   2.134   0.265  0.2893  0.0580 -1.3219
  572TMC3    C7 8490   3.681   2.209   0.068  0.1920  0.6072  0.2083
  572TMC3    C8 8491   3.914   1.888   0.349 -0.5833  0.5555 -0.2346
  572TMC3    O1 8492   3.567   2.223   0.029  0.2597  0.2420 -0.6483
  572TMC3    O2 8493   3.980   1.786   0.359 -0.1421 -0.5708 -0.2201
  573MPD2     C 8494   3.970   3.278   1.054 -0.3348  0.6584 -0.0889
  573MPD2    C1 8495   4.092   3.221   1.096 -0.8947  0.2128 -0.6697
  573MPD2    C2 8496   4.151   3.118   1.028 -0.0791 -0.0053  0.4656
  573MPD2    C3 8497   4.075   3.056   0.924 -0.6035 -0.3830  0.4131
  573MPD2    C4 8498   3.954   3.110   0.888 -0.2432  0.8629  1.0442
  573MPD2    C5 8499   3.908   3.225   0.950 -1.0681  0.2202 -0.4074
  573MPD2     H 8500   4.258   3.109   1.038  0.0846  0.6539 -0.6487
  573MPD2    H1 8501   3.893   3.076   0.805 -2.6569 -2.6805  4.2601
  573MPD2    H2 8502   3.944   3.372   1.100 -1.5891 -0.1286  0.7976
  573MPD2    H3 8503   3.816   3.264   0.908 -1.8652 -0.2905  0.8545
  573MPD2     N 8504   4.123   2.956   0.838 -0.1084 -0.7450 -0.0175
  573MPD2    H5 8505   4.052   2.916   0.777 -1.0636  1.3275 -0.2769
  573MPD2    N1 8506   4.156   3.295   1.193 -0.3866 -0.2477  0.4702
  573MPD2    H7 8507   4.111   3.377   1.232 -0.5188 -0.9618  1.8526
  574TMC3    C1 8508   4.275   2.832   0.725 -0.1525 -0.1071 -0.4076
  574TMC3    C2 8509   4.152   2.793   0.676 -0.4915  0.4988 -0.1941
  574TMC3    C3 8510   4.139   2.793   0.545  0.0726  0.1974  0.7287
  574TMC3    C4 8511   4.371   2.870   0.637 -0.5691  0.1361  0.1146
  574TMC3    C5 8512   4.359   2.859   0.500  0.3375  0.3836  0.0999
  574TMC3    C6 8513   4.234   2.829   0.454  0.4256 -0.2232  0.1638
  574TMC3     C 8514   4.252   2.913   0.839 -0.0708  0.2466  0.1416
  574TMC3     O 8515   4.347   2.928   0.915  0.4602  0.1148 -0.4049
  574TMC3     H 8516   4.082   2.740   0.739 -0.1585  0.6952  0.3447
  574TMC3    H1 8517   4.459   2.917   0.679 -1.2371  0.1806  1.4652
  574TMC3    H2 8518   4.211   2.810   0.350 -0.5163 -1.7754  0.6510
  574TMC3    C7 8519   4.473   2.883   0.418 -0.1533  0.2662 -0.6961
  574TMC3    C8 8520   4.001   2.797   0.502 -0.1375 -0.7252 -0.8604
  574TMC3    O1 8521   4.581   2.892   0.475 -0.0107 -0.0752  0.2873
  574TMC3    O2 8522   3.921   2.752   0.582  0.1245 -0.0727  0.2415
  575TMC3    C1 8523   1.739   3.392  11.591  1.1361 -0.5912  0.1043
  575TMC3    C2 8524   1.702   3.262  11.611  0.3763  0.0878 -0.3980
  575TMC3    C3 8525   1.646   3.196  11.499 -0.0488 -0.2412 -0.5233
  575TMC3    C4 8526   1.698   3.457  11.479  0.7688  0.6345  0.1828
  575TMC3    C5 8527   1.639   3.386  11.380  0.1181  0.5115 -0.1363
  575TMC3    C6 8528   1.609   3.256  11.383  0.0510 -0.8183 -0.2217
  575TMC3     C 8529   1.774   3.475  11.709  0.1687 -1.0900 -0.0269
  575TMC3     O 8530   1.813   3.589  11.687 -0.0079  0.1765 -0.0014
  575TMC3     H 8531   1.736   3.210  11.699  0.0448  1.2427  0.4018
  575TMC3    H1 8532   1.737   3.558  11.471  1.9593  0.3293  2.1716
  575TMC3    H2 8533   1.562   3.196  11.306 -1.1914  0.4489 -0.4578
  575TMC3    C7 8534   1.640   3.458  11.253  0.1416  0.5433 -0.3243
  575TMC3    C8 8535   1.643   3.052  11.507 -0.3007 -0.3711 -0.2488
  575TMC3    O1 8536   1.714   3.557  11.249  0.2341 -0.2423  0.5519
  575TMC3    O2 8537   1.622   3.005  11.617  0.0953 -0.8585  0.0379
  576MPD2     C 8538   1.594   0.528  12.448  0.5631 -0.8883 -0.6096
  576MPD2    C1 8539   1.726   0.569  12.445 -0.0435 -0.1726 -0.3573
  576MPD2    C2 8540   1.775   0.648  12.546 -0.0059  0.3896  0.0674
  576MPD2    C3 8541   1.695   0.685  12.659 -1.0850 -0.0903 -0.4268
  576MPD2    C4 8542   1.565   0.639  12.661 -0.5002  0.1974  0.3602
  576MPD2    C5 8543   1.522   0.559  12.564  0.1946 -0.3132  0.2396
  576MPD2     H 8544   1.872   0.694  12.535 -0.6012  1.3655 -1.0661
  576MPD2    H1 8545   1.490   0.659  12.737  0.9600  2.0278  1.3343
  576MPD2    H2 8546   1.541   0.474  12.371 -0.7036 -0.3624 -0.1179
  576MPD2    H3 8547   1.420   0.526  12.582  0.2005  0.1735  1.1344
  576MPD2     N 8548   1.749   0.769  12.763 -0.2730  0.5857  0.1021
  576MPD2    H5 8549   1.846   0.798  12.756  0.3354 -0.9609  2.2977
  576MPD2    N1 8550   1.812   0.536  12.334  0.1209  0.0017 -0.2042
  576MPD2    H7 8551   1.910   0.553  12.351  0.3931 -1.8937  0.1059
  577TMC3    C1 8552   1.889   0.483  12.118 -0.5310  0.4175 -0.3358
  577TMC3    C2 8553   1.987   0.393  12.150  0.5285  0.5172 -0.2247
  577TMC3    C3 8554   2.072   0.344  12.055 -0.9455  0.1530  0.2631
  577TMC3    C4 8555   1.857   0.496  11.984  0.0879 -0.0505 -0.2012
  577TMC3    C5 8556   1.927   0.425  11.887  0.2211  0.1455 -0.0620
  577TMC3    C6 8557   2.038   0.351  11.925 -0.1393 -0.3793  0.5448
  577TMC3     C 8558   1.774   0.500  12.208 -0.5235 -0.4019  0.2006
  577TMC3     O 8559   1.665   0.526  12.165  0.0450 -0.8205 -0.2861
  577TMC3     H 8560   2.017   0.372  12.252 -1.9199 -1.9202 -0.0020
  577TMC3    H1 8561   1.764   0.547  11.965  0.8130  1.4410  0.2039
  577TMC3    H2 8562   2.111   0.316  11.852  0.5757 -0.7394  1.4280
  577TMC3    C7 8563   1.906   0.445  11.743 -0.6686 -0.1649 -0.0804
  577TMC3    C8 8564   2.180   0.253  12.086  0.0298 -0.0300  0.7858
  577TMC3    O1 8565   2.002   0.421  11.668  0.6779  0.1570 -0.0186
  577TMC3    O2 8566   2.180   0.203  12.196  0.0270  0.1602  0.5974
  578MPD2     C 8567   0.147   0.822   1.349  0.1412 -0.0268 -0.5655
  578MPD2    C1 8568   0.243   0.736   1.314  0.1345  0.1781  0.2638
  578MPD2    C2 8569   0.322   0.682   1.414  0.1809  0.2786 -0.2319
  578MPD2    C3 8570   0.298   0.722   1.547  0.2275  0.2363 -0.0693
  578MPD2    C4 8571   0.203   0.814   1.575 -0.0602 -0.2548  0.2929
  578MPD2    C5 8572   0.129   0.872   1.474 -0.0947 -0.6363 -0.1942
  578MPD2     H 8573   0.398   0.614   1.378  0.0971 -0.5235  1.1256
  578MPD2    H1 8574   0.185   0.834   1.680  0.4566 -1.1214  0.5450
  578MPD2    H2 8575   0.092   0.878   1.274 -0.4205  0.2916  0.0849
  578MPD2    H3 8576   0.055   0.945   1.504 -0.2413 -0.4973 -0.8890
  578MPD2     N 8577   0.379   0.679   1.655 -0.2535  0.3284 -0.1739
  578MPD2    H5 8578   0.366   0.725   1.745  1.4542 -0.4808  0.4872
  578MPD2    N1 8579   0.259   0.720   1.175  0.0581 -0.4131 -0.1996
  578MPD2    H7 8580   0.194   0.774   1.118 -0.5862 -1.4402 -0.4222
  579TMC3    C1 8581   0.551   0.581   1.780 -1.1491  0.5758 -0.2445
  579TMC3    C2 8582   0.532   0.677   1.879 -0.0400  0.3794 -0.0917
  579TMC3    C3 8583   0.552   0.648   2.012  0.1541  0.4073 -0.5590
  579TMC3    C4 8584   0.603   0.458   1.812  0.0022  0.1312 -0.5302
  579TMC3    C5 8585   0.617   0.435   1.949 -0.3387  0.1045  0.7057
  579TMC3    C6 8586   0.593   0.526   2.053  0.0043  0.3535 -0.5295
  579TMC3     C 8587   0.484   0.587   1.656 -0.6039  0.0297  0.7744
  579TMC3     O 8588   0.524   0.521   1.565 -0.2413  0.9781 -0.3988
  579TMC3     H 8589   0.495   0.776   1.853 -1.3732 -0.2739 -0.6894
  579TMC3    H1 8590   0.623   0.391   1.730  2.0741  1.1399 -0.8484
  579TMC3    H2 8591   0.615   0.511   2.158  0.0169  3.0331 -0.1375
  579TMC3    C7 8592   0.635   0.299   1.989 -0.3215  0.0455 -0.2471
  579TMC3    C8 8593   0.573   0.757   2.105  0.6913  0.9654 -0.0024
  579TMC3    O1 8594   0.603   0.279   2.102  0.1624 -0.0897  0.2893
  579TMC3    O2 8595   0.572   0.726   2.224 -0.0949 -0.8106 -0.4910
  580TMC3    C1 8596   3.962   4.509  11.479  0.4874  0.0841 -0.0821
  580TMC3    C2 8597   4.095   4.540  11.439 -0.3456  0.5983 -0.0882
  580TMC3    C3 8598   4.206   4.475  11.490 -0.2127  0.0046  0.8214
  580TMC3    C4 8599   3.941   4.400  11.558 -0.5647 -0.0229  0.3630
  580TMC3    C5 8600   4.050   4.343  11.620 -0.1440 -0.0788 -0.3282
  580TMC3    C6 8601   4.179   4.375  11.586  0.2213  0.0821  0.3520
  580TMC3     C 8602   3.895   4.626  11.546 -0.2361  0.6799  0.3904
  580TMC3     O 8603   3.864   4.610  11.664  0.2447 -0.8014  0.1437
  580TMC3     H 8604   4.110   4.621  11.367 -0.6888  1.2461  0.5689
  580TMC3    H1 8605   3.839   4.380  11.588 -0.5990 -0.2057  0.1203
  580TMC3    H2 8606   4.251   4.322  11.648 -0.1262 -0.6308  0.1502
  580TMC3    C7 8607   4.008   4.243  11.721 -0.4390  0.2193 -0.2489
  580TMC3    C8 8608   4.299   4.567  11.559  1.0881  0.1866 -0.1009
  580TMC3    O1 8609   3.887   4.214  11.718  0.4226  0.3320 -0.4924
  580TMC3    O2 8610   4.261   4.680  11.574  0.0157 -0.5259 -0.0281
  581MPD2     C 8611   1.881   3.895  15.272  0.1855  0.2706 -0.0010
  581MPD2    C1 8612   1.956   3.985  15.201 -0.1108  0.2211 -0.0010
  581MPD2    C2 8613   1.909   4.105  15.148 -0.0357  0.7953 -0.2938
  581MPD2    C3 8614   1.765   4.130  15.161 -0.1847  0.2806 -0.3268
  581MPD2    C4 8615   1.693   4.035  15.238  0.7809 -0.5657 -0.9472
  581MPD2    C5 8616   1.749   3.921  15.292 -0.0133  0.1586  0.0280
  581MPD2     H 8617   1.967   4.176  15.090  2.0688  0.0410  0.8967
  581MPD2    H1 8618   1.586   4.045  15.256  0.6869 -1.2020 -1.1568
  581MPD2    H2 8619   1.915   3.797  15.305 -1.5110  1.0980  4.1774
  581MPD2    H3 8620   1.686   3.848  15.341 -0.3850  0.6101  0.2242
  581MPD2     N 8621   1.713   4.237  15.082  0.4885 -0.3691  0.0019
  581MPD2    H5 8622   1.773   4.286  15.017 -1.7895 -0.7935 -2.4051
  581MPD2    N1 8623   2.093   3.942  15.178  0.4445  0.4488 -0.0972
  581MPD2    H7 8624   2.132   3.854  15.213 -2.3137 -1.0691 -0.8458
  582TMC3    C1 8625   2.308   3.926  15.102  0.4467 -0.0257 -0.8257
  582TMC3    C2 8626   2.415   3.967  15.175  0.3205 -0.0866  0.1300
  582TMC3    C3 8627   2.497   3.874  15.238 -0.4892  0.0786  0.2334
  582TMC3    C4 8628   2.293   3.793  15.079 -0.5545  0.2053 -0.0190
  582TMC3    C5 8629   2.387   3.705  15.115 -0.1695 -0.5117 -0.0491
  582TMC3    C6 8630   2.489   3.746  15.199 -0.0686  0.7741  0.2552
  582TMC3     C 8631   2.189   4.004  15.098  0.0902 -0.0964 -0.6314
  582TMC3     O 8632   2.190   4.120  15.060 -0.3854  0.6318 -0.2922
  582TMC3     H 8633   2.409   4.070  15.210  0.2730 -0.1720  0.3754
  582TMC3    H1 8634   2.204   3.761  15.027 -0.5900  1.0134 -0.4483
  582TMC3    H2 8635   2.547   3.668  15.248  0.4268 -0.1323 -1.7712
  582TMC3    C7 8636   2.309   3.598  15.159 -0.0077  0.0582 -0.2861
  582TMC3    C8 8637   2.468   3.882  15.382  0.1792 -0.5954  0.5056
  582TMC3    O1 8638   2.272   3.511  15.080  0.1911 -0.4276  0.3872
  582TMC3    O2 8639   2.350   3.880  15.408 -0.1302 -0.0832 -0.1773
  583MPD2     C 8640   2.324   0.607  16.581  0.4304 -0.1833 -0.1971
  583MPD2    C1 8641   2.411   0.721  16.568 -0.0532 -0.0358  0.1711
  583MPD2    C2 8642   2.395   0.821  16.658 -0.2153  0.0231 -0.7112
  583MPD2    C3 8643   2.316   0.816  16.769 -0.0640 -0.0254  0.8875
  583MPD2    C4 8644   2.243   0.702  16.784  0.5100  0.3240  0.6273
  583MPD2    C5 8645   2.264   0.594  16.701 -0.5778 -0.5364  0.4237
  583MPD2     H 8646   2.466   0.901  16.642  0.1444 -0.4496 -1.4332
  583MPD2    H1 8647   2.173   0.685  16.865 -0.2462 -0.3235 -0.1615
  583MPD2    H2 8648   2.327   0.513  16.526  1.3125 -1.0517  1.3329
  583MPD2    H3 8649   2.220   0.499  16.728 -1.4696 -0.1493  0.3244
  583MPD2     N 8650   2.313   0.921  16.865 -0.4519 -0.7140 -0.9177
  583MPD2    H5 8651   2.354   1.004  16.823  4.3208 -3.5976 -1.9519
  583MPD2    N1 8652   2.500   0.742  16.461  0.3324 -0.1566 -0.0097
  583MPD2    H7 8653   2.548   0.831  16.453  0.0543 -0.0937 -1.0799
  584TMC3    C1 8654   2.234   1.056  17.044  0.1375 -0.2187  0.5064
  584TMC3    C2 8655   2.316   1.155  17.009  0.3401  0.8133 -0.9178
  584TMC3    C3 8656   2.321   1.263  17.098 -0.4694  0.1879  0.3138
  584TMC3    C4 8657   2.148   1.068  17.151 -0.5743 -0.6202 -0.2893
  584TMC3    C5 8658   2.153   1.180  17.232 -0.2051 -0.1231 -0.1207
  584TMC3    C6 8659   2.243   1.279  17.210 -0.0166 -0.6021  0.9489
  584TMC3     C 8660   2.251   0.924  16.986 -0.0019 -0.1771 -0.1686
  584TMC3     O 8661   2.211   0.829  17.050 -0.1995  0.0200  0.2122
  584TMC3     H 8662   2.389   1.157  16.930  0.9125  2.9268 -0.3294
  584TMC3    H1 8663   2.094   0.977  17.175  0.8641 -1.1578  0.9254
  584TMC3    H2 8664   2.246   1.366  17.275 -1.7006 -0.9989  1.5410
  584TMC3    C7 8665   2.056   1.189  17.343 -0.0929 -0.8346  0.3364
  584TMC3    C8 8666   2.378   1.386  17.045  0.2086  0.2954 -0.1567
  584TMC3    O1 8667   2.070   1.275  17.434 -0.0179  0.4065  0.2103
  584TMC3    O2 8668   2.402   1.398  16.925  0.3443  0.6963 -0.1430
  585MPD2     C 8669   1.700   0.218   1.078 -0.0142  0.1698  0.6467
  585MPD2    C1 8670   1.601   0.252   0.991 -0.4284  0.2294  0.2795
  585MPD2    C2 8671   1.581   0.184   0.876 -0.0865  0.5242  0.1363
  585MPD2    C3 8672   1.660   0.072   0.839 -0.0768  0.1935  0.0550
  585MPD2    C4 8673   1.769   0.046   0.922 -0.2951 -0.4720  0.4276
  585MPD2    C5 8674   1.786   0.122   1.036  0.4460  0.1380  0.6526
  585MPD2     H 8675   1.501   0.221   0.813 -0.9727 -1.4512  0.0739
  585MPD2    H1 8676   1.820   4.674   0.910 -0.2913 -0.3653 -0.4175
  585MPD2    H2 8677   1.730   0.278   1.162 -3.8623  1.8401  0.8345
  585MPD2    H3 8678   1.869   0.093   1.100 -0.0698 -2.3265  0.1729
  585MPD2     N 8679   1.652   0.007   0.707  0.4286 -0.3041  0.1076
  585MPD2    H5 8680   1.722   4.665   0.676  0.0092 -0.4838 -0.4547
  585MPD2    N1 8681   1.533   0.372   0.997  0.0955  0.2826  0.8283
  585MPD2    H7 8682   1.472   0.390   0.918  1.2524  2.0532  0.3441
  586TMC3    C1 8683   1.561   4.712   0.487  0.6295 -0.3704  0.2834
  586TMC3    C2 8684   1.678   4.664   0.441  0.3674  0.1663  0.2891
  586TMC3    C3 8685   1.696   4.657   0.304 -0.7285 -0.6633 -0.6469
  586TMC3    C4 8686   1.458   0.025   0.395 -0.3002 -0.5235 -0.8091
  586TMC3    C5 8687   1.481   0.023   0.259  0.1075 -0.6740  0.6207
  586TMC3    C6 8688   1.606   4.708   0.215 -0.2775 -0.0775 -0.4024
  586TMC3     C 8689   1.545   0.031   0.622 -0.2950  0.3631 -0.3819
  586TMC3     O 8690   1.437   0.086   0.643 -0.1044 -0.1952  0.7584
  586TMC3     H 8691   1.739   4.622   0.520 -2.4095 -0.2681  2.2215
  586TMC3    H1 8692   1.358   0.053   0.426  0.0784 -0.5655  0.4210
  586TMC3    H2 8693   1.624   4.678   0.113 -1.3706  0.2180 -0.6814
  586TMC3    C7 8694   1.369   0.018   0.174 -0.3310  0.0700 -0.3175
  586TMC3    C8 8695   1.773   4.543   0.266  0.3308 -0.4649 -0.6452
  586TMC3    O1 8696   1.259   4.714   0.229 -0.1144 -0.1065  0.5147
  586TMC3    O2 8697   1.775   4.455   0.355  0.3886  0.5356 -0.4298
  587TMC3    C1 8698   3.939   3.112  16.558  0.0955 -0.6393 -0.2718
  587TMC3    C2 8699   3.913   3.234  16.499 -0.8593  0.2439 -0.9638
  587TMC3    C3 8700   4.019   3.286  16.426 -0.1659  0.4215  0.1221
  587TMC3    C4 8701   4.056   3.044  16.533  0.3386  0.0199  0.5097
  587TMC3    C5 8702   4.149   3.096  16.453  0.3027 -0.4828 -0.6888
  587TMC3    C6 8703   4.130   3.207  16.390  0.1627 -0.4888  0.3197
  587TMC3     C 8704   3.846   3.049  16.655  0.6205 -0.2517  0.0693
  587TMC3     O 8705   3.888   2.956  16.720 -0.1067  0.1172  0.5569
  587TMC3     H 8706   3.817   3.284  16.505 -0.7288  0.5159 -1.1383
  587TMC3    H1 8707   4.071   2.949  16.582  0.8534  1.4099  3.0477
  587TMC3    H2 8708   4.192   3.252  16.313  1.5484  0.9147  2.2575
  587TMC3    C7 8709   4.265   3.021  16.428  0.4277 -0.3116  0.2029
  587TMC3    C8 8710   3.990   3.409  16.346  0.3394 -0.1226  1.0314
  587TMC3    O1 8711   4.326   3.044  16.325  0.5200  0.2241 -0.3461
  587TMC3    O2 8712   4.044   3.434  16.241  0.2129 -0.6366 -0.4005
  588TMC3    C1 8713   1.325   0.893   9.652  0.0030  0.0566 -0.4207
  588TMC3    C2 8714   1.358   0.761   9.634  0.1833  0.5927 -0.1221
  588TMC3    C3 8715   1.396   0.691   9.746  0.1446  0.5151  0.0468
  588TMC3    C4 8716   1.335   0.952   9.780 -0.0158  0.4343 -0.6364
  588TMC3    C5 8717   1.368   0.877   9.893  0.6358 -0.3293 -0.6285
  588TMC3    C6 8718   1.406   0.748   9.876 -0.1535 -0.4354  1.3463
  588TMC3     C 8719   1.285   0.979   9.544  0.1910  0.2965  0.2517
  588TMC3     O 8720   1.206   0.936   9.459 -0.4996  0.6463 -0.4973
  588TMC3     H 8721   1.348   0.725   9.532 -0.3958  1.7566 -0.4730
  588TMC3    H1 8722   1.295   1.053   9.791  1.1504  0.6704  1.2441
  588TMC3    H2 8723   1.435   0.689   9.963 -1.4314  0.1520  2.1736
  588TMC3    C7 8724   1.407   0.953  10.011  0.2624 -0.8047  0.0805
  588TMC3    C8 8725   1.408   0.551   9.735 -0.8631 -0.3146  0.2160
  588TMC3    O1 8726   1.428   0.897  10.115 -0.0597  0.1696  0.7900
  588TMC3    O2 8727   1.368   0.521   9.621  0.2571  0.0345 -0.1152
  589TMC3    C1 8728   0.278   4.066   1.647  0.0139  0.6545  0.3777
  589TMC3    C2 8729   0.355   4.070   1.769 -0.2260 -1.0062 -0.0163
  589TMC3    C3 8730   0.435   3.962   1.807  0.3056  0.2128 -0.0134
  589TMC3    C4 8731   0.282   3.954   1.572  0.7021 -0.4775 -0.2311
  589TMC3    C5 8732   0.357   3.846   1.613  0.1050  0.5024 -0.0135
  589TMC3    C6 8733   0.434   3.851   1.726 -0.3435 -0.1912 -0.3522
  589TMC3     C 8734   0.197   4.187   1.600 -0.2742 -0.1524  0.3759
  589TMC3     O 8735   0.163   4.168   1.488 -0.0304  0.4291  0.7368
  589TMC3     H 8736   0.360   4.163   1.824 -1.1548 -1.3092  0.5665
  589TMC3    H1 8737   0.229   3.953   1.477 -0.0586 -1.0705  0.2053
  589TMC3    H2 8738   0.484   3.760   1.759 -1.2267  0.1438  1.8863
  589TMC3    C7 8739   0.398   3.750   1.516  0.0115 -0.7195  0.8641
  589TMC3    C8 8740   0.517   3.972   1.924  0.3682  0.3730 -0.0919
  589TMC3    O1 8741   0.495   3.685   1.551  0.7401  0.4444  0.2843
  589TMC3    O2 8742   0.476   4.053   2.006 -0.0944  0.3487 -0.0623
  590MPD2     C 8743   0.225   1.973  16.990 -0.2154  0.2192 -0.3085
  590MPD2    C1 8744   0.155   2.013  16.877 -0.3150 -0.8981  0.0921
  590MPD2    C2 8745   0.229   2.048  16.759  0.0279  0.4497 -0.4949
  590MPD2    C3 8746   0.367   2.050  16.758  0.5906 -0.0985 -0.4965
  590MPD2    C4 8747   0.434   2.010  16.873  0.1089  0.3638  0.1038
  590MPD2    C5 8748   0.365   1.963  16.984 -0.6679 -0.7112 -0.3765
  590MPD2     H 8749   0.174   2.087  16.675  1.8440  0.7156 -1.5713
  590MPD2    H1 8750   0.540   2.011  16.896  0.1336  1.3559 -0.0413
  590MPD2    H2 8751   0.165   1.938  17.073 -0.9929  1.5531 -0.3116
  590MPD2    H3 8752   0.426   1.928  17.066  1.3007  1.5370 -0.8940
  590MPD2     N 8753   0.431   2.103  16.641 -0.0393 -0.8690  0.3571
  590MPD2    H5 8754   0.370   2.109  16.561  0.4308  2.1441  0.2204
  590MPD2    N1 8755   0.015   1.999  16.871 -0.0360  0.1800 -0.2514
  590MPD2    H7 8756   4.686   1.981  16.956 -1.0446  1.3944 -0.6214
  591TMC3    C1 8757   0.600   2.210  16.512  0.4042 -0.1857  0.0895
  591TMC3    C2 8758   0.724   2.190  16.462  0.3396  0.3347  0.6975
  591TMC3    C3 8759   0.756   2.247  16.346  0.3284  0.9058  0.5620
  591TMC3    C4 8760   0.509   2.300  16.457 -0.2235  0.1044  0.3878
  591TMC3    C5 8761   0.551   2.368  16.342 -0.3293 -0.5635  0.6335
  591TMC3    C6 8762   0.669   2.337  16.285  0.5156 -0.3275 -0.2470
  591TMC3     C 8763   0.568   2.127  16.627 -0.3500 -0.0769  0.3446
  591TMC3     O 8764   0.662   2.085  16.700 -0.3932 -0.3533 -0.4424
  591TMC3     H 8765   0.795   2.122  16.506  1.5639  0.0059 -1.7586
  591TMC3    H1 8766   0.409   2.323  16.492  0.2481 -3.0842  3.8616
  591TMC3    H2 8767   0.715   2.383  16.197  3.1575 -0.3090  1.1479
  591TMC3    C7 8768   0.435   2.420  16.264 -0.0248 -0.3387 -0.6066
  591TMC3    C8 8769   0.828   2.160  16.260  0.1669  0.7886 -0.4329
  591TMC3    O1 8770   0.326   2.399  16.312  0.0846  0.0376  0.1080
  591TMC3    O2 8771   0.789   2.047  16.234  0.7175  0.5662  0.0890
  592MPD2     C 8772   0.697   3.826  11.372  0.1697  0.6133  0.6826
  592MPD2    C1 8773   0.674   3.859  11.503  0.4675  0.1925  0.0331
  592MPD2    C2 8774   0.560   3.811  11.565  0.8203  0.3925 -0.5844
  592MPD2    C3 8775   0.468   3.740  11.498 -0.1555 -0.5007 -0.5295
  592MPD2    C4 8776   0.495   3.700  11.366 -0.0004  0.6236 -0.4532
  592MPD2    C5 8777   0.606   3.754  11.298 -0.4226 -0.7447 -0.1011
  592MPD2     H 8778   0.532   3.836  11.667 -1.3664  1.6858 -1.5018
  592MPD2    H1 8779   0.433   3.639  11.302  0.4745 -0.6695  0.3126
  592MPD2    H2 8780   0.775   3.873  11.312 -0.0739  0.1640  0.0168
  592MPD2    H3 8781   0.631   3.728  11.196 -0.0842 -3.5419  0.6683
  592MPD2     N 8782   0.354   3.696  11.566 -0.0015  0.6705  0.0110
  592MPD2    H5 8783   0.346   3.713  11.665 -0.4190  1.2901 -0.1268
  592MPD2    N1 8784   0.763   3.962  11.564 -0.2720 -0.1610 -0.2856
  592MPD2    H7 8785   0.824   4.003  11.494 -0.3060 -0.2023 -0.3401
  593TMC3    C1 8786   0.853   4.112  11.719 -0.0019 -0.0627 -0.0890
  593TMC3    C2 8787   0.828   4.183  11.835  0.4286 -0.2226 -0.2026
  593TMC3    C3 8788   0.903   4.285  11.871  0.0709 -0.4979 -0.6533
  593TMC3    C4 8789   0.947   4.163  11.636 -0.2214  0.0551  0.7688
  593TMC3    C5 8790   1.026   4.266  11.675 -0.6371  0.1849  0.2622
  593TMC3    C6 8791   1.009   4.332  11.791 -0.0135 -0.4162  0.0836
  593TMC3     C 8792   0.748   4.015  11.687  0.1390  0.4870  0.0455
  593TMC3     O 8793   0.657   4.000  11.769  0.0839 -0.3281 -0.5918
  593TMC3     H 8794   0.754   4.141  11.902  1.4077 -1.3921  0.1289
  593TMC3    H1 8795   0.971   4.102  11.550 -0.3931 -1.2180  1.6202
  593TMC3    H2 8796   1.066   4.423  11.809 -1.8502  1.1028 -1.7617
  593TMC3    C7 8797   1.123   4.318  11.583  0.6209  0.2132  0.1616
  593TMC3    C8 8798   0.858   4.366  11.983 -0.3416  0.0993  0.5481
  593TMC3    O1 8799   1.230   4.366  11.622 -0.2533  0.9329  0.2622
  593TMC3    O2 8800   0.733   4.377  11.982  0.5922  0.0745  0.2762
  594MPD2     C 8801   4.411   2.401  14.451  0.0944  0.1493  0.8275
  594MPD2    C1 8802   4.298   2.473  14.426  0.1094  1.0525  1.0613
  594MPD2    C2 8803   4.302   2.582  14.350 -0.4324  0.0929 -0.1407
  594MPD2    C3 8804   4.417   2.626  14.289  0.0568  0.2071  0.2048
  594MPD2    C4 8805   4.532   2.548  14.299 -0.0996  0.2455  0.3582
  594MPD2    C5 8806   4.524   2.442  14.388  0.5430  0.1026  0.4597
  594MPD2     H 8807   4.218   2.648  14.332 -0.2237  0.2327 -0.6074
  594MPD2    H1 8808   4.625   2.556  14.245  0.0336  2.3745  0.9039
  594MPD2    H2 8809   4.425   2.318  14.520 -1.8670 -0.2412  0.7330
  594MPD2    H3 8810   4.616   2.388  14.407  1.7852  1.6833 -0.9858
  594MPD2     N 8811   4.411   2.753  14.229 -0.1799 -0.1875 -0.1031
  594MPD2    H5 8812   4.323   2.804  14.230 -0.4996 -0.7499  0.8450
  594MPD2    N1 8813   4.183   2.423  14.489 -0.0836  0.3622 -0.0198
  594MPD2    H7 8814   4.194   2.347  14.555  0.7142  0.8149  0.3586
  595TMC3    C1 8815   4.562   3.177  14.109 -0.2578  0.0157  0.0953
  595TMC3    C2 8816   4.579   3.039  14.093  0.4614  0.3742  0.8598
  595TMC3    C3 8817   4.485   2.961  14.156 -0.0113 -0.3715 -0.3102
  595TMC3    C4 8818   4.446   3.233  14.153  0.5222  0.1810  0.0193
  595TMC3    C5 8819   4.370   3.148  14.232 -0.1893  0.5181 -0.5332
  595TMC3    C6 8820   4.385   3.014  14.237 -0.3536 -0.1879  0.4809
  595TMC3     C 8821   4.683   3.249  14.147  0.0603  0.2058  0.2143
  595TMC3     O 8822   4.661   3.336  14.230 -0.4898  0.1497 -0.0985
  595TMC3     H 8823   4.664   2.993  14.044 -1.7630 -0.3112 -2.4381
  595TMC3    H1 8824   4.440   3.340  14.170 -0.9648  0.2179 -0.7178
  595TMC3    H2 8825   4.321   2.952  14.298 -1.3889  1.6505  1.2938
  595TMC3    C7 8826   4.320   3.212  14.353 -0.2497  0.5278 -0.3445
  595TMC3    C8 8827   4.510   2.814  14.167 -0.0448  0.5423  0.1676
  595TMC3    O1 8828   4.257   3.316  14.334  0.1099  0.6529  0.4629
  595TMC3    O2 8829   4.619   2.774  14.128 -0.4851 -0.9709 -0.5907
  596MPD2     C 8830   3.032   0.365  16.698 -0.1891 -0.5655 -0.6016
  596MPD2    C1 8831   3.083   0.493  16.681  0.3268  0.0999 -0.1031
  596MPD2    C2 8832   3.147   0.522  16.565 -0.1687 -0.9515  0.0745
  596MPD2    C3 8833   3.133   0.439  16.453 -0.6735 -0.4110 -0.3734
  596MPD2    C4 8834   3.062   0.323  16.466 -0.2044 -0.4204 -0.3501
  596MPD2    C5 8835   3.014   0.278  16.588  0.1786 -0.6690  0.1492
  596MPD2     H 8836   3.207   0.612  16.561  0.3899 -1.3575 -0.7428
  596MPD2    H1 8837   3.041   0.267  16.376  2.1385  0.8463 -1.6795
  596MPD2    H2 8838   2.981   0.333  16.788 -1.3480  0.3620 -0.9327
  596MPD2    H3 8839   2.963   0.183  16.602  1.2438 -0.9554  2.0173
  596MPD2     N 8840   3.187   0.469  16.326 -0.5478  1.0545 -0.2238
  596MPD2    H5 8841   3.161   0.406  16.250 -0.1873  1.5751 -0.7809
  596MPD2    N1 8842   3.101   0.576  16.793  0.0824  0.2782  0.3565
  596MPD2    H7 8843   3.139   0.671  16.788  3.5454 -1.2355 -2.3345
  597TMC3    C1 8844   3.097   0.644  17.024 -0.0701 -0.2289  0.2682
  597TMC3    C2 8845   3.206   0.719  16.995  1.0733 -0.6027 -0.5447
  597TMC3    C3 8846   3.228   0.822  17.088 -0.0096  0.1391 -0.0734
  597TMC3    C4 8847   3.010   0.679  17.129  0.2927 -0.5408  0.3962
  597TMC3    C5 8848   3.037   0.780  17.213 -0.2131 -0.0947 -0.3013
  597TMC3    C6 8849   3.149   0.855  17.194 -0.3290  0.2797 -0.0224
  597TMC3     C 8850   3.040   0.560  16.916 -0.6257  0.6585  0.4146
  597TMC3     O 8851   2.952   0.480  16.955 -0.2361  0.1337  0.1093
  597TMC3     H 8852   3.269   0.694  16.910  0.1747 -0.8825 -1.1285
  597TMC3    H1 8853   2.913   0.634  17.141  0.2919 -0.4957  0.5630
  597TMC3    H2 8854   3.179   0.942  17.253  2.9064 -1.4448  0.8820
  597TMC3    C7 8855   2.927   0.846  17.282 -0.2185 -0.5661 -0.0084
  597TMC3    C8 8856   3.350   0.905  17.072 -0.1592 -0.5237 -0.6499
  597TMC3    O1 8857   2.821   0.793  17.304 -0.2631 -0.2089  0.4601
  597TMC3    O2 8858   3.337   1.023  17.109 -0.2889  0.4302 -0.8192
  598TMC3    C1 8859   1.063   2.676  15.929 -0.6046 -0.8110  0.2084
  598TMC3    C2 8860   0.941   2.612  15.943 -0.3630  0.1543 -0.8629
  598TMC3    C3 8861   0.890   2.542  15.839  0.2808  0.4599  0.2361
  598TMC3    C4 8862   1.134   2.653  15.819  0.3210 -0.0038 -0.0902
  598TMC3    C5 8863   1.086   2.578  15.715  0.4997 -0.3209 -0.3837
  598TMC3    C6 8864   0.959   2.523  15.721  0.0172 -0.2071  0.1962
  598TMC3     C 8865   1.110   2.771  16.033  0.3358  0.3604  0.6153
  598TMC3     O 8866   1.207   2.837  16.000 -0.0486  0.2101 -0.0457
  598TMC3     H 8867   0.891   2.623  16.038  0.1520 -0.7251 -0.4883
  598TMC3    H1 8868   1.233   2.697  15.811  0.1185  0.3910 -0.4629
  598TMC3    H2 8869   0.923   2.470  15.633 -0.6697 -0.2325  0.4911
  598TMC3    C7 8870   1.146   2.576  15.577 -0.2721  0.9498 -1.0401
  598TMC3    C8 8871   0.789   2.446  15.878 -0.7340  0.5969 -0.6119
  598TMC3    O1 8872   1.132   2.478  15.507 -0.1394 -0.8050  0.4845
  598TMC3    O2 8873   0.718   2.476  15.978 -0.2418  0.4299 -0.4301
  599MPD2     C 8874   1.333   0.069  15.668 -0.1064  0.3085 -0.2687
  599MPD2    C1 8875   1.308   4.683  15.742  0.3815 -0.3562 -0.4329
  599MPD2    C2 8876   1.195   4.682  15.823 -0.5758 -0.1397  0.4279
  599MPD2    C3 8877   1.106   0.063  15.828  0.2718  0.1062  0.5077
  599MPD2    C4 8878   1.137   0.172  15.755  0.4666 -0.4615  0.2391
  599MPD2    C5 8879   1.244   0.174  15.677 -0.1676  1.0924  0.5319
  599MPD2     H 8880   1.171   4.592  15.879 -0.3112  0.1061  0.9400
  599MPD2    H1 8881   1.071   0.257  15.762 -0.1345 -0.9488  0.4964
  599MPD2    H2 8882   1.416   0.077  15.598 -0.2261  2.8451 -0.1126
  599MPD2    H3 8883   1.267   0.264  15.621  0.7698  0.1472 -0.5953
  599MPD2     N 8884   0.999   0.070  15.920  0.8049 -0.0988 -0.4061
  599MPD2    H5 8885   0.960   0.163  15.931 -0.6988 -0.7282 -0.3716
  599MPD2    N1 8886   1.402   4.578  15.744 -0.7757  0.5042  0.3114
  599MPD2    H7 8887   1.486   4.590  15.688  0.0566 -1.4555  1.1315
  600TMC3    C1 8888   0.902   0.025  16.136  0.3514  1.0336  0.3664
  600TMC3    C2 8889   0.878   4.661  16.243  0.4212 -0.3171  0.3881
  600TMC3    C3 8890   0.873   4.707  16.375  0.2141 -0.8288  0.3677
  600TMC3    C4 8891   0.916   0.155  16.165 -0.1370  0.3100 -0.8968
  600TMC3    C5 8892   0.910   0.198  16.295 -0.4159 -0.1541 -0.7035
  600TMC3    C6 8893   0.898   0.111  16.400  0.3321 -0.1237 -0.2078
  600TMC3     C 8894   0.973   4.693  16.016 -0.5592 -0.1910 -0.0998
  600TMC3     O 8895   1.005   4.573  16.024 -0.5099  0.0368 -0.1399
  600TMC3     H 8896   0.855   4.557  16.219  0.5541  0.2422 -2.1335
  600TMC3    H1 8897   0.942   0.221  16.083 -0.2104  0.6961 -0.6049
  600TMC3    H2 8898   0.884   0.141  16.503  1.4989 -0.0722 -0.0627
  600TMC3    C7 8899   0.957   0.325  16.339  0.2752 -0.1079  0.1382
  600TMC3    C8 8900   0.812   4.623  16.477 -0.4858  0.2713 -0.5020
  600TMC3    O1 8901   0.932   0.357  16.455 -0.5964 -0.0202  0.3371
  600TMC3    O2 8902   0.806   4.674  16.588  0.5868  0.2399  0.3677
  601MPD2     C 8903   3.786   2.716   0.020 -0.3815 -0.2680 -0.3783
  601MPD2    C1 8904   3.704   2.633  17.645  0.8112 -0.2799 -0.4030
  601MPD2    C2 8905   3.692   2.503  17.680  0.2240 -0.3079  0.8132
  601MPD2    C3 8906   3.773   2.447   0.084  0.1803  0.1776 -0.0960
  601MPD2    C4 8907   3.856   2.527   0.154  0.1036  0.7358 -0.4694
  601MPD2    C5 8908   3.860   2.659   0.123 -0.1734  0.6896  0.2755
  601MPD2     H 8909   3.622   2.451  17.615 -0.1606  0.3232  0.7236
  601MPD2    H1 8910   3.912   2.482   0.236 -1.6676  0.4180  0.5922
  601MPD2    H2 8911   3.781   2.823   0.004 -2.5640 -0.3080  0.0964
  601MPD2    H3 8912   3.929   2.719   0.181  0.0472  0.9909 -0.2968
  601MPD2     N 8913   3.769   2.303   0.117  0.3291 -0.2676  0.0469
  601MPD2    H5 8914   3.848   2.271   0.172  0.2934  0.2678  0.4123
  601MPD2    N1 8915   3.629   2.689  17.546  0.5206 -0.3007 -0.0455
  601MPD2    H7 8916   3.545   2.637  17.524  0.7607 -0.0014 -1.7011
  602TMC3    C1 8917   3.559   2.847  17.384  0.7639 -0.0433 -0.4398
  602TMC3    C2 8918   3.593   2.939  17.292  0.6616 -0.5108 -0.3444
  602TMC3    C3 8919   3.485   3.009  17.232 -0.2884  0.4632 -0.3463
  602TMC3    C4 8920   3.432   2.831  17.428 -0.3950  0.0651  0.3738
  602TMC3    C5 8921   3.332   2.906  17.378  0.8082  0.1566 -0.0957
  602TMC3    C6 8922   3.352   2.996  17.274 -0.5207  0.4553  0.3747
  602TMC3     C 8923   3.664   2.802  17.473  0.5556  0.5835  0.0957
  602TMC3     O 8924   3.775   2.855  17.472  0.3825 -0.4602 -0.3507
  602TMC3     H 8925   3.696   2.954  17.260  1.7639 -3.1783  1.9842
  602TMC3    H1 8926   3.415   2.769  17.515  0.0318 -0.5674  0.0058
  602TMC3    H2 8927   3.264   3.035  17.225 -0.4126  1.8266  1.2846
  602TMC3    C7 8928   3.207   2.918  17.459 -0.6740  0.2885  0.0454
  602TMC3    C8 8929   3.514   3.135  17.157  0.1779 -0.2869 -0.4576
  602TMC3    O1 8930   3.199   2.841  17.556 -0.1199 -0.3845 -0.2232
  602TMC3    O2 8931   3.621   3.153  17.100  0.4423  0.7579  0.1416
  603TMC3    C1 8932   0.930   3.500  11.228 -0.4549  0.5283  0.8752
  603TMC3    C2 8933   0.983   3.447  11.344 -1.3998 -0.5707 -0.6636
  603TMC3    C3 8934   1.114   3.459  11.362 -0.5473  0.6795 -0.4132
  603TMC3    C4 8935   1.010   3.556  11.132 -0.7417 -0.1225  0.1875
  603TMC3    C5 8936   1.142   3.576  11.161  0.7922 -0.1052  0.2785
  603TMC3    C6 8937   1.198   3.535  11.280 -0.4886 -0.1788 -0.8948
  603TMC3     C 8938   0.811   3.434  11.180 -0.6606  0.0618  0.3809
  603TMC3     O 8939   0.798   3.425  11.060 -0.1739  0.2334  0.2618
  603TMC3     H 8940   0.924   3.382  11.409  0.0513  0.0772  1.3094
  603TMC3    H1 8941   0.970   3.601  11.042 -1.1581  1.4942  1.1793
  603TMC3    H2 8942   1.305   3.525  11.294 -0.6611  2.4461  2.5355
  603TMC3    C7 8943   1.239   3.639  11.077  0.1616  0.1780 -0.0802
  603TMC3    C8 8944   1.160   3.415  11.491  0.3190 -0.4629  0.2078
  603TMC3    O1 8945   1.330   3.695  11.134 -0.0071 -0.3039 -0.0244
  603TMC3    O2 8946   1.118   3.316  11.542  0.2614 -0.1572 -0.6585
  604MPD2     C 8947   2.476   1.801  16.326 -0.4685 -0.2475 -0.2355
  604MPD2    C1 8948   2.478   1.934  16.286 -0.7067 -0.2022  0.4485
  604MPD2    C2 8949   2.545   1.971  16.174  0.0264  0.2950  0.7383
  604MPD2    C3 8950   2.607   1.878  16.098  0.0726 -0.2550 -0.1070
  604MPD2    C4 8951   2.597   1.743  16.129 -0.6730  0.0506  0.0645
  604MPD2    C5 8952   2.541   1.707  16.245 -0.4829  0.3986  0.5547
  604MPD2     H 8953   2.538   2.073  16.138 -4.0574  0.5640  2.2999
  604MPD2    H1 8954   2.650   1.666  16.075  1.3937  2.8607 -1.9275
  604MPD2    H2 8955   2.427   1.783  16.421 -0.5633  1.6615  0.0813
  604MPD2    H3 8956   2.547   1.604  16.278  1.8997  0.2777 -0.2030
  604MPD2     N 8957   2.663   1.928  15.978 -0.7806 -0.3189  0.2942
  604MPD2    H5 8958   2.687   2.025  15.961 -0.4373 -0.5653 -0.6056
  604MPD2    N1 8959   2.404   2.025  16.372 -0.5264  0.0260 -0.0500
  604MPD2    H7 8960   2.359   1.991  16.456 -1.0091 -0.2905 -0.4361
  605TMC3    C1 8961   2.310   2.230  16.455 -0.1004 -0.2915  0.0406
  605TMC3    C2 8962   2.347   2.186  16.584 -1.2781 -0.1306 -0.1764
  605TMC3    C3 8963   2.301   2.255  16.693  0.4133 -0.0856 -0.3504
  605TMC3    C4 8964   2.227   2.342  16.441 -0.3240 -0.1072 -0.3486
  605TMC3    C5 8965   2.163   2.384  16.555  0.1034 -0.7323  0.2068
  605TMC3    C6 8966   2.204   2.352  16.675  0.3936 -0.0105 -0.0424
  605TMC3     C 8967   2.380   2.157  16.342 -0.3715  0.4636  0.3017
  605TMC3     O 8968   2.370   2.212  16.236  0.4263 -0.2424  0.3609
  605TMC3     H 8969   2.410   2.098  16.591 -2.0481 -0.6990 -0.3727
  605TMC3    H1 8970   2.189   2.384  16.349 -0.0860 -0.9899 -0.8565
  605TMC3    H2 8971   2.149   2.391  16.760  0.8861  2.8886 -1.0417
  605TMC3    C7 8972   2.060   2.478  16.542 -0.1397  0.5133 -0.0248
  605TMC3    C8 8973   2.378   2.244  16.811  0.5192  0.1708  0.6041
  605TMC3    O1 8974   1.992   2.458  16.444  0.5691 -0.1760  0.1261
  605TMC3    O2 8975   2.448   2.145  16.815  0.1082 -0.0108  0.1911
  606TMC3    C1 8976   3.416   0.330  16.627  0.3769  0.0551 -0.4894
  606TMC3    C2 8977   3.412   0.420  16.738 -0.5733 -0.0947 -0.2935
  606TMC3    C3 8978   3.355   0.378  16.856  0.0809  1.0604 -0.6350
  606TMC3    C4 8979   3.360   0.202  16.646 -0.4109  0.4896  0.3592
  606TMC3    C5 8980   3.313   0.164  16.774 -0.1439  0.3398  0.6807
  606TMC3    C6 8981   3.305   0.250  16.876 -1.1808  0.1364 -1.0864
  606TMC3     C 8982   3.487   0.356  16.503  0.3096 -0.4481 -0.2512
  606TMC3     O 8983   3.575   0.444  16.503 -0.5231  0.2835 -0.0166
  606TMC3     H 8984   3.456   0.519  16.732 -1.9440  0.5838  0.7176
  606TMC3    H1 8985   3.377   0.122  16.574  1.3044  2.1337 -1.0420
  606TMC3    H2 8986   3.296   0.221  16.980  0.9974 -1.0023 -1.2158
  606TMC3    C7 8987   3.306   0.025  16.801  0.4952  0.0471 -0.0972
  606TMC3    C8 8988   3.403   0.453  16.979 -0.2974 -0.1526  0.5347
  606TMC3    O1 8989   3.356   4.677  16.713 -0.3532 -0.3816  0.7334
  606TMC3    O2 8990   3.465   0.552  16.953 -0.0989  0.5283  0.1952
  607MPD2     C 8991   0.575   3.340  11.745 -0.1136 -0.1344 -0.3971
  607MPD2    C1 8992   0.591   3.459  11.818 -0.0241  0.1384 -0.4733
  607MPD2    C2 8993   0.523   3.480  11.937 -0.2124 -0.1761  0.0124
  607MPD2    C3 8994   0.437   3.387  11.985  0.2426  0.0904 -0.1361
  607MPD2    C4 8995   0.400   3.279  11.906 -0.2293  0.4494  0.7331
  607MPD2    C5 8996   0.472   3.252  11.788  0.7916 -0.2802 -0.3969
  607MPD2     H 8997   0.532   3.571  11.995  0.6449 -0.5147  0.4106
  607MPD2    H1 8998   0.322   3.212  11.939  0.1082 -1.5425 -2.4812
  607MPD2    H2 8999   0.634   3.325  11.655  2.7005  0.5525  1.3281
  607MPD2    H3 9000   0.439   3.162  11.738 -0.7196 -1.0357  1.9424
  607MPD2     N 9001   0.398   3.414  12.116 -0.0936  0.2817 -0.7596
  607MPD2    H5 9002   0.422   3.506  12.152 -0.6156  0.4730 -0.9025
  607MPD2    N1 9003   0.680   3.561  11.769  0.4785 -0.4747 -0.5848
  607MPD2    H7 9004   0.694   3.627  11.844  1.2749 -0.7794 -0.4669
  608TMC3    C1 9005   0.881   3.643  11.690 -0.3615  0.0445 -0.1173
  608TMC3    C2 9006   0.928   3.656  11.820  0.6747 -0.0552  0.3084
  608TMC3    C3 9007   1.031   3.744  11.842  0.1861  0.0543 -1.0624
  608TMC3    C4 9008   0.951   3.701  11.581  0.6847 -0.0750 -1.0118
  608TMC3    C5 9009   1.055   3.784  11.616  0.2792 -0.4804  0.0670
  608TMC3    C6 9010   1.098   3.815  11.744 -0.2429  0.1117  0.4787
  608TMC3     C 9011   0.760   3.568  11.657 -0.6301 -0.6746  0.1060
  608TMC3     O 9012   0.767   3.500  11.555 -0.4825 -0.8584  0.4463
  608TMC3     H 9013   0.892   3.580  11.887  1.3317 -1.1728 -0.6037
  608TMC3    H1 9014   0.917   3.692  11.478 -2.4429  1.9943 -0.1790
  608TMC3    H2 9015   1.191   3.866  11.769 -0.1554 -0.0956  0.5778
  608TMC3    C7 9016   1.114   3.867  11.509  0.6584  0.0928  0.3526
  608TMC3    C8 9017   1.067   3.762  11.982 -0.5276  0.2085  0.2133
  608TMC3    O1 9018   1.057   3.864  11.404  0.1152 -0.7299 -0.2306
  608TMC3    O2 9019   1.167   3.824  12.016 -0.3984 -0.4058  0.0933
  609TMC3    C1 9020   0.017   1.706   9.140 -0.6678 -0.0184  0.8310
  609TMC3    C2 9021   0.011   1.604   9.048 -0.4117  0.2413  0.3668
  609TMC3    C3 9022   0.118   1.520   9.043  0.1294 -0.3901  0.4491
  609TMC3    C4 9023   0.119   1.717   9.224  0.4254  0.1644  0.4456
  609TMC3    C5 9024   0.214   1.618   9.236 -0.5311 -0.2944  0.0727
  609TMC3    C6 9025   0.223   1.526   9.135  0.1636 -0.0756  0.2930
  609TMC3     C 9026   4.628   1.800   9.141 -0.1809 -0.7009  0.1877
  609TMC3     O 9027   4.528   1.775   9.076  0.2155 -0.2778  0.7689
  609TMC3     H 9028   4.650   1.600   8.980  2.1899 -0.5688 -2.8678
  609TMC3    H1 9029   0.123   1.791   9.304  0.5962 -0.7612  1.2936
  609TMC3    H2 9030   0.295   1.446   9.146  0.8320  0.6981  1.7056
  609TMC3    C7 9031   0.316   1.642   9.329  0.9108 -0.7952 -0.4851
  609TMC3    C8 9032   0.127   1.433   8.929 -0.2657 -0.2094 -0.4691
  609TMC3    O1 9033   0.288   1.712   9.427  0.2515 -0.0273  0.1727
  609TMC3    O2 9034   0.027   1.408   8.867  0.0141  0.6164 -0.0163
  610TMC3    C1 9035   0.977   3.489  12.721 -0.0250 -0.0781  0.0624
  610TMC3    C2 9036   0.968   3.479  12.586 -0.2531 -0.8607 -0.2870
  610TMC3    C3 9037   1.082   3.436  12.521 -0.4268  0.6106 -0.1721
  610TMC3    C4 9038   1.085   3.437  12.788 -0.6452 -0.4859 -0.1038
  610TMC3    C5 9039   1.200   3.393  12.721 -0.3942  0.2525 -0.7288
  610TMC3    C6 9040   1.193   3.391  12.589 -0.3459  0.2515  0.1987
  610TMC3     C 9041   0.853   3.528  12.794 -0.2534 -0.3751 -0.1209
  610TMC3     O 9042   0.783   3.602  12.728 -0.1813 -0.4640  0.1741
  610TMC3     H 9043   0.885   3.526  12.534  1.0088  1.5309 -0.1666
  610TMC3    H1 9044   1.085   3.443  12.897 -0.9859 -0.2802 -0.1166
  610TMC3    H2 9045   1.280   3.370  12.528 -1.3285 -0.6842 -0.8852
  610TMC3    C7 9046   1.257   3.282  12.791 -0.1278 -0.0790 -1.1399
  610TMC3    C8 9047   1.064   3.415  12.379 -0.2174 -0.6229 -0.6644
  610TMC3    O1 9048   1.350   3.291  12.872 -0.2408  0.1204  0.5684
  610TMC3    O2 9049   1.163   3.427  12.310  0.2034  0.2994  0.0765
  611MPD2     C 9050   0.607   3.158  10.360  0.3004 -0.1519 -0.3951
  611MPD2    C1 9051   0.576   3.244  10.257  0.2373  0.4075  0.4154
  611MPD2    C2 9052   0.673   3.338  10.218  0.8519  0.6248  0.2466
  611MPD2    C3 9053   0.800   3.337  10.272 -0.2179  0.2003  0.0653
  611MPD2    C4 9054   0.827   3.243  10.371  0.1842 -0.6207  0.1450
  611MPD2    C5 9055   0.731   3.158  10.412  0.3255  0.2224  0.0194
  611MPD2     H 9056   0.643   3.406  10.139  0.0967  0.7430  0.6352
  611MPD2    H1 9057   0.928   3.229  10.407  0.7720  0.9506 -0.8906
  611MPD2    H2 9058   0.537   3.086  10.401  2.0393 -1.6560 -0.0571
  611MPD2    H3 9059   0.754   3.084  10.488  0.8359 -1.8074 -2.0907
  611MPD2     N 9060   0.903   3.431  10.245  0.0164  0.2871  0.0846
  611MPD2    H5 9061   0.975   3.448  10.314  0.0298 -1.6157  0.5505
  611MPD2    N1 9062   0.447   3.238  10.207  0.3693  0.0295 -0.4394
  611MPD2    H7 9063   0.398   3.161  10.250 -1.7059  0.2286 -2.4285
  612TMC3    C1 9064   1.022   3.599  10.128  0.2435 -0.3932  0.0067
  612TMC3    C2 9065   1.071   3.651  10.248 -0.4138 -0.5678 -0.3372
  612TMC3    C3 9066   1.172   3.734  10.236 -0.0517 -0.1040  0.1603
  612TMC3    C4 9067   1.055   3.654  10.003  0.0047  0.0542  0.2031
  612TMC3    C5 9068   1.164   3.734  10.002 -1.3435  0.8145  0.7042
  612TMC3    C6 9069   1.227   3.771  10.115  0.0699 -0.1313  0.3098
  612TMC3     C 9070   0.907   3.505  10.128  0.6877  0.1847  0.7208
  612TMC3     O 9071   0.854   3.497  10.019  0.0544 -0.6583 -0.2359
  612TMC3     H 9072   1.023   3.631  10.343  0.6407 -0.2918  0.2562
  612TMC3    H1 9073   1.017   3.612   9.910  1.5037 -0.2945 -0.2448
  612TMC3    H2 9074   1.316   3.831  10.104  0.0483 -0.3202 -0.8362
  612TMC3    C7 9075   1.217   3.792   9.876 -0.3984  0.4772  0.6778
  612TMC3    C8 9076   1.259   3.755  10.347 -0.5311  0.5899 -0.3496
  612TMC3    O1 9077   1.279   3.897   9.877  0.2278 -0.2647  0.2113
  612TMC3    O2 9078   1.336   3.852  10.336 -0.1134  0.0052  0.1020
  613MPD2     C 9079   4.573   0.324  16.487  0.4020 -0.2098 -0.2155
  613MPD2    C1 9080   4.562   0.361  16.359  0.1217  0.3650 -0.0541
  613MPD2    C2 9081   4.499   0.275  16.260 -0.5500 -0.5379  0.5166
  613MPD2    C3 9082   4.447   0.152  16.298  0.2364 -0.5225 -0.2492
  613MPD2    C4 9083   4.468   0.108  16.431  0.5503 -0.9382 -0.7098
  613MPD2    C5 9084   4.532   0.193  16.522  0.1945  0.0528  0.2295
  613MPD2     H 9085   4.493   0.316  16.160  0.7913  0.5578  0.8804
  613MPD2    H1 9086   4.442   0.009  16.465 -0.6888 -0.1286  0.6586
  613MPD2    H2 9087   4.622   0.380  16.567 -2.8918 -0.5505  2.0484
  613MPD2    H3 9088   4.546   0.163  16.625 -1.5606 -0.0136  0.4449
  613MPD2     N 9089   4.410   0.059  16.194 -0.0083  0.6809 -0.0699
  613MPD2    H5 9090   4.426   4.686  16.218 -0.3911  1.1097  1.9174
  613MPD2    N1 9091   4.617   0.480  16.304 -0.6051 -0.0518  0.1690
  613MPD2    H7 9092   4.624   0.479  16.202  0.8993  2.7180  0.2487
  614TMC3    C1 9093   4.721   0.680  16.266 -0.0351 -0.6387  0.0705
  614TMC3    C2 9094   0.052   0.601  16.164  0.3155 -0.6345 -0.0081
  614TMC3    C3 9095   0.040   0.628  16.032  0.6691  0.5786  0.1116
  614TMC3    C4 9096   4.645   0.786  16.230  0.0704 -0.9790 -0.0735
  614TMC3    C5 9097   4.616   0.804  16.097  0.3031 -0.2859  0.2966
  614TMC3    C6 9098   4.682   0.735  15.996  0.1091  0.0275 -0.2676
  614TMC3     C 9099   4.672   0.590  16.368  0.0562 -0.0577  0.1073
  614TMC3     O 9100   4.675   0.617  16.488  0.1765 -0.0955  0.3488
  614TMC3     H 9101   0.124   0.522  16.187 -0.0922 -1.3100 -1.0442
  614TMC3    H1 9102   4.591   0.842  16.305  1.4036  1.7699 -1.1729
  614TMC3    H2 9103   4.661   0.755  15.892 -1.1108 -2.4219 -0.4734
  614TMC3    C7 9104   4.533   0.928  16.068  0.3324 -0.5477 -0.3436
  614TMC3    C8 9105   0.004   0.509  15.963  0.0668 -0.3453 -0.3712
  614TMC3    O1 9106   4.505   1.008  16.160 -0.1468  0.1464 -0.0192
  614TMC3    O2 9107   4.673   0.422  16.023  0.4805 -0.1054  0.0778
  615MPD2     C 9108   3.458   2.211  16.615 -0.4550  0.4192  0.5238
  615MPD2    C1 9109   3.464   2.288  16.505  0.1755  0.4309 -1.4179
  615MPD2    C2 9110   3.506   2.234  16.383  0.0910 -0.3035  0.7697
  615MPD2    C3 9111   3.541   2.097  16.373 -0.8282 -0.0243  0.2399
  615MPD2    C4 9112   3.535   2.021  16.483  1.3235 -0.2399 -0.3120
  615MPD2    C5 9113   3.487   2.072  16.608  0.0978 -0.1839  0.3299
  615MPD2     H 9114   3.520   2.290  16.291 -0.8071 -1.1644  0.1017
  615MPD2    H1 9115   3.539   1.913  16.488  0.3069 -0.2894 -0.5429
  615MPD2    H2 9116   3.417   2.238  16.712 -1.0622  0.8718  0.1361
  615MPD2    H3 9117   3.488   2.005  16.693  0.2807  0.7517  1.0676
  615MPD2     N 9118   3.613   2.055  16.259  0.2555 -0.3545 -0.6199
  615MPD2    H5 9119   3.629   2.131  16.194  1.7272  1.7488  2.2035
  615MPD2    N1 9120   3.428   2.428  16.516  0.2813 -0.7654 -0.6950
  615MPD2    H7 9121   3.434   2.496  16.440 -0.5998 -1.0992 -1.0709
  616TMC3    C1 9122   3.360   2.628  16.602  0.4186  0.8726 -1.0769
  616TMC3    C2 9123   3.448   2.696  16.520 -0.2510 -0.0711  0.1038
  616TMC3    C3 9124   3.411   2.820  16.481  0.4861  0.2627  0.4681
  616TMC3    C4 9125   3.241   2.678  16.640  0.2527 -0.4961  0.3110
  616TMC3    C5 9126   3.212   2.803  16.597 -0.0480 -0.4204 -0.1105
  616TMC3    C6 9127   3.292   2.874  16.518 -0.0072  0.6262  0.5189
  616TMC3     C 9128   3.389   2.493  16.627  0.2909  0.4687 -0.5442
  616TMC3     O 9129   3.361   2.454  16.743 -0.4962 -0.0191  0.5506
  616TMC3     H 9130   3.546   2.653  16.505  0.7707  2.9046 -1.7388
  616TMC3    H1 9131   3.181   2.611  16.702 -0.8263 -0.0284 -0.2271
  616TMC3    H2 9132   3.266   2.974  16.485 -3.0104  0.1104  1.3282
  616TMC3    C7 9133   3.078   2.847  16.607  0.3898 -0.4430 -0.5461
  616TMC3    C8 9134   3.508   2.905  16.420 -0.5180 -0.8222  0.0596
  616TMC3    O1 9135   3.049   2.962  16.582  0.2725 -0.0031 -0.2623
  616TMC3    O2 9136   3.484   3.024  16.400  0.4865 -0.1958  0.3480
  617MPD2     C 9137   1.661   0.445  13.810  0.0464  0.0425  0.0433
  617MPD2    C1 9138   1.631   0.408  13.939 -0.1435  0.5695 -0.5017
  617MPD2    C2 9139   1.505   0.359  13.971  0.0448  0.9339  0.1857
  617MPD2    C3 9140   1.407   0.343  13.870 -0.3701  0.3125 -0.0486
  617MPD2    C4 9141   1.446   0.363  13.741 -1.3125 -0.3268  0.5006
  617MPD2    C5 9142   1.569   0.423  13.715  0.9531 -0.3551  0.2770
  617MPD2     H 9143   1.477   0.336  14.073  0.4181 -0.1105  0.0610
  617MPD2    H1 9144   1.376   0.342  13.661 -1.2274 -1.3130  0.6950
  617MPD2    H2 9145   1.753   0.494  13.780  0.4472 -0.7796 -0.0885
  617MPD2    H3 9146   1.597   0.437  13.611 -0.0493 -0.3974 -0.0013
  617MPD2     N 9147   1.277   0.293  13.893  0.6942  0.0991  0.6612
  617MPD2    H5 9148   1.223   0.278  13.809 -0.7553  2.0447  1.2335
  617MPD2    N1 9149   1.733   0.433  14.029 -0.6347  0.6060  0.3446
  617MPD2    H7 9150   1.817   0.472  13.988  1.4562 -0.3513  3.6756
  618TMC3    C1 9151   1.857   0.408  14.228 -0.1604  0.3849  0.9091
  618TMC3    C2 9152   1.929   0.297  14.266 -0.3011  0.4387 -0.2608
  618TMC3    C3 9153   2.062   0.289  14.249 -0.2245 -0.1821  0.0176
  618TMC3    C4 9154   1.918   0.521  14.186 -0.2396 -0.2488  0.4296
  618TMC3    C5 9155   2.053   0.515  14.176 -0.0958 -0.6385 -0.1659
  618TMC3    C6 9156   2.123   0.406  14.221 -0.0545  0.1312 -0.1609
  618TMC3     C 9157   1.734   0.383  14.158  0.0778  0.2279 -0.0644
  618TMC3     O 9158   1.654   0.311  14.217  0.7269  0.0259 -0.3812
  618TMC3     H 9159   1.871   0.207  14.277  1.4752 -0.9239 -2.0725
  618TMC3    H1 9160   1.863   0.611  14.164 -0.0806 -0.6013 -1.4342
  618TMC3    H2 9161   2.230   0.399  14.205 -0.1880  0.0034 -1.0036
  618TMC3    C7 9162   2.084   0.575  14.047  0.3125  0.8144 -0.0012
  618TMC3    C8 9163   2.093   0.179  14.155  0.1159 -0.6342 -0.1124
  618TMC3    O1 9164   1.991   0.581  13.969  0.0758  0.5078  0.6649
  618TMC3    O2 9165   2.002   0.150  14.077 -0.4650 -0.9916  0.0709
  619MPD2     C 9166   3.559   1.925  13.842  0.2380  0.1987  0.1988
  619MPD2    C1 9167   3.479   2.001  13.759 -0.0870  0.1557 -0.6249
  619MPD2    C2 9168   3.345   1.977  13.737  0.6061  0.3461 -0.1842
  619MPD2    C3 9169   3.288   1.865  13.792  0.9996 -0.7267  0.2947
  619MPD2    C4 9170   3.360   1.788  13.882  0.0005  0.4212 -0.7824
  619MPD2    C5 9171   3.497   1.815  13.892  0.2585  0.1999 -0.0984
  619MPD2     H 9172   3.286   2.036  13.668 -0.8122  0.0220  0.7488
  619MPD2    H1 9173   3.309   1.703  13.924  1.5141 -1.4218 -2.6771
  619MPD2    H2 9174   3.661   1.940  13.875  0.2373 -1.2679  0.8719
  619MPD2    H3 9175   3.561   1.754  13.954 -2.0258 -2.9642 -0.8569
  619MPD2     N 9176   3.156   1.829  13.762 -0.3580  0.0640  0.1058
  619MPD2    H5 9177   3.128   1.756  13.826 -0.0071  1.2344  1.5909
  619MPD2    N1 9178   3.525   2.125  13.710 -0.1518 -0.4283  0.0047
  619MPD2    H7 9179   3.450   2.184  13.674 -0.9926 -1.5390 -0.0340
  620TMC3    C1 9180   3.660   2.315  13.687 -0.5735  0.2055 -1.2084
  620TMC3    C2 9181   3.601   2.338  13.565 -0.5960 -0.1006 -0.3226
  620TMC3    C3 9182   3.576   2.472  13.539  0.0677  0.1540  0.0791
  620TMC3    C4 9183   3.714   2.410  13.768  1.1620  0.0384  0.1566
  620TMC3    C5 9184   3.678   2.538  13.736 -0.3802 -0.5666  0.3805
  620TMC3    C6 9185   3.621   2.574  13.617  0.7445  0.2344  0.0605
  620TMC3     C 9186   3.647   2.183  13.744 -0.3268 -0.1563 -1.1259
  620TMC3     O 9187   3.738   2.147  13.816 -0.0325  0.1952  0.3865
  620TMC3     H 9188   3.582   2.250  13.505 -2.0557 -0.8265  1.1842
  620TMC3    H1 9189   3.761   2.376  13.860 -3.3056 -1.2829  1.9760
  620TMC3    H2 9190   3.602   2.680  13.603  1.3065  0.5131  1.3544
  620TMC3    C7 9191   3.641   2.628  13.849 -0.1870  0.1415 -0.1787
  620TMC3    C8 9192   3.437   2.496  13.502  0.1902 -0.0944 -0.1876
  620TMC3    O1 9193   3.701   2.622  13.959  0.2138 -0.0704  0.7846
  620TMC3    O2 9194   3.378   2.566  13.581  0.3648 -0.3239 -0.0368
  621MPD2     C 9195   3.805   2.321   9.995 -0.2740  0.3196 -0.0002
  621MPD2    C1 9196   3.923   2.247   9.972  0.9859  0.2352  0.2088
  621MPD2    C2 9197   3.990   2.252   9.856  0.6014 -0.5530  0.2846
  621MPD2    C3 9198   3.951   2.338   9.755 -0.0205  0.0494 -0.3311
  621MPD2    C4 9199   3.829   2.411   9.767 -0.6474  0.7725  0.5976
  621MPD2    C5 9200   3.757   2.395   9.882 -0.6493 -0.7878  0.4204
  621MPD2     H 9201   4.077   2.189   9.841  0.7712 -1.1617  3.8940
  621MPD2    H1 9202   3.796   2.466   9.680  1.8319 -0.5563 -1.1916
  621MPD2    H2 9203   3.748   2.309  10.086 -1.5431 -1.5034 -1.0322
  621MPD2    H3 9204   3.657   2.437   9.888  0.4295  1.3917  3.1281
  621MPD2     N 9205   4.041   2.352   9.650 -0.3402 -0.0849 -0.3804
  621MPD2    H5 9206   4.124   2.295   9.657 -1.6661 -1.7978  1.3021
  621MPD2    N1 9207   3.978   2.155  10.067 -0.4121  0.2448  0.7618
  621MPD2    H7 9208   4.044   2.083  10.039 -0.4884 -0.2235  1.7611
  622TMC3    C1 9209   3.997   2.042  10.269 -0.6722  0.5731  0.1805
  622TMC3    C2 9210   3.932   2.032  10.392  0.3658 -0.3498 -0.0145
  622TMC3    C3 9211   3.883   1.909  10.421  0.1901  0.5258  0.6835
  622TMC3    C4 9212   4.020   1.930  10.195  0.1818 -0.1695  1.0452
  622TMC3    C5 9213   3.960   1.811  10.227 -0.2862  0.5228 -1.2426
  622TMC3    C6 9214   3.901   1.797  10.348 -0.8456 -0.3740  1.2160
  622TMC3     C 9215   3.949   2.157  10.203 -0.6297  0.8241 -1.0455
  622TMC3     O 9216   3.875   2.229  10.274 -0.4262 -0.3115 -0.3777
  622TMC3     H 9217   3.920   2.118  10.457 -0.5012  0.0185 -0.6716
  622TMC3    H1 9218   4.084   1.929  10.108 -1.7089  0.7641 -0.3706
  622TMC3    H2 9219   3.860   1.705  10.387 -2.1069 -1.2190 -2.0786
  622TMC3    C7 9220   3.905   1.747  10.107 -0.3211 -0.0035 -0.5082
  622TMC3    C8 9221   3.744   1.911  10.451 -0.3375  0.1091 -0.8124
  622TMC3    O1 9222   3.897   1.813  10.006 -0.1468 -0.6791 -0.4923
  622TMC3    O2 9223   3.689   1.816  10.502 -0.4719 -0.2156 -0.0618
  623MPD2     C 9224   2.697   2.354  16.301  0.4288  0.4812 -0.7760
  623MPD2    C1 9225   2.655   2.405  16.419  0.3293  0.0724  0.3367
  623MPD2    C2 9226   2.652   2.328  16.534  0.0517 -0.9512 -0.2533
  623MPD2    C3 9227   2.694   2.194  16.531 -0.5067  0.2144  0.1094
  623MPD2    C4 9228   2.737   2.140  16.413 -0.3680  0.5684 -0.2417
  623MPD2    C5 9229   2.729   2.217  16.303 -0.2147 -0.5866  0.5088
  623MPD2     H 9230   2.629   2.375  16.629  0.3067 -0.1087 -0.6113
  623MPD2    H1 9231   2.781   2.042  16.404 -1.6707 -0.1490  1.2337
  623MPD2    H2 9232   2.705   2.420  16.216  1.9458  1.3866  0.0686
  623MPD2    H3 9233   2.756   2.164  16.212 -0.3861 -0.4889  0.4020
  623MPD2     N 9234   2.693   2.125  16.651  0.2865  0.5247  0.4417
  623MPD2    H5 9235   2.642   2.160  16.731  0.0178  2.5479 -0.6286
  623MPD2    N1 9236   2.625   2.546  16.421 -0.3119  0.4603  0.6945
  623MPD2    H7 9237   2.643   2.600  16.337  1.3953 -1.6437 -0.2963
  624TMC3    C1 9238   2.747   1.837  17.006 -0.4502 -0.5053 -0.3574
  624TMC3    C2 9239   2.747   1.949  17.085  0.6443 -0.2372 -0.9299
  624TMC3    C3 9240   2.741   2.073  17.038 -0.0550 -0.1518 -0.9738
  624TMC3    C4 9241   2.739   1.843  16.867  0.1071 -0.1294 -0.6063
  624TMC3    C5 9242   2.747   1.971  16.823 -0.0479  0.1309  0.0739
  624TMC3    C6 9243   2.754   2.086  16.902 -0.0158  0.1877  0.5989
  624TMC3     C 9244   2.810   1.721  17.071 -0.1600  0.2416  0.2381
  624TMC3     O 9245   2.828   1.727  17.191 -0.0557 -0.1012 -1.0518
  624TMC3     H 9246   2.747   1.938  17.193  0.0897 -0.3133 -0.9338
  624TMC3    H1 9247   2.742   1.769  16.788 -1.2164 -0.9220  0.0900
  624TMC3    H2 9248   2.771   2.184  16.858 -0.9423 -0.6272 -1.5411
  624TMC3    C7 9249   2.725   1.993  16.677 -0.3992 -0.0554  0.6357
  624TMC3    C8 9250   2.816   2.161  17.123 -0.4992 -0.6381 -0.4621
  624TMC3    O1 9251   2.754   1.897  16.603 -0.0518 -0.3022 -0.3731
  624TMC3    O2 9252   2.930   2.125  17.137 -0.7672  0.5214  0.1742
  625MPD2     C 9253   3.176   3.273   0.501  0.3662 -0.0551  0.7675
  625MPD2    C1 9254   3.212   3.405   0.534 -0.1261  0.7399  0.1827
  625MPD2    C2 9255   3.341   3.417   0.589 -0.4344  0.7071  0.4955
  625MPD2    C3 9256   3.439   3.315   0.573 -0.1147  0.4790 -0.3950
  625MPD2    C4 9257   3.397   3.191   0.528 -0.0210  0.1872  0.0059
  625MPD2    C5 9258   3.272   3.171   0.490  0.1850  0.7008  0.6323
  625MPD2     H 9259   3.362   3.516   0.628  0.4188  1.0601 -0.8584
  625MPD2    H1 9260   3.457   3.102   0.517 -0.1322 -0.2584  3.1232
  625MPD2    H2 9261   3.073   3.244   0.482  0.1344  2.1436 -1.2653
  625MPD2    H3 9262   3.241   3.074   0.453  0.2380  0.8565  0.1806
  625MPD2     N 9263   3.581   3.342   0.596  0.3906 -0.2762  0.0908
  625MPD2    H5 9264   3.611   3.438   0.604  0.0500 -0.0859 -0.8581
  625MPD2    N1 9265   3.127   3.511   0.541  0.6517  0.0579 -0.1919
  625MPD2    H7 9266   3.150   3.598   0.589 -2.3736  0.2672  0.8594
  626TMC3    C1 9267   2.912   3.603   0.531  0.2176 -0.6694 -0.0077
  626TMC3    C2 9268   2.829   3.648   0.426  0.5753 -0.7129  0.4783
  626TMC3    C3 9269   2.770   3.774   0.435  0.4842 -0.2658  0.1515
  626TMC3    C4 9270   2.928   3.673   0.646 -0.1202 -0.2578 -0.0414
  626TMC3    C5 9271   2.851   3.785   0.665 -0.5016  0.1728  0.6555
  626TMC3    C6 9272   2.779   3.837   0.558 -0.1422 -0.2799  0.8658
  626TMC3     C 9273   2.997   3.497   0.488  0.8777 -0.2592  0.4333
  626TMC3     O 9274   2.963   3.424   0.395 -0.3222 -0.3169  0.0154
  626TMC3     H 9275   2.832   3.599   0.330  1.6468  2.1378 -0.9575
  626TMC3    H1 9276   2.985   3.637   0.731 -0.0703  1.6367  0.7279
  626TMC3    H2 9277   2.744   3.938   0.571 -0.0363 -0.0278 -0.8627
  626TMC3    C7 9278   2.863   3.861   0.789 -0.1222  0.1318  0.5271
  626TMC3    C8 9279   2.682   3.821   0.332 -0.2090 -0.0777 -0.8008
  626TMC3    O1 9280   2.954   3.824   0.860  0.3556  0.6163  0.3448
  626TMC3    O2 9281   2.662   3.750   0.234 -0.4460  0.2408  0.1732
  627MPD2     C 9282   1.671   4.098  14.298  0.1521  0.0731  0.0601
  627MPD2    C1 9283   1.577   4.083  14.397  0.6681 -0.5309 -0.6713
  627MPD2    C2 9284   1.498   3.971  14.408  0.6299 -0.4872 -0.3575
  627MPD2    C3 9285   1.508   3.873  14.313  0.2791 -0.0905 -0.3255
  627MPD2    C4 9286   1.616   3.884  14.218  0.2284 -0.1365  0.1350
  627MPD2    C5 9287   1.700   3.987  14.214  0.0991  0.0785 -0.1707
  627MPD2     H 9288   1.425   3.961  14.487  0.8915  0.4708  0.0030
  627MPD2    H1 9289   1.636   3.806  14.146 -1.8997 -1.4834  0.9986
  627MPD2    H2 9290   1.736   4.185  14.306 -0.7195  0.5923  1.3560
  627MPD2    H3 9291   1.782   3.995  14.144  0.4867 -0.0080  0.2673
  627MPD2     N 9292   1.435   3.755  14.330 -0.2661  0.4027  0.5027
  627MPD2    H5 9293   1.361   3.754  14.400  0.0835 -0.5673  0.8686
  627MPD2    N1 9294   1.581   4.183  14.503 -0.0221 -0.2750 -0.0888
  627MPD2    H7 9295   1.634   4.267  14.484  0.9253 -0.7164  0.5532
  628TMC3    C1 9296   1.540   4.281  14.710  0.8775  0.3894  0.5918
  628TMC3    C2 9297   1.594   4.258  14.835 -0.3671 -0.3298 -0.8700
  628TMC3    C3 9298   1.548   4.322  14.943 -0.4461  0.0485  0.3469
  628TMC3    C4 9299   1.438   4.371  14.701  0.0946  0.1090 -0.2175
  628TMC3    C5 9300   1.384   4.430  14.820  0.3962  0.2429  0.5293
  628TMC3    C6 9301   1.434   4.393  14.942 -0.5428  0.0823  0.1658
  628TMC3     C 9302   1.526   4.161  14.629 -0.3902 -0.3677 -0.6829
  628TMC3     O 9303   1.512   4.057  14.686  0.0213 -0.0298  0.2883
  628TMC3     H 9304   1.671   4.182  14.839 -1.1884 -1.1306 -0.3635
  628TMC3    H1 9305   1.384   4.374  14.607 -1.5702 -0.7914  0.6895
  628TMC3    H2 9306   1.405   4.440  15.035  0.2429 -1.5215  1.2292
  628TMC3    C7 9307   1.252   4.494  14.818  0.3235 -0.1474 -0.1565
  628TMC3    C8 9308   1.579   4.264  15.069  0.7121 -0.3034 -0.0954
  628TMC3    O1 9309   1.189   4.482  14.921  0.3183  0.1797 -0.2945
  628TMC3    O2 9310   1.484   4.239  15.141 -1.0170  0.1381  0.3412
  629MPD2     C 9311   3.967   2.964  16.192 -0.5495 -0.0260 -0.2674
  629MPD2    C1 9312   3.971   2.855  16.276  0.2547 -0.2081  0.2899
  629MPD2    C2 9313   3.863   2.829  16.357  0.5631  0.2049  0.0122
  629MPD2    C3 9314   3.745   2.899  16.349  0.3372 -0.6068 -0.4307
  629MPD2    C4 9315   3.743   3.006  16.264 -0.0130 -0.2812  0.4981
  629MPD2    C5 9316   3.854   3.036  16.185 -0.1763  0.8336 -0.2401
  629MPD2     H 9317   3.863   2.739  16.418 -0.4260  0.8176  0.9330
  629MPD2    H1 9318   3.657   3.072  16.253  0.5734  0.5620  1.0537
  629MPD2    H2 9319   4.050   3.005  16.136 -0.3384  2.4324  1.8344
  629MPD2    H3 9320   3.849   3.116  16.112  1.9824 -0.3993 -1.7442
  629MPD2     N 9321   3.634   2.851  16.418  0.0167  0.2186  0.2454
  629MPD2    H5 9322   3.651   2.762  16.465  0.6361 -1.5913 -3.3211
  629MPD2    N1 9323   4.087   2.775  16.278  0.1814 -0.6390  0.4774
  629MPD2    H7 9324   4.159   2.791  16.209 -0.8323 -1.7568 -0.8323
  630TMC3    C1 9325   4.247   2.635  16.369  0.7215 -0.2955 -0.3855
  630TMC3    C2 9326   4.319   2.637  16.255 -0.5345  0.6244  0.2613
  630TMC3    C3 9327   4.437   2.583  16.249 -0.1134 -0.1535  0.2744
  630TMC3    C4 9328   4.288   2.552  16.477 -0.4773 -0.4901 -0.3570
  630TMC3    C5 9329   4.412   2.491  16.463  1.0436  0.6455 -0.1008
  630TMC3    C6 9330   4.491   2.508  16.353  0.3880 -0.1199 -0.5275
  630TMC3     C 9331   4.116   2.687  16.380 -0.5490  0.2121 -0.7023
  630TMC3     O 9332   4.057   2.661  16.485 -0.1780  0.0529  0.2499
  630TMC3     H 9333   4.267   2.670  16.165  0.2556 -0.5539 -0.6220
  630TMC3    H1 9334   4.239   2.558  16.573 -3.1742  2.5683 -1.9418
  630TMC3    H2 9335   4.588   2.460  16.344  0.2836 -0.2942 -0.7158
  630TMC3    C7 9336   4.481   2.477  16.593 -0.1873 -0.7670 -0.2345
  630TMC3    C8 9337   4.535   2.633  16.155  0.1783  0.4154  0.0993
  630TMC3    O1 9338   4.420   2.501  16.696  0.2682 -0.5326  0.1228
  630TMC3    O2 9339   4.643   2.571  16.161 -0.0925 -0.6326 -0.9868
  631MPD2     C 9340   3.036   2.356  15.811  0.2415 -0.1369  0.8528
  631MPD2    C1 9341   3.145   2.376  15.732 -0.0038  0.4326 -0.3134
  631MPD2    C2 9342   3.251   2.284  15.742  0.2313 -0.2171  0.0187
  631MPD2    C3 9343   3.251   2.182  15.829 -0.7918  0.1829 -0.0364
  631MPD2    C4 9344   3.136   2.155  15.908 -0.0309  0.5221  0.1509
  631MPD2    C5 9345   3.032   2.246  15.897 -0.6224  0.2848 -0.1081
  631MPD2     H 9346   3.339   2.305  15.682  0.9565 -1.2288  0.7217
  631MPD2    H1 9347   3.131   2.079  15.985  0.4024  0.5069  0.1624
  631MPD2    H2 9348   2.943   2.409  15.800  0.2870  0.1079  1.6576
  631MPD2    H3 9349   2.943   2.234  15.957 -0.5760 -0.2813 -0.1523
  631MPD2     N 9350   3.366   2.108  15.831 -0.2950  0.9427  0.3943
  631MPD2    H5 9351   3.437   2.127  15.760  1.4043  0.6688  2.0408
  631MPD2    N1 9352   3.148   2.494  15.649  0.4672  0.1674 -0.1348
  631MPD2    H7 9353   3.065   2.552  15.657  1.2099  1.4083 -1.5102
  632TMC3    C1 9354   3.240   2.657  15.505 -0.0693 -0.4134  0.4070
  632TMC3    C2 9355   3.148   2.749  15.552 -0.0426  0.7384 -0.3165
  632TMC3    C3 9356   3.137   2.865  15.477 -0.7307 -0.0211  0.1556
  632TMC3    C4 9357   3.315   2.679  15.392  0.3423  0.7211 -1.0043
  632TMC3    C5 9358   3.305   2.799  15.328  0.1081 -0.0131  0.2813
  632TMC3    C6 9359   3.216   2.897  15.370 -0.4186  0.2063  0.2901
  632TMC3     C 9360   3.248   2.523  15.561 -0.3006  0.3952 -0.6051
  632TMC3     O 9361   3.326   2.449  15.509 -0.2574 -0.0462 -0.1693
  632TMC3     H 9362   3.075   2.741  15.631  0.8908 -0.0443  0.4688
  632TMC3    H1 9363   3.380   2.605  15.348  0.2093 -1.1767  1.9753
  632TMC3    H2 9364   3.212   2.991  15.317 -0.0543  1.0698  1.7795
  632TMC3    C7 9365   3.366   2.834  15.201 -0.2404  0.4430  0.0989
  632TMC3    C8 9366   3.013   2.947  15.499  0.1948 -0.3997 -0.2059
  632TMC3    O1 9367   3.306   2.910  15.128  0.3210  0.5123  0.0312
  632TMC3    O2 9368   2.965   2.934  15.611  0.2970 -0.2365 -0.5170
  633MPD2     C 9369   2.331   0.314  17.277  0.3284  0.0125  0.2369
  633MPD2    C1 9370   2.446   0.272  17.215 -0.9656  0.4733 -0.2087
  633MPD2    C2 9371   2.513   0.156  17.261 -0.2718 -0.0989  0.9683
  633MPD2    C3 9372   2.462   0.077  17.361  0.4778 -1.0016 -0.1415
  633MPD2    C4 9373   2.342   0.121  17.425 -0.0114 -0.1006  0.5880
  633MPD2    C5 9374   2.285   0.238  17.383  0.1419 -0.1656 -0.4947
  633MPD2     H 9375   2.601   0.119  17.210 -0.3588  0.9821  0.0339
  633MPD2    H1 9376   2.302   0.072  17.513 -0.4665  0.1510  0.5213
  633MPD2    H2 9377   2.273   0.400  17.245 -0.9077 -0.2247  1.8150
  633MPD2    H3 9378   2.197   0.274  17.435  0.0168  1.1735 -1.6470
  633MPD2     N 9379   2.525   4.689  17.413 -0.5533  0.0472  0.6203
  633MPD2    H5 9380   2.479   4.622  17.473 -0.6563  0.1301  0.6329
  633MPD2    N1 9381   2.503   0.321  17.098 -0.5727 -0.3023 -0.1575
  633MPD2    H7 9382   2.581   0.267  17.062 -0.2370 -0.0633  0.2133
  634TMC3    C1 9383   2.551   0.460  16.917  0.3171 -0.2412 -0.3263
  634TMC3    C2 9384   2.572   0.361  16.821 -1.3157  0.0619 -0.0466
  634TMC3    C3 9385   2.634   0.397  16.706 -0.0038 -0.0209  0.1230
  634TMC3    C4 9386   2.592   0.587  16.896 -0.0155 -0.1959 -0.3466
  634TMC3    C5 9387   2.649   0.619  16.774  0.3187  0.2704 -0.2215
  634TMC3    C6 9388   2.675   0.525  16.674 -0.0409 -0.2498  0.3922
  634TMC3     C 9389   2.469   0.436  17.034  0.3737 -0.3359  0.7198
  634TMC3     O 9390   2.397   0.528  17.084 -0.6153  0.2233 -0.2858
  634TMC3     H 9391   2.532   0.261  16.833 -0.2291 -0.4825 -0.9712
  634TMC3    H1 9392   2.554   0.657  16.969  1.4337  0.5856 -0.3489
  634TMC3    H2 9393   2.748   0.551  16.598 -0.8561 -1.5238 -0.8193
  634TMC3    C7 9394   2.702   0.755  16.760 -0.2442  0.1010  0.2771
  634TMC3    C8 9395   2.666   0.283  16.620  0.4026  0.0987  0.1107
  634TMC3    O1 9396   2.770   0.787  16.666  0.6572 -0.1599  0.4199
  634TMC3    O2 9397   2.670   0.177  16.678 -0.0630 -0.3458  0.3063
  635TMC3    C1 9398   3.063   1.353  17.683  0.1504 -0.3472  0.6502
  635TMC3    C2 9399   3.049   1.222   0.019  0.1817 -0.5692  0.1870
  635TMC3    C3 9400   2.920   1.179   0.012  0.6369  0.1056  0.1604
  635TMC3    C4 9401   2.963   1.443  17.653 -1.0243  0.3228  0.1127
  635TMC3    C5 9402   2.832   1.395  17.655  0.6991  0.7803  0.6056
  635TMC3    C6 9403   2.815   1.261  17.671  0.8095 -0.1874  0.1248
  635TMC3     C 9404   3.190   1.419  17.674 -0.2471  0.0422 -0.1998
  635TMC3     O 9405   3.205   1.542  17.675 -0.1112  0.3542  0.1187
  635TMC3     H 9406   3.125   1.159   0.064  2.7896  1.6448 -1.1096
  635TMC3    H1 9407   2.982   1.546  17.623  0.4942  0.1300  0.4417
  635TMC3    H2 9408   2.712   1.227  17.664  0.7050  0.2147 -0.2120
  635TMC3    C7 9409   2.726   1.480   0.001  0.2391  0.4286  0.4601
  635TMC3    C8 9410   2.886   1.036   0.012 -0.5432 -0.1798 -0.2943
  635TMC3    O1 9411   2.610   1.440   0.002 -0.5136  0.1712 -0.0119
  635TMC3    O2 9412   2.774   0.997   0.041 -0.3094  0.1660 -0.4882
  636MPD2     C 9413   4.095   0.563  15.570 -0.1597 -0.6648 -0.1802
  636MPD2    C1 9414   4.094   0.534  15.706 -0.5478  0.0922  0.2713
  636MPD2    C2 9415   4.120   0.407  15.751  0.2835 -0.5501 -0.2965
  636MPD2    C3 9416   4.153   0.301  15.663  0.2682  0.2760 -0.0028
  636MPD2    C4 9417   4.136   0.327  15.523 -0.9182  0.2278  0.0185
  636MPD2    C5 9418   4.118   0.459  15.488 -0.3624 -0.4376 -0.9477
  636MPD2     H 9419   4.133   0.388  15.857  0.7200 -1.0345 -0.4380
  636MPD2    H1 9420   4.179   0.264  15.445 -1.4235  0.1546 -0.1996
  636MPD2    H2 9421   4.075   0.660  15.526  1.2439  0.4883  1.7003
  636MPD2    H3 9422   4.129   0.478  15.382 -3.3215  1.8959 -0.8721
  636MPD2     N 9423   4.198   0.181  15.718 -0.3326  0.2255  0.0955
  636MPD2    H5 9424   4.204   0.175  15.819 -0.8605 -0.2425  0.1031
  636MPD2    N1 9425   4.077   0.633  15.803  0.0043  0.6542 -0.3555
  636MPD2    H7 9426   4.074   0.598  15.898 -0.5905  1.0453 -0.2283
  637TMC3    C1 9427   4.307   4.705  15.753  0.5939  0.3006 -0.1217
  637TMC3    C2 9428   4.279   4.723  15.889 -0.3753 -0.3724  0.0737
  637TMC3    C3 9429   4.371   4.704  15.982  0.8683 -0.1827  0.4855
  637TMC3    C4 9430   4.425   4.649  15.715  1.1152 -0.0454 -0.8740
  637TMC3    C5 9431   4.523   4.646  15.814 -0.4635 -0.7441  0.1664
  637TMC3    C6 9432   4.496   4.673  15.946 -0.5519 -0.0988  0.3359
  637TMC3     C 9433   4.265   0.078  15.653 -0.5223  0.1047 -0.1714
  637TMC3     O 9434   4.306   0.056  15.539  0.6560 -0.4568 -0.5679
  637TMC3     H 9435   4.176   0.020  15.916 -0.6291 -1.9340  0.3137
  637TMC3    H1 9436   4.447   4.615  15.614 -0.4851  1.5662 -1.7575
  637TMC3    H2 9437   4.560   4.647  16.030  2.8063  1.8920 -1.6377
  637TMC3    C7 9438   4.622   0.024  15.787  0.9362  0.0189  0.2313
  637TMC3    C8 9439   4.371   0.092  16.066 -0.2273 -0.6878 -0.1897
  637TMC3    O1 9440   4.700   0.043  15.878  0.0535 -0.2917 -0.1428
  637TMC3    O2 9441   4.334   0.199  16.026 -0.3267  0.3944 -0.3997
  638MPD2     C 9442   3.782   0.080  14.764  0.7272 -0.6256 -0.0321
  638MPD2    C1 9443   3.765   4.685  14.697 -0.3998  0.0490  0.3057
  638MPD2    C2 9444   3.771   4.570  14.775 -0.1482  0.1207  0.0686
  638MPD2    C3 9445   3.763   4.578  14.909 -0.1274  0.3338  0.3601
  638MPD2    C4 9446   3.759   4.694  14.975 -0.2288  0.2966  0.0681
  638MPD2    C5 9447   3.764   0.084  14.903  0.6365 -0.7013 -0.6815
  638MPD2     H 9448   3.752   4.475  14.727  0.1999  0.8119 -1.4348
  638MPD2    H1 9449   3.744   4.705  15.082 -1.3118 -0.9435  0.0382
  638MPD2    H2 9450   3.791   0.173  14.710  0.1181 -0.9857 -0.7716
  638MPD2    H3 9451   3.781   0.182  14.947 -3.0214  0.2764 -1.4346
  638MPD2     N 9452   3.756   4.454  14.969  0.1364 -0.4224  0.8548
  638MPD2    H5 9453   3.751   4.373  14.907  0.2599  0.6344 -0.5303
  638MPD2    N1 9454   3.788   4.688  14.560 -0.3939 -0.0944 -0.7842
  638MPD2    H7 9455   3.833   0.039  14.509  0.6946 -0.9204 -1.0423
  639TMC3    C1 9456   3.778   4.286  15.137 -0.0312  0.4379 -0.3228
  639TMC3    C2 9457   3.692   4.200  15.070 -0.1635  0.2512 -0.1650
  639TMC3    C3 9458   3.667   4.086  15.140  0.5668  0.4576  0.3625
  639TMC3    C4 9459   3.841   4.251  15.255  0.1724 -0.5209 -0.4712
  639TMC3    C5 9460   3.814   4.134  15.310 -0.1717  0.4913  0.3323
  639TMC3    C6 9461   3.721   4.050  15.256 -0.3186  0.2290  0.5912
  639TMC3     C 9462   3.775   4.427  15.103 -0.4955  0.1755  0.1175
  639TMC3     O 9463   3.786   4.500  15.202 -0.0434 -0.3951 -0.0537
  639TMC3     H 9464   3.645   4.227  14.976  0.6316  1.9803 -0.0695
  639TMC3    H1 9465   3.898   4.325  15.309  1.4868  0.0628 -2.6608
  639TMC3    H2 9466   3.705   3.952  15.299  2.8042 -0.7056 -0.4035
  639TMC3    C7 9467   3.919   4.058  15.377 -0.0230 -0.1384  0.4074
  639TMC3    C8 9468   3.598   3.978  15.069 -0.3442  0.2262  0.9982
  639TMC3    O1 9469   3.877   3.977  15.457 -0.5394  0.1433 -0.3032
  639TMC3    O2 9470   3.631   3.965  14.950 -0.0969  0.3081  0.2241
  640MPD2     C 9471   4.278   2.533   9.159  0.5525 -0.2331  0.3622
  640MPD2    C1 9472   4.372   2.590   9.235  0.1202  0.8492 -0.1625
  640MPD2    C2 9473   4.357   2.712   9.295  0.0958 -0.1340 -0.3919
  640MPD2    C3 9474   4.237   2.782   9.291  0.7138  0.2867 -0.4097
  640MPD2    C4 9475   4.133   2.716   9.230 -0.5893 -0.4119  0.2681
  640MPD2    C5 9476   4.159   2.598   9.162  0.6620  0.3108 -0.8505
  640MPD2     H 9477   4.447   2.756   9.336  1.3874 -0.6280 -2.7261
  640MPD2    H1 9478   4.031   2.753   9.224 -0.0574  1.2966  1.7717
  640MPD2    H2 9479   4.286   2.442   9.101  1.0458 -1.2194  1.9878
  640MPD2    H3 9480   4.069   2.554   9.122  2.2797 -2.8093 -1.0750
  640MPD2     N 9481   4.211   2.904   9.357  0.2990 -0.2662  0.0812
  640MPD2    H5 9482   4.120   2.950   9.355  1.1791  1.4181 -1.0068
  640MPD2    N1 9483   4.502   2.518   9.240  0.1115 -0.7675  0.5077
  640MPD2    H7 9484   4.520   2.454   9.163 -2.4731 -1.6140  0.6190
  641TMC3    C1 9485   4.719   2.447   9.307  0.0556 -0.0608  0.1008
  641TMC3    C2 9486   0.076   2.423   9.404 -0.2671 -0.2127  0.6168
  641TMC3    C3 9487   0.192   2.352   9.390 -0.4769  0.0365  1.0519
  641TMC3    C4 9488   0.014   2.383   9.189 -0.4804 -0.1888 -0.3518
  641TMC3    C5 9489   0.117   2.293   9.177  0.7863 -0.2244  0.3134
  641TMC3    C6 9490   0.211   2.281   9.274 -0.5764  0.7128  0.2053
  641TMC3     C 9491   4.602   2.531   9.334 -0.8283 -0.0096  0.0092
  641TMC3     O 9492   4.603   2.612   9.424  0.2322 -0.0141  0.5761
  641TMC3     H 9493   0.056   2.474   9.497  2.1200 -1.1629  1.6504
  641TMC3    H1 9494   4.677   2.400   9.100  4.6456  1.5312 -3.5064
  641TMC3    H2 9495   0.296   2.217   9.254  0.1303  1.7962 -0.2236
  641TMC3    C7 9496   0.112   2.192   9.068  0.2754  0.4026 -0.1337
  641TMC3    C8 9497   0.268   2.306   9.509 -0.4931  0.3619  0.1381
  641TMC3    O1 9498   0.032   2.214   8.977  0.0989 -0.0127  0.4742
  641TMC3    O2 9499   0.301   2.189   9.500 -0.1145  0.3754 -1.0687
  642TMC3    C1 9500   0.127   4.397  12.234 -0.0452  0.6549  0.0394
  642TMC3    C2 9501   0.217   4.465  12.317 -0.1884  0.4617  0.2017
  642TMC3    C3 9502   0.306   4.389  12.386 -0.1323  0.2814 -0.1986
  642TMC3    C4 9503   0.121   4.261  12.220 -0.2203  1.2118  0.4250
  642TMC3    C5 9504   0.226   4.194  12.283  0.0380 -0.2992  0.7082
  642TMC3    C6 9505   0.321   4.250  12.360  0.4191 -0.1498  0.5408
  642TMC3     C 9506   0.025   4.469  12.172 -0.5169 -0.0987 -0.0008
  642TMC3     O 9507   4.692   4.410  12.079  0.3445 -0.8476  0.1136
  642TMC3     H 9508   0.218   4.573  12.329  1.0612  0.3286  1.2738
  642TMC3    H1 9509   0.049   4.207  12.160  2.0799  0.2119 -1.4376
  642TMC3    H2 9510   0.400   4.187  12.398  0.0472 -1.6507 -1.1917
  642TMC3    C7 9511   0.256   4.067  12.223 -0.5088  0.0984 -1.1023
  642TMC3    C8 9512   0.414   4.444  12.464 -0.0956 -0.2819 -0.0184
  642TMC3    O1 9513   0.247   4.066  12.100 -0.0707  0.3745 -0.8031
  642TMC3    O2 9514   0.484   4.360  12.517  0.0288 -0.5241 -0.3585
  643TMC3    C1 9515   4.604   3.625   0.591 -0.8973 -0.1064 -0.4045
  643TMC3    C2 9516   4.469   3.606   0.580 -0.0918  0.2993  0.3438
  643TMC3    C3 9517   4.417   3.517   0.487  0.1436 -0.1324 -0.3200
  643TMC3    C4 9518   4.683   3.551   0.510 -0.3745 -0.6046 -0.5425
  643TMC3    C5 9519   4.627   3.473   0.418 -0.6172  0.1239  0.1350
  643TMC3    C6 9520   4.494   3.454   0.395  0.5849  0.4770 -0.3079
  643TMC3     C 9521   4.649   3.748   0.644  0.0685 -0.1616  0.9245
  643TMC3     O 9522   4.564   3.835   0.640 -0.1855 -0.7861 -0.0258
  643TMC3     H 9523   4.404   3.669   0.641 -0.8200 -1.9336  1.9076
  643TMC3    H1 9524   0.066   3.570   0.504 -0.4700  0.2076  0.3506
  643TMC3    H2 9525   4.460   3.382   0.322 -0.1471 -0.9358  1.4189
  643TMC3    C7 9526   4.708   3.484   0.292  0.5587  0.2519 -0.4766
  643TMC3    C8 9527   4.289   3.563   0.435  0.3053  0.0605 -0.0688
  643TMC3    O1 9528   0.039   3.591   0.260  0.2497 -0.2366  0.1196
  643TMC3    O2 9529   4.210   3.614   0.514  0.0698  1.0283 -0.2166
  644MPD2     C 9530   0.198   2.820   9.210 -0.1277  0.2914  0.1460
  644MPD2    C1 9531   0.124   2.937   9.230  0.0649 -0.0661  0.7757
  644MPD2    C2 9532   4.719   2.939   9.175 -0.1553 -0.0850 -0.2768
  644MPD2    C3 9533   4.674   2.828   9.109  0.3501 -0.8866  0.1246
  644MPD2    C4 9534   0.024   2.719   9.095  0.5938 -0.0912  0.0008
  644MPD2    C5 9535   0.157   2.715   9.136 -0.2629 -0.1485  0.1041
  644MPD2     H 9536   4.659   3.027   9.196  0.5334  0.9814 -2.8010
  644MPD2    H1 9537   4.696   2.633   9.055 -0.5603 -0.5383  2.4600
  644MPD2    H2 9538   0.303   2.815   9.238 -0.2984  1.5789  1.0246
  644MPD2    H3 9539   0.216   2.626   9.118 -0.9284 -0.4731 -0.5034
  644MPD2     N 9540   4.550   2.827   9.042 -0.9909 -0.5751  0.2704
  644MPD2    H5 9541   4.535   2.739   8.994  1.3274  0.0656 -1.6180
  644MPD2    N1 9542   0.180   3.041   9.307 -0.5670 -0.2662 -0.6064
  644MPD2    H7 9543   0.266   3.022   9.356 -0.2200  1.2494 -0.6342
  645TMC3    C1 9544   4.342   2.896   8.951 -0.3206  0.0312 -0.0184
  645TMC3    C2 9545   4.213   2.930   8.996  0.2729 -0.2042  0.3554
  645TMC3    C3 9546   4.112   2.896   8.914 -0.1006 -0.4140  0.6392
  645TMC3    C4 9547   4.367   2.830   8.834  0.2094  0.6445 -0.4885
  645TMC3    C5 9548   4.256   2.799   8.756 -0.0454 -0.4524  0.5495
  645TMC3    C6 9549   4.126   2.822   8.800 -0.1025  0.1953 -0.2576
  645TMC3     C 9550   4.453   2.921   9.041 -0.0616  0.3880  0.8089
  645TMC3     O 9551   4.454   3.031   9.099 -0.4293  0.2834  0.1369
  645TMC3     H 9552   4.204   2.985   9.089  0.8399  1.2918 -0.4701
  645TMC3    H1 9553   4.468   2.814   8.796 -0.0771 -2.9826  0.3103
  645TMC3    H2 9554   4.035   2.784   8.754 -1.3035  0.3126  2.0325
  645TMC3    C7 9555   4.285   2.752   8.624  0.1451  0.3216  0.0992
  645TMC3    C8 9556   3.983   2.908   8.974  0.4360 -0.1485 -0.5966
  645TMC3    O1 9557   4.400   2.728   8.597 -0.9097 -0.0194 -0.3052
  645TMC3    O2 9558   3.986   2.950   9.091 -0.3871  0.0987  0.0440
  646MPD2     C 9559   3.933   3.162  14.522  0.8590 -0.0047  0.1087
  646MPD2    C1 9560   3.861   3.205  14.634  0.1210 -0.0249 -0.4479
  646MPD2    C2 9561   3.747   3.283  14.624 -0.2840  0.5874 -0.9072
  646MPD2    C3 9562   3.703   3.321  14.496 -0.1830 -0.0432 -0.5769
  646MPD2    C4 9563   3.777   3.288  14.387 -0.1956  0.1481  0.0367
  646MPD2    C5 9564   3.892   3.213  14.401  0.1984 -0.0779 -1.8209
  646MPD2     H 9565   3.683   3.312  14.707  0.4700  0.3369 -0.2416
  646MPD2    H1 9566   3.757   3.318  14.285 -0.8878  0.5773  0.2968
  646MPD2    H2 9567   4.026   3.107  14.523 -0.5532 -2.3852  0.0382
  646MPD2    H3 9568   3.952   3.185  14.315  1.0979 -0.4790 -1.0530
  646MPD2     N 9569   3.591   3.410  14.495 -0.0995 -0.1832  0.2016
  646MPD2    H5 9570   3.540   3.415  14.583 -2.2161 -0.9438 -0.9584
  646MPD2    N1 9571   3.903   3.141  14.753 -0.5535  0.2376 -0.0557
  646MPD2    H7 9572   3.981   3.077  14.746 -0.3526  0.7018 -2.1706
  647TMC3    C1 9573   3.910   3.067  14.979 -0.2062 -0.2672 -0.3520
  647TMC3    C2 9574   3.850   3.047  15.097 -0.4577  0.1297  0.0989
  647TMC3    C3 9575   3.909   2.966  15.190 -0.7333 -0.4144 -1.1009
  647TMC3    C4 9576   4.031   2.999  14.950  0.5546 -0.4476  0.9414
  647TMC3    C5 9577   4.080   2.911  15.049  0.3883 -0.0889 -0.2135
  647TMC3    C6 9578   4.022   2.900  15.162 -0.4565  0.7487 -0.2530
  647TMC3     C 9579   3.844   3.142  14.876 -0.0950 -0.7112  0.3275
  647TMC3     O 9580   3.746   3.210  14.903 -0.0203 -0.5210  0.3745
  647TMC3     H 9581   3.761   3.105  15.120  0.9204  2.0038  0.6500
  647TMC3    H1 9582   4.087   3.024  14.861  2.5201 -1.7334  1.8038
  647TMC3    H2 9583   4.064   2.826  15.229  0.1626 -0.0497 -1.5362
  647TMC3    C7 9584   4.212   2.846  15.031 -0.8293 -0.2737 -0.2161
  647TMC3    C8 9585   3.870   2.972  15.334  0.0317  0.0195 -0.4716
  647TMC3    O1 9586   4.272   2.802  15.131  0.0145  0.1629  0.0854
  647TMC3    O2 9587   3.952   2.928  15.413 -0.6732 -0.3120 -0.4703
  648TMC3    C1 9588   3.260   0.587  16.142  0.8395 -0.5990 -0.7196
  648TMC3    C2 9589   3.258   0.476  16.059 -0.1175  0.0391  0.2991
  648TMC3    C3 9590   3.279   0.501  15.927 -0.0424  0.3730 -0.1103
  648TMC3    C4 9591   3.288   0.711  16.086 -0.3698 -0.8922  0.4941
  648TMC3    C5 9592   3.305   0.722  15.949  0.3233 -0.0638 -0.3552
  648TMC3    C6 9593   3.304   0.618  15.864  0.1590  0.6460  0.5301
  648TMC3     C 9594   3.253   0.581  16.288 -0.1434 -0.1784  0.6575
  648TMC3     O 9595   3.306   0.668  16.360  0.1626  0.5575 -0.2071
  648TMC3     H 9596   3.232   0.377  16.093  0.7372  0.0813  1.0789
  648TMC3    H1 9597   3.285   0.798  16.151  2.1098 -0.6592  0.3045
  648TMC3    H2 9598   3.308   0.631  15.756  0.6084  0.2049  0.4965
  648TMC3    C7 9599   3.296   0.851  15.889 -0.4382  0.0719  0.8508
  648TMC3    C8 9600   3.259   0.383  15.841 -0.0399 -0.4215  0.5914
  648TMC3    O1 9601   3.346   0.865  15.779  0.1568  0.5945 -0.0139
  648TMC3    O2 9602   3.185   0.295  15.883  0.1116  0.2621 -0.5270
  649TMC3    C1 9603   2.031   1.705  12.594  0.4148  0.7908  0.3142
  649TMC3    C2 9604   2.118   1.790  12.650  0.5837  0.8832  0.2141
  649TMC3    C3 9605   2.120   1.796  12.786  0.6847 -0.0601  0.0917
  649TMC3    C4 9606   1.932   1.638  12.667  0.1203 -0.2884  0.3350
  649TMC3    C5 9607   1.932   1.655  12.801  1.0238 -0.1144 -0.5910
  649TMC3    C6 9608   2.030   1.731  12.868 -0.2166 -0.5618  0.0737
  649TMC3     C 9609   1.971   1.754  12.472 -0.1710  0.0209  0.4606
  649TMC3     O 9610   1.847   1.765  12.481 -0.5359 -0.4344 -0.1165
  649TMC3     H 9611   2.191   1.837  12.585  1.8344  2.5052  2.8094
  649TMC3    H1 9612   1.853   1.576  12.627 -0.5735  1.1603 -0.5497
  649TMC3    H2 9613   2.027   1.742  12.975 -2.0157 -0.7284  0.0447
  649TMC3    C7 9614   1.829   1.595  12.885 -0.7470  0.7163  0.4125
  649TMC3    C8 9615   2.221   1.865  12.855  0.9578 -0.4140  0.1233
  649TMC3    O1 9616   1.721   1.565  12.838 -0.2823  0.0232  0.8928
  649TMC3    O2 9617   2.201   1.862  12.976 -0.7069  0.4120  0.2251
  650TMC3    C1 9618   4.540   3.899  12.593  0.0144  0.1654  0.5396
  650TMC3    C2 9619   4.546   4.031  12.636  0.8972  0.4930 -0.3169
  650TMC3    C3 9620   4.487   4.126  12.565  0.1640  0.4690 -0.7164
  650TMC3    C4 9621   4.501   3.876  12.469 -0.5392  0.3064  0.8410
  650TMC3    C5 9622   4.447   3.976  12.385  0.5005  0.5153 -0.6365
  650TMC3    C6 9623   4.434   4.102  12.438  0.5335  0.1997 -0.1653
  650TMC3     C 9624   4.581   3.785  12.678 -0.5946 -0.0884 -0.2270
  650TMC3     O 9625   4.664   3.809  12.762  0.1217  0.6805 -0.0920
  650TMC3     H 9626   4.574   4.049  12.739 -2.5139  1.0869  0.4924
  650TMC3    H1 9627   4.493   3.777  12.426 -1.7016  0.9831 -0.5224
  650TMC3    H2 9628   4.385   4.183  12.384  0.4095 -0.0742 -0.4631
  650TMC3    C7 9629   4.356   3.926  12.287 -0.3337 -1.1812  0.3964
  650TMC3    C8 9630   4.454   4.252  12.621 -0.2198 -0.1655  0.7237
  650TMC3    O1 9631   4.298   3.820  12.310 -0.0635 -0.3224  0.8069
  650TMC3    O2 9632   4.444   4.347  12.544  0.3886  0.7478  0.0122
  651MPD2     C 9633   4.021   0.230  10.647  0.5618  0.1999  0.0266
  651MPD2    C1 9634   3.970   0.351  10.601  0.0440 -0.4299 -0.6574
  651MPD2    C2 9635   4.058   0.430  10.523  0.0537 -0.3656 -0.1811
  651MPD2    C3 9636   4.184   0.389  10.490  0.5637 -0.0672 -0.1713
  651MPD2    C4 9637   4.228   0.263  10.533  0.2088  0.0812 -0.1912
  651MPD2    C5 9638   4.139   0.183  10.601 -0.0005  0.9158  0.6626
  651MPD2     H 9639   4.025   0.530  10.497  0.1608  0.0234  1.1962
  651MPD2    H1 9640   4.325   0.220  10.511  0.1252 -1.3181  2.1582
  651MPD2    H2 9641   3.969   0.161  10.712  3.2876 -1.9847 -0.1413
  651MPD2    H3 9642   4.174   0.089  10.643  1.3915  0.6787 -1.0419
  651MPD2     N 9643   4.259   0.478  10.412 -0.4885 -0.2060 -0.2666
  651MPD2    H5 9644   4.217   0.564  10.378  0.7138  0.4612 -0.0572
  651MPD2    N1 9645   3.844   0.405  10.625 -0.8109 -0.9791 -0.8782
  651MPD2    H7 9646   3.831   0.498  10.587  2.0519 -0.6472 -1.0136
  652TMC3    C1 9647   4.609   0.765  10.375  0.3353  0.0715 -0.0260
  652TMC3    C2 9648   4.566   0.640  10.409 -0.2143  0.3667 -0.3474
  652TMC3    C3 9649   4.449   0.591  10.347 -0.3765 -0.0858  0.1072
  652TMC3    C4 9650   4.533   0.851  10.301  0.8863 -0.1534 -0.3457
  652TMC3    C5 9651   4.426   0.793  10.234 -0.0353 -0.0435 -0.2480
  652TMC3    C6 9652   4.373   0.668  10.263  0.0639  0.0006  0.2933
  652TMC3     C 9653   0.001   0.812  10.453  1.0261 -0.2429  0.5550
  652TMC3     O 9654   0.047   0.740  10.544 -0.8894  0.1621 -0.1892
  652TMC3     H 9655   4.631   0.566  10.455  0.0062 -0.3689 -1.8454
  652TMC3    H1 9656   4.553   0.956  10.283 -1.0225  0.5456  1.5649
  652TMC3    H2 9657   4.288   0.625  10.212 -0.4997 -1.7587  2.7660
  652TMC3    C7 9658   4.332   0.883  10.167  0.2206 -0.1588  0.5886
  652TMC3    C8 9659   4.397   0.470  10.406 -0.3931 -0.2235 -0.1951
  652TMC3    O1 9660   4.246   0.832  10.097  0.6780  0.5353 -0.7603
  652TMC3    O2 9661   4.478   0.402  10.472  0.1668 -0.1714 -0.4255
  653MPD2     C 9662   1.973   0.616  17.652 -0.1442  0.0832 -0.1638
  653MPD2    C1 9663   2.045   0.668  17.547  0.1368  0.9379  0.3632
  653MPD2    C2 9664   2.041   0.616  17.417  1.1618  0.0885  0.8231
  653MPD2    C3 9665   1.965   0.506  17.399 -0.2601  0.2215  0.1342
  653MPD2    C4 9666   1.895   0.452  17.509 -0.0757  0.6569 -0.5259
  653MPD2    C5 9667   1.886   0.509  17.629 -0.2935  0.5631  0.3917
  653MPD2     H 9668   2.097   0.664  17.338  0.7627  2.1567  1.7703
  653MPD2    H1 9669   1.833   0.364  17.504  1.7324 -0.6442 -0.2280
  653MPD2    H2 9670   1.973   0.653   0.057 -2.1960 -1.0679  0.2690
  653MPD2    H3 9671   1.827   0.474   0.016  0.2491 -1.3377 -0.0232
  653MPD2     N 9672   1.969   0.443  17.273 -0.5394 -0.3873 -0.5286
  653MPD2    H5 9673   2.009   0.496  17.196  0.4148 -1.6129 -0.8868
  653MPD2    N1 9674   2.127   0.788  17.572  0.4976 -0.5221  0.4986
  653MPD2    H7 9675   2.174   0.841  17.499 -0.6135  2.3798  1.8971
  654TMC3    C1 9676   1.948   0.276  17.105  0.0846  0.1892 -0.3277
  654TMC3    C2 9677   1.942   0.379  17.012  0.3349  0.0578 -0.0782
  654TMC3    C3 9678   1.948   0.345  16.881 -0.3250  0.1204  0.1164
  654TMC3    C4 9679   1.951   0.148  17.055  0.1718 -0.2162  0.3058
  654TMC3    C5 9680   1.965   0.127  16.925 -0.0589  1.0989  0.3786
  654TMC3    C6 9681   1.977   0.222  16.831 -0.4164 -0.0659 -0.3603
  654TMC3     C 9682   1.932   0.313  17.247 -0.5813 -0.0567 -0.0137
  654TMC3     O 9683   1.913   0.227  17.327  0.7477  0.0775  0.0623
  654TMC3     H 9684   1.940   0.485  17.038 -1.3449  0.1795 -0.7233
  654TMC3    H1 9685   1.947   0.057  17.114 -2.5735 -2.1306 -2.8214
  654TMC3    H2 9686   1.969   0.184  16.730 -0.5366 -1.6285  0.2493
  654TMC3    C7 9687   1.944   4.715  16.876 -0.7698  0.3588 -0.3684
  654TMC3    C8 9688   1.925   0.452  16.782 -0.1621  0.5136 -0.4626
  654TMC3    O1 9689   1.885   4.700  16.769  0.0678 -0.3982  0.0748
  654TMC3    O2 9690   1.875   0.559  16.820 -0.1009 -0.0276 -0.3213
  655MPD2     C 9691   3.718   0.678  15.905 -0.7064  0.1985  0.3313
  655MPD2    C1 9692   3.684   0.787  15.829  0.0879  0.5279 -0.7379
  655MPD2    C2 9693   3.690   0.780  15.682 -0.6777 -0.3857  0.5505
  655MPD2    C3 9694   3.724   0.660  15.626  0.0229  0.1447 -0.1580
  655MPD2    C4 9695   3.755   0.552  15.703 -0.5134 -0.1684 -0.4410
  655MPD2    C5 9696   3.755   0.564  15.840 -0.0725 -0.3873 -0.2649
  655MPD2     H 9697   3.650   0.857  15.618 -1.9655 -0.5620  1.1376
  655MPD2    H1 9698   3.783   0.461  15.652 -2.2952 -1.0413  0.1534
  655MPD2    H2 9699   3.713   0.690  16.012 -0.3500  1.1330  0.2414
  655MPD2    H3 9700   3.791   0.477  15.894  1.5659  0.5145  0.0880
  655MPD2     N 9701   3.729   0.653  15.482  0.2476  0.4012  0.6713
  655MPD2    H5 9702   3.711   0.742  15.437  2.0505  0.6092  0.3567
  655MPD2    N1 9703   3.654   0.916  15.882  0.2442 -0.6227 -0.1324
  655MPD2    H7 9704   3.633   0.987  15.813  0.9828  1.7139  2.0344
  656TMC3    C1 9705   3.619   1.089  16.041 -0.3229 -0.1897 -0.1616
  656TMC3    C2 9706   3.567   1.121  16.164  0.5629 -0.5234 -0.1844
  656TMC3    C3 9707   3.542   1.254  16.198  0.1464 -0.1743  0.5533
  656TMC3    C4 9708   3.637   1.184  15.941 -0.2673 -0.1800 -0.5447
  656TMC3    C5 9709   3.605   1.313  15.979  0.1900 -1.0179  0.8611
  656TMC3    C6 9710   3.560   1.351  16.101  0.0339  0.1358 -0.3207
  656TMC3     C 9711   3.642   0.947  16.019 -0.3160 -0.3979  0.3442
  656TMC3     O 9712   3.653   0.878  16.113 -0.2953 -0.5959 -0.2405
  656TMC3     H 9713   3.565   1.046  16.241 -0.2907 -3.0826 -2.7082
  656TMC3    H1 9714   3.675   1.162  15.842  0.7647 -0.7025 -0.0281
  656TMC3    H2 9715   3.526   1.452  16.125  1.2842  0.5258 -0.1875
  656TMC3    C7 9716   3.593   1.402  15.867 -0.4793 -0.7439 -0.2862
  656TMC3    C8 9717   3.449   1.276  16.306 -0.8305 -0.1872  0.6373
  656TMC3    O1 9718   3.656   1.376  15.767  0.3883  0.0970 -0.1840
  656TMC3    O2 9719   3.460   1.390  16.358  0.6534  0.3297  0.2021
  657TMC3    C1 9720   2.520   4.706  14.865 -0.4044 -0.0890  0.0493
  657TMC3    C2 9721   2.400   4.705  14.937 -0.0534 -0.1926  0.3016
  657TMC3    C3 9722   2.321   0.099  14.952  0.0202 -0.6104  0.3734
  657TMC3    C4 9723   2.555   0.099  14.803 -0.0566  0.4869  0.2857
  657TMC3    C5 9724   2.476   0.210  14.827  0.5816  0.5580  0.3360
  657TMC3    C6 9725   2.351   0.212  14.882 -0.4497  0.2191 -0.2314
  657TMC3     C 9726   2.596   4.581  14.856 -0.3163  0.3733  0.0287
  657TMC3     O 9727   2.542   4.475  14.884 -0.0052 -0.0396  0.0321
  657TMC3     H 9728   2.361   4.610  14.972  1.5720 -0.8419  0.3864
  657TMC3    H1 9729   2.645   0.107  14.744 -0.0149 -2.5749 -0.0665
  657TMC3    H2 9730   2.288   0.299  14.892 -2.7908 -1.4768 -0.3778
  657TMC3    C7 9731   2.498   0.318  14.738  0.1498  0.6268 -0.2208
  657TMC3    C8 9732   2.208   0.104  15.047 -0.5427 -0.2443 -0.2787
  657TMC3    O1 9733   2.573   0.306  14.644 -0.0714 -0.3494 -0.2426
  657TMC3    O2 9734   2.142   0.205  15.054  0.2614  0.3656  0.5123
  658MPD2     C 9735   4.107   0.811  14.743  0.2958 -0.1547  0.3021
  658MPD2    C1 9736   4.011   0.867  14.825 -0.3962 -0.2871  0.0780
  658MPD2    C2 9737   3.950   0.989  14.792  0.1913 -0.6201  0.4048
  658MPD2    C3 9738   4.002   1.060  14.674 -0.1880  0.5533  0.2500
  658MPD2    C4 9739   4.102   1.000  14.601 -0.0880  0.1244 -0.1482
  658MPD2    C5 9740   4.151   0.882  14.633  0.0374  0.4804  0.2796
  658MPD2     H 9741   3.875   1.036  14.854  1.3701  2.2403 -0.3446
  658MPD2    H1 9742   4.153   1.045  14.516 -0.9634  0.3381 -0.5614
  658MPD2    H2 9743   4.148   0.715  14.769 -1.0606 -1.0147 -0.7717
  658MPD2    H3 9744   4.228   0.840  14.570 -0.8973 -1.7789  0.6228
  658MPD2     N 9745   3.934   1.176  14.635 -0.4449 -0.3960  0.1300
  658MPD2    H5 9746   3.848   1.200  14.684 -1.3554 -0.8659 -1.2329
  658MPD2    N1 9747   3.964   0.780  14.927 -0.5144 -0.2377  0.4585
  658MPD2    H7 9748   3.998   0.685  14.931 -0.4464 -0.1792  1.3513
  659TMC3    C1 9749   3.827   0.685  15.083  0.5287  0.5921  0.6974
  659TMC3    C2 9750   3.814   0.684  15.216 -0.7886  0.3257 -0.5008
  659TMC3    C3 9751   3.766   0.564  15.264 -0.3383  0.6854 -0.9080
  659TMC3    C4 9752   3.770   0.591  15.002  0.0791 -0.9814  0.3382
  659TMC3    C5 9753   3.720   0.480  15.055 -0.4920  0.4541 -0.2674
  659TMC3    C6 9754   3.719   0.464  15.191 -0.3048  0.3936  0.1064
  659TMC3     C 9755   3.878   0.809  15.028  0.5386 -0.0457  0.0044
  659TMC3     O 9756   3.830   0.912  15.069 -0.2301  0.6072 -0.1524
  659TMC3     H 9757   3.852   0.761  15.282  2.6687 -0.4500 -1.5795
  659TMC3    H1 9758   3.758   0.616  14.897 -2.5523 -1.2738  0.5635
  659TMC3    H2 9759   3.662   0.387  15.241 -1.7654  1.4435  0.0882
  659TMC3    C7 9760   3.608   0.429  14.986  0.0839 -0.1826 -0.2740
  659TMC3    C8 9761   3.754   0.540  15.409 -0.4526  0.1445  0.1595
  659TMC3    O1 9762   3.512   0.408  15.053 -0.1655 -0.1718  0.0118
  659TMC3    O2 9763   3.749   0.423  15.437 -0.3339  0.2335 -0.3405
  660MPD2     C 9764   1.551   0.054  12.925 -0.5783 -0.0069  1.0042
  660MPD2    C1 9765   1.442   0.043  12.836 -0.0546  0.3976 -1.0174
  660MPD2    C2 9766   1.339   4.673  12.860  0.3933  0.3667 -0.0982
  660MPD2    C3 9767   1.338   4.597  12.976  0.7560  0.0149 -0.1226
  660MPD2    C4 9768   1.441   4.615  13.062 -0.3278  0.0093  0.7495
  660MPD2    C5 9769   1.541   4.702  13.040 -0.1986  0.0869  0.5588
  660MPD2     H 9770   1.273   4.647  12.778  0.9520  1.4601 -0.8912
  660MPD2    H1 9771   1.455   4.561  13.154  0.5926 -2.6214 -0.9531
  660MPD2    H2 9772   1.638   0.114  12.903 -1.9286  0.8938 -1.8790
  660MPD2    H3 9773   1.613   4.719  13.119 -2.4147  0.8166  2.4256
  660MPD2     N 9774   1.242   4.491  12.997  0.1739  0.3780 -0.0036
  660MPD2    H5 9775   1.267   4.434  13.077 -0.2840  1.3362  0.8204
  660MPD2    N1 9776   1.444   0.110  12.713  0.1457 -0.2247 -0.0772
  660MPD2    H7 9777   1.354   0.096  12.669 -1.1007 -1.3001  2.8277
  661TMC3    C1 9778   1.500   0.215  12.516  0.5232 -0.2019  0.0488
  661TMC3    C2 9779   1.590   0.213  12.415  0.0648 -0.1048 -0.1294
  661TMC3    C3 9780   1.537   0.194  12.292 -0.4431 -0.0751  0.2014
  661TMC3    C4 9781   1.362   0.225  12.498  0.0469 -0.4952 -0.2583
  661TMC3    C5 9782   1.320   0.210  12.374  0.1606 -0.0687  0.1021
  661TMC3    C6 9783   1.405   0.193  12.274 -0.1184  0.0462 -0.5518
  661TMC3     C 9784   1.548   0.176  12.650  0.1914  0.0395 -0.0416
  661TMC3     O 9785   1.670   0.174  12.670 -0.1568 -0.0970  0.1597
  661TMC3     H 9786   1.697   0.230  12.425 -0.3017  3.1327 -1.6841
  661TMC3    H1 9787   1.286   0.236  12.575 -0.8550 -1.2221 -1.0421
  661TMC3    H2 9788   1.362   0.172  12.177 -0.9736  0.3577 -0.2355
  661TMC3    C7 9789   1.182   0.177  12.356  0.6985 -0.9737  0.0330
  661TMC3    C8 9790   1.616   0.180  12.173 -0.4716  0.9262 -0.2784
  661TMC3    O1 9791   1.106   0.245  12.425 -0.2615  0.7220  0.5025
  661TMC3    O2 9792   1.735   0.168  12.190  0.2707 -0.1887  0.2097
  662MPD2     C 9793   2.045   4.273  17.634  0.1228  0.6583  0.8624
  662MPD2    C1 9794   1.984   4.235   0.057  0.2414 -0.3796 -0.2839
  662MPD2    C2 9795   1.917   4.330   0.129 -0.1212 -0.4940  0.4263
  662MPD2    C3 9796   1.896   4.455   0.080 -0.3951  0.1328 -0.4158
  662MPD2    C4 9797   1.931   4.488  17.653  0.5321 -0.6042 -0.8184
  662MPD2    C5 9798   2.004   4.397  17.575  0.5943 -0.7613 -0.4465
  662MPD2     H 9799   1.873   4.295   0.222 -0.7153 -1.4176 -0.2102
  662MPD2    H1 9800   1.913   4.588  17.614  0.4164  0.4396  1.9018
  662MPD2    H2 9801   2.110   4.204  17.581  0.0894 -0.6759  2.5944
  662MPD2    H3 9802   2.022   4.421  17.471  1.7953 -1.5371 -0.4212
  662MPD2     N 9803   1.825   4.557   0.147 -0.3847 -0.6560 -0.4407
  662MPD2    H5 9804   1.828   4.652   0.112  1.6945 -1.1045 -1.4694
  662MPD2    N1 9805   1.994   4.102   0.111 -0.3927 -0.0200  0.0322
  662MPD2    H7 9806   1.954   4.092   0.204  1.0845 -1.3509  0.5172
  663TMC3    C1 9807   2.034   3.865   0.105 -0.3429 -0.0242 -0.2097
  663TMC3    C2 9808   1.921   3.827   0.173  0.1971 -0.6116 -0.1072
  663TMC3    C3 9809   1.891   3.694   0.197  0.0072  0.2589  0.2534
  663TMC3    C4 9810   2.107   3.772   0.042  0.3662 -0.0379  0.1234
  663TMC3    C5 9811   2.074   3.640   0.052 -0.3068  0.3367  0.8942
  663TMC3    C6 9812   1.963   3.601   0.126 -0.5799 -0.0346 -0.6358
  663TMC3     C 9813   2.056   3.994   0.043  0.5315  0.0731  0.9139
  663TMC3     O 9814   2.084   3.985  17.624 -0.3645 -0.0043 -0.0707
  663TMC3     H 9815   1.852   3.907   0.202 -0.5575 -1.5819  0.7691
  663TMC3    H1 9816   2.197   3.797  17.685  0.1851  2.1449  0.8290
  663TMC3    H2 9817   1.972   3.507   0.179 -0.3502 -0.2311 -1.0216
  663TMC3    C7 9818   2.111   3.544  17.651  0.1645 -0.0604  0.2689
  663TMC3    C8 9819   1.751   3.671   0.220 -0.6764  0.1024 -0.3524
  663TMC3    O1 9820   2.224   3.542  17.599  0.3473 -0.0956 -0.1389
  663TMC3    O2 9821   1.699   3.569   0.175  0.3006  0.0075  0.4669
  664MPD2     C 9822   4.301   2.514   0.060  0.0031 -0.1267  0.3245
  664MPD2    C1 9823   4.434   2.526   0.075  0.7029  0.3611  0.4791
  664MPD2    C2 9824   4.486   2.536   0.201  0.2797  0.8207  0.8043
  664MPD2    C3 9825   4.415   2.518   0.318 -0.5899  0.5635  0.1999
  664MPD2    C4 9826   4.278   2.505   0.299 -0.1645  0.1939 -0.5397
  664MPD2    C5 9827   4.226   2.508   0.173 -0.4309 -0.2307  0.3510
  664MPD2     H 9828   4.584   2.583   0.207  0.8207  0.2301 -3.2401
  664MPD2    H1 9829   4.204   2.498   0.378  0.5482  1.3612  0.2273
  664MPD2    H2 9830   4.255   2.498  17.660 -0.3687 -2.8480  0.9582
  664MPD2    H3 9831   4.119   2.493   0.163 -0.1236 -1.4472 -1.0735
  664MPD2     N 9832   4.476   2.528   0.449  0.2731  0.2698  0.2779
  664MPD2    H5 9833   4.576   2.545   0.458  0.1474  0.5495  1.1331
  664MPD2    N1 9834   4.521   2.535  17.660  0.0069 -0.3340  0.1371
  664MPD2    H7 9835   4.620   2.535  17.684 -0.3930 -0.6333  1.8209
  665TMC3    C1 9836   4.494   2.515   0.682 -0.0509  0.3178  0.0513
  665TMC3    C2 9837   4.436   2.459   0.791  0.7869 -0.4756  0.1092
  665TMC3    C3 9838   4.471   2.512   0.914  0.5180  0.8364 -0.1427
  665TMC3    C4 9839   4.592   2.611   0.683  0.0942  0.1782 -0.1541
  665TMC3    C5 9840   4.628   2.649   0.809  0.0671 -0.4069 -0.0214
  665TMC3    C6 9841   4.565   2.606   0.924  0.2354  0.4373  0.3215
  665TMC3     C 9842   4.416   2.496   0.567 -0.6017  0.2645  0.6283
  665TMC3     O 9843   4.301   2.462   0.590  0.5256  0.2985 -0.2074
  665TMC3     H 9844   4.376   2.369   0.779 -0.3496  0.0336  1.9653
  665TMC3    H1 9845   4.635   2.654   0.593 -1.3208  2.5077  0.2674
  665TMC3    H2 9846   4.604   2.634   1.021  1.1519 -0.1419  0.1266
  665TMC3    C7 9847   0.015   2.740   0.813  1.0426 -0.1392  0.3724
  665TMC3    C8 9848   4.356   2.518   0.992 -0.0819  0.6675 -0.2160
  665TMC3    O1 9849   0.096   2.718   0.724  0.7742  0.3166 -0.1430
  665TMC3    O2 9850   4.372   2.560   1.109 -0.2710 -0.7758  0.0929
  666TMC3    C1 9851   4.185   2.512   9.555 -0.6370 -0.2210 -0.4799
  666TMC3    C2 9852   4.279   2.422   9.602  0.3688  0.7783 -1.1525
  666TMC3    C3 9853   4.381   2.477   9.681 -0.1856  0.4187 -0.1848
  666TMC3    C4 9854   4.193   2.642   9.593  0.1844  0.1044 -0.4203
  666TMC3    C5 9855   4.297   2.690   9.677  0.4077  0.2257 -0.1727
  666TMC3    C6 9856   4.393   2.606   9.723  0.6564  0.6632  0.0618
  666TMC3     C 9857   4.047   2.467   9.575 -0.7048 -0.2699  0.4138
  666TMC3     O 9858   3.962   2.552   9.555 -0.0845  0.1211 -0.1536
  666TMC3     H 9859   4.265   2.318   9.576 -2.6937  0.6481  1.0001
  666TMC3    H1 9860   4.109   2.709   9.581  0.3605  0.3834 -0.0931
  666TMC3    H2 9861   4.463   2.640   9.799 -0.8918 -1.3614  2.4110
  666TMC3    C7 9862   4.267   2.801   9.750  0.0882 -0.1541  0.0794
  666TMC3    C8 9863   4.436   2.385   9.777 -0.4753  0.7967 -0.2481
  666TMC3    O1 9864   4.148   2.811   9.777 -0.7994 -0.5333  0.0445
  666TMC3    O2 9865   4.367   2.287   9.798  0.1040  0.4984 -0.6223
  667MPD2     C 9866   0.734   2.966  14.654  0.1317 -0.4169 -0.0191
  667MPD2    C1 9867   0.798   2.871  14.733 -0.4004 -0.6455 -0.3441
  667MPD2    C2 9868   0.807   2.741  14.689  0.1725 -0.1852  0.4448
  667MPD2    C3 9869   0.742   2.702  14.573  0.5708  0.1414  0.1198
  667MPD2    C4 9870   0.674   2.799  14.502  0.0789 -0.1742 -0.3267
  667MPD2    C5 9871   0.668   2.931  14.538  0.2654 -0.6357 -0.3517
  667MPD2     H 9872   0.862   2.670  14.750  0.8096  0.1475  0.2579
  667MPD2    H1 9873   0.610   2.787  14.416 -1.1935 -1.9831  0.8571
  667MPD2    H2 9874   0.741   3.069  14.686 -0.2119 -0.0366 -1.1792
  667MPD2    H3 9875   0.599   3.003  14.497 -0.7592  0.3665  3.1141
  667MPD2     N 9876   0.736   2.570  14.528  0.4381 -0.1690  0.3624
  667MPD2    H5 9877   0.683   2.550  14.444  1.6301 -2.4287  0.1289
  667MPD2    N1 9878   0.862   2.897  14.851 -0.0739  0.1956 -0.1712
  667MPD2    H7 9879   0.888   2.815  14.904  1.6154 -0.4198 -1.9627
  668TMC3    C1 9880   0.947   3.013  15.032  0.5842 -0.3197  0.4808
  668TMC3    C2 9881   1.033   3.118  15.065  0.3334 -0.5770 -0.3307
  668TMC3    C3 9882   1.034   3.156  15.192  0.8049  0.0568  0.0023
  668TMC3    C4 9883   0.904   2.924  15.125 -0.4647  0.7145 -0.3877
  668TMC3    C5 9884   0.924   2.951  15.257 -0.1291 -0.0286  0.4291
  668TMC3    C6 9885   0.974   3.076  15.288  0.3872  0.3223 -0.3315
  668TMC3     C 9886   0.893   3.023  14.901 -1.0514 -0.5297  0.0733
  668TMC3     O 9887   0.880   3.132  14.845  0.4935 -0.1825  0.3687
  668TMC3     H 9888   1.083   3.170  14.984 -0.8719  1.5008  0.2680
  668TMC3    H1 9889   0.849   2.834  15.100  0.5438 -0.3381  1.1697
  668TMC3    H2 9890   0.981   3.105  15.392  0.7613  0.1048 -0.2993
  668TMC3    C7 9891   0.879   2.854  15.350 -0.7891 -0.4313 -0.4182
  668TMC3    C8 9892   1.047   3.293  15.221 -1.1222 -0.1098  0.3741
  668TMC3    O1 9893   0.853   2.894  15.463  0.5236 -0.3833 -0.1143
  668TMC3    O2 9894   1.002   3.345  15.321  0.1558 -0.1698 -0.2048
  669TMC3    C1 9895   3.871   2.219  14.614 -0.1297 -0.4047  0.2719
  669TMC3    C2 9896   3.740   2.255  14.589  0.2253  0.2913  0.3054
  669TMC3    C3 9897   3.723   2.380  14.543 -0.1703  0.1264 -0.2081
  669TMC3    C4 9898   3.982   2.286  14.586 -0.8029 -0.1337 -0.5630
  669TMC3    C5 9899   3.955   2.411  14.531  0.4621  0.2302  0.0169
  669TMC3    C6 9900   3.827   2.464  14.516  0.3059  0.1110 -0.0129
  669TMC3     C 9901   3.885   2.105  14.703 -0.8478  0.6876  0.2119
  669TMC3     O 9902   3.790   2.089  14.779  0.0145 -0.0455  0.0829
  669TMC3     H 9903   3.661   2.182  14.602  0.4200 -0.3483 -2.0995
  669TMC3    H1 9904   4.080   2.260  14.624 -1.1930  1.5062  1.5491
  669TMC3    H2 9905   3.821   2.554  14.456 -1.6687  0.3249  0.5076
  669TMC3    C7 9906   4.067   2.490  14.480  0.0627 -0.5593 -0.3376
  669TMC3    C8 9907   3.594   2.411  14.503 -0.4686  0.8595 -0.0529
  669TMC3    O1 9908   4.030   2.593  14.429  0.4077 -0.1729  0.7641
  669TMC3    O2 9909   3.515   2.314  14.493  0.1482  0.5937  0.4593
  670MPD2     C 9910   1.552   0.134  13.362 -0.1871  0.2087 -0.4959
  670MPD2    C1 9911   1.651   0.159  13.450 -0.4743 -0.7283 -0.4792
  670MPD2    C2 9912   1.639   0.123  13.585 -0.3613  0.5923 -0.1392
  670MPD2    C3 9913   1.528   0.050  13.628  0.2398  0.1259  0.3227
  670MPD2    C4 9914   1.435   0.017  13.535  0.3962 -0.9129 -0.5741
  670MPD2    C5 9915   1.446   0.062  13.408  0.3147  0.6468  0.1204
  670MPD2     H 9916   1.711   0.166  13.653 -0.2735 -2.2364  1.5384
  670MPD2    H1 9917   1.347   4.681  13.557  0.0259  0.7677  2.5522
  670MPD2    H2 9918   1.554   0.169  13.259  2.0567 -0.1735 -0.5901
  670MPD2    H3 9919   1.380   0.022  13.332 -0.1741  1.4545  0.1202
  670MPD2     N 9920   1.520   0.026  13.764  0.9121 -0.5307  0.5543
  670MPD2    H5 9921   1.606   0.045  13.813  0.2147 -0.6077  1.8021
  670MPD2    N1 9922   1.771   0.220  13.411 -0.1060 -0.2215  0.3602
  670MPD2    H7 9923   1.839   0.232  13.485  0.6571 -1.4492 -0.1502
  671TMC3    C1 9924   1.418   4.622  13.936  0.2346  0.0485 -0.2375
  671TMC3    C2 9925   1.542   4.592  13.984  0.3989 -0.1941  0.1015
  671TMC3    C3 9926   1.563   4.467  14.044  0.4527 -0.3149 -0.6712
  671TMC3    C4 9927   1.312   4.536  13.950  0.2711  0.4830  0.0016
  671TMC3    C5 9928   1.341   4.411  14.000  0.1190 -0.4989  0.0213
  671TMC3    C6 9929   1.459   4.375  14.051  0.2974  0.4161 -0.9018
  671TMC3     C 9930   1.403   4.718  13.830 -0.1257 -0.5564  0.8912
  671TMC3     O 9931   1.287   4.719  13.785  0.3998  0.4657 -0.0718
  671TMC3     H 9932   1.627   4.655  13.962  1.8029 -1.2340  2.4815
  671TMC3    H1 9933   1.215   4.559  13.908 -0.1022 -1.5215 -0.2596
  671TMC3    H2 9934   1.474   4.279  14.100 -2.3135  0.7343  0.4718
  671TMC3    C7 9935   1.274   4.303  13.930  0.1175  0.0965 -0.2311
  671TMC3    C8 9936   1.699   4.424  14.062  0.0405  0.3693 -0.6486
  671TMC3    O1 9937   1.349   4.206  13.916 -0.2860 -0.3471 -0.8788
  671TMC3    O2 9938   1.726   4.307  14.037  0.2762 -0.1982 -0.0644
  672MPD2     C 9939   2.437   0.171   0.429 -0.3957  0.2777  0.3998
  672MPD2    C1 9940   2.395   0.287   0.489  0.0666  0.0910  0.0054
  672MPD2    C2 9941   2.472   0.405   0.472  0.9854 -0.0177 -0.5285
  672MPD2    C3 9942   2.583   0.404   0.393 -0.8499  0.3056 -0.7450
  672MPD2    C4 9943   2.621   0.289   0.329  0.0846 -0.1198 -0.2102
  672MPD2    C5 9944   2.549   0.174   0.354  0.3849  0.0710 -0.0277
  672MPD2     H 9945   2.432   0.500   0.507 -0.9258 -0.4836 -1.4423
  672MPD2    H1 9946   2.704   0.293   0.259  1.4983  0.3509  1.5211
  672MPD2    H2 9947   2.368   0.087   0.427 -0.7749  0.6504 -1.8515
  672MPD2    H3 9948   2.574   0.084   0.298  1.7534 -0.1706  0.9587
  672MPD2     N 9949   2.667   0.514   0.369  0.2086  0.8822  0.4786
  672MPD2    H5 9950   2.732   0.492   0.294 -0.6237 -0.0155  0.0252
  672MPD2    N1 9951   2.285   0.303   0.573  0.0948 -0.0874 -0.3094
  672MPD2    H7 9952   2.266   0.392   0.617  1.3962  1.7218 -3.3766
  673TMC3    C1 9953   2.132   0.224   0.737  0.3640  0.2721 -0.0531
  673TMC3    C2 9954   2.157   0.138   0.840 -0.0938  0.0497 -0.3396
  673TMC3    C3 9955   2.141   0.178   0.966  0.5607 -0.3914  0.6531
  673TMC3    C4 9956   2.079   0.347   0.763 -0.0676 -0.4901 -0.2120
  673TMC3    C5 9957   2.038   0.381   0.886 -0.0358 -0.1144  0.4448
  673TMC3    C6 9958   2.074   0.292   0.990 -0.3439 -0.2021  0.0274
  673TMC3     C 9959   2.207   0.201   0.618 -0.3937 -0.2845  0.1924
  673TMC3     O 9960   2.226   0.082   0.603  0.0325  0.1825  0.2097
  673TMC3     H 9961   2.194   0.042   0.807 -0.6856 -1.0333  2.1804
  673TMC3    H1 9962   2.068   0.421   0.685  0.4034  0.0746  0.2699
  673TMC3    H2 9963   2.051   0.309   1.095  0.0153  0.0119  0.0716
  673TMC3    C7 9964   1.985   0.512   0.929  0.0729 -0.5685 -0.7128
  673TMC3    C8 9965   2.207   0.106   1.075  0.3015 -0.1872 -0.1402
  673TMC3    O1 9966   1.930   0.503   1.038 -0.0957  0.4250  0.2887
  673TMC3    O2 9967   2.171   0.133   1.188 -0.2956  0.2080 -0.0369
  674MPD2     C 9968   1.777   0.664   0.268 -0.2264  0.7103  0.2216
  674MPD2    C1 9969   1.833   0.580   0.361  0.0642  0.3516  0.0208
  674MPD2    C2 9970   1.820   0.599   0.496  0.3145  0.0146  0.0745
  674MPD2    C3 9971   1.724   0.685   0.545  0.3345  0.1651  0.0453
  674MPD2    C4 9972   1.669   0.771   0.453 -0.0491  1.4587 -0.0028
  674MPD2    C5 9973   1.699   0.765   0.318 -0.0909  0.2415 -0.3720
  674MPD2     H 9974   1.867   0.535   0.570 -0.3581 -1.7151 -1.0031
  674MPD2    H1 9975   1.585   0.837   0.474 -0.7788  0.3850  0.4001
  674MPD2    H2 9976   1.783   0.659   0.160 -0.6227  0.6182  0.2070
  674MPD2    H3 9977   1.638   0.828   0.254  1.4545 -0.4181 -2.4941
  674MPD2     N 9978   1.679   0.685   0.678 -0.1410 -0.2731  0.3690
  674MPD2    H5 9979   1.707   0.604   0.733 -0.5348 -0.7312 -0.1036
  674MPD2    N1 9980   1.919   0.478   0.315 -0.0121 -0.0448  0.5699
  674MPD2    H7 9981   1.945   0.497   0.219 -0.1117  2.7280  1.0905
  675TMC3    C1 9982   2.020   0.272   0.286  0.4560 -0.7499  0.1692
  675TMC3    C2 9983   2.028   0.143   0.325  0.3047 -0.2139 -0.7502
  675TMC3    C3 9984   2.111   0.063   0.250  0.5901  0.0079 -0.1046
  675TMC3    C4 9985   2.118   0.327   0.202  0.2085  0.1682 -0.2175
  675TMC3    C5 9986   2.204   0.243   0.135  0.8329  0.2946 -0.2806
  675TMC3    C6 9987   2.190   0.105   0.145 -0.3617  0.1184 -0.2465
  675TMC3     C 9988   1.952   0.360   0.383 -0.3789 -0.7041 -0.0201
  675TMC3     O 9989   1.908   0.312   0.488  0.2846  0.5621  0.1525
  675TMC3     H 9990   1.957   0.102   0.395  0.6276  0.0174 -0.2909
  675TMC3    H1 9991   2.123   0.431   0.174  0.4478 -0.1822 -1.4932
  675TMC3    H2 9992   2.241   0.035   0.079 -0.4824  1.0341 -1.3101
  675TMC3    C7 9993   2.327   0.290   0.061  1.0499 -0.1002  0.0642
  675TMC3    C8 9994   2.145   4.653   0.288 -0.1021 -0.1976  0.1408
  675TMC3    O1 9995   2.395   0.199   0.014 -0.0118  0.0476 -0.0605
  675TMC3    O2 9996   2.221   4.590   0.218  0.1039 -0.0740  0.0644
  676MPD2     C 9997   4.566   3.435  10.876 -0.3751  0.0223 -0.2837
  676MPD2    C1 9998   4.455   3.432  10.949 -0.2583  0.4673  0.6687
  676MPD2    C2 9999   4.364   3.326  10.932  0.5158  0.1168 -0.1997
  676MPD2    C310000   4.391   3.226  10.843  0.7570  0.2503 -0.1131
  676MPD2    C410001   4.506   3.228  10.772  0.0140 -0.6718  0.5904
  676MPD2    C510002   4.593   3.333  10.786  0.1138 -0.3732  0.6730
  676MPD2     H10003   4.268   3.316  10.981  0.4421  1.5741 -0.0694
  676MPD2    H110004   4.530   3.141  10.711 -0.9695 -0.9017  0.5299
  676MPD2    H210005   4.641   3.513  10.875  0.5293 -0.8501 -0.3615
  676MPD2    H310006   4.682   3.350  10.726  0.3728 -0.4296  1.0461
  676MPD2     N10007   4.314   3.108  10.829 -0.0397  0.3338  0.2100
  676MPD2    H510008   4.357   3.040  10.767 -1.5180 -1.7457  1.4596
  676MPD2    N110009   4.416   3.538  11.039 -0.4288 -0.6641  0.1624
  676MPD2    H710010   4.325   3.530  11.083  0.8207 -0.8243  2.6920
  677TMC3    C110011   4.423   3.741  11.170 -0.3776  0.0388 -0.4202
  677TMC3    C210012   4.285   3.726  11.193  0.1055  0.4081  0.0013
  677TMC3    C310013   4.239   3.776  11.315 -0.3451 -0.1800 -0.2487
  677TMC3    C410014   4.512   3.806  11.252  0.1143  0.1416 -0.6049
  677TMC3    C510015   4.456   3.863  11.361  0.0919  0.3185 -0.0407
  677TMC3    C610016   4.322   3.861  11.392  0.1671  0.8923  0.0310
  677TMC3     C10017   4.485   3.651  11.070 -0.5738  0.0639 -0.8222
  677TMC3     O10018   4.598   3.686  11.031 -0.1302 -0.3843 -0.0917
  677TMC3     H10019   4.214   3.681  11.124  0.1640  1.1192 -0.5172
  677TMC3    H110020   4.617   3.794  11.233  0.3625  0.8326  0.2863
  677TMC3    H210021   4.277   3.913  11.476 -1.6931 -0.0113 -0.4041
  677TMC3    C710022   4.559   3.899  11.458  0.2130  0.1974 -0.0585
  677TMC3    C810023   4.100   3.788  11.333  0.8426 -0.1835  0.2758
  677TMC3    O110024   4.676   3.912  11.423 -0.2175 -0.4812 -0.1661
  677TMC3    O210025   4.027   3.817  11.239 -0.1172 -0.0607  0.5452
  678MPD2     C10026   0.937   3.847   2.176 -0.6348  0.5130 -0.0449
  678MPD2    C110027   0.946   3.807   2.046 -0.3214 -0.7245 -0.0047
  678MPD2    C210028   0.836   3.826   1.968  0.1468 -0.6075 -0.9083
  678MPD2    C310029   0.719   3.883   2.017 -0.2578  0.1161  0.5078
  678MPD2    C410030   0.719   3.940   2.142  0.3816  0.4348 -0.1676
  678MPD2    C510031   0.824   3.915   2.223 -0.3468 -0.5025  0.4249
  678MPD2     H10032   0.831   3.797   1.863 -0.4546 -0.9403 -0.7892
  678MPD2    H110033   0.640   4.005   2.178  1.0502  0.9069  0.4460
  678MPD2    H210034   1.024   3.835   2.239 -0.8969 -0.5452  0.1089
  678MPD2    H310035   0.822   3.947   2.327 -0.3039  1.9200 -0.3193
  678MPD2     N10036   0.619   3.882   1.915  0.4807  0.7333  0.3854
  678MPD2    H510037   0.631   3.829   1.830  0.0311  1.3197 -0.0459
  678MPD2    N110038   1.059   3.751   1.984 -0.6962 -0.0840 -0.6383
  678MPD2    H710039   1.056   3.745   1.883  1.1980 -0.9730 -0.6560
  679TMC3    C110040   1.458   3.528   1.910  0.1549 -0.1831 -0.0905
  679TMC3    C210041   1.357   3.559   1.993 -0.0891  0.2168  0.6935
  679TMC3    C310042   1.274   3.666   1.958  0.0492 -0.3909  1.0177
  679TMC3    C410043   1.497   3.608   1.806  0.1968 -0.1085  0.1999
  679TMC3    C510044   1.422   3.721   1.777  0.1020  0.2780  0.1512
  679TMC3    C610045   1.305   3.746   1.847 -0.5933  0.2122 -0.2312
  679TMC3     C10046   1.544   3.416   1.938  0.4402  0.2577 -0.4733
  679TMC3     O10047   1.642   3.409   1.864 -0.5617  0.8032  0.0113
  679TMC3     H10048   1.339   3.505   2.085 -0.1393 -0.3735  0.3357
  679TMC3    H110049   1.582   3.581   1.745  0.2784 -0.1624  0.3364
  679TMC3    H210050   1.241   3.826   1.812  0.2265  1.3030  0.7594
  679TMC3    C710051   1.449   3.800   1.661 -0.3549  0.2084 -0.5238
  679TMC3    C810052   1.175   3.712   2.047 -0.3784  0.3225 -0.5498
  679TMC3    O110053   1.376   3.892   1.628 -0.0714  0.0409 -0.3838
  679TMC3    O210054   1.196   3.701   2.166 -0.3408 -0.4333  0.0325
  680MPD2     C10055   2.147   2.113  13.639  0.2386  0.2413 -0.8239
  680MPD2    C110056   2.110   2.073  13.770 -0.6254 -0.5206  0.5620
  680MPD2    C210057   2.102   2.160  13.875  0.0665  1.0585 -0.5026
  680MPD2    C310058   2.136   2.295  13.848  0.6072  0.0749 -0.3310
  680MPD2    C410059   2.182   2.333  13.727  0.7144 -0.5909  0.0078
  680MPD2    C510060   2.181   2.240  13.618 -0.2716 -0.3969 -0.2792
  680MPD2     H10061   2.075   2.137  13.977 -0.4065 -0.2450 -0.9144
  680MPD2    H110062   2.221   2.433  13.711 -0.2175 -0.3557 -0.7650
  680MPD2    H210063   2.157   2.048  13.553  1.1535 -1.9622  0.9413
  680MPD2    H310064   2.210   2.262  13.517  0.8930 -0.8063 -0.0311
  680MPD2     N10065   2.117   2.393  13.945 -0.4792 -0.3996  0.6942
  680MPD2    H510066   2.112   2.489  13.913 -1.5841 -0.3906  0.8785
  680MPD2    N110067   2.068   1.935  13.795 -0.6173  0.9134 -0.4673
  680MPD2    H710068   2.033   1.906  13.885  0.4010 -1.3047 -0.7792
  681TMC3    C110069   1.977   1.729  13.753 -0.1346  0.3381  0.0848
  681TMC3    C210070   1.896   1.750  13.859 -0.1526  0.3844  0.7822
  681TMC3    C310071   1.821   1.637  13.890  0.0034  0.1786 -0.2076
  681TMC3    C410072   1.978   1.622  13.668  0.7172 -0.3555 -0.4818
  681TMC3    C510073   1.896   1.521  13.699  1.9741 -0.0426 -0.5848
  681TMC3    C610074   1.816   1.529  13.808 -0.6600  0.8634  0.5972
  681TMC3     C10075   2.055   1.835  13.698 -0.2740 -0.3843  0.5207
  681TMC3     O10076   2.108   1.823  13.593  0.0112  0.3766 -0.4724
  681TMC3     H10077   1.892   1.848  13.906 -0.6475  1.7521 -2.1119
  681TMC3    H110078   2.057   1.601  13.597  0.0861  0.2459 -1.3510
  681TMC3    H210079   1.734   1.459  13.818 -0.4989  0.6144  0.1353
  681TMC3    C710080   1.837   1.449  13.590  0.3018 -0.1927 -0.1959
  681TMC3    C810081   1.711   1.660  13.976  0.3293  0.5220  0.3728
  681TMC3    O110082   1.750   1.364  13.613 -0.2772 -0.0646  0.1938
  681TMC3    O210083   1.602   1.607  13.951 -0.1537 -0.1545 -0.1783
  682MPD2     C10084   3.670   3.628  10.646 -0.2321 -0.0374 -1.1595
  682MPD2    C110085   3.681   3.499  10.683  0.0277 -0.3174 -0.6777
  682MPD2    C210086   3.599   3.454  10.790  0.3156  0.2982  0.5828
  682MPD2    C310087   3.524   3.542  10.870  0.6328 -0.7817  0.4585
  682MPD2    C410088   3.532   3.674  10.831 -0.3796  0.3793 -0.2169
  682MPD2    C510089   3.595   3.720  10.720  0.2540 -0.1209  0.9157
  682MPD2     H10090   3.599   3.350  10.820 -0.2281 -1.0351 -4.0774
  682MPD2    H110091   3.494   3.753  10.894 -1.9399 -1.1035  0.6741
  682MPD2    H210092   3.721   3.671  10.560 -0.5665 -2.5582 -2.5924
  682MPD2    H310093   3.597   3.825  10.694 -0.8531 -0.0861  0.9692
  682MPD2     N10094   3.450   3.503  10.983  0.1726 -0.6113  0.6663
  682MPD2    H510095   3.401   3.578  11.030  1.5315  0.5232  0.2545
  682MPD2    N110096   3.753   3.405  10.609  1.1877  0.0265 -0.0301
  682MPD2    H710097   3.738   3.311  10.647  0.6784  0.3084  0.4607
  683TMC3    C110098   3.363   3.361  11.376  0.1203  0.4338 -0.3267
  683TMC3    C210099   3.300   3.237  11.389 -0.0088 -0.2903  0.2047
  683TMC3    C310100   3.256   3.179  11.276 -0.6447  0.0817  1.1188
  683TMC3    C410101   3.387   3.424  11.261  0.5620  0.6943  0.5552
  683TMC3    C510102   3.337   3.362  11.143  0.0077 -0.5183  0.1515
  683TMC3    C610103   3.275   3.240  11.153 -0.3310 -0.1650 -0.2061
  683TMC3     C10104   3.428   3.408  11.496 -0.2898 -1.0247 -0.4168
  683TMC3     O10105   3.453   3.528  11.502 -0.9809  0.3889 -0.0091
  683TMC3     H10106   3.269   3.202  11.487 -2.9678  0.5481 -0.4346
  683TMC3    H110107   3.434   3.522  11.264  0.6867  0.6600 -0.2091
  683TMC3    H210108   3.245   3.181  11.067  0.3313  0.6315 -0.9775
  683TMC3    C710109   3.413   3.375  11.020 -0.0306 -0.1115  0.0982
  683TMC3    C810110   3.197   3.045  11.276  0.1812 -0.3997 -0.4535
  683TMC3    O110111   3.437   3.273  10.958 -0.2303  0.1036  0.0941
  683TMC3    O210112   3.143   3.011  11.174 -0.0554  0.0804  0.0684
  684MPD2     C10113   2.173   3.117  16.895 -0.7681 -0.5537 -0.2879
  684MPD2    C110114   2.136   3.122  16.760  0.0713  0.0823 -0.6153
  684MPD2    C210115   2.022   3.191  16.730 -0.4108 -0.1249 -0.1940
  684MPD2    C310116   1.944   3.258  16.823 -0.4044 -0.2797 -0.3963
  684MPD2    C410117   1.992   3.257  16.959 -0.0893  0.0399 -0.4769
  684MPD2    C510118   2.103   3.185  16.991 -0.4857  0.4110  0.5067
  684MPD2     H10119   1.990   3.195  16.626 -0.9099 -2.3459 -0.1411
  684MPD2    H110120   1.927   3.306  17.031 -0.3321 -3.2345  1.5109
  684MPD2    H210121   2.262   3.070  16.935 -0.6664 -1.0146 -1.0599
  684MPD2    H310122   2.140   3.184  17.093 -2.0283  2.4529  1.0863
  684MPD2     N10123   1.836   3.342  16.802 -0.4181  0.1852  0.1433
  684MPD2    H510124   1.821   3.420  16.864 -2.5238 -0.7234  0.7635
  684MPD2    N110125   2.208   3.052  16.661 -0.2366  0.6624 -0.5639
  684MPD2    H710126   2.171   3.060  16.567 -3.3124 -3.1309  0.3245
  685TMC3    C110127   2.393   2.936  16.566 -0.0326  0.3894  0.9649
  685TMC3    C210128   2.360   2.964  16.437  0.6464  0.0803  0.3116
  685TMC3    C310129   2.410   2.886  16.341 -0.2908 -0.4810 -0.1938
  685TMC3    C410130   2.474   2.826  16.590  0.0656  0.1905  0.5503
  685TMC3    C510131   2.528   2.753  16.492 -0.6700 -0.3703 -0.2433
  685TMC3    C610132   2.491   2.777  16.360  0.4344  0.3985 -0.4029
  685TMC3     C10133   2.316   2.971  16.683  0.4350 -0.1679  0.3949
  685TMC3     O10134   2.363   2.929  16.789  0.3863 -0.3026  0.0991
  685TMC3     H10135   2.302   3.048  16.400  0.0400 -0.4192  0.1426
  685TMC3    H110136   2.511   2.805  16.689  1.8740  0.7780  0.0048
  685TMC3    H210137   2.519   2.707  16.283  0.5400  0.2243 -0.2052
  685TMC3    C710138   2.554   2.613  16.519 -0.3160  0.1141 -0.3659
  685TMC3    C810139   2.370   2.906  16.200 -0.3020 -0.0487  0.9545
  685TMC3    O110140   2.507   2.572  16.625  0.4020  0.0485 -0.1471
  685TMC3    O210141   2.450   2.865  16.115 -0.5419  0.2609 -0.3196
  686MPD2     C10142   3.432   2.617  15.821  0.3432 -0.1025  0.0927
  686MPD2    C110143   3.435   2.541  15.934  0.1442  0.5603 -0.4144
  686MPD2    C210144   3.528   2.443  15.949  1.4769  0.3382  0.0811
  686MPD2    C310145   3.611   2.410  15.841  0.1941 -1.0916 -0.1845
  686MPD2    C410146   3.611   2.499  15.741  0.0963 -0.2678 -0.4112
  686MPD2    C510147   3.519   2.600  15.727 -0.0808  0.1075 -0.3146
  686MPD2     H10148   3.531   2.384  16.039  3.1961  0.4982  0.1429
  686MPD2    H110149   3.683   2.505  15.660  1.6827  1.1007  1.1057
  686MPD2    H210150   3.352   2.690  15.810  1.4484  1.3056  1.4571
  686MPD2    H310151   3.525   2.662  15.638 -0.2793  1.6570  0.7569
  686MPD2     N10152   3.707   2.304  15.848 -0.5364 -0.7011 -0.8209
  686MPD2    H510153   3.749   2.276  15.761 -1.2330 -1.9431 -0.7573
  686MPD2    N110154   3.336   2.568  16.034  0.1706 -0.4834 -0.0110
  686MPD2    H710155   3.281   2.652  16.020  0.8334 -0.1510 -0.6288
  687TMC3    C110156   3.727   2.079  15.923 -0.4250  0.3818 -0.7941
  687TMC3    C210157   3.607   2.049  15.857 -1.2041  0.0446 -0.2030
  687TMC3    C310158   3.524   1.952  15.911 -0.0464  0.2572  0.2721
  687TMC3    C410159   3.753   2.015  16.036 -0.2124 -0.1403  0.3471
  687TMC3    C510160   3.681   1.906  16.090 -0.2078  0.1842 -0.4838
  687TMC3    C610161   3.558   1.882  16.029 -0.5430  0.0459 -0.4714
  687TMC3     C10162   3.728   2.219  15.955 -0.2537 -0.1038  0.5636
  687TMC3     O10163   3.699   2.231  16.070 -0.3995 -0.0421  0.0408
  687TMC3     H10164   3.583   2.101  15.765 -2.1901 -0.1880 -0.0782
  687TMC3    H110165   3.842   2.052  16.086 -0.6754  1.1372  0.2148
  687TMC3    H210166   3.483   1.817  16.073 -1.4638  1.8806  0.6566
  687TMC3    C710167   3.654   1.924  16.232 -0.5247  0.5463 -0.3169
  687TMC3    C810168   3.390   2.005  15.921 -0.1959 -0.3112  0.2756
  687TMC3    O110169   3.641   1.825  16.299 -0.1257  0.0823 -0.2779
  687TMC3    O210170   3.321   1.961  16.016 -0.0125 -0.3483 -0.3062
  688MPD2     C10171   2.666   1.281  17.375 -0.0627 -0.5702  0.1166
  688MPD2    C110172   2.628   1.150  17.397  0.8190  0.2184  0.7489
  688MPD2    C210173   2.727   1.055  17.370 -0.4172  0.4872  0.1960
  688MPD2    C310174   2.848   1.084  17.301  0.3499 -0.1347 -0.2035
  688MPD2    C410175   2.868   1.210  17.265  0.0345 -0.8757 -0.1198
  688MPD2    C510176   2.781   1.309  17.308  0.1918 -0.4783  0.4075
  688MPD2     H10177   2.704   0.955  17.404 -0.5403 -0.0836 -1.5373
  688MPD2    H110178   2.966   1.240  17.231 -1.0300  1.6457 -1.0223
  688MPD2    H210179   2.613   1.364  17.420 -0.6943 -0.3019 -1.1026
  688MPD2    H310180   2.807   1.413  17.290  0.6145 -0.5691  0.4751
  688MPD2     N10181   2.946   0.984  17.269 -0.0775 -0.1495 -0.8779
  688MPD2    H510182   3.038   1.016  17.241  0.0237  1.3739  1.1738
  688MPD2    N110183   2.511   1.114  17.464  0.1869  0.5152  0.4536
  688MPD2    H710184   2.506   1.020  17.501  0.5881  0.0184 -0.7478
  689TMC3    C110185   2.313   1.155  17.594  0.1492  0.3314  0.0099
  689TMC3    C210186   2.276   1.245  17.687 -0.2795 -0.2619 -0.2517
  689TMC3    C310187   2.195   1.192   0.091 -0.3611  0.9918 -0.2022
  689TMC3    C410188   2.269   1.029  17.579  0.0418 -0.1685 -0.4301
  689TMC3    C510189   2.195   0.984  17.687  0.4609 -0.2894  0.0380
  689TMC3    C610190   2.153   1.063   0.090 -0.0520  0.5281  0.2517
  689TMC3     C10191   2.422   1.207  17.507  0.3405 -0.2530  0.4007
  689TMC3     O10192   2.407   1.321  17.470  0.4310  0.2282  0.6279
  689TMC3     H10193   2.314   1.347  17.685  1.2555 -0.7845  1.2848
  689TMC3    H110194   2.297   0.956  17.504 -0.8769  0.6811 -1.5798
  689TMC3    H210195   2.108   1.022   0.180 -2.2029  0.2704 -0.9249
  689TMC3    C710196   2.149   0.851  17.694 -0.0176  0.1873  0.1213
  689TMC3    C810197   2.168   1.274   0.205 -0.0978  0.2830 -0.1991
  689TMC3    O110198   2.129   0.806   0.108  0.1316 -0.7166  0.2523
  689TMC3    O210199   2.149   1.225   0.315  0.3275 -0.1399 -0.2212
  690MPD2     C10200   0.278   3.336  15.559  0.0500 -0.0517 -0.5371
  690MPD2    C110201   0.206   3.353  15.443  0.1425  0.0853 -0.0466
  690MPD2    C210202   0.264   3.439  15.351 -0.0783  0.0692  0.2506
  690MPD2    C310203   0.384   3.505  15.368 -0.6547 -0.6249 -0.1543
  690MPD2    C410204   0.458   3.480  15.479  0.3252 -0.4172 -0.0337
  690MPD2    C510205   0.407   3.400  15.574 -0.0957  0.3088 -0.1152
  690MPD2     H10206   0.217   3.449  15.254  0.5756  0.2576 -0.0458
  690MPD2    H110207   0.558   3.521  15.495  1.0133 -1.6234 -1.3392
  690MPD2    H210208   0.240   3.276  15.641  0.3121  1.0027  0.3533
  690MPD2    H310209   0.467   3.376  15.661 -0.0395  2.5630  0.4738
  690MPD2     N10210   0.426   3.590  15.261 -0.2609 -0.4221  0.3482
  690MPD2    H510211   0.378   3.576  15.172 -1.5975 -0.2351  1.0294
  690MPD2    N110212   0.073   3.295  15.420  0.1864 -0.5947 -0.0175
  690MPD2    H710213   0.036   3.297  15.325  1.5259 -1.8196 -0.5623
  691TMC3    C110214   4.613   3.167  15.461  0.6738 -0.6578 -0.9308
  691TMC3    C210215   4.512   3.230  15.387 -0.3639  0.5758  0.1513
  691TMC3    C310216   4.416   3.154  15.331  0.2070  0.3019 -0.2596
  691TMC3    C410217   4.627   3.031  15.457  0.0225  0.0033 -0.2107
  691TMC3    C510218   4.524   2.958  15.400 -1.1722  1.1927  0.3883
  691TMC3    C610219   4.419   3.015  15.337  0.6123  0.6792 -0.2593
  691TMC3     C10220   4.718   3.240  15.520 -0.4660  0.1299 -0.1773
  691TMC3     O10221   0.017   3.232  15.643  0.2632 -0.0954  0.7209
  691TMC3     H10222   4.514   3.338  15.382  0.6865  0.5662  0.2963
  691TMC3    H110223   4.694   2.983  15.527  0.8601  2.4375  0.6762
  691TMC3    H210224   4.339   2.952  15.299  1.5526  0.3982 -1.7694
  691TMC3    C710225   4.511   2.828  15.447  0.1403 -0.0015 -0.1893
  691TMC3    C810226   4.288   3.208  15.308 -0.3279 -0.2761  0.0172
  691TMC3    O110227   4.619   2.772  15.458  0.2690  0.7571 -0.2157
  691TMC3    O210228   4.212   3.135  15.252  0.0281 -0.5334  0.4888
  692TMC3    C110229   1.470   4.362  15.818 -0.1604 -0.1705  1.0809
  692TMC3    C210230   1.569   4.415  15.892 -0.1670 -0.6449  0.4342
  692TMC3    C310231   1.640   4.331  15.973 -0.1108  0.0131  0.2609
  692TMC3    C410232   1.445   4.226  15.805 -0.0691  0.0890 -0.0804
  692TMC3    C510233   1.512   4.149  15.894 -0.3574  0.1179  0.1340
  692TMC3    C610234   1.616   4.199  15.973 -0.2443  0.2277 -0.1256
  692TMC3     C10235   1.363   4.453  15.775 -0.2370  0.2357  0.1884
  692TMC3     O10236   1.247   4.407  15.778 -0.2609 -0.2360 -0.3364
  692TMC3     H10237   1.567   4.522  15.914 -1.5337 -0.2879 -1.5231
  692TMC3    H110238   1.364   4.190  15.742 -0.3179 -0.5280  0.5913
  692TMC3    H210239   1.673   4.142  16.045 -2.2294  0.6333  1.7542
  692TMC3    C710240   1.479   4.007  15.890 -0.6727 -0.8588 -0.4582
  692TMC3    C810241   1.695   4.378  16.108 -0.0678  0.3710 -0.1428
  692TMC3    O110242   1.391   3.965  15.811 -0.0759 -0.0316 -0.7973
  692TMC3    O210243   1.744   4.291  16.181 -0.0228 -0.3553 -0.1736
  693MPD2     C10244   1.106   2.473  10.558  0.3645 -0.3731  0.6075
  693MPD2    C110245   1.027   2.364  10.555 -0.1718 -0.6237  0.3379
  693MPD2    C210246   1.069   2.239  10.604  0.6144 -0.3196 -0.4375
  693MPD2    C310247   1.195   2.234  10.672 -0.4173 -0.1702 -0.0605
  693MPD2    C410248   1.262   2.355  10.695  0.6866  0.0785  0.2464
  693MPD2    C510249   1.216   2.470  10.636  0.1333  0.2178  0.1515
  693MPD2     H10250   1.005   2.152  10.615  1.8154 -1.3611 -1.8385
  693MPD2    H110251   1.354   2.359  10.753  0.4255 -1.2581  0.7731
  693MPD2    H210252   1.074   2.571  10.527  0.9644 -0.2449  0.4025
  693MPD2    H310253   1.268   2.564  10.650 -0.4600  0.9785 -2.6852
  693MPD2     N10254   1.232   2.118  10.745 -0.2961  0.5290 -0.2644
  693MPD2    H510255   1.307   2.128  10.813 -1.0725 -2.4459  1.0231
  693MPD2    N110256   0.897   2.386  10.501 -0.1524  0.2584 -0.0741
  693MPD2    H710257   0.861   2.480  10.493 -2.4775 -0.5762  0.4649
  694TMC3    C110258   0.668   2.334  10.508 -0.4683 -0.5478 -0.0028
  694TMC3    C210259   0.579   2.248  10.459  0.2401  0.4401  0.3859
  694TMC3    C310260   0.465   2.238  10.529 -0.5267 -0.3250  0.3422
  694TMC3    C410261   0.658   2.398  10.632 -0.2101 -0.3335 -0.3749
  694TMC3    C510262   0.546   2.370  10.707 -0.1310  0.2954 -0.2851
  694TMC3    C610263   0.444   2.288  10.661  0.2968  0.4700  0.2774
  694TMC3     C10264   0.805   2.288  10.481  0.2895  0.4880  0.0078
  694TMC3     O10265   0.814   2.165  10.473  0.5716  0.6845 -0.2116
  694TMC3     H10266   0.594   2.214  10.358 -1.2296  1.0456 -0.0338
  694TMC3    H110267   0.742   2.453  10.672  0.2176 -1.4184  0.2372
  694TMC3    H210268   0.357   2.264  10.722 -0.5033 -1.2101 -1.5427
  694TMC3    C710269   0.567   2.386  10.851  0.5257 -0.2460 -0.0682
  694TMC3    C810270   0.354   2.162  10.478  0.3112  0.1698 -0.4710
  694TMC3    O110271   0.642   2.477  10.885  0.7071 -0.8038 -0.1604
  694TMC3    O210272   0.272   2.128  10.562 -0.5963 -0.1162  0.3058
  695MPD2     C10273   2.123   4.020  13.457  0.3014 -0.0064 -0.4278
  695MPD2    C110274   2.057   3.999  13.577 -0.5274  0.7811  0.2423
  695MPD2    C210275   1.918   4.005  13.575 -0.3700  0.2611  0.9047
  695MPD2    C310276   1.847   4.032  13.457 -0.2642 -0.3317  0.2429
  695MPD2    C410277   1.920   4.049  13.336  0.1759  0.1181 -0.2506
  695MPD2    C510278   2.057   4.044  13.340  0.0196  0.4112  0.1645
  695MPD2     H10279   1.865   3.973  13.664 -2.8107 -0.1594 -0.7194
  695MPD2    H110280   1.866   4.075  13.245  0.0952  0.2043 -0.1788
  695MPD2    H210281   2.230   4.037  13.453 -0.0692  2.2877 -0.6398
  695MPD2    H310282   2.113   4.059  13.248 -2.8840 -0.9337 -1.8495
  695MPD2     N10283   1.700   4.035  13.467 -0.4579 -0.0322 -0.3515
  695MPD2    H510284   1.656   4.019  13.557 -0.4165 -0.0336 -0.3314
  695MPD2    N110285   2.122   3.968  13.704  0.0236 -0.0670 -0.3312
  695MPD2    H710286   2.061   3.948  13.783 -2.1657  0.0027 -2.0092
  696TMC3    C110287   1.475   4.083  13.401 -0.5133  0.3768  0.2990
  696TMC3    C210288   1.427   3.986  13.477  0.1921  0.2049  0.3256
  696TMC3    C310289   1.292   4.002  13.515 -0.8938 -0.1908  0.1670
  696TMC3    C410290   1.408   4.184  13.351 -0.2453 -0.0429 -0.2607
  696TMC3    C510291   1.273   4.199  13.383  0.9160 -0.1635  0.3126
  696TMC3    C610292   1.211   4.107  13.462  0.4562 -0.2795  0.5883
  696TMC3     C10293   1.619   4.088  13.372  0.3194  0.7487  0.2570
  696TMC3     O10294   1.644   4.165  13.278  0.4771 -0.2483  0.6941
  696TMC3     H10295   1.485   3.897  13.498  0.1924  0.3124  0.7884
  696TMC3    H110296   1.454   4.267  13.298 -0.8911  1.2079  1.1278
  696TMC3    H210297   1.104   4.108  13.483 -0.1813 -1.2394 -2.5727
  696TMC3    C710298   1.211   4.321  13.356 -0.1288 -0.7288  0.3218
  696TMC3    C810299   1.227   3.888  13.577  0.3826 -0.1116  0.7096
  696TMC3    O110300   1.263   4.382  13.262 -0.2305 -0.3345  0.6286
  696TMC3    O210301   1.261   3.787  13.512 -0.3603  0.0481 -0.1727
  697MPD2     C10302   1.666   0.926  15.786 -1.0751 -0.0426 -0.6002
  697MPD2    C110303   1.610   0.971  15.676 -0.0758 -0.4643  0.2167
  697MPD2    C210304   1.667   1.070  15.599  0.0482 -0.2896  0.8251
  697MPD2    C310305   1.774   1.139  15.661 -1.2169  0.0295  0.1982
  697MPD2    C410306   1.830   1.093  15.778  0.4497  0.0079  0.2973
  697MPD2    C510307   1.781   0.982  15.838  0.7263 -0.3153  0.4125
  697MPD2     H10308   1.627   1.088  15.500  3.5174 -2.5603 -0.9414
  697MPD2    H110309   1.904   1.145  15.838 -0.6809  2.7435 -0.6952
  697MPD2    H210310   1.628   0.835  15.833 -1.2606 -0.1879 -1.0278
  697MPD2    H310311   1.819   0.943  15.931 -0.4503 -3.8528 -0.5809
  697MPD2     N10312   1.828   1.247  15.594  0.2565 -0.0535  0.1424
  697MPD2    H510313   1.774   1.268  15.511 -0.2794 -0.6891  0.3313
  697MPD2    N110314   1.503   0.911  15.608 -0.4863  0.5804  0.7816
  697MPD2    H710315   1.491   0.944  15.513  0.6064 -0.7322  0.1845
  698TMC3    C110316   1.976   1.415  15.540 -0.2027  0.4150  0.1805
  698TMC3    C210317   2.062   1.514  15.578  0.4230  0.3881 -0.1650
  698TMC3    C310318   2.116   1.594  15.480 -0.1296  0.0648 -0.4240
  698TMC3    C410319   1.952   1.395  15.407  0.8732 -0.1895  0.1252
  698TMC3    C510320   2.014   1.477  15.309  0.5045 -0.4676 -0.6622
  698TMC3    C610321   2.108   1.572  15.346 -0.8651 -0.3708 -1.1564
  698TMC3     C10322   1.927   1.330  15.641 -0.1523  0.3491  0.2886
  698TMC3     O10323   1.982   1.334  15.752  0.0990  0.3710 -0.1778
  698TMC3     H10324   2.065   1.531  15.685 -1.6366 -1.5292  0.1849
  698TMC3    H110325   1.889   1.315  15.370  1.4711 -1.8781  2.7359
  698TMC3    H210326   2.164   1.636  15.278 -0.3169 -0.3746 -0.6996
  698TMC3    C710327   1.948   1.481  15.182  0.6635 -0.3511 -1.0852
  698TMC3    C810328   2.249   1.628  15.534 -0.5310  0.4062  0.4189
  698TMC3    O110329   1.834   1.441  15.181 -0.3423 -0.1295 -0.1805
  698TMC3    O210330   2.293   1.576  15.629  0.0919  0.2367  0.0735
  699TMC3    C110331   1.080   4.336  12.950 -0.2534  0.4835  1.0294
  699TMC3    C210332   1.149   4.237  13.014 -0.3619  0.8554 -0.0322
  699TMC3    C310333   1.080   4.134  13.071  1.4417  0.1633 -0.2344
  699TMC3    C410334   0.946   4.327  12.940 -0.2362  0.2280  0.8286
  699TMC3    C510335   0.882   4.225  13.003 -0.1176 -0.1921 -0.4270
  699TMC3    C610336   0.942   4.126  13.073 -0.0948  0.0659  0.8378
  699TMC3     C10337   1.130   4.463  12.924 -0.1899 -0.3613  0.1219
  699TMC3     O10338   1.084   4.529  12.834 -0.4018  0.2342  0.0263
  699TMC3     H10339   1.257   4.243  13.005 -0.4698  0.2074 -1.6684
  699TMC3    H110340   0.893   4.405  12.887  0.3378  0.2466  0.2780
  699TMC3    H210341   0.880   4.049  13.118 -0.1854  0.5065  1.4664
  699TMC3    C710342   0.743   4.216  12.960  0.3103 -1.0237  0.4352
  699TMC3    C810343   1.159   4.026  13.129 -0.3488  0.1802 -0.0922
  699TMC3    O110344   0.667   4.313  12.965 -0.2879 -0.2437 -0.4553
  699TMC3    O210345   1.096   3.954  13.203  0.2394  0.5215  0.3495
  700TMC3    C110346   1.037   1.427  17.299  0.0343  0.4429  1.3032
  700TMC3    C210347   1.125   1.331  17.258 -0.4817  0.0565 -0.1652
  700TMC3    C310348   1.253   1.338  17.302  0.0183 -0.6896  0.7249
  700TMC3    C410349   1.078   1.529  17.380 -0.0730 -0.1674 -0.5925
  700TMC3    C510350   1.207   1.536  17.425  0.3896  0.0041 -0.3860
  700TMC3    C610351   1.296   1.438  17.388  0.0116 -0.2787  0.1162
  700TMC3     C10352   0.932   1.460  17.194 -0.1147 -0.0111 -0.3658
  700TMC3     O10353   0.857   1.371  17.155 -0.0198 -0.2633 -0.3102
  700TMC3     H10354   1.103   1.251  17.188 -2.1536  0.2399  0.1473
  700TMC3    H110355   1.015   1.616  17.398 -0.8048 -1.1345  1.4057
  700TMC3    H210356   1.403   1.433  17.408  0.1256  0.8745 -0.2293
  700TMC3    C710357   1.262   1.671  17.439  0.2051  0.6014 -0.0494
  700TMC3    C810358   1.340   1.225  17.270 -0.0737  0.1795 -0.2234
  700TMC3    O110359   1.219   1.755  17.359  0.1426 -0.3732  0.1871
  700TMC3    O210360   1.414   1.173  17.354  0.5419 -0.5205  0.4981
  701TMC3    C110361   0.601   0.617  15.580 -0.3781  0.4558 -0.5495
  701TMC3    C210362   0.615   0.590  15.449 -0.4687  0.3375  0.2161
  701TMC3    C310363   0.729   0.623  15.380  0.1080 -0.3991  0.1091
  701TMC3    C410364   0.703   0.682  15.642  0.3986  0.4176  0.0129
  701TMC3    C510365   0.815   0.722  15.572  0.3415 -0.2210  0.1014
  701TMC3    C610366   0.827   0.700  15.440  0.2445 -0.3259 -0.2403
  701TMC3     C10367   0.504   0.539  15.661 -0.5809 -0.4349 -0.0945
  701TMC3     O10368   0.493   0.560  15.780  0.0538 -0.2056 -0.0891
  701TMC3     H10369   0.531   0.544  15.398 -1.3789 -0.1841  2.1815
  701TMC3    H110370   0.697   0.696  15.749  1.8877  0.3568  0.1000
  701TMC3    H210371   0.911   0.736  15.383  1.8149 -2.2052  0.8815
  701TMC3    C710372   0.889   0.836  15.617 -0.0396  0.4377 -0.3550
  701TMC3    C810373   0.738   0.607  15.242  0.1427  0.3591 -0.1960
  701TMC3    O110374   0.953   0.905  15.539  0.2831  0.0559  0.5321
  701TMC3    O210375   0.851   0.594  15.194  0.7553  0.6126  0.4441
  702MPD2     C10376   4.308   2.788  10.228 -0.0571  0.4242 -0.4529
  702MPD2    C110377   4.303   2.894  10.318  0.2673  0.7453 -0.2379
  702MPD2    C210378   4.395   2.989  10.306 -0.3864  0.9656 -0.5357
  702MPD2    C310379   4.494   2.989  10.210  0.2770  0.0854 -0.5256
  702MPD2    C410380   4.488   2.887  10.113 -0.1322  0.1665  0.1130
  702MPD2    C510381   4.393   2.792  10.121 -0.4177  0.2806  0.2042
  702MPD2     H10382   4.388   3.069  10.378 -0.4704  1.0642 -0.6554
  702MPD2    H110383   4.554   2.870  10.029 -1.2902  1.1576 -1.0015
  702MPD2    H210384   4.240   2.704  10.240  0.5275  0.0785  0.4831
  702MPD2    H310385   4.394   2.717  10.043  0.1454 -0.6069  1.0644
  702MPD2     N10386   4.594   3.081  10.217  0.7570 -0.1976 -0.6963
  702MPD2    H510387   4.586   3.160  10.280  0.7527 -1.3573  0.7341
  702MPD2    N110388   4.220   2.897  10.432  0.4513  0.1813  0.3637
  702MPD2    H710389   4.230   2.980  10.490 -0.1679  1.1697 -0.9106
  703TMC3    C110390   0.040   3.212  10.156  0.6231 -0.1419  0.5934
  703TMC3    C210391   4.701   3.315  10.216  0.6352 -0.7826 -0.3440
  703TMC3    C310392   0.047   3.433  10.235 -0.4336 -0.4264 -0.1533
  703TMC3    C410393   0.176   3.211  10.132  0.0724 -0.6854  0.0105
  703TMC3    C510394   0.238   3.331  10.146 -0.0369 -0.0925 -1.0967
  703TMC3    C610395   0.174   3.448  10.189  0.0663  0.3990  0.0387
  703TMC3     C10396   4.695   3.087  10.132 -0.1550 -0.2020  0.4033
  703TMC3     O10397   0.021   3.008  10.052  1.0081  0.0384  0.1637
  703TMC3     H10398   4.594   3.312  10.234  0.7805 -3.1548  0.1797
  703TMC3    H110399   0.238   3.124  10.113 -0.0651 -0.4225 -1.6418
  703TMC3    H210400   0.227   3.542  10.192 -2.5556  1.8152  0.9163
  703TMC3    C710401   0.382   3.342  10.135 -0.1019 -0.0995  0.0140
  703TMC3    C810402   4.720   3.546  10.317 -0.4743 -0.0325  0.9121
  703TMC3    O110403   0.422   3.452  10.101  0.1319  0.9497  0.2373
  703TMC3    O210404   0.060   3.650  10.311 -0.4486 -0.3459 -0.3886
  704TMC3    C110405   2.120   1.127  12.216  0.3938  0.1582  0.6292
  704TMC3    C210406   2.242   1.167  12.261 -0.0159  0.8997 -0.6244
  704TMC3    C310407   2.296   1.110  12.375 -0.1335 -0.0542 -0.6936
  704TMC3    C410408   2.049   1.028  12.279  0.2751 -0.4119  1.3036
  704TMC3    C510409   2.109   0.955  12.381  0.4014 -0.2502 -0.0003
  704TMC3    C610410   2.227   1.002  12.436  0.0437 -0.6952 -0.2498
  704TMC3     C10411   2.082   1.148  12.077  0.0799  0.7175 -0.2426
  704TMC3     O10412   1.964   1.157  12.056 -0.6499 -1.0383  0.6580
  704TMC3     H10413   2.306   1.235  12.205  1.7610 -0.8916 -0.7486
  704TMC3    H110414   1.949   1.012  12.241  0.5631  0.0384  0.3538
  704TMC3    H210415   2.282   0.943  12.508 -0.3472  0.9324  1.3864
  704TMC3    C710416   2.134   0.822  12.329  0.5849  0.0841  0.9165
  704TMC3    C810417   2.422   1.160  12.428  0.4088 -0.6349 -0.9174
  704TMC3    O110418   2.219   0.757  12.387 -0.2936  0.2529 -0.0533
  704TMC3    O210419   2.500   1.210  12.344  0.2877 -0.0592 -0.1268
  705MPD2     C10420   1.855   3.992  16.597 -0.3738 -0.5358  0.0186
  705MPD2    C110421   1.827   4.079  16.498 -0.5736 -0.0289 -0.3708
  705MPD2    C210422   1.702   4.146  16.505 -0.5732 -0.0159 -0.1165
  705MPD2    C310423   1.619   4.138  16.612 -0.5377  0.2647  0.5402
  705MPD2    C410424   1.656   4.047  16.707 -1.1909  0.4162 -0.0410
  705MPD2    C510425   1.776   3.978  16.706  0.3092  0.7113  0.4938
  705MPD2     H10426   1.679   4.204  16.417  0.9323  1.9408  0.7945
  705MPD2    H110427   1.579   4.013  16.775  0.0762  1.2683  1.8308
  705MPD2    H210428   1.946   3.933  16.606  1.0276  2.0338  2.3755
  705MPD2    H310429   1.804   3.895  16.770  0.5759  0.9999  0.7461
  705MPD2     N10430   1.500   4.219  16.617  0.6706  0.5757 -0.2903
  705MPD2    H510431   1.465   4.275  16.540 -0.8640  0.9926  0.7148
  705MPD2    N110432   1.903   4.090  16.380 -0.7324  1.2185  0.3400
  705MPD2    H710433   1.879   4.145  16.298 -1.7420  0.4063  0.0941
  706TMC3    C110434   2.221   4.009  16.057 -0.0144  0.0522  0.0411
  706TMC3    C210435   2.198   4.126  15.994 -0.2670 -0.4536  0.4966
  706TMC3    C310436   2.123   4.217  16.061  0.9301  0.3931  0.0956
  706TMC3    C410437   2.178   3.981  16.183 -0.1850  0.0451  0.2642
  706TMC3    C510438   2.095   4.073  16.241 -0.4214 -0.2963 -0.3836
  706TMC3    C610439   2.062   4.192  16.183 -1.2063  0.6119 -0.5189
  706TMC3     C10440   2.323   3.924  16.008  1.2814 -0.3891  0.2274
  706TMC3     O10441   2.382   3.849  16.081 -0.3047 -0.3743  0.1037
  706TMC3     H10442   2.256   4.164  15.911  1.9558  0.1134  2.3088
  706TMC3    H110443   2.197   3.885  16.231  1.1945  1.2964  2.2405
  706TMC3    H210444   2.002   4.268  16.231 -2.3753 -1.0490  0.6680
  706TMC3    C710445   2.026   4.029  16.361  0.0855 -0.2638 -0.0827
  706TMC3    C810446   2.125   4.351  16.004 -0.0333  0.5702 -0.5162
  706TMC3    O110447   2.082   3.949  16.430  0.2304 -0.2479  0.7196
  706TMC3    O210448   2.139   4.364  15.883 -0.0152  0.8829  0.0690
  707TMC3    C110449   3.820   4.005   0.976 -0.2951  0.2894  0.5467
  707TMC3    C210450   3.756   3.886   0.982 -0.6588  0.8716 -0.3453
  707TMC3    C310451   3.644   3.873   0.894  0.3824  0.6020 -0.4803
  707TMC3    C410452   3.792   4.102   0.876  0.8385 -0.3681  0.3744
  707TMC3    C510453   3.697   4.080   0.790 -0.4738  0.1516  0.3466
  707TMC3    C610454   3.618   3.966   0.796  0.4542  0.2508 -0.5403
  707TMC3     C10455   3.930   4.016   1.067 -0.6721  0.3999 -0.0393
  707TMC3     O10456   3.930   3.939   1.160  0.1668 -0.2607  0.8627
  707TMC3     H10457   3.776   3.816   1.062  1.1771 -1.1714 -2.5805
  707TMC3    H110458   3.837   4.200   0.883  0.6818 -0.3271  0.8345
  707TMC3    H210459   3.528   3.949   0.739  0.8725 -0.9669 -0.8578
  707TMC3    C710460   3.635   4.191   0.719  0.3458 -0.6222 -0.4401
  707TMC3    C810461   3.600   3.739   0.862 -0.3587  0.1932  0.4279
  707TMC3    O110462   3.515   4.174   0.692  0.4083  0.2133 -0.2618
  707TMC3    O210463   3.556   3.706   0.750 -0.0828 -0.4573  0.5291
  708MPD2     C10464   0.556   2.931  13.319 -0.2075  0.7254  0.3166
  708MPD2    C110465   0.503   3.000  13.425  0.0145  0.1795  0.4792
  708MPD2    C210466   0.564   2.992  13.552  0.4631  0.6611  0.0614
  708MPD2    C310467   0.666   2.900  13.572  0.2304  0.2891 -0.2440
  708MPD2    C410468   0.706   2.825  13.464 -0.1483  0.4487  0.5461
  708MPD2    C510469   0.652   2.843  13.339  0.8341 -0.6706  0.5640
  708MPD2     H10470   0.516   3.024  13.644 -0.3131  0.2296 -0.1974
  708MPD2    H110471   0.785   2.751  13.477  0.7848  1.3449 -0.0421
  708MPD2    H210472   0.506   2.927  13.223 -0.1480  0.4447  0.2996
  708MPD2    H310473   0.685   2.773  13.264  2.9918  1.3702 -0.3640
  708MPD2     N10474   0.724   2.875  13.697  0.0803  0.4244  0.1843
  708MPD2    H510475   0.771   2.786  13.710  0.8420  1.0301  1.6657
  708MPD2    N110476   0.393   3.077  13.401  0.6216  0.1296  0.2955
  708MPD2    H710477   0.357   3.086  13.306 -2.5882 -2.7018  1.2198
  709TMC3    C110478   0.192   3.149  13.497  0.4834 -0.1533 -0.2049
  709TMC3    C210479   0.133   3.069  13.402 -0.2059  0.2013  0.3015
  709TMC3    C310480   0.007   3.017  13.424  0.1078 -0.4353  0.7306
  709TMC3    C410481   0.130   3.167  13.621 -0.0267 -0.4863  0.0394
  709TMC3    C510482   0.024   3.089  13.646  0.5032 -0.7440  0.1924
  709TMC3    C610483   4.680   3.026  13.549  0.2245 -0.1297  0.6255
  709TMC3     C10484   0.338   3.162  13.503 -0.5665  0.7067 -0.0809
  709TMC3     O10485   0.384   3.213  13.603  0.0390 -0.4177  0.3295
  709TMC3     H10486   0.169   3.053  13.301 -0.9088  0.8471 -0.0507
  709TMC3    H110487   0.174   3.238  13.689 -1.6360  0.4359  0.1222
  709TMC3    H210488   4.585   2.979  13.572  0.4458 -1.0355 -0.3008
  709TMC3    C710489   0.059   3.004  13.758 -0.4774 -0.3588 -0.0718
  709TMC3    C810490   4.712   2.885  13.365 -0.2213  0.1339 -0.3074
  709TMC3    O110491   0.132   3.060  13.840 -0.2713  0.3895  0.2374
  709TMC3    O210492   4.656   2.802  13.440 -0.0778  0.5011  0.1019
  710TMC3    C110493   1.278   4.215   0.932 -0.5634  0.3414  0.2739
  710TMC3    C210494   1.322   4.157   0.818  0.3242 -0.0309  0.1159
  710TMC3    C310495   1.432   4.079   0.826  0.6907  0.3523  0.3878
  710TMC3    C410496   1.329   4.186   1.055 -0.2081  0.0420  0.6636
  710TMC3    C510497   1.432   4.105   1.057  0.1312  0.4423  0.4866
  710TMC3    C610498   1.490   4.051   0.944  0.2432 -0.5990 -0.3755
  710TMC3     C10499   1.193   4.329   0.920 -0.1874 -0.4709 -0.6304
  710TMC3     O10500   1.134   4.346   0.810  0.2639  0.7107  0.5296
  710TMC3     H10501   1.287   4.197   0.723 -0.7235  0.6744  0.8028
  710TMC3    H110502   1.290   4.216   1.152  1.0403  2.0084  0.5518
  710TMC3    H210503   1.583   3.997   0.955  1.3794  1.4274 -0.1046
  710TMC3    C710504   1.467   4.050   1.189  0.0648 -0.7934 -0.9420
  710TMC3    C810505   1.485   4.017   0.707  0.9193 -0.3054 -0.1591
  710TMC3    O110506   1.380   4.047   1.273  0.0590 -0.0818  0.7093
  710TMC3    O210507   1.607   4.011   0.691 -0.0679  0.4037 -0.5516
  711TMC3    C110508   1.039   4.704  15.160  0.2067 -0.6451  0.5227
  711TMC3    C210509   1.097   0.096  15.188 -0.3039  0.4337 -0.1328
  711TMC3    C310510   1.202   0.090  15.277  0.2654 -0.4077  0.4088
  711TMC3    C410511   1.080   4.583  15.205 -0.1414 -0.3079  0.4832
  711TMC3    C510512   1.180   4.584  15.301  0.1377  0.2051 -0.0736
  711TMC3    C610513   1.250   4.699  15.330 -0.1611 -1.0842 -0.0340
  711TMC3     C10514   0.932   4.708  15.069  0.3177 -0.0010  0.7714
  711TMC3     O10515   0.836   4.636  15.088  0.5503  0.0867 -0.6695
  711TMC3     H10516   1.057   0.192  15.156  0.8690  0.1629 -2.4188
  711TMC3    H110517   1.018   4.495  15.189 -1.6627  0.7266  0.7219
  711TMC3    H210518   1.327   4.701  15.406  1.1454 -0.0000 -1.3842
  711TMC3    C710519   1.232   4.466  15.368 -0.3401 -0.3243 -0.9059
  711TMC3    C810520   1.275   0.219  15.278  0.1277  0.2505  0.7048
  711TMC3    O110521   1.350   4.465  15.406 -0.1732 -0.0495 -0.6775
  711TMC3    O210522   1.216   0.316  15.239 -0.1209  0.0379 -0.2133
  712MPD2     C10523   2.858   1.193  14.195  0.1518 -1.2291 -0.1014
  712MPD2    C110524   2.755   1.195  14.097  0.3259 -0.3527 -0.2571
  712MPD2    C210525   2.760   1.291  14.004 -0.0526 -0.2427 -0.4772
  712MPD2    C310526   2.865   1.382  14.006  0.2183 -0.0156  0.2823
  712MPD2    C410527   2.970   1.375  14.099  0.1906  1.1581 -0.3037
  712MPD2    C510528   2.967   1.272  14.193  0.8438  0.1240  0.0687
  712MPD2     H10529   2.686   1.289  13.925 -0.0386 -2.2257 -0.4387
  712MPD2    H110530   3.053   1.445  14.098  1.9581 -0.9305 -0.4724
  712MPD2    H210531   2.849   1.124  14.279 -1.0039 -0.9442  0.0169
  712MPD2    H310532   3.036   1.260  14.276  2.0568 -1.4834 -1.1730
  712MPD2     N10533   2.873   1.492  13.920 -0.4496 -0.3574 -0.2341
  712MPD2    H510534   2.943   1.562  13.942  1.5121 -2.1205 -0.8219
  712MPD2    N110535   2.648   1.105  14.101  0.0354  0.3045  0.1667
  712MPD2    H710536   2.572   1.128  14.038 -0.2310 -2.2488 -0.4529
  713TMC3    C110537   2.798   1.658  13.780 -0.2398 -0.1591 -0.4965
  713TMC3    C210538   2.931   1.699  13.756  0.0471  0.4144  0.1539
  713TMC3    C310539   2.940   1.807  13.671 -0.5256  0.6140 -0.2256
  713TMC3    C410540   2.687   1.735  13.734 -0.1293  0.0692 -1.3043
  713TMC3    C510541   2.710   1.835  13.646 -0.7858 -0.0844 -0.3640
  713TMC3    C610542   2.835   1.867  13.602 -0.1535 -0.1292  0.0733
  713TMC3     C10543   2.768   1.528  13.841  0.3807 -0.0455  0.0018
  713TMC3     O10544   2.660   1.476  13.815  0.6176 -0.8056 -0.2677
  713TMC3     H10545   3.017   1.643  13.791 -1.3592 -0.6628  1.8604
  713TMC3    H110546   2.590   1.708  13.774  1.2033 -1.4325  0.9261
  713TMC3    H210547   2.857   1.944  13.529 -0.9889 -0.7115 -0.7862
  713TMC3    C710548   2.598   1.877  13.557 -0.1999 -0.9279 -0.0686
  713TMC3    C810549   3.066   1.878  13.671  0.6327  0.1684  0.7208
  713TMC3    O110550   2.490   1.816  13.565  0.5722 -0.5669  0.3746
  713TMC3    O210551   3.074   1.963  13.584  0.2123  0.3722  0.2019
  714MPD2     C10552   0.551   0.148   0.960 -0.4656 -0.3175 -0.0753
  714MPD2    C110553   0.440   0.181   1.046  0.0099 -1.1214 -0.4537
  714MPD2    C210554   0.331   0.258   0.986 -0.4764  0.8600 -0.7973
  714MPD2    C310555   0.345   0.303   0.856 -1.0378 -0.0425  1.2950
  714MPD2    C410556   0.461   0.270   0.784  0.3212 -0.2494  1.1638
  714MPD2    C510557   0.563   0.194   0.836 -0.2148  0.5190 -0.5045
  714MPD2     H10558   0.242   0.274   1.045  0.0972  1.9942 -0.2615
  714MPD2    H110559   0.480   0.320   0.690  0.2845 -1.0940  0.7090
  714MPD2    H210560   0.630   0.087   1.004 -1.0180  1.2919  3.1223
  714MPD2    H310561   0.652   0.171   0.778  0.5224  1.4038  0.2726
  714MPD2     N10562   0.236   0.376   0.801 -0.3335 -0.4064 -0.0784
  714MPD2    H510563   0.161   0.394   0.866  0.2430  2.8463 -0.3187
  714MPD2    N110564   0.434   0.134   1.180 -0.6475  0.3839 -0.2493
  714MPD2    H710565   0.512   0.079   1.214 -0.1678  0.6985 -0.8425
  715TMC3    C110566   0.334   0.078   1.381  0.7541 -0.2562 -0.5835
  715TMC3    C210567   0.390   4.677   1.363  0.2379 -1.4470 -0.2346
  715TMC3    C310568   0.414   4.606   1.482 -0.3315 -0.3624  0.7109
  715TMC3    C410569   0.316   0.136   1.499 -0.3060  0.1208 -0.3150
  715TMC3    C510570   0.346   0.069   1.609  0.0482  0.2223 -0.3308
  715TMC3    C610571   0.391   4.661   1.604  0.3751 -0.8526 -0.4126
  715TMC3     C10572   0.334   0.174   1.274 -0.3052 -0.5618  0.7859
  715TMC3     O10573   0.230   0.241   1.267 -0.3497 -0.1075  0.0368
  715TMC3     H10574   0.402   4.621   1.271 -0.1266 -1.9401  0.0193
  715TMC3    H110575   0.291   0.241   1.514  0.1356  0.1194  0.4173
  715TMC3    H210576   0.406   4.610   1.698 -0.2166 -0.4915 -0.1220
  715TMC3    C710577   0.344   0.127   1.743  0.7480  0.3757  0.4633
  715TMC3    C810578   0.449   4.461   1.471  0.0917  0.5655 -0.2045
  715TMC3    O110579   0.398   0.063   1.834 -0.2825  0.1285  1.1067
  715TMC3    O210580   0.469   4.425   1.356 -0.7360  0.4927  0.4725
  716MPD2     C10581   0.371   2.490   9.819  0.1302  0.4088  0.2625
  716MPD2    C110582   0.347   2.381   9.735 -0.3487  0.6503 -0.1055
  716MPD2    C210583   0.395   2.260   9.777  0.6065  0.2252 -0.1941
  716MPD2    C310584   0.469   2.242   9.888  0.0093 -0.4065  0.0998
  716MPD2    C410585   0.495   2.354   9.972  0.0222 -0.4315  0.3392
  716MPD2    C510586   0.445   2.474   9.935  0.1296 -0.2171  0.0303
  716MPD2     H10587   0.374   2.175   9.713  0.2016 -0.8162  1.3338
  716MPD2    H110588   0.547   2.344  10.067  2.0748 -0.8222 -0.8301
  716MPD2    H210589   0.339   2.590   9.789 -3.0322 -1.4448 -2.6881
  716MPD2    H310590   0.453   2.565   9.992  0.9856 -1.0617  1.2626
  716MPD2     N10591   0.517   2.114   9.913 -0.3504  0.6943  0.1882
  716MPD2    H510592   0.486   2.045   9.846  1.5733 -0.6785  0.7184
  716MPD2    N110593   0.285   2.401   9.609 -0.6166  0.4300 -0.1074
  716MPD2    H710594   0.254   2.496   9.591 -1.9798 -0.3521 -1.8553
  717TMC3    C110595   0.594   1.930  10.038 -0.3814  0.2281  0.3569
  717TMC3    C210596   0.625   1.851   9.926  0.0015 -0.1948  0.1097
  717TMC3    C310597   0.594   1.721   9.927  0.0965  0.0148 -0.6528
  717TMC3    C410598   0.543   1.868  10.152  0.4444 -0.3571 -0.1449
  717TMC3    C510599   0.527   1.737  10.151 -0.2254  0.6340  0.5241
  717TMC3    C610600   0.538   1.662  10.038 -0.3149  0.1428 -0.3612
  717TMC3     C10601   0.573   2.074  10.028  0.1306 -0.4737  0.0650
  717TMC3     O10602   0.578   2.138  10.130 -0.2857 -0.1309 -0.9601
  717TMC3     H10603   0.638   1.914   9.839 -1.8846  0.0171 -0.0161
  717TMC3    H110604   0.536   1.940  10.232  0.3928 -0.0207 -0.4502
  717TMC3    H210605   0.531   1.554  10.034  3.4817 -0.0558 -1.5156
  717TMC3    C710606   0.487   1.662  10.270  0.0102  0.0287  0.0433
  717TMC3    C810607   0.583   1.655   9.800  0.2868  0.4681  0.0842
  717TMC3    O110608   0.425   1.562  10.249 -0.1762  1.0222 -0.7165
  717TMC3    O210609   0.495   1.573   9.783  0.4327 -0.3067 -0.0755
  718MPD2     C10610   4.027   1.635  12.721 -0.4220  0.4056  0.1722
  718MPD2    C110611   4.078   1.514  12.760 -0.6066  0.4741  0.4590
  718MPD2    C210612   4.065   1.466  12.889 -0.0493 -0.0582 -0.2159
  718MPD2    C310613   4.018   1.552  12.985  0.1499  0.7497 -0.0355
  718MPD2    C410614   3.964   1.671  12.949  0.5703 -0.3978  0.1022
  718MPD2    C510615   3.958   1.712  12.818  1.0369 -0.4388 -0.3336
  718MPD2     H10616   4.094   1.366  12.919  0.3480  0.4383  1.0759
  718MPD2    H110617   3.912   1.743  13.012 -0.0049 -0.2243 -0.5637
  718MPD2    H210618   4.043   1.675  12.622  1.8316 -0.7656  0.0610
  718MPD2    H310619   3.910   1.804  12.787  2.6801  1.6191  3.1904
  718MPD2     N10620   4.018   1.500  13.118  0.0532 -0.0577  0.1391
  718MPD2    H510621   4.035   1.400  13.121  2.5071  0.4030  1.7991
  718MPD2    N110622   4.142   1.437  12.659  0.7871  0.0867  0.2368
  718MPD2    H710623   4.150   1.479  12.567  1.0160  1.1990  0.7734
  719TMC3    C110624   4.258   1.258  12.563 -0.2799 -0.8375  0.4960
  719TMC3    C210625   4.300   1.133  12.601 -0.3764  0.6798  1.0842
  719TMC3    C310626   4.434   1.104  12.611  0.2441  0.4939 -0.2762
  719TMC3    C410627   4.344   1.346  12.511  0.6886  1.0740  0.3178
  719TMC3    C510628   4.478   1.324  12.521  0.0805 -0.3747 -0.4753
  719TMC3    C610629   4.523   1.201  12.570  0.5599  0.4997 -0.4665
  719TMC3     C10630   4.180   1.307  12.672 -0.0307 -0.0229 -0.3191
  719TMC3     O10631   4.180   1.228  12.767  0.1418 -0.0374 -0.6359
  719TMC3     H10632   4.233   1.054  12.632 -0.1907 -0.4513 -1.4070
  719TMC3    H110633   4.305   1.433  12.459  1.4430  1.0516 -0.2821
  719TMC3    H210634   4.626   1.182  12.598  0.0020 -0.9011  0.6045
  719TMC3    C710635   4.556   1.403  12.430  0.3936  0.2575  0.9644
  719TMC3    C810636   4.466   1.035  12.736 -0.3847  0.1465  0.0326
  719TMC3    O110637   4.500   1.488  12.359 -0.6709 -0.5624 -0.6001
  719TMC3    O210638   4.584   1.007  12.753 -0.0382 -0.1695 -0.4376
  720MPD2     C10639   2.865   3.227  14.337 -0.1497  0.4495  0.1407
  720MPD2    C110640   2.925   3.189  14.216  0.1170  0.1449  0.1070
  720MPD2    C210641   3.064   3.158  14.216 -0.0256  0.6300  0.7250
  720MPD2    C310642   3.142   3.169  14.329  0.2030  0.2223 -0.6324
  720MPD2    C410643   3.074   3.200  14.447  0.2878  0.4755 -0.5008
  720MPD2    C510644   2.938   3.230  14.451 -0.7751 -0.1026  0.1767
  720MPD2     H10645   3.102   3.129  14.118 -1.7471 -1.7417  0.7736
  720MPD2    H110646   3.126   3.200  14.542  1.8250 -1.5513 -1.3254
  720MPD2    H210647   2.768   3.275  14.352  0.0020  0.8264 -0.0817
  720MPD2    H310648   2.885   3.273  14.535 -2.5285 -0.0237 -0.9931
  720MPD2     N10649   3.279   3.145  14.313  0.6289 -0.3531  0.6658
  720MPD2    H510650   3.315   3.119  14.221 -0.3876  0.6678 -0.0267
  720MPD2    N110651   2.852   3.188  14.098  0.1580 -0.5906  0.6927
  720MPD2    H710652   2.905   3.170  14.013  3.3863  1.4396  2.2749
  721TMC3    C110653   3.488   3.077  14.394 -0.4067  0.3824  0.7992
  721TMC3    C210654   3.535   3.022  14.508  0.0575 -0.4472  0.1849
  721TMC3    C310655   3.637   2.929  14.493  0.3133  0.8611 -0.2960
  721TMC3    C410656   3.542   3.056  14.269 -0.3235 -0.2765  0.2510
  721TMC3    C510657   3.644   2.962  14.262  0.3045 -0.2072  0.2274
  721TMC3    C610658   3.686   2.896  14.374  0.1645  0.1211  0.1919
  721TMC3     C10659   3.371   3.162  14.409  1.2667  0.3705 -0.2357
  721TMC3     O10660   3.356   3.223  14.516 -0.0911  0.4217  0.0509
  721TMC3     H10661   3.487   3.041  14.603  0.1475  0.0562  0.1279
  721TMC3    H110662   3.524   3.128  14.190 -0.4158 -0.3098  0.2421
  721TMC3    H210663   3.778   2.839  14.372 -0.6713 -1.2502  1.8178
  721TMC3    C710664   3.742   2.986  14.161  0.4253 -0.0741  0.1184
  721TMC3    C810665   3.692   2.858  14.613 -0.5486  0.6821 -0.3061
  721TMC3    O110666   3.742   3.092  14.102  0.2180 -0.2846  0.2536
  721TMC3    O210667   3.794   2.797  14.597  0.5355 -0.0753  0.4062
  722MPD2     C10668   1.582   1.717  13.526  0.3239  0.0934  0.4701
  722MPD2    C110669   1.539   1.781  13.409 -0.4790  0.4171 -0.3043
  722MPD2    C210670   1.410   1.770  13.365 -0.1313  0.1879  0.8093
  722MPD2    C310671   1.326   1.688  13.435  0.1255 -0.8234 -0.5721
  722MPD2    C410672   1.373   1.618  13.544 -0.5639  0.0515  0.4223
  722MPD2    C510673   1.503   1.625  13.583  0.8715 -0.4835 -0.3332
  722MPD2     H10674   1.377   1.834  13.284  1.2565 -1.6447 -1.2056
  722MPD2    H110675   1.314   1.548  13.601 -0.7553 -0.6028 -0.5794
  722MPD2    H210676   1.680   1.735  13.567  0.0102  0.5346  1.0238
  722MPD2    H310677   1.529   1.567  13.671 -1.8498 -0.6089  0.4074
  722MPD2     N10678   1.185   1.697  13.408  0.1802 -0.2709  0.0973
  722MPD2    H510679   1.168   1.751  13.323  2.1452  2.2983  1.3606
  722MPD2    N110680   1.627   1.871  13.338  0.4973 -0.1206 -1.2186
  722MPD2    H710681   1.599   1.907  13.248  0.1934 -0.2340 -1.1693
  723TMC3    C110682   0.954   1.674  13.409 -0.0399  0.5119 -0.0735
  723TMC3    C210683   0.857   1.584  13.417 -0.1584  0.2491 -0.1554
  723TMC3    C310684   0.735   1.621  13.382  0.1968 -0.4377 -0.0512
  723TMC3    C410685   0.935   1.801  13.360  0.3233  0.0068 -0.1831
  723TMC3    C510686   0.805   1.828  13.321 -0.1492 -0.5479 -0.0961
  723TMC3    C610687   0.696   1.738  13.327 -0.5421  0.0510  0.2920
  723TMC3     C10688   1.079   1.645  13.476  0.0626 -0.3918  0.1262
  723TMC3     O10689   1.082   1.567  13.572 -0.0217 -0.3377  0.2513
  723TMC3     H10690   0.869   1.501  13.485  0.1036  1.3921  1.2161
  723TMC3    H110691   1.006   1.883  13.366 -1.1794  1.3802 -0.9866
  723TMC3    H210692   0.592   1.767  13.321 -0.9263 -1.4758 -0.3591
  723TMC3    C710693   0.787   1.957  13.259  0.0168 -0.5573 -0.3786
  723TMC3    C810694   0.633   1.525  13.361  0.5963 -0.7878  0.2493
  723TMC3    O110695   0.859   2.055  13.279 -0.5412 -0.2809  0.5565
  723TMC3    O210696   0.518   1.556  13.394  0.2804  0.1811 -0.3249
  724TMC3    C110697   1.671   0.018   9.509  0.6361 -0.2563 -0.5341
  724TMC3    C210698   1.693   0.147   9.519  0.1131  0.0201 -0.4617
  724TMC3    C310699   1.792   0.198   9.607  0.2983  0.7147  0.2259
  724TMC3    C410700   1.758   4.656   9.576  0.4644  0.1883  0.0051
  724TMC3    C510701   1.863   4.705   9.647  0.1740 -0.2753  0.0241
  724TMC3    C610702   1.885   0.113   9.664 -0.5177  0.0448 -0.0369
  724TMC3     C10703   1.544   4.684   9.477  0.8238 -0.7373 -0.3599
  724TMC3     O10704   1.532   4.562   9.497  0.0417  0.3871  0.4736
  724TMC3     H10705   1.600   0.202   9.529  0.7965  1.2660 -1.0082
  724TMC3    H110706   1.737   4.550   9.566  0.8494  0.3111 -2.0461
  724TMC3    H210707   1.975   0.144   9.716 -1.1829  2.4405 -0.3174
  724TMC3    C710708   1.971   4.615   9.684  0.7026  0.5408  0.2462
  724TMC3    C810709   1.836   0.335   9.584  0.1006 -0.1305  0.2030
  724TMC3    O110710   2.084   4.661   9.705  0.8364 -0.1049  0.4280
  724TMC3    O210711   1.921   0.379   9.659  0.3842 -0.1755  0.0222
  725TMC3    C110712   3.126   3.357  12.938 -1.0697  0.1775 -0.4149
  725TMC3    C210713   3.161   3.388  12.804  0.1173 -0.7974  0.4128
  725TMC3    C310714   3.173   3.284  12.719 -0.5297  0.0535  1.4330
  725TMC3    C410715   3.104   3.227  12.987  0.5822 -0.2757  0.1244
  725TMC3    C510716   3.118   3.126  12.892  0.3328 -0.1592  0.3486
  725TMC3    C610717   3.160   3.156  12.766 -0.3892 -0.9032 -0.2152
  725TMC3     C10718   3.043   3.457  12.997  0.1930  0.4255 -0.0609
  725TMC3     O10719   3.063   3.571  12.957 -0.0209  0.7888  0.1851
  725TMC3     H10720   3.155   3.487  12.760  3.0147  0.2372  2.3465
  725TMC3    H110721   3.088   3.207  13.092 -1.6741  1.4142  0.0968
  725TMC3    H210722   3.175   3.072  12.699 -1.8710 -1.6799  0.4355
  725TMC3    C710723   3.147   2.989  12.936 -0.3521  0.0361 -0.2014
  725TMC3    C810724   3.275   3.290  12.614 -0.5765 -0.6513 -0.7286
  725TMC3    O110725   3.119   2.901  12.858  0.0238  0.0167 -0.3740
  725TMC3    O210726   3.332   3.186  12.597  0.5324 -0.0799  0.1181
  726MPD2     C10727   1.425   4.667  10.581 -0.0716  0.4299 -0.4940
  726MPD2    C110728   1.333   0.043  10.569 -0.5712 -0.1791 -0.5896
  726MPD2    C210729   1.211   0.024  10.629 -0.9771  0.2056  0.1136
  726MPD2    C310730   1.170   4.632  10.692 -0.2004 -0.5505 -0.3632
  726MPD2    C410731   1.260   4.529  10.688  0.6687  0.0796 -0.5589
  726MPD2    C510732   1.383   4.548  10.633  0.1739 -0.0673 -0.9064
  726MPD2     H10733   1.148   0.112  10.628  2.5589  2.7506  1.6047
  726MPD2    H110734   1.237   4.438  10.742  0.3498  0.4067 -0.1406
  726MPD2    H210735   1.531   4.679  10.564  0.2756 -2.0689 -0.1646
  726MPD2    H310736   1.453   4.465  10.636 -0.2042 -0.3760 -0.5166
  726MPD2     N10737   1.042   4.604  10.746 -0.0923  0.2979 -0.3160
  726MPD2    H510738   1.035   4.518  10.801  1.8335 -0.5278 -1.3563
  726MPD2    N110739   1.374   0.170  10.513 -0.4573 -0.0275 -0.3496
  726MPD2    H710740   1.318   0.253  10.529 -1.3061 -0.9878  1.7285
  727TMC3    C110741   1.480   0.319  10.364 -0.3571 -0.2088  0.1244
  727TMC3    C210742   1.574   0.410  10.403 -0.3278  0.7458 -0.0286
  727TMC3    C310743   1.570   0.539  10.345  0.0273 -0.2033 -1.1052
  727TMC3    C410744   1.373   0.349  10.278  0.1158  0.5624 -0.3145
  727TMC3    C510745   1.373   0.479  10.236 -0.2584  0.1438  0.7767
  727TMC3    C610746   1.461   0.579  10.275 -0.1906 -0.0988  0.2437
  727TMC3     C10747   1.489   0.190  10.436 -0.6564 -0.9242 -0.0375
  727TMC3     O10748   1.598   0.133  10.428 -0.3905  0.4808  0.6123
  727TMC3     H10749   1.649   0.367  10.469  0.3833  0.0256 -1.2983
  727TMC3    H110750   1.294   0.276  10.266  1.1446 -0.8917  1.9461
  727TMC3    H210751   1.464   0.677  10.228  0.5888  1.4217  3.4775
  727TMC3    C710752   1.275   0.512  10.132 -0.6365 -0.1160  0.4523
  727TMC3    C810753   1.635   0.637  10.437  0.1776  0.0084 -0.2682
  727TMC3    O110754   1.245   0.631  10.107 -0.0290  0.5348 -0.3650
  727TMC3    O210755   1.707   0.584  10.517  0.0084  0.0524  0.4465
  728TMC3    C110756   0.525   3.748  15.127  0.2102  0.3578 -0.5990
  728TMC3    C210757   0.644   3.787  15.062 -0.3001  0.3640  0.5833
  728TMC3    C310758   0.628   3.876  14.956  0.5622  0.6402  0.3965
  728TMC3    C410759   0.401   3.793  15.084  0.5271 -0.0883  0.5150
  728TMC3    C510760   0.390   3.860  14.965 -0.7939  0.1158  0.0121
  728TMC3    C610761   0.501   3.901  14.890 -0.4297 -0.2372 -0.0048
  728TMC3     C10762   0.525   3.683  15.256 -0.8247 -0.4974  0.3194
  728TMC3     O10763   0.613   3.714  15.334  0.3436 -0.8089 -0.6704
  728TMC3     H10764   0.740   3.758  15.102 -0.5052 -1.3740 -0.1815
  728TMC3    H110765   0.308   3.773  15.136  0.1089  0.4483 -0.0344
  728TMC3    H210766   0.495   3.951  14.794 -0.2302  0.2721  0.2508
  728TMC3    C710767   0.260   3.908  14.930  0.8688 -0.4426  0.6466
  728TMC3    C810768   0.745   3.935  14.900  0.0594 -0.0174  0.6982
  728TMC3    O110769   0.173   3.828  14.961  0.5356 -0.5769 -0.0334
  728TMC3    O210770   0.740   3.971  14.783  0.5418 -0.4327  0.4751
  729MPD2     C10771   2.523   4.298  16.670 -0.5937  0.5847 -0.4258
  729MPD2    C110772   2.660   4.301  16.706  0.3732 -0.8384  0.2983
  729MPD2    C210773   2.693   4.284  16.838  0.1930 -0.2270 -0.2917
  729MPD2    C310774   2.599   4.273  16.939 -0.4349 -0.3156  0.3235
  729MPD2    C410775   2.464   4.265  16.904  0.2022 -0.4959  0.3580
  729MPD2    C510776   2.429   4.294  16.771  0.3650  0.0421  0.2402
  729MPD2     H10777   2.796   4.277  16.872 -0.4290  0.9748  1.8524
  729MPD2    H110778   2.383   4.270  16.976  1.0234  3.0647  1.0630
  729MPD2    H210779   2.494   4.310  16.567 -2.3015  1.0316  0.1073
  729MPD2    H310780   2.328   4.304  16.736  0.9671  0.6771 -1.3028
  729MPD2     N10781   2.648   4.274  17.073 -0.2523  0.1503 -0.6514
  729MPD2    H510782   2.749   4.274  17.082 -0.3630 -0.7332  0.7314
  729MPD2    N110783   2.750   4.309  16.601  0.0064 -0.1640 -0.5750
  729MPD2    H710784   2.713   4.328  16.509 -0.1945  1.7938 -0.1031
  730TMC3    C110785   2.644   4.329  17.297 -0.2588  0.0962 -0.5113
  730TMC3    C210786   2.771   4.276  17.314 -0.5559 -0.1933  0.0811
  730TMC3    C310787   2.856   4.355  17.376  0.8297 -0.8753  0.1313
  730TMC3    C410788   2.604   4.452  17.331  0.4249 -0.3834  0.2992
  730TMC3    C510789   2.689   4.526  17.398  0.8824 -0.2228  0.4022
  730TMC3    C610790   2.823   4.487  17.413  0.4706  0.0662 -0.1057
  730TMC3     C10791   2.567   4.282  17.185 -0.0254  0.7935  0.3896
  730TMC3     O10792   2.447   4.298  17.192  0.3028  0.0586 -0.3850
  730TMC3     H10793   2.790   4.172  17.288  1.1633  0.3181 -0.6771
  730TMC3    H110794   2.513   4.492  17.289  0.2595 -1.3239 -0.2279
  730TMC3    H210795   2.907   4.544  17.451  0.2578  0.1894  0.1816
  730TMC3    C710796   2.660   4.667  17.387  0.4451 -0.5272  0.4297
  730TMC3    C810797   2.988   4.350  17.317 -0.3225 -0.2041  0.2847
  730TMC3    O110798   2.752   0.028  17.369  0.0330 -0.5374  0.0175
  730TMC3    O210799   3.052   4.248  17.331 -0.1375 -0.1158 -0.6546
  731MPD2     C10800   2.811   3.180  12.554  0.7312  0.0791 -0.0426
  731MPD2    C110801   2.784   3.053  12.515 -0.4299  0.1553 -1.0149
  731MPD2    C210802   2.687   2.973  12.572 -0.0830 -0.1973  0.2787
  731MPD2    C310803   2.606   3.024  12.670 -0.5733  0.5821 -0.9164
  731MPD2    C410804   2.636   3.154  12.712 -0.1225 -0.0062 -0.3024
  731MPD2    C510805   2.731   3.241  12.653  0.3307 -0.6002 -0.4113
  731MPD2     H10806   2.662   2.871  12.544  2.5862 -0.8161  0.1288
  731MPD2    H110807   2.582   3.198  12.795  0.8532  0.9129 -0.1643
  731MPD2    H210808   2.889   3.239  12.507 -0.2079 -0.4570 -2.2818
  731MPD2    H310809   2.751   3.343  12.682 -0.6534 -0.4950 -0.1286
  731MPD2     N10810   2.509   2.947  12.735  0.0581 -0.3062  0.2886
  731MPD2    H510811   2.496   2.852  12.702  2.9056 -0.8007  0.6251
  731MPD2    N110812   2.859   3.005  12.400 -0.2616  0.6884  0.9629
  731MPD2    H710813   2.940   3.056  12.366  0.0434 -1.3020 -1.2758
  732TMC3    C110814   2.904   2.876  12.207 -0.2275  0.9550  0.3311
  732TMC3    C210815   2.821   2.842  12.109  0.0182  0.1654  0.0626
  732TMC3    C310816   2.874   2.771  12.001  0.1572 -0.3131 -0.7056
  732TMC3    C410817   3.034   2.842  12.215  0.6723 -1.0720 -0.3125
  732TMC3    C510818   3.082   2.793  12.097  0.0133  0.4670 -0.2692
  732TMC3    C610819   3.009   2.770  11.989 -0.0851 -0.2520 -0.2575
  732TMC3     C10820   2.834   2.885  12.329  0.7017  0.0768 -0.2779
  732TMC3     O10821   2.749   2.805  12.347  0.0184  0.7335  0.6205
  732TMC3     H10822   2.715   2.843  12.128  0.0202  0.2608  0.0681
  732TMC3    H110823   3.100   2.862  12.298  0.5091  0.1100 -0.4573
  732TMC3    H210824   3.048   2.710  11.907 -0.0515 -1.2034  0.4637
  732TMC3    C710825   3.209   2.723  12.097  0.3154  0.3270  0.5855
  732TMC3    C810826   2.791   2.705  11.896  0.1587 -0.6658  0.6123
  732TMC3    O110827   3.263   2.730  11.990 -0.0539  0.0806 -0.0529
  732TMC3    O210828   2.849   2.615  11.828  0.6618  0.5841  0.3741
  733TMC3    C110829   3.851   1.329  13.473  0.4417  0.0456  0.1932
  733TMC3    C210830   3.865   1.453  13.399 -0.2269  0.0626  0.7428
  733TMC3    C310831   3.987   1.478  13.345  0.5113 -0.3321 -0.5944
  733TMC3    C410832   3.954   1.240  13.481 -0.2269 -0.1565  0.6022
  733TMC3    C510833   4.070   1.268  13.414 -0.3918 -0.1251  0.3813
  733TMC3    C610834   4.080   1.380  13.341 -0.0770  0.9525  0.3248
  733TMC3     C10835   3.716   1.284  13.481 -0.6407 -0.3206 -0.6124
  733TMC3     O10836   3.634   1.369  13.443 -0.1202 -0.4935 -0.2058
  733TMC3     H10837   3.789   1.525  13.371 -0.1354 -0.5604 -1.1103
  733TMC3    H110838   3.952   1.146  13.536  2.7670 -1.3503 -1.2857
  733TMC3    H210839   4.182   1.403  13.313 -1.2421  5.5636 -0.2129
  733TMC3    C710840   4.171   1.166  13.392 -0.1315 -0.3997 -0.2376
  733TMC3    C810841   3.976   1.568  13.231 -0.0989  0.1116 -0.0736
  733TMC3    O110842   4.240   1.133  13.487 -0.5155  0.4146 -0.0118
  733TMC3    O210843   3.932   1.679  13.254  0.1094  0.5313 -0.2310
  734MPD2     C10844   0.894   3.797  12.474  0.6312 -0.6366  0.0047
  734MPD2    C110845   0.795   3.747  12.390 -0.0413 -0.0495 -0.5891
  734MPD2    C210846   0.815   3.740  12.254 -0.7161 -0.2513  0.1888
  734MPD2    C310847   0.939   3.777  12.199  0.3506 -0.0997  0.4149
  734MPD2    C410848   1.041   3.823  12.285 -0.5099 -0.1385 -0.3141
  734MPD2    C510849   1.014   3.836  12.418 -0.8522  0.2456 -0.3035
  734MPD2     H10850   0.750   3.691  12.183  2.0581 -0.7950 -1.9744
  734MPD2    H110851   1.138   3.846  12.243  0.6802 -1.7803  1.5285
  734MPD2    H210852   0.886   3.812  12.582  1.7894 -0.2361  0.0329
  734MPD2    H310853   1.080   3.893  12.482 -0.6012 -0.8605  0.4180
  734MPD2     N10854   0.952   3.760  12.058 -0.7065 -0.1619 -0.1376
  734MPD2    H510855   0.862   3.737  12.016 -2.3462  1.0727  2.6687
  734MPD2    N110856   0.687   3.674  12.451 -0.1077  0.5077  0.4022
  734MPD2    H710857   0.697   3.646  12.548 -2.5213 -2.8852 -0.3238
  735TMC3    C110858   0.493   3.536  12.436  0.5000  0.1008  0.3433
  735TMC3    C210859   0.381   3.503  12.356 -0.3306 -0.5388  0.0664
  735TMC3    C310860   0.342   3.374  12.342  0.1918  0.1730 -0.0750
  735TMC3    C410861   0.553   3.443  12.511 -0.2029 -0.1513  0.8183
  735TMC3    C510862   0.500   3.315  12.522 -0.7203 -0.2111 -0.1476
  735TMC3    C610863   0.400   3.284  12.425 -0.7344  0.5933  0.4118
  735TMC3     C10864   0.577   3.639  12.376 -0.2565 -0.3894 -0.4911
  735TMC3     O10865   0.544   3.657  12.261  0.0757  0.2580  0.1815
  735TMC3     H10866   0.336   3.580  12.295 -0.7446  0.9029  2.1934
  735TMC3    H110867   0.641   3.468  12.569 -0.3463  1.2052  0.4326
  735TMC3    H210868   0.365   3.183  12.406  0.5211  0.3618 -0.6281
  735TMC3    C710869   0.613   3.219  12.534  0.1537 -0.5653  0.5125
  735TMC3    C810870   0.346   3.323  12.204 -0.5625  0.1156 -0.8719
  735TMC3    O110871   0.729   3.263  12.532 -0.1322  0.4584 -0.0799
  735TMC3    O210872   0.307   3.209  12.186  0.1976  0.3489  0.3865
  736MPD2     C10873   0.632   2.863  12.569  0.1001  0.3460  0.3224
  736MPD2    C110874   0.676   2.983  12.524 -0.7469  0.0559 -0.0648
  736MPD2    C210875   0.812   2.998  12.491  0.2886 -0.0188 -0.0207
  736MPD2    C310876   0.898   2.889  12.488  0.3589  0.3855 -0.0147
  736MPD2    C410877   0.843   2.766  12.534  0.5812 -0.1606  1.1478
  736MPD2    C510878   0.710   2.753  12.564 -0.5516 -0.0612 -0.9880
  736MPD2     H10879   0.850   3.084  12.437 -0.4848  0.1147 -0.3497
  736MPD2    H110880   0.907   2.678  12.527  1.3776  0.4961  0.1074
  736MPD2    H210881   0.528   2.842  12.588 -0.4351  1.9244 -0.8965
  736MPD2    H310882   0.665   2.656  12.582 -0.2973 -0.4496 -2.4549
  736MPD2     N10883   1.031   2.885  12.443 -0.0556 -0.7087 -0.1939
  736MPD2    H510884   1.065   2.791  12.423  0.1559 -0.7817  0.5151
  736MPD2    N110885   0.579   3.088  12.537  0.4988  0.5719  0.4002
  736MPD2    H710886   0.484   3.059  12.557  0.7152 -1.5905 -1.6755
  737TMC3    C110887   1.221   2.985  12.322 -0.0232  0.6627  0.3741
  737TMC3    C210888   1.266   3.101  12.274 -0.5336  0.2687  0.0778
  737TMC3    C310889   1.303   3.110  12.141 -0.4345  0.1777  0.3105
  737TMC3    C410890   1.235   2.873  12.247 -0.1871  0.3285 -0.4327
  737TMC3    C510891   1.294   2.879  12.127 -0.3906  0.2983  0.1936
  737TMC3    C610892   1.312   2.998  12.063  0.3186  0.6112  0.0638
  737TMC3     C10893   1.106   2.999  12.416 -0.2574 -0.0147 -0.4921
  737TMC3     O10894   1.088   3.116  12.439 -0.0320  0.0529 -0.1773
  737TMC3     H10895   1.265   3.192  12.334  2.8289 -0.2451  0.9021
  737TMC3    H110896   1.213   2.775  12.287 -3.0790  0.9894 -0.3365
  737TMC3    H210897   1.348   3.000  11.961  0.3688  0.5119  0.0795
  737TMC3    C710898   1.368   2.762  12.091  0.3343 -0.3546 -0.1944
  737TMC3    C810899   1.355   3.236  12.099 -0.1569  0.5663 -0.0235
  737TMC3    O110900   1.347   2.665  12.163  0.3287 -0.4184  0.2585
  737TMC3    O210901   1.407   3.318  12.172  0.3462 -0.5009 -0.1027
  738MPD2     C10902   2.529   1.717  15.543 -0.4218  0.5496  0.1965
  738MPD2    C110903   2.434   1.788  15.469  0.9111 -0.6431 -0.2753
  738MPD2    C210904   2.469   1.893  15.383 -0.6721  0.8419  0.1487
  738MPD2    C310905   2.604   1.939  15.381 -0.1341 -0.0708 -0.3113
  738MPD2    C410906   2.699   1.873  15.456  0.9654  0.0411  0.5407
  738MPD2    C510907   2.653   1.769  15.538 -0.2853 -0.2710  0.0577
  738MPD2     H10908   2.394   1.948  15.327 -2.2860 -0.7933  0.7151
  738MPD2    H110909   2.806   1.886  15.443  0.6378 -0.0542 -2.1650
  738MPD2    H210910   2.516   1.642  15.620  0.9489 -1.0653 -1.1471
  738MPD2    H310911   2.730   1.722  15.599 -0.4057 -2.4294 -1.4405
  738MPD2     N10912   2.649   2.044  15.288  0.0444 -0.1067  1.0167
  738MPD2    H510913   2.748   2.067  15.287  0.5012 -2.1076  0.7655
  738MPD2    N110914   2.299   1.742  15.465 -0.3021  0.4974 -0.6524
  738MPD2    H710915   2.232   1.795  15.410 -0.3464 -0.4844 -1.5371
  739TMC3    C110916   2.628   2.228  15.131  0.1877  0.2543 -0.8146
  739TMC3    C210917   2.558   2.343  15.097  0.8319 -0.1465 -0.1254
  739TMC3    C310918   2.622   2.422  15.009 -0.5917 -0.2792 -0.2669
  739TMC3    C410919   2.756   2.193  15.083  0.7714  0.5366 -0.3616
  739TMC3    C510920   2.816   2.285  15.002  0.2508  0.1322 -0.2001
  739TMC3    C610921   2.749   2.400  14.967  0.4411  0.0636 -0.5185
  739TMC3     C10922   2.563   2.145  15.234  0.0170  0.4044 -0.0533
  739TMC3     O10923   2.454   2.182  15.278 -0.0323  0.1059 -0.2395
  739TMC3     H10924   2.457   2.364  15.132 -0.1860 -0.1795 -2.9988
  739TMC3    H110925   2.790   2.091  15.096  0.4007  0.2559 -1.5266
  739TMC3    H210926   2.801   2.465  14.897  1.2472  1.1181  1.0697
  739TMC3    C710927   2.955   2.261  14.964  0.1711  1.0445 -0.2702
  739TMC3    C810928   2.525   2.509  14.931  0.2154  0.0808 -0.6553
  739TMC3    O110929   3.013   2.155  14.993 -0.4651  0.1388  0.3237
  739TMC3    O210930   2.405   2.501  14.945  0.0439 -0.2577 -0.2333
  740TMC3    C110931   2.378   3.519  14.677 -0.3614  0.4202  0.0948
  740TMC3    C210932   2.392   3.415  14.767  0.2173  0.8483 -0.2938
  740TMC3    C310933   2.514   3.353  14.773  0.1693 -0.6381 -0.0310
  740TMC3    C410934   2.473   3.556  14.586 -0.3571 -0.2711  0.6028
  740TMC3    C510935   2.599   3.492  14.609  0.7395 -0.2937  0.4402
  740TMC3    C610936   2.622   3.398  14.704  0.3313  0.3342 -0.2615
  740TMC3     C10937   2.267   3.609  14.695 -0.2173 -0.0718  0.8187
  740TMC3     O10938   2.262   3.711  14.626  0.1780 -0.1630 -0.3839
  740TMC3     H10939   2.308   3.378  14.826  0.6215 -0.6994 -0.6819
  740TMC3    H110940   2.463   3.632  14.509  0.1781 -0.5266  0.2771
  740TMC3    H210941   2.717   3.350  14.722 -1.0117 -2.0048  0.5352
  740TMC3    C710942   2.707   3.523  14.515 -0.4479 -0.0276  0.4580
  740TMC3    C810943   2.538   3.253  14.871  0.1679 -1.1574  0.3121
  740TMC3    O110944   2.827   3.517  14.554 -0.5298 -0.6905  0.8005
  740TMC3    O210945   2.620   3.167  14.840  0.3261  0.5390  0.1512
  741TMC3    C110946   1.835   2.949  14.580 -0.5292  0.1008  0.1493
  741TMC3    C210947   1.788   2.877  14.471  0.3604 -0.3786  0.0605
  741TMC3    C310948   1.780   2.739  14.486  1.2307  0.0192 -0.5142
  741TMC3    C410949   1.880   2.889  14.697  0.1472 -0.4550 -0.1349
  741TMC3    C510950   1.866   2.753  14.699 -0.4567  0.3771 -0.5100
  741TMC3    C610951   1.823   2.673  14.600 -0.4530  0.2442  0.3205
  741TMC3     C10952   1.865   3.090  14.575  0.0617  0.2048 -0.2262
  741TMC3     O10953   1.893   3.142  14.682 -0.3632  0.0224 -0.6662
  741TMC3     H10954   1.747   2.928  14.385  1.2223 -2.0829 -1.3652
  741TMC3    H110955   1.931   2.935  14.780 -3.2420  3.0482 -0.0307
  741TMC3    H210956   1.789   2.572  14.619  0.8729 -0.3958 -0.6878
  741TMC3    C710957   1.883   2.679  14.824 -0.2101  0.1916  0.8989
  741TMC3    C810958   1.754   2.659  14.367  0.2047 -0.2262  0.1927
  741TMC3    O110959   1.948   2.576  14.816 -0.3053  0.0302 -0.0051
  741TMC3    O210960   1.703   2.725  14.279 -0.0787  0.2798 -0.1482
  742TMC3    C110961   1.841   0.898  15.266  0.2829 -0.4616  0.2736
  742TMC3    C210962   1.830   0.888  15.131  0.4028 -0.4256  0.7590
  742TMC3    C310963   1.889   0.984  15.054 -0.1104 -0.4459  0.1035
  742TMC3    C410964   1.925   0.986  15.332 -0.1554 -0.0981 -0.6427
  742TMC3    C510965   1.998   1.067  15.246 -0.6212  0.6711 -0.6263
  742TMC3    C610966   1.980   1.074  15.109  0.5216  0.5268  0.0217
  742TMC3     C10967   1.757   0.812  15.352  0.1575  0.0619  0.1336
  742TMC3     O10968   1.643   0.781  15.305 -0.0398  0.7275  0.0913
  742TMC3     H10969   1.749   0.825  15.096 -0.5683  0.8227  0.7772
  742TMC3    H110970   1.940   0.991  15.440  0.0243  2.3084 -0.7947
  742TMC3    H210971   2.043   1.133  15.043 -2.7179  1.0940 -2.5623
  742TMC3    C710972   2.127   1.089  15.297  0.3840  0.9693  0.1712
  742TMC3    C810973   1.890   0.967  14.913 -0.6914  0.1841  0.2373
  742TMC3    O110974   2.130   1.133  15.411 -0.0921  0.1275  0.7686
  742TMC3    O210975   1.872   0.857  14.870  0.2443 -0.5253 -1.1945
  743MPD2     C10976   4.076   3.357   1.909 -0.3349  0.1213 -0.3889
  743MPD2    C110977   4.134   3.264   1.819 -0.4254 -0.0655  0.2095
  743MPD2    C210978   4.260   3.212   1.846  0.7614 -0.2735  0.1797
  743MPD2    C310979   4.328   3.251   1.961  0.2036  0.0655  0.1906
  743MPD2    C410980   4.265   3.331   2.054 -0.1590  0.4285 -0.1256
  743MPD2    C510981   4.140   3.379   2.028 -0.0345 -0.1508  0.2485
  743MPD2     H10982   4.319   3.156   1.775  0.0269  3.7000 -3.5680
  743MPD2    H110983   4.323   3.358   2.142 -1.5651 -1.0633  1.2596
  743MPD2    H210984   3.986   3.410   1.878 -0.3472  1.0174  1.1660
  743MPD2    H310985   4.096   3.450   2.098  0.3501 -1.7409  2.0836
  743MPD2     N10986   4.461   3.202   1.978 -0.5026  0.1386 -0.3732
  743MPD2    H510987   4.490   3.131   1.911  1.2108 -0.7995  1.3731
  743MPD2    N110988   4.057   3.217   1.708 -0.2057  0.0680 -0.1129
  743MPD2    H710989   3.960   3.245   1.713 -0.2892 -0.3535  0.6150
  744TMC3    C110990   4.000   3.088   1.528  0.7330  0.1884 -0.3019
  744TMC3    C210991   3.904   3.170   1.488 -1.1942  0.4136 -0.5995
  744TMC3    C310992   3.835   3.148   1.372 -0.5352  0.2129  0.6994
  744TMC3    C410993   4.025   2.976   1.453  0.5589  0.2279  0.4416
  744TMC3    C510994   3.966   2.957   1.333  0.3904 -0.0125  0.1454
  744TMC3    C610995   3.874   3.050   1.288 -0.4901  0.0068  1.0156
  744TMC3     C10996   4.102   3.130   1.615  0.6101 -0.0214 -0.4977
  744TMC3     O10997   4.219   3.093   1.601  0.2001 -0.1573  0.3996
  744TMC3     H10998   3.877   3.267   1.530 -0.9906  0.3301 -0.2782
  744TMC3    H110999   4.108   2.916   1.490  1.0903  0.7422  0.0704
  744TMC3    H211000   3.810   3.038   1.201  1.2915 -0.6503 -0.2050
  744TMC3    C711001   4.027   2.861   1.241  0.2211 -0.6958 -0.0233
  744TMC3    C811002   3.768   3.262   1.304  0.1840  0.2401 -0.0382
  744TMC3    O111003   4.132   2.813   1.278 -0.1572  0.0353  0.1660
  744TMC3    O211004   3.784   3.382   1.343  0.2641 -0.2906 -0.0666
  745TMC3    C111005   2.510   0.923  14.136 -0.5101 -0.3262  1.0015
  745TMC3    C211006   2.402   0.921  14.218 -0.4395  0.1428  0.2252
  745TMC3    C311007   2.277   0.917  14.160 -0.0441 -0.3789 -0.2032
  745TMC3    C411008   2.500   0.913  13.998  0.6375 -0.2694 -0.3732
  745TMC3    C511009   2.378   0.897  13.937 -0.6766  0.1438 -0.4501
  745TMC3    C611010   2.264   0.908  14.018  0.5904 -0.4595 -0.4120
  745TMC3     C11011   2.619   1.002  14.186 -0.1632  0.1428  0.3232
  745TMC3     O11012   2.656   0.983  14.302 -0.2549 -0.1983  1.2931
  745TMC3     H11013   2.408   0.938  14.325  0.4194 -1.7834  0.4882
  745TMC3    H111014   2.593   0.907  13.943 -1.3098  0.1269 -3.6827
  745TMC3    H211015   2.166   0.909  13.972 -0.6358 -1.7668  2.1797
  745TMC3    C711016   2.353   0.901  13.794  0.1671  0.1887 -0.2111
  745TMC3    C811017   2.156   0.905  14.230  0.4556 -0.2762 -0.1200
  745TMC3    O111018   2.239   0.873  13.762  0.1807 -0.0101  0.1464
  745TMC3    O211019   2.065   0.853  14.171  0.1375 -0.4480 -0.4864
  746TMC3    C111020   4.132   2.950  10.821  0.1729  0.3716  0.2377
  746TMC3    C211021   4.161   2.924  10.688  0.8367 -0.0140  0.2417
  746TMC3    C311022   4.092   2.822  10.620  0.1529  0.1456 -0.7313
  746TMC3    C411023   4.024   2.882  10.879  0.2053  0.1493 -0.3300
  746TMC3    C511024   3.950   2.796  10.805 -0.0188  0.3740  0.2472
  746TMC3    C611025   3.991   2.757  10.678 -0.5818 -0.3621 -0.1989
  746TMC3     C11026   4.178   3.081  10.871  0.0056  0.6620 -0.2223
  746TMC3     O11027   4.111   3.144  10.950 -0.0536  0.0582 -0.5218
  746TMC3     H11028   4.244   2.977  10.643  0.7392 -0.1527 -0.0991
  746TMC3    H111029   3.982   2.919  10.972 -0.0794  0.2876 -0.5129
  746TMC3    H211030   3.937   2.681  10.623  0.1892 -0.1425 -1.2517
  746TMC3    C711031   3.813   2.765  10.842 -0.4472  0.8477 -0.3140
  746TMC3    C811032   4.139   2.800  10.484  0.1944  0.3906  0.1794
  746TMC3    O111033   3.741   2.746  10.744  0.2733 -0.5727 -0.2870
  746TMC3    O211034   4.108   2.698  10.426  0.1235 -0.8053 -0.0292
  747TMC3    C111035   2.105   2.725  11.321 -0.4330 -0.1073  0.7387
  747TMC3    C211036   2.013   2.661  11.395  0.8709 -0.0879  0.0772
  747TMC3    C311037   2.017   2.680  11.535 -0.6695 -0.3506 -0.2618
  747TMC3    C411038   2.205   2.791  11.386  0.1646 -0.1228  0.1209
  747TMC3    C511039   2.217   2.791  11.520  0.2588  0.2096 -0.7646
  747TMC3    C611040   2.118   2.735  11.603 -0.4011 -0.4286 -0.5168
  747TMC3     C11041   2.075   2.784  11.191  0.1800 -0.3433 -0.2241
  747TMC3     O11042   2.097   2.903  11.172  0.1718  0.5335  0.0755
  747TMC3     H11043   1.931   2.618  11.338 -1.3518  2.3793  1.3596
  747TMC3    H111044   2.276   2.832  11.315 -0.6304  1.5221  0.2891
  747TMC3    H211045   2.126   2.745  11.711 -1.6108 -0.9211 -0.3765
  747TMC3    C711046   2.338   2.850  11.584  0.4936 -0.2787  0.1446
  747TMC3    C811047   1.917   2.594  11.609  0.1472  0.3006 -0.7765
  747TMC3    O111048   2.331   2.881  11.703  0.2001 -0.1403 -0.0196
  747TMC3    O211049   1.897   2.477  11.574 -0.3119  0.2494  0.0546
  748MPD2     C11050   3.852   4.669   1.000 -0.1555  0.3890  0.4297
  748MPD2    C111051   3.846   4.545   1.049 -0.4614 -0.4412  0.6674
  748MPD2    C211052   3.968   4.480   1.076 -0.0098 -0.1294 -0.5394
  748MPD2    C311053   4.092   4.536   1.050  0.4054 -0.4271 -0.0616
  748MPD2    C411054   4.090   4.671   1.007 -0.4766 -0.0249  0.8344
  748MPD2    C511055   3.972   0.012   0.983 -0.1588  0.2795 -0.6067
  748MPD2     H11056   3.964   4.374   1.101 -1.0591 -0.0035 -0.1858
  748MPD2    H111057   4.183   4.718   0.977 -0.7619 -0.7303 -1.1826
  748MPD2    H211058   3.756   4.715   0.981  0.0537 -0.3292 -2.4171
  748MPD2    H311059   3.976   0.108   0.933  2.4749  2.0010  2.9477
  748MPD2     N11060   4.208   4.465   1.084 -0.5321 -0.3782  0.1871
  748MPD2    H511061   4.192   4.384   1.143 -1.3354 -2.1767 -2.4792
  748MPD2    N111062   3.721   4.489   1.066 -0.3639  0.3714 -0.4956
  748MPD2    H711063   3.642   4.548   1.042 -1.8394 -1.4681 -0.2317
  749TMC3    C111064   4.447   4.398   1.083  0.0893  0.3694  0.0881
  749TMC3    C211065   4.412   4.281   1.145 -0.2720 -0.0268 -0.0391
  749TMC3    C311066   4.517   4.205   1.188 -0.4864 -0.5402  0.4413
  749TMC3    C411067   4.573   4.440   1.061 -1.1843  0.0423 -0.6874
  749TMC3    C511068   4.675   4.364   1.104 -0.6647 -0.8866 -0.5939
  749TMC3    C611069   4.647   4.245   1.172 -0.9803 -0.1248 -0.4333
  749TMC3     C11070   4.336   4.489   1.039 -0.5107  0.2673  0.6540
  749TMC3     O11071   4.373   4.582   0.971 -0.4977 -0.7011  0.1290
  749TMC3     H11072   4.316   4.232   1.152 -0.7314  0.9104  0.2129
  749TMC3    H111073   4.591   4.530   1.003  3.0616  0.1571  0.7813
  749TMC3    H211074   0.001   4.185   1.218  0.4227 -0.0405 -2.6883
  749TMC3    C711075   0.091   4.400   1.104  0.1989 -0.0309  0.2600
  749TMC3    C811076   4.491   4.115   1.299 -0.4214  0.4751  0.3109
  749TMC3    O111077   0.152   4.363   1.205 -0.4855  0.3868 -0.1116
  749TMC3    O211078   4.392   4.138   1.361 -0.0145 -0.3555 -0.4327
  750MPD2     C11079   0.288   0.084  11.565  0.0696  0.2827 -0.5032
  750MPD2    C111080   0.160   0.088  11.530  0.4442  0.5099 -0.1633
  750MPD2    C211081   0.107   4.688  11.488  0.2697 -0.3252 -0.4324
  750MPD2    C311082   0.183   4.579  11.462  0.2864  0.9405  0.4002
  750MPD2    C411083   0.319   4.582  11.497  0.4069  0.3010  0.7504
  750MPD2    C511084   0.370   4.694  11.553 -0.4741 -0.3253  0.0132
  750MPD2     H11085   0.000   4.696  11.472  0.3234 -0.0846 -0.6525
  750MPD2    H111086   0.390   4.506  11.466  2.7807  2.0122  1.9462
  750MPD2    H211087   0.333   0.178  11.596  0.3608  0.1420 -0.5068
  750MPD2    H311088   0.476   4.709  11.570 -0.7871 -0.5773  2.1513
  750MPD2     N11089   0.134   4.468  11.393 -0.2069  0.4838  0.1949
  750MPD2    H511090   0.203   4.394  11.379 -2.3325 -1.5487  0.5367
  750MPD2    N111091   0.079   0.208  11.536 -0.0349  0.0395  0.1750
  750MPD2    H711092   0.128   0.292  11.564  2.3005 -1.1773 -0.2388
  751TMC3    C111093   0.005   4.318  11.261 -0.3814 -0.3897 -0.7110
  751TMC3    C211094   4.604   4.258  11.244 -0.2235  0.3265  0.1963
  751TMC3    C311095   4.591   4.147  11.166  0.1067 -0.2229  0.0585
  751TMC3    C411096   0.120   4.267  11.204 -0.0429 -0.4754 -0.1542
  751TMC3    C511097   0.095   4.173  11.110 -0.3319  0.7386 -0.0025
  751TMC3    C611098   4.699   4.103  11.095  0.2808  0.4060 -0.3315
  751TMC3     C11099   0.012   4.442  11.335  0.9909 -0.1917 -0.3381
  751TMC3     O11100   4.633   4.510  11.348  0.0030 -0.2225  0.1300
  751TMC3     H11101   4.520   4.307  11.291 -0.5451  1.4392 -1.5279
  751TMC3    H111102   0.214   4.320  11.208  0.5326 -1.4711 -0.5666
  751TMC3    H211103   4.679   4.017  11.032  1.0868 -0.4237  0.5517
  751TMC3    C711104   0.208   4.098  11.062 -0.0394  0.3090  0.0753
  751TMC3    C811105   4.463   4.101  11.118 -0.1828 -0.8815 -0.5003
  751TMC3    O111106   0.319   4.119  11.107  0.2143 -0.6794  0.4019
  751TMC3    O211107   4.462   4.038  11.013  0.2582 -0.0883 -0.1282
  752TMC3    C111108   3.859   0.110  16.642  0.4402 -0.6092 -0.2539
  752TMC3    C211109   3.799   0.152  16.764  0.0509 -0.8016  0.7292
  752TMC3    C311110   3.879   0.151  16.874  0.3566 -0.1295  0.0611
  752TMC3    C411111   3.989   0.071  16.627 -0.2177  0.0684  1.1757
  752TMC3    C511112   4.064   0.066  16.740 -0.6201  0.2997  0.6802
  752TMC3    C611113   4.012   0.109  16.868  0.0936  0.3980  0.0052
  752TMC3     C11114   3.784   0.105  16.517  0.1716  0.2885  0.1404
  752TMC3     O11115   3.840   0.167  16.427  0.3392  0.4456  0.3057
  752TMC3     H11116   3.698   0.193  16.770 -0.0526 -1.3601  2.7176
  752TMC3    H111117   4.036   0.059  16.530 -2.7965 -1.2641  0.1143
  752TMC3    H211118   4.079   0.105  16.953 -1.6304 -0.5821  1.3297
  752TMC3    C711119   4.200   0.016  16.723 -0.5134  0.2186  0.8725
  752TMC3    C811120   3.817   0.190  17.000  0.1094 -0.0402  0.4262
  752TMC3    O111121   4.235   4.709  16.612  0.2951  0.1927  0.3174
  752TMC3    O211122   3.693   0.205  17.007  0.1300  0.0380  0.8582
  753TMC3    C111123   0.635   1.260  13.787  0.3382  1.1369 -0.0239
  753TMC3    C211124   0.739   1.236  13.874 -0.5809 -0.3360  0.2980
  753TMC3    C311125   0.778   1.103  13.893  0.1253 -0.3599 -0.0708
  753TMC3    C411126   0.548   1.162  13.743 -0.1992 -0.5227  0.0243
  753TMC3    C511127   0.586   1.031  13.778 -1.0990 -0.1882 -0.3409
  753TMC3    C611128   0.703   1.003  13.839  0.1659 -0.1443  0.6616
  753TMC3     C11129   0.616   1.399  13.740 -0.5171 -0.0104  0.8668
  753TMC3     O11130   0.514   1.413  13.674  0.1651 -0.3959 -0.2633
  753TMC3     H11131   0.816   1.310  13.894 -0.0914 -0.9484  0.6967
  753TMC3    H111132   0.456   1.182  13.689  0.1560  0.8776 -0.0635
  753TMC3    H211133   0.732   0.902  13.866  1.2017  0.3392  1.3486
  753TMC3    C711134   0.528   0.917  13.717 -0.2764  0.0689 -0.5557
  753TMC3    C811135   0.916   1.070  13.925 -0.5265  0.1256  0.0471
  753TMC3    O111136   0.592   0.815  13.726  0.1219 -0.0274  0.0345
  753TMC3    O211137   0.957   0.964  13.879 -0.4561 -0.3871  0.1820
  754MPD2     C11138   3.503   4.378  12.743  0.0062 -0.5975 -0.1206
  754MPD2    C111139   3.491   4.257  12.801  0.5357 -0.4724 -0.0229
  754MPD2    C211140   3.377   4.225  12.872 -0.3318  0.2022  0.2880
  754MPD2    C311141   3.282   4.323  12.894  0.4239  0.1842 -0.1308
  754MPD2    C411142   3.301   4.451  12.861  0.1492  0.5546  1.0551
  754MPD2    C511143   3.412   4.476  12.783 -0.1070  0.6425 -0.1144
  754MPD2     H11144   3.352   4.128  12.912  0.0868 -0.8586 -2.0606
  754MPD2    H111145   3.221   4.524  12.864  0.5819  1.1120 -1.5454
  754MPD2    H211146   3.581   4.396  12.670 -0.4748  0.5279 -0.3595
  754MPD2    H311147   3.435   4.569  12.732 -0.0904  1.1723  0.8611
  754MPD2     N11148   3.162   4.290  12.957 -0.3282 -0.0252  0.4054
  754MPD2    H511149   3.093   4.362  12.975  2.0458  1.9668  1.4307
  754MPD2    N111150   3.595   4.166  12.776 -0.5695  0.5638 -0.4761
  754MPD2    H711151   3.670   4.198  12.715  0.2663  0.8820  0.7088
  755MPD2     C11152   3.246   4.576  13.586 -0.2402 -0.6065  0.1653
  755MPD2    C111153   3.111   4.599  13.585  0.4263  0.0167  0.2179
  755MPD2    C211154   3.029   4.526  13.501  0.4974  0.1181 -0.8703
  755MPD2    C311155   3.089   4.416  13.438 -0.4361 -0.2209 -0.1588
  755MPD2    C411156   3.223   4.393  13.447 -0.1254 -0.2258  0.0157
  755MPD2    C511157   3.301   4.479  13.516  0.0065 -0.0282 -0.7581
  755MPD2     H11158   2.921   4.537  13.509  0.7505  1.0469  1.4499
  755MPD2    H111159   3.262   4.307  13.394  1.3738  0.0028  0.7647
  755MPD2    H211160   3.321   4.628  13.646 -1.7777  1.5427  0.2159
  755MPD2    H311161   3.408   4.462  13.512 -0.1749 -1.5348  0.9615
  755MPD2     N11162   3.020   4.322  13.365 -0.1025  0.3904 -0.6580
  755MPD2    H511163   3.064   4.236  13.333 -0.3777  0.0769 -0.2087
  755MPD2    N111164   3.050   4.702  13.657 -0.1319  0.6247 -0.1510
  755MPD2    H711165   2.949   4.709  13.655 -0.1119  0.9913  0.0175
  756MPD2     C11166   4.633   4.313   9.692  0.3813  0.3920  0.7934
  756MPD2    C111167   4.597   4.376   9.808  0.1495  0.3585  0.0566
  756MPD2    C211168   4.498   4.321   9.890  0.1099  0.6992  0.5169
  756MPD2    C311169   4.439   4.201   9.856  0.2842  0.3470 -0.2598
  756MPD2    C411170   4.488   4.135   9.743  0.3849  0.0700  0.2929
  756MPD2    C511171   4.582   4.191   9.662 -0.1530  0.2634  0.2352
  756MPD2     H11172   4.464   4.377   9.977 -0.9197 -0.5311  0.9095
  756MPD2    H111173   4.446   4.039   9.715  2.8250 -1.2729  1.2186
  756MPD2    H211174   4.717   4.342   9.630 -0.3697 -0.7058 -0.7219
  756MPD2    H311175   4.622   4.130   9.582  0.5704  0.1673  0.6795
  756MPD2     N11176   4.331   4.162   9.939 -0.3524 -0.0923 -0.6757
  756MPD2    H511177   4.305   4.216  10.020 -1.1284  0.9690 -1.6235
  756MPD2    N111178   4.642   4.500   9.856 -0.0444 -0.7704  0.0611
  756MPD2    H711179   4.607   4.519   9.949  1.7334 -0.3200  0.6397
  757MPD2     C11180   3.553   3.526   9.909  0.3726 -0.2256  0.4075
  757MPD2    C111181   3.643   3.567   9.817  0.4312 -0.0238  0.5706
  757MPD2    C211182   3.728   3.674   9.857 -0.2413 -0.0996 -0.6676
  757MPD2    C311183   3.721   3.730   9.981 -0.7666  0.5496  0.1601
  757MPD2    C411184   3.628   3.687  10.077  0.0200  0.7456  0.1802
  757MPD2    C511185   3.550   3.583  10.037  0.0576  0.5061 -0.1159
  757MPD2     H11186   3.801   3.717   9.789  1.0273  1.5931  1.7713
  757MPD2    H111187   3.611   3.738  10.172 -0.2189  3.2484 -1.2061
  757MPD2    H211188   3.474   3.454   9.891 -0.5525  0.5220  1.5245
  757MPD2    H311189   3.475   3.552  10.108  1.3881 -0.5792  0.8115
  757MPD2     N11190   3.821   3.830  10.000  0.4646  0.2335 -0.0859
  757MPD2    H511191   3.881   3.858   9.923 -1.0018  1.7097 -0.6946
  757MPD2    N111192   3.664   3.490   9.703 -0.6150 -0.0242  0.0185
  757MPD2    H711193   3.590   3.426   9.676  0.5935 -2.0263  1.4601
  758MPD2     C11194   4.425   3.288  15.874 -0.3634  0.4363  0.4345
  758MPD2    C111195   4.526   3.328  15.963  0.0160 -0.5197  0.2131
  758MPD2    C211196   4.483   3.404  16.078 -0.7931  0.0935  0.9330
  758MPD2    C311197   4.352   3.429  16.108  0.0180 -0.0525  0.4779
  758MPD2    C411198   4.266   3.392  16.016  0.6184  0.5282 -0.1458
  758MPD2    C511199   4.297   3.321  15.898 -0.5770  0.5876 -0.4484
  758MPD2     H11200   4.562   3.438  16.144 -2.1623  0.0897  2.5785
  758MPD2    H111201   4.163   3.426  16.026  1.0295  2.0222 -1.0173
  758MPD2    H211202   4.445   3.227  15.786 -1.0428 -0.8245  1.1531
  758MPD2    H311203   4.219   3.296  15.827 -2.6886  0.9488  1.7510
  758MPD2     N11204   4.314   3.512  16.209  0.4205  0.0926 -0.0048
  758MPD2    H511205   4.218   3.543  16.200  0.4930  0.2521 -0.2288
  758MPD2    N111206   4.660   3.298  15.933  0.0876 -0.4284  0.1587
  758MPD2    H711207   4.690   3.287  15.837 -0.2557 -0.2613  0.0308
  759MPD2     C11208   3.368   2.681   9.466  0.1304  0.3333 -0.6727
  759MPD2    C111209   3.426   2.587   9.550  0.4795  0.1575 -0.6395
  759MPD2    C211210   3.521   2.506   9.489  0.4568 -0.2867 -0.0344
  759MPD2    C311211   3.562   2.519   9.354 -0.2883 -0.2856  0.4742
  759MPD2    C411212   3.508   2.621   9.281 -0.5766  0.2599 -0.3318
  759MPD2    C511213   3.406   2.690   9.335  0.1166 -0.2878  0.8915
  759MPD2     H11214   3.560   2.429   9.555  0.5122 -0.3726 -0.1679
  759MPD2    H111215   3.523   2.632   9.174  0.0448 -0.6241 -0.3339
  759MPD2    H211216   3.287   2.746   9.498 -1.0902 -0.7016 -1.6720
  759MPD2    H311217   3.358   2.767   9.275  0.3791 -1.4090 -0.7762
  759MPD2     N11218   3.656   2.423   9.296 -0.3265  0.2138 -0.1034
  759MPD2    H511219   3.679   2.344   9.355  3.1726  0.7786 -0.7133
  759MPD2    N111220   3.405   2.572   9.691 -0.4668  0.6270  0.0541
  759MPD2    H711221   3.448   2.490   9.733 -0.9333  0.8396  0.9469
  760MPD2     C11222   2.719   4.273  12.337  0.2062  0.3982  0.1851
  760MPD2    C111223   2.784   4.333  12.226  0.5858 -0.1878  0.8040
  760MPD2    C211224   2.843   4.248  12.141  0.0060 -0.1886 -0.3841
  760MPD2    C311225   2.876   4.117  12.181  0.2533 -0.1263 -0.2459
  760MPD2    C411226   2.812   4.061  12.291  0.1752 -0.3121 -0.1100
  760MPD2    C511227   2.740   4.141  12.378  0.3711 -0.2709  0.3564
  760MPD2     H11228   2.887   4.294  12.054 -0.8277 -0.0404 -0.7324
  760MPD2    H111229   2.851   3.963  12.319 -0.9470 -0.8698 -0.5154
  760MPD2    H211230   2.671   4.338  12.409  0.9069  1.1442 -0.0259
  760MPD2    H311231   2.713   4.101  12.475 -1.2469  0.6467  0.2833
  760MPD2     N11232   2.965   4.035  12.107 -0.3791 -0.0968 -0.1826
  760MPD2    H511233   2.989   3.943  12.142  0.4481 -0.3086 -1.3156
  760MPD2    N111234   2.791   4.471  12.189 -0.6981 -0.1862  0.6762
  760MPD2    H711235   2.836   4.499  12.103 -1.8498  2.4365  0.9169
  761MPD2     C11236   3.943   4.166  11.087  0.5479 -0.3515 -0.0033
  761MPD2    C111237   4.026   4.069  11.035 -0.4754  0.2927  0.2881
  761MPD2    C211238   4.160   4.069  11.061 -0.1499  0.0218 -0.7311
  761MPD2    C311239   4.219   4.157  11.149  0.0459  0.5808 -0.5073
  761MPD2    C411240   4.133   4.253  11.206  0.2529  1.1442  0.1603
  761MPD2    C511241   4.001   4.253  11.171  0.1977  0.0763  0.1312
  761MPD2     H11242   4.228   3.993  11.025  0.1119 -0.7766  1.4720
  761MPD2    H111243   4.168   4.327  11.277  0.0720  0.2981  1.1500
  761MPD2    H211244   3.835   4.170  11.085  0.5511  0.2094  1.0665
  761MPD2    H311245   3.935   4.332  11.207  0.9335  2.2894 -3.4200
  761MPD2     N11246   4.360   4.156  11.178  0.2977 -0.0984 -0.3921
  761MPD2    H511247   4.387   4.232  11.239 -1.3127  3.5375 -4.2375
  761MPD2    N111248   3.966   3.971  10.958 -0.5443 -0.9185 -0.0842
  761MPD2    H711249   3.865   3.966  10.953 -0.4777  0.3156 -2.7089
  762MPD2     C11250   4.473   3.740  10.712  0.9205 -0.3332 -0.1744
  762MPD2    C111251   4.390   3.635  10.661  0.5042  0.3345 -0.2072
  762MPD2    C211252   4.436   3.563  10.554  0.1765  0.1687 -0.0038
  762MPD2    C311253   4.565   3.582  10.506 -0.3018  0.4289  1.1114
  762MPD2    C411254   4.651   3.670  10.568  0.5416 -0.1078  0.4590
  762MPD2    C511255   4.599   3.751  10.663 -0.0554  0.3453  0.2299
  762MPD2     H11256   4.382   3.493  10.491 -0.1010  1.5881 -1.3272
  762MPD2    H111257   0.032   3.683  10.543 -0.0019  0.6740 -1.3827
  762MPD2    H211258   4.438   3.804  10.792  0.5295 -0.8299  0.0567
  762MPD2    H311259   4.659   3.820  10.722 -0.1854  0.5783  0.0872
  762MPD2     N11260   4.604   3.518  10.387  1.2619 -0.9705 -0.2295
  762MPD2    H511261   4.561   3.427  10.379 -0.6972 -0.1323  0.5211
  762MPD2    N111262   4.253   3.640  10.700 -0.0729  0.3186  0.5747
  762MPD2    H711263   4.226   3.712  10.766  0.7498 -0.8361  2.2175
  763MPD2     C11264   1.426   4.358  16.262 -0.5651 -0.2245  0.3448
  763MPD2    C111265   1.317   4.416  16.200 -0.2447  0.0134 -0.4581
  763MPD2    C211266   1.286   4.547  16.238 -0.0197 -0.4091 -0.0748
  763MPD2    C311267   1.350   4.604  16.346  0.1258  0.5281  0.0791
  763MPD2    C411268   1.448   4.539  16.414 -0.0411 -0.4481 -0.3411
  763MPD2    C511269   1.480   4.414  16.374  0.6259  0.3444  0.6544
  763MPD2     H11270   1.210   4.606  16.187 -0.8215 -0.6289  0.8669
  763MPD2    H111271   1.505   4.581  16.497  0.4909 -1.2979 -0.2673
  763MPD2    H211272   1.462   4.260  16.234 -0.2168  1.0673 -3.6983
  763MPD2    H311273   1.572   4.371  16.413 -0.4251 -2.4494  0.0328
  763MPD2     N11274   1.334   0.017  16.384  0.0410  0.1102 -0.3950
  763MPD2    H511275   1.369   0.026  16.479 -1.0420  1.3739 -0.1201
  763MPD2    N111276   1.239   4.355  16.097 -0.1941 -0.8076 -0.6190
  763MPD2    H711277   1.171   4.421  16.059  1.0161 -0.1241 -1.5867
  764MPD2     C11278   4.263   0.360  16.757 -0.5030 -0.0321  0.0113
  764MPD2    C111279   4.137   0.419  16.764 -0.2478  0.7017 -0.0012
  764MPD2    C211280   4.093   0.456  16.885  0.5578 -0.2029  0.4672
  764MPD2    C311281   4.172   0.457  16.995  0.2597  0.2910 -0.2529
  764MPD2    C411282   4.300   0.415  16.986  0.3188 -0.0547  0.4971
  764MPD2    C511283   4.339   0.364  16.866 -0.2206  0.3650  0.8374
  764MPD2     H11284   3.992   0.489  16.907 -0.1130 -2.2600  0.4791
  764MPD2    H111285   4.364   0.401  17.072  1.9084 -0.1591 -0.7011
  764MPD2    H211286   4.311   0.334  16.664 -0.2484  0.6489 -0.0470
  764MPD2    H311287   4.441   0.326  16.863 -1.0147 -1.7054  0.2855
  764MPD2     N11288   4.117   0.517  17.111  0.5302  0.5235  0.2361
  764MPD2    H511289   4.027   0.562  17.098  1.3673  2.9654  2.9697
  764MPD2    N111290   4.068   0.427  16.644  0.3144 -0.0461 -0.0345
  764MPD2    H711291   4.122   0.400  16.562 -2.0712 -0.0291 -1.5960
  765MPD2     C11292   3.874   3.446  15.500 -0.3252 -0.0181  0.4309
  765MPD2    C111293   3.986   3.491  15.569 -0.0989  0.0979  0.0816
  765MPD2    C211294   4.109   3.443  15.530 -0.0390  0.5392  0.4438
  765MPD2    C311295   4.123   3.360  15.421 -0.2273 -0.2422 -0.4036
  765MPD2    C411296   4.015   3.323  15.353  0.3699  0.5545 -0.8569
  765MPD2    C511297   3.893   3.365  15.389  0.2053  0.1222 -0.0728
  765MPD2     H11298   4.195   3.488  15.578  1.3453 -2.9420  1.2673
  765MPD2    H111299   4.033   3.272  15.259  0.8344  0.3562 -0.6603
  765MPD2    H211300   3.783   3.494  15.534  0.1810  0.9830  0.3880
  765MPD2    H311301   3.815   3.346  15.317 -0.6092 -0.2628  0.9067
  765MPD2     N11302   4.254   3.312  15.396 -0.2888  0.6900  0.0929
  765MPD2    H511303   4.329   3.353  15.450  1.9193 -2.0879 -0.8896
  765MPD2    N111304   3.976   3.581  15.678 -0.7093 -0.0647 -0.9074
  765MPD2    H711305   3.881   3.613  15.694 -0.1917  0.9010  0.2806
  766MPD2     C11306   3.462   3.731  15.579 -0.1209 -0.3596  0.5159
  766MPD2    C111307   3.593   3.769  15.543 -0.7985  0.3055 -0.5672
  766MPD2    C211308   3.646   3.724  15.421 -1.0189  0.2080 -0.3067
  766MPD2    C311309   3.573   3.648  15.331 -0.5646  0.3097 -0.2510
  766MPD2    C411310   3.445   3.614  15.365 -0.4659 -0.0642  0.2370
  766MPD2    C511311   3.388   3.658  15.484  0.2515 -0.3214 -0.2682
  766MPD2     H11312   3.742   3.762  15.389 -0.4309 -1.6357 -0.7413
  766MPD2    H111313   3.392   3.552  15.295 -0.0709 -2.4511  2.0433
  766MPD2    H211314   3.413   3.770  15.668  0.1784 -0.2064  0.6155
  766MPD2    H311315   3.283   3.648  15.507 -0.0998  0.3071 -1.5721
  766MPD2     N11316   3.627   3.603  15.215 -0.3754  0.4019  0.8857
  766MPD2    H511317   3.566   3.549  15.154 -0.5348  0.2034  1.2219
  766MPD2    N111318   3.683   3.826  15.627 -0.0595  0.2212  0.4993
  766MPD2    H711319   3.768   3.870  15.594  0.6298 -0.1905  1.7163
  767MPD2     C11320   3.290   3.808  15.160  0.4265  0.3813  1.1544
  767MPD2    C111321   3.398   3.841  15.081 -0.6458  0.4628  0.0123
  767MPD2    C211322   3.401   3.782  14.956  0.2791  0.6487 -0.3665
  767MPD2    C311323   3.297   3.700  14.909 -0.3581  0.2625 -0.3313
  767MPD2    C411324   3.180   3.684  14.979  0.7150 -0.2625 -0.0077
  767MPD2    C511325   3.179   3.744  15.106  0.4824  0.5721  0.4700
  767MPD2     H11326   3.482   3.796  14.886 -0.6990 -1.7498 -1.9553
  767MPD2    H111327   3.088   3.643  14.940 -0.2392  0.8390  1.0848
  767MPD2    H211328   3.275   3.860  15.254  0.6749 -0.5478  1.6981
  767MPD2    H311329   3.097   3.729  15.176  0.0307  1.7640  0.1875
  767MPD2     N11330   3.312   3.646  14.780  0.1381  0.3037  0.1431
  767MPD2    H511331   3.401   3.660  14.734 -1.0898  1.2918 -1.9117
  767MPD2    N111332   3.491   3.922  15.135  0.0568  0.3566  0.0953
  767MPD2    H711333   3.469   3.965  15.225  1.7308  2.0517 -0.3102
  768MPD2     C11334   3.838   1.935  10.776 -0.3708  0.0036  0.1482
  768MPD2    C111335   3.852   2.073  10.770 -0.1337 -0.2682  0.0019
  768MPD2    C211336   3.965   2.128  10.831  0.7612 -0.2048  0.2780
  768MPD2    C311337   4.076   2.051  10.867  0.1269  0.1507 -0.7627
  768MPD2    C411338   4.068   1.917  10.841  0.1084 -1.2758  0.3555
  768MPD2    C511339   3.951   1.861  10.801 -0.4865 -0.4057 -0.1677
  768MPD2     H11340   3.965   2.235  10.845 -0.4395 -0.4754  2.2592
  768MPD2    H111341   4.150   1.853  10.872 -0.8215 -1.4953  2.2991
  768MPD2    H211342   3.759   1.866  10.747  0.6108 -0.7968 -0.6182
  768MPD2    H311343   3.941   1.754  10.793 -1.7119 -0.5092  2.7860
  768MPD2     N11344   4.195   2.101  10.913 -0.7367 -0.0092 -0.1626
  768MPD2    H511345   4.261   2.031  10.948  1.0005  0.8077 -1.8402
  768MPD2    N111346   3.735   2.158  10.755 -0.0627 -0.1835  0.0978
  768MPD2    H711347   3.756   2.256  10.743 -2.8895  0.4180 -0.0595
  769MPD2     C11348   0.493   0.584  14.786  0.1705 -0.1331 -0.1725
  769MPD2    C111349   0.403   0.585  14.892 -0.2017  0.6307 -0.5371
  769MPD2    C211350   0.447   0.619  15.021  0.0773  0.8139  0.3731
  769MPD2    C311351   0.582   0.630  15.054  0.1650 -0.2992 -0.0785
  769MPD2    C411352   0.670   0.628  14.945  0.4578  0.2687  0.3785
  769MPD2    C511353   0.623   0.611  14.819  0.3490 -0.5002 -0.0226
  769MPD2     H11354   0.377   0.617  15.103  1.2920 -2.0590  1.3386
  769MPD2    H111355   0.779   0.626  14.948  0.4749 -1.4525 -1.3149
  769MPD2    H211356   0.464   0.557  14.686 -0.6905 -0.8502  0.2738
  769MPD2    H311357   0.699   0.608  14.742  1.7341  0.3339  1.3166
  769MPD2     N11358   0.611   0.631  15.187 -0.3348  0.0462 -0.3283
  769MPD2    H511359   0.530   0.645  15.246 -1.6624 -2.8383 -1.4445
  769MPD2    N111360   0.265   0.559  14.857  0.0300 -0.6766  0.4329
  769MPD2    H711361   0.235   0.551  14.760  1.1689 -1.2403  0.1267
  770MPD2     C11362   0.366   4.688  15.220 -0.7165 -0.0274 -0.5668
  770MPD2    C111363   0.240   4.634  15.209  0.5783  0.1573  0.0537
  770MPD2    C211364   0.141   4.721  15.165  0.6960  0.7268  0.6978
  770MPD2    C311365   0.164   0.132  15.137 -0.3169 -0.0740 -0.1349
  770MPD2    C411366   0.291   0.179  15.150 -1.1760  0.3069 -0.3970
  770MPD2    C511367   0.393   0.091  15.176 -0.6973 -0.3132  0.2494
  770MPD2     H11368   0.043   4.677  15.151  1.2221 -0.5692  1.0313
  770MPD2    H111369   0.319   0.282  15.127  1.5007 -0.6728 -1.4989
  770MPD2    H211370   0.456   4.632  15.243 -0.2412  0.0068 -2.3521
  770MPD2    H311371   0.490   0.136  15.190 -0.2839 -1.4169  0.9040
  770MPD2     N11372   0.072   0.226  15.089  0.2991 -0.3311 -0.5231
  770MPD2    H511373   0.115   0.315  15.066  0.7817 -0.7407 -1.1784
  770MPD2    N111374   0.224   4.492  15.221 -0.4471  0.0453 -0.1435
  770MPD2    H711375   0.303   4.429  15.234  0.7261  1.7832  0.9952
  771MPD2     C11376   1.330   2.845  13.565  0.3610 -0.1005  0.3065
  771MPD2    C111377   1.297   2.950  13.477 -0.4175  0.3683  0.7185
  771MPD2    C211378   1.207   2.926  13.374 -0.3224  0.7557 -0.2073
  771MPD2    C311379   1.152   2.805  13.357  0.2903  1.4254  0.3091
  771MPD2    C411380   1.177   2.709  13.448 -0.5895  0.1111 -0.0720
  771MPD2    C511381   1.266   2.727  13.550  0.1845 -0.2448 -0.7805
  771MPD2     H11382   1.197   3.011  13.309  0.2883  0.9652 -0.0250
  771MPD2    H111383   1.138   2.608  13.441  0.1959  0.0161 -3.0099
  771MPD2    H211384   1.402   2.863  13.643  1.3831  2.9242 -1.3475
  771MPD2    H311385   1.284   2.639  13.610 -1.0161  0.9672  1.3952
  771MPD2     N11386   1.051   2.790  13.261  0.3308  0.3047  0.0672
  771MPD2    H511387   1.008   2.880  13.239 -1.6579 -1.0864 -1.7506
  771MPD2    N111388   1.349   3.078  13.501  0.7669 -0.5268 -0.3412
  771MPD2    H711389   1.328   3.143  13.426  1.3936 -1.0011 -0.9283
  772MPD2     C11390   1.333   3.862  13.958  0.2547  0.4022 -0.3929
  772MPD2    C111391   1.277   3.742  13.921 -0.1386  0.9068  0.4312
  772MPD2    C211392   1.141   3.729  13.950 -0.3811 -0.6766  0.5014
  772MPD2    C311393   1.067   3.817  14.026  0.0499 -0.3418  0.9216
  772MPD2    C411394   1.140   3.920  14.086 -0.8362  0.7459  0.0193
  772MPD2    C511395   1.269   3.940  14.054  0.5954  0.2013  0.2226
  772MPD2     H11396   1.092   3.641  13.911 -0.2669  0.6210 -2.5174
  772MPD2    H111397   1.093   3.995  14.149 -0.0725  2.0837 -1.0180
  772MPD2    H211398   1.440   3.872  13.943  0.4504 -0.8931  0.1814
  772MPD2    H311399   1.309   4.027  14.104  1.3972 -0.0839  0.0732
  772MPD2     N11400   0.932   3.809  14.059 -0.0904  0.1908  0.2992
  772MPD2    H511401   0.888   3.884  14.110  1.1126  1.8393 -1.1033
  772MPD2    N111402   1.348   3.653  13.837 -0.2781  0.5791  0.1458
  772MPD2    H711403   1.434   3.675  13.786 -0.2807 -0.9256 -0.5215
  773MPD2     C11404   0.108   4.322  17.654  0.1027  0.6186  0.0791
  773MPD2    C111405   0.023   4.221  17.695  0.2221 -0.0540  0.3776
  773MPD2    C211406   0.053   4.162   0.118  0.3592 -0.5086  0.1159
  773MPD2    C311407   0.154   4.208   0.199 -0.2927 -0.0216  0.0818
  773MPD2    C411408   0.230   4.316   0.157  0.0661 -0.3037  0.1937
  773MPD2    C511409   0.216   4.364   0.031 -0.4444 -0.7932  0.4553
  773MPD2     H11410   4.712   4.082   0.152  0.1764  0.4022  1.8832
  773MPD2    H111411   0.311   4.357   0.216  1.1287  0.0047 -1.4748
  773MPD2    H211412   0.099   4.364  17.554 -2.4518 -0.0222  0.0523
  773MPD2    H311413   0.273   4.452   0.003  0.2240 -1.0376  1.0605
  773MPD2     N11414   0.187   4.130   0.313  0.3942  0.2819  0.2090
  773MPD2    H511415   0.154   4.035   0.322 -1.2243  0.8747  0.5278
  773MPD2    N111416   4.627   4.182  17.629  0.2810 -0.2119  0.2399
  773MPD2    H711417   4.585   4.099  17.669 -0.0280  0.2560  0.8864
  774MPD2     C11418   3.987   3.304  13.294 -0.1317 -0.1323  0.1834
  774MPD2    C111419   4.035   3.415  13.357 -0.4053  0.2494  0.7010
  774MPD2    C211420   4.023   3.539  13.286 -0.7208  0.5741  0.8435
  774MPD2    C311421   3.954   3.539  13.164  0.6192 -0.6397  0.1696
  774MPD2    C411422   3.915   3.422  13.101  0.0650  0.2549  0.1136
  774MPD2    C511423   3.927   3.304  13.173  0.1350  0.5481 -0.3851
  774MPD2     H11424   4.071   3.630  13.321  0.5334  0.8676 -1.6469
  774MPD2    H111425   3.885   3.421  12.997  0.7608 -1.8685 -0.0675
  774MPD2    H211426   3.996   3.203  13.333  1.1795 -0.7574 -1.7616
  774MPD2    H311427   3.903   3.206  13.134 -3.5259  0.6147  1.7804
  774MPD2     N11428   3.951   3.664  13.097  0.0699 -0.1808 -0.4086
  774MPD2    H511429   3.998   3.735  13.151 -0.0282 -0.5420  0.1527
  774MPD2    N111430   4.109   3.397  13.470 -0.3852  0.5153  0.2363
  774MPD2    H711431   4.125   3.299  13.487  0.1515  0.3605 -1.1607
  775MPD2     C11432   0.702   0.146  15.475  0.1752  0.3525  0.1600
  775MPD2    C111433   0.749   0.203  15.595  0.6732  0.2242 -0.0732
  775MPD2    C211434   0.847   0.301  15.582  0.5900 -0.0208  0.6950
  775MPD2    C311435   0.907   0.326  15.463  0.4407 -0.2664 -0.5626
  775MPD2    C411436   0.872   0.254  15.352 -0.2035 -0.5395 -0.0728
  775MPD2    C511437   0.758   0.178  15.353 -0.4959 -0.2078 -0.5631
  775MPD2     H11438   0.863   0.367  15.666  1.4717 -0.7914  1.1283
  775MPD2    H111439   0.909   0.272  15.252 -2.1675  0.4053 -0.6322
  775MPD2    H211440   0.615   0.081  15.480  0.9793 -0.6513  1.0175
  775MPD2    H311441   0.709   0.135  15.266 -0.5782 -0.9088 -0.1711
  775MPD2     N11442   1.014   0.416  15.449  0.4026 -0.5401  0.1307
  775MPD2    H511443   1.044   0.424  15.352  0.5993  0.0522  0.2370
  775MPD2    N111444   0.674   0.191  15.718 -0.4257 -0.5580 -0.2081
  775MPD2    H711445   0.580   0.154  15.721 -1.2723  1.5705 -0.4780
  776MPD2     C11446   0.357   0.736  11.644 -0.1536 -0.3245 -0.1638
  776MPD2    C111447   0.232   0.782  11.616 -0.0270 -0.7503 -0.4423
  776MPD2    C211448   0.210   0.917  11.588 -0.9354  0.0048  0.1705
  776MPD2    C311449   0.309   1.010  11.578 -0.1111  0.4945  0.8001
  776MPD2    C411450   0.431   0.963  11.616  0.8392  0.0135  0.0859
  776MPD2    C511451   0.452   0.829  11.645  0.4672  0.2799  0.2464
  776MPD2     H11452   0.106   0.943  11.572 -0.9720 -0.9911 -1.1672
  776MPD2    H111453   0.510   1.037  11.609 -1.1956  1.9975 -2.3204
  776MPD2    H211454   0.383   0.634  11.666 -0.6319  0.0805  2.3400
  776MPD2    H311455   0.548   0.790  11.679  0.1930 -0.4904  0.1348
  776MPD2     N11456   0.294   1.144  11.536  0.2217 -1.0011 -0.3539
  776MPD2    H511457   0.379   1.199  11.527 -1.5338  1.5387 -1.6208
  776MPD2    N111458   0.133   0.680  11.629 -0.0792  0.4994 -0.2564
  776MPD2    H711459   0.162   0.584  11.645  1.6419  0.7839 -1.6926
  777MPD2     C11460   0.338   3.023   1.072  0.0192 -0.2601 -0.2145
  777MPD2    C111461   0.217   3.055   1.119  0.2255 -0.0911  0.0014
  777MPD2    C211462   0.108   2.980   1.073  0.3239 -0.1141  0.3520
  777MPD2    C311463   0.120   2.902   0.967  0.5678 -0.3847 -0.5049
  777MPD2    C411464   0.244   2.892   0.906 -0.2738 -0.5104 -1.3782
  777MPD2    C511465   0.349   2.948   0.966  0.0729  0.2892  0.4217
  777MPD2     H11466   0.015   2.993   1.129 -0.1418 -0.7413 -0.2828
  777MPD2    H111467   0.251   2.834   0.814 -0.3238 -0.8898 -1.1418
  777MPD2    H211468   0.425   3.074   1.112 -0.1906 -1.3731  1.6884
  777MPD2    H311469   0.449   2.930   0.928 -0.3623 -1.7780  0.2224
  777MPD2     N11470   0.021   2.816   0.932  0.0919  0.3332 -0.2389
  777MPD2    H511471   4.678   2.802   1.007 -0.0084  2.0687 -0.0077
  777MPD2    N111472   0.198   3.143   1.230  0.2051  0.3080 -0.1043
  777MPD2    H711473   0.106   3.167   1.263  0.1623 -1.0940  0.7620
  778MPD2     C11474   1.187   3.552  15.224 -0.4548 -0.3443 -0.0578
  778MPD2    C111475   1.195   3.465  15.122  0.2173  0.7604 -0.5352
  778MPD2    C211476   1.275   3.493  15.015  0.2701  0.1453  0.8269
  778MPD2    C311477   1.337   3.613  14.996  0.2452 -0.1505 -0.0474
  778MPD2    C411478   1.323   3.707  15.092 -0.5906  0.4408  0.5777
  778MPD2    C511479   1.243   3.671  15.203  0.6254 -0.6969 -0.5060
  778MPD2     H11480   1.283   3.424  14.932 -3.2641  1.1138 -0.3022
  778MPD2    H111481   1.371   3.803  15.074  0.5489 -0.4173 -0.8982
  778MPD2    H211482   1.123   3.539  15.311  1.0147  2.1934  1.3928
  778MPD2    H311483   1.229   3.735  15.289 -2.3493  0.6433 -1.9577
  778MPD2     N11484   1.416   3.627  14.879 -0.6322 -0.6717  0.5710
  778MPD2    H511485   1.401   3.561  14.804  1.0906  0.4691 -0.7950
  778MPD2    N111486   1.131   3.344  15.125  0.9618  0.1619 -0.5766
  778MPD2    H711487   1.161   3.277  15.055 -1.4658  1.7144 -3.0822
  779MPD2     C11488   1.176   2.100  14.647 -0.2005  0.4088  0.2056
  779MPD2    C111489   1.169   2.002  14.547  0.2279 -0.6989 -0.3735
  779MPD2    C211490   1.131   2.048  14.423 -0.1270  0.0123  0.0523
  779MPD2    C311491   1.109   2.178  14.388 -0.7638  0.0583  0.0922
  779MPD2    C411492   1.122   2.273  14.489  0.4892 -0.2399  0.5033
  779MPD2    C511493   1.150   2.233  14.620 -0.1927 -0.1720  0.2253
  779MPD2     H11494   1.140   1.975  14.343 -1.2748  0.5657 -0.5841
  779MPD2    H111495   1.108   2.380  14.479  0.6663 -0.3561 -0.9652
  779MPD2    H211496   1.209   2.079  14.749 -1.8521 -0.3342  0.5868
  779MPD2    H311497   1.166   2.311  14.694 -0.5021 -0.8361  0.9901
  779MPD2     N11498   1.085   2.209  14.246  0.1431  0.3064  0.1901
  779MPD2    H511499   1.112   2.136  14.181  1.0153  1.4568 -0.7506
  779MPD2    N111500   1.195   1.860  14.557 -0.3492  0.1980  0.6757
  779MPD2    H711501   1.191   1.801  14.475 -3.7275 -1.3159  1.8889
  780MPD2     C11502   0.374   1.839  17.388  0.4230 -0.6110 -0.0537
  780MPD2    C111503   0.484   1.754  17.398  0.7743  0.0352 -0.0983
  780MPD2    C211504   0.603   1.810  17.367  0.1143  0.2750 -0.3748
  780MPD2    C311505   0.612   1.938  17.320  0.4117 -0.6419  0.3564
  780MPD2    C411506   0.504   2.012  17.295  0.2676  0.0584  0.0077
  780MPD2    C511507   0.383   1.964  17.339 -0.2786  1.0404  0.1168
  780MPD2     H11508   0.696   1.763  17.396  1.6087  1.9054 -2.5365
  780MPD2    H111509   0.504   2.117  17.271 -0.6975 -0.5667 -2.7681
  780MPD2    H211510   0.274   1.799  17.404 -0.3783  1.9989  1.4721
  780MPD2    H311511   0.295   2.024  17.323 -1.5144 -0.6258  0.6429
  780MPD2     N11512   0.744   1.990  17.315 -0.0672  0.5418 -0.3168
  780MPD2    H511513   0.818   1.937  17.360 -2.5089 -1.9554  0.7643
  780MPD2    N111514   0.471   1.638  17.471  0.0215 -1.1682  0.3031
  780MPD2    H711515   0.382   1.614  17.513 -0.0122 -0.9757  0.3421
  781MPD2     C11516   2.260   3.599  12.115  1.1333 -0.0412 -0.6233
  781MPD2    C111517   2.334   3.550  12.225  0.2302  0.6231  0.4681
  781MPD2    C211518   2.453   3.485  12.197  0.5897  0.3196  0.0871
  781MPD2    C311519   2.513   3.480  12.071  0.0969  0.1843  1.0456
  781MPD2    C411520   2.439   3.541  11.970  0.0626  0.0298  0.9264
  781MPD2    C511521   2.313   3.587  11.991  0.3398  0.0493 -0.0247
  781MPD2     H11522   2.492   3.434  12.284  0.7319  0.2221 -0.0322
  781MPD2    H111523   2.476   3.536  11.868 -1.2039  0.3239  0.4534
  781MPD2    H211524   2.161   3.643  12.117  1.6801  1.2579 -1.7653
  781MPD2    H311525   2.263   3.621  11.901 -1.2705  0.5534  1.0648
  781MPD2     N11526   2.632   3.417  12.039  0.2020  0.4642  0.6680
  781MPD2    H511527   2.660   3.401  11.943  2.5373  1.7102  1.1388
  781MPD2    N111528   2.287   3.566  12.360 -0.8595  0.1427  0.3863
  781MPD2    H711529   2.339   3.503  12.421  0.5678  1.1363  0.2173
  782MPD2     C11530   0.172   4.398  10.386  0.7698  0.5810  0.3467
  782MPD2    C111531   0.301   4.356  10.361 -0.1565 -0.0790 -0.3211
  782MPD2    C211532   0.402   4.427  10.426 -0.3260  0.8815 -0.5322
  782MPD2    C311533   0.368   4.533  10.511 -0.5802 -0.6908 -0.1881
  782MPD2    C411534   0.244   4.585  10.523 -0.0052 -0.2464 -0.5233
  782MPD2    C511535   0.147   4.525  10.450 -0.3799  0.0828  0.0810
  782MPD2     H11536   0.503   4.388  10.426 -0.3705  0.7820  1.2009
  782MPD2    H111537   0.224   4.678  10.576 -1.2471 -3.0021  3.8437
  782MPD2    H211538   0.082   4.349  10.352  1.2132  0.1409 -0.1859
  782MPD2    H311539   0.048   4.568  10.448 -0.4712 -0.1751 -1.5926
  782MPD2     N11540   0.474   4.589  10.585 -0.2425 -0.8454  0.1047
  782MPD2    H511541   0.564   4.546  10.570  1.4454  2.9320 -0.3556
  782MPD2    N111542   0.317   4.230  10.286 -0.6587  0.4166 -0.3951
  782MPD2    H711543   0.236   4.181  10.250 -0.0494 -1.0555  0.2258
  783MPD2     C11544   0.363   3.904  10.909  0.5691 -0.0962 -0.2235
  783MPD2    C111545   0.265   3.976  10.852 -0.1168  0.0494 -0.6027
  783MPD2    C211546   0.232   3.951  10.721  0.5944  0.2829 -1.3182
  783MPD2    C311547   0.310   3.871  10.638 -0.3362 -1.4595 -0.1245
  783MPD2    C411548   0.414   3.793  10.696  0.0235  0.2509  0.7725
  783MPD2    C511549   0.442   3.821  10.833  0.4148 -0.3204  0.1638
  783MPD2     H11550   0.148   4.003  10.677 -2.0360 -0.6162  2.6420
  783MPD2    H111551   0.480   3.725  10.643 -1.0306  1.4743 -2.1280
  783MPD2    H211552   0.387   3.907  11.014  2.0718 -0.1449 -0.5704
  783MPD2    H311553   0.517   3.758  10.879 -1.4292 -1.2663  1.8532
  783MPD2     N11554   0.272   3.863  10.505  0.2883 -0.0217 -0.5688
  783MPD2    H511555   0.205   3.933  10.476 -0.8333 -1.0809 -0.5280
  783MPD2    N111556   0.179   4.053  10.934  0.5469 -0.0720  0.3917
  783MPD2    H711557   0.087   4.071  10.894  0.5798  0.0975  0.3904
  784MPD2     C11558   2.619   4.623   1.274 -0.3595 -0.1019  0.2266
  784MPD2    C111559   2.648   4.655   1.137 -0.2856  0.0036 -0.2617
  784MPD2    C211560   2.538   4.696   1.052 -0.1800  0.0106 -0.5811
  784MPD2    C311561   2.416   4.718   1.113 -0.5528  0.4870  0.3723
  784MPD2    C411562   2.394   4.687   1.246  0.5658  0.3991 -0.5410
  784MPD2    C511563   2.493   4.636   1.325  0.4132  0.2169  0.6782
  784MPD2     H11564   2.561   4.720   0.949  0.1999 -1.6615 -0.8971
  784MPD2    H111565   2.297   4.707   1.289  0.9235 -0.1876  0.5526
  784MPD2    H211566   2.692   4.587   1.345 -0.7045  1.4488  1.3620
  784MPD2    H311567   2.481   4.615   1.430  0.5532 -1.9007  0.2747
  784MPD2     N11568   2.321   0.053   1.036 -0.0245 -0.2209  0.2986
  784MPD2    H511569   2.352   0.066   0.940  1.6272 -4.0235  0.3213
  784MPD2    N111570   2.778   4.649   1.081 -0.0730 -0.5532 -0.2062
  784MPD2    H711571   2.785   4.694   0.990 -1.3742 -1.4425 -0.7407
  785MPD2     C11572   2.978   2.612  10.978 -0.2984  0.1818  0.4876
  785MPD2    C111573   2.886   2.712  10.989  0.2632 -0.1758  0.5195
  785MPD2    C211574   2.752   2.686  10.986 -0.1591 -0.2490 -0.4393
  785MPD2    C311575   2.704   2.555  10.987 -0.0080  0.2603  0.3505
  785MPD2    C411576   2.795   2.455  10.989 -0.1957 -0.2372  0.7616
  785MPD2    C511577   2.924   2.485  10.984  0.4309 -0.1540  0.0565
  785MPD2     H11578   2.682   2.767  10.968  1.0537  1.1766  1.2673
  785MPD2    H111579   2.765   2.351  10.991  0.6473 -0.4827  0.3922
  785MPD2    H211580   3.083   2.637  10.975  0.0810 -1.4947  0.0077
  785MPD2    H311581   2.996   2.406  10.970 -1.3130 -1.9354  1.1602
  785MPD2     N11582   2.567   2.540  10.982  0.1153 -0.4702  0.7973
  785MPD2    H511583   2.515   2.627  10.983  1.9973  0.6834 -0.9525
  785MPD2    N111584   2.939   2.845  10.985 -0.0597 -0.5143 -0.3777
  785MPD2    H711585   3.039   2.850  10.969 -0.0271 -0.4555 -0.1546
  786MPD2     C11586   1.857   1.146  14.429 -0.3734 -0.0508 -0.2881
  786MPD2    C111587   1.834   1.017  14.478  0.6141  0.6136 -0.1319
  786MPD2    C211588   1.859   0.995  14.610  0.0602  0.3441  0.0100
  786MPD2    C311589   1.880   1.095  14.700  0.1691 -0.3034  0.1437
  786MPD2    C411590   1.900   1.221  14.650 -0.3601  1.3056  0.1151
  786MPD2    C511591   1.883   1.247  14.515  0.1225 -0.0401  0.3946
  786MPD2     H11592   1.860   0.895  14.652 -2.5901  0.4459  0.3130
  786MPD2    H111593   1.901   1.311  14.711  0.8165  0.0296  1.9737
  786MPD2    H211594   1.858   1.186  14.328 -0.3333  0.8681  0.0695
  786MPD2    H311595   1.898   1.346  14.473  4.6436 -1.0739 -0.4173
  786MPD2     N11596   1.896   1.085  14.843 -0.1608  0.0595 -0.5902
  786MPD2    H511597   1.902   1.174  14.891 -0.6241 -0.0251 -0.3653
  786MPD2    N111598   1.786   0.905  14.396 -0.1742  0.9749 -0.9977
  786MPD2    H711599   1.770   0.817  14.444 -0.0671  1.3262 -0.3258
  787MPD2     C11600   1.179   0.334  14.456 -0.3119 -0.1658  0.8100
  787MPD2    C111601   1.311   0.374  14.466 -0.4494 -0.1946 -0.0067
  787MPD2    C211602   1.386   0.313  14.561 -0.1990  0.0010 -0.2316
  787MPD2    C311603   1.328   0.233  14.658  0.1223  0.4565  0.4907
  787MPD2    C411604   1.194   0.204  14.651  0.7607 -0.0492 -0.0130
  787MPD2    C511605   1.118   0.251  14.548 -0.4856 -0.1971 -0.3825
  787MPD2     H11606   1.490   0.345  14.567 -0.1471 -0.5404  1.7023
  787MPD2    H111607   1.145   0.156  14.735 -0.0190  1.6726  0.5237
  787MPD2    H211608   1.125   0.380  14.374  0.5201  1.6257  1.2805
  787MPD2    H311609   1.013   0.222  14.542  0.3496 -2.8935 -2.2394
  787MPD2     N11610   1.424   0.195  14.757 -0.2897  0.2638 -0.1284
  787MPD2    H511611   1.520   0.228  14.749 -0.1544  0.2153  1.2610
  787MPD2    N111612   1.362   0.474  14.375 -0.0185  0.2257  0.1399
  787MPD2    H711613   1.307   0.486  14.291  1.1481 -0.6737 -0.7678
  788MPD2     C11614   4.058   3.868   0.635  0.5793  0.5251  0.0999
  788MPD2    C111615   3.937   3.820   0.609 -0.4485 -0.3499 -0.4643
  788MPD2    C211616   3.846   3.885   0.531 -0.2195  0.9166  0.3093
  788MPD2    C311617   3.873   4.013   0.490 -0.4554 -0.2864 -0.3450
  788MPD2    C411618   3.999   4.065   0.520 -0.1247 -0.3032 -0.3100
  788MPD2    C511619   4.092   3.992   0.586  0.5878  0.4460  0.3297
  788MPD2     H11620   3.762   3.825   0.500  0.4534 -0.9871  2.1981
  788MPD2    H111621   4.016   4.170   0.500  1.3690 -0.6064 -0.5717
  788MPD2    H211622   4.132   3.813   0.693 -0.6726 -0.5809  0.6467
  788MPD2    H311623   4.191   4.033   0.601  0.7542 -0.5030  1.8742
  788MPD2     N11624   3.787   4.096   0.414  0.4291  0.1652  0.1988
  788MPD2    H511625   3.824   4.185   0.383  1.0193 -0.2136 -0.1767
  788MPD2    N111626   3.900   3.688   0.645  0.1759  0.3983 -0.6386
  788MPD2    H711627   3.825   3.644   0.593 -1.0754  2.3655 -0.5057
  789MPD2     C11628   3.807   3.600  16.205 -0.1934  0.0962 -0.1446
  789MPD2    C111629   3.799   3.572  16.341 -0.2895 -0.4770 -0.4235
  789MPD2    C211630   3.698   3.637  16.410  0.3354 -0.4174 -0.1763
  789MPD2    C311631   3.616   3.728  16.355  0.4741 -0.2870 -0.7408
  789MPD2    C411632   3.623   3.757  16.222 -0.4551  0.2175  0.0126
  789MPD2    C511633   3.720   3.690  16.152 -0.3589  1.0720  0.1021
  789MPD2     H11634   3.693   3.611  16.516  0.1071  0.8634  0.1205
  789MPD2    H111635   3.564   3.826  16.163  0.4482  1.4259  0.5367
  789MPD2    H211636   3.868   3.555  16.128 -0.0502 -0.6517  0.4136
  789MPD2    H311637   3.742   3.704  16.046 -1.4247  0.8156 -0.1490
  789MPD2     N11638   3.515   3.794  16.423 -0.0396 -0.0467  0.1561
  789MPD2    H511639   3.456   3.856  16.370 -0.9000  0.4360  1.6729
  789MPD2    N111640   3.882   3.472  16.409  0.1649 -0.6855  0.2406
  789MPD2    H711641   3.858   3.446  16.504 -1.8698 -0.8248 -0.3221
  790MPD2     C11642   0.065   0.280  13.608 -0.6735  0.0457  0.1192
  790MPD2    C111643   0.047   0.414  13.601  0.4070  1.4057 -0.5558
  790MPD2    C211644   4.706   0.466  13.493  0.2502  1.1884  0.5094
  790MPD2    C311645   4.669   0.383  13.386 -0.4231 -0.2558  0.4522
  790MPD2    C411646   4.688   0.244  13.396  1.2903 -0.3161  0.3840
  790MPD2    C511647   0.029   0.198  13.505  0.8824  0.7870  0.0199
  790MPD2     H11648   4.695   0.574  13.488 -0.8213  1.0891  0.7778
  790MPD2    H111649   4.671   0.178  13.312 -1.7796  0.6254  0.2725
  790MPD2    H211650   0.108   0.232  13.695 -2.1006 -0.6545  0.4430
  790MPD2    H311651   0.046   0.091  13.513 -2.6191  0.2271  0.0733
  790MPD2     N11652   4.590   0.438  13.281  0.4333 -0.1706 -0.1170
  790MPD2    H511653   4.565   0.536  13.291  1.7984  0.1931 -0.1773
  790MPD2    N111654   0.084   0.496  13.712  0.0687  0.2541 -0.4884
  790MPD2    H711655   0.142   0.452  13.783  0.2976  1.2945 -0.0300
  791MPD2     C11656   4.036   0.947  12.856  0.0913 -0.4581 -0.1010
  791MPD2    C111657   4.056   0.829  12.914  0.5194 -0.5239  1.0308
  791MPD2    C211658   3.944   0.756  12.954  0.4367  0.0946  0.2527
  791MPD2    C311659   3.818   0.811  12.935  0.9039 -0.0639 -0.2772
  791MPD2    C411660   3.792   0.938  12.888 -0.4945 -0.1985 -0.1541
  791MPD2    C511661   3.914   0.999  12.852 -0.0664 -0.7838  0.1433
  791MPD2     H11662   3.945   0.651  12.981 -1.2384 -0.2942 -1.1427
  791MPD2    H111663   3.703   0.995  12.866  0.0126  1.1359  1.2918
  791MPD2    H211664   4.124   0.996  12.816 -0.9703  0.2957 -1.5074
  791MPD2    H311665   3.916   1.090  12.793 -0.4518  0.8489  2.6908
  791MPD2     N11666   3.713   0.722  12.952 -0.1979  0.2655  0.5931
  791MPD2    H511667   3.744   0.626  12.959 -0.0084  0.1197 -2.2503
  791MPD2    N111668   4.189   0.783  12.924  0.6788 -0.2936 -0.4763
  791MPD2    H711669   4.266   0.835  12.882 -2.1575  3.0817 -1.4796
  792MPD2     C11670   0.455   0.544  11.385  0.5509 -0.6301  0.0875
  792MPD2    C111671   0.359   0.602  11.307 -0.1143  0.1576 -0.7373
  792MPD2    C211672   0.253   0.523  11.258 -0.2041 -1.0927  0.3990
  792MPD2    C311673   0.256   0.384  11.277  0.1980  0.4390 -0.1621
  792MPD2    C411674   0.360   0.326  11.353  0.2302  0.2712 -0.7177
  792MPD2    C511675   0.463   0.404  11.403 -0.5272 -0.2172  0.3909
  792MPD2     H11676   0.170   0.563  11.202  0.6757 -1.4986 -1.1942
  792MPD2    H111677   0.348   0.222  11.380 -0.5786  0.8078  1.0314
  792MPD2    H211678   0.533   0.607  11.426  0.2095 -0.2297  0.1254
  792MPD2    H311679   0.533   0.347  11.462 -2.0949 -2.0254  0.5105
  792MPD2     N11680   0.155   0.294  11.225  0.3957 -0.2482  0.0545
  792MPD2    H511681   0.168   0.195  11.244 -0.5993 -0.8166 -2.2031
  792MPD2    N111682   0.366   0.737  11.286  0.0415 -0.0444 -0.6620
  792MPD2    H711683   0.444   0.791  11.324 -0.3674  0.2893 -0.2950
  793MPD2     C11684   4.462   4.545  10.407 -0.1446 -0.3811 -0.1187
  793MPD2    C111685   4.519   4.666  10.417 -0.2159 -0.1860 -0.5144
  793MPD2    C211686   4.521   0.010  10.533  0.1487 -0.1928 -0.1543
  793MPD2    C311687   4.462   4.682  10.654  0.1227  0.2172  0.0733
  793MPD2    C411688   4.402   4.561  10.638 -0.1573 -0.0335 -0.0808
  793MPD2    C511689   4.402   4.498  10.519  0.0726  0.6977  0.4238
  793MPD2     H11690   4.564   0.110  10.536 -0.6769  0.1695 -0.3021
  793MPD2    H111691   4.345   4.510  10.716  3.2314 -0.3345  2.1692
  793MPD2    H211692   4.458   4.483  10.318 -2.8717 -0.8325  0.3081
  793MPD2    H311693   4.349   4.403  10.516  0.2589  0.6115 -0.0453
  793MPD2     N11694   4.458   0.012  10.781  0.1415 -0.2589 -0.1653
  793MPD2    H511695   4.401   4.690  10.851 -1.3071 -0.4314 -1.4680
  793MPD2    N111696   4.584   0.003  10.310  0.1472  0.4321  0.1416
  793MPD2    H711697   4.636   0.086  10.338 -0.7137  1.1287 -0.3232
  794MPD2     C11698   4.014   4.445  17.086 -0.0660  0.0070  0.1563
  794MPD2    C111699   4.065   4.330  17.040 -0.0086  0.0345 -0.0629
  794MPD2    C211700   4.029   4.289  16.909 -0.3193 -0.2282 -0.1126
  794MPD2    C311701   3.967   4.372  16.818 -0.7076  0.4427 -0.8694
  794MPD2    C411702   3.911   4.491  16.868 -0.6905  0.5685 -0.3720
  794MPD2    C511703   3.939   4.525  17.000  0.7137  0.6077 -0.0172
  794MPD2     H11704   4.072   4.193  16.884  0.3081  0.1301 -0.4268
  794MPD2    H111705   3.874   4.573  16.807 -1.0751  1.2779  0.8116
  794MPD2    H211706   4.031   4.471  17.190 -2.2645  0.7145  0.3406
  794MPD2    H311707   3.902   4.617  17.045 -1.6879  0.3088 -1.3584
  794MPD2     N11708   3.959   4.347  16.682  0.4289  0.1139  0.0067
  794MPD2    H511709   3.906   4.416  16.631 -1.5110 -1.3955 -0.0346
  794MPD2    N111710   4.140   4.249  17.133  1.2853 -0.4732 -0.0808
  794MPD2    H711711   4.163   4.155  17.103  1.6889 -0.0083 -1.2560
  795MPD2     C11712   2.385   2.240  13.278 -0.3375  0.3963 -0.3636
  795MPD2    C111713   2.334   2.112  13.289 -0.7354 -0.2852  0.8732
  795MPD2    C211714   2.422   2.023  13.360  0.0730 -0.0350  0.3103
  795MPD2    C311715   2.549   2.064  13.405 -0.1397 -0.2615  0.1338
  795MPD2    C411716   2.595   2.196  13.381 -0.1110 -0.6622  0.2933
  795MPD2    C511717   2.517   2.274  13.315 -0.4868 -0.8379  0.9515
  795MPD2     H11718   2.386   1.922  13.379  1.1568 -0.4644  0.1096
  795MPD2    H111719   2.695   2.228  13.409  0.6151 -0.7911 -2.1595
  795MPD2    H211720   2.326   2.318  13.231 -1.6333 -0.1408  0.3761
  795MPD2    H311721   2.563   2.372  13.304 -3.9542  0.7581  0.6524
  795MPD2     N11722   2.630   1.989  13.492  0.3366  0.9279  0.0778
  795MPD2    H511723   2.721   2.030  13.509  0.1295  0.8807  1.3018
  795MPD2    N111724   2.208   2.067  13.251  0.3594  0.1803  0.0077
  795MPD2    H711725   2.173   1.975  13.274 -0.4836  0.4497 -0.2286
  796MPD2     C11726   1.552   3.527  16.066 -0.3574  0.0091  0.1958
  796MPD2    C111727   1.635   3.613  16.133  0.6544 -0.2135  0.0991
  796MPD2    C211728   1.645   3.744  16.099  0.2929 -0.3002 -0.7255
  796MPD2    C311729   1.561   3.801  16.003 -0.0363  0.1607 -0.3641
  796MPD2    C411730   1.484   3.709  15.935 -0.4187  0.3143  0.3584
  796MPD2    C511731   1.470   3.576  15.966  0.2455  0.5699  0.3118
  796MPD2     H11732   1.708   3.813  16.154  0.6037  0.0805 -1.5657
  796MPD2    H111733   1.420   3.753  15.859 -1.1574 -1.9942 -0.3688
  796MPD2    H211734   1.538   3.423  16.093  1.2407 -0.4826 -0.8760
  796MPD2    H311735   1.406   3.510  15.909  1.3557  1.0443 -1.4951
  796MPD2     N11736   1.555   3.941  15.984  0.0142  0.0191 -0.5033
  796MPD2    H511737   1.611   3.996  16.049 -0.5426 -2.0119  1.7112
  796MPD2    N111738   1.707   3.560  16.243  0.1650 -0.2778  0.0460
  796MPD2    H711739   1.692   3.464  16.272  0.0203 -1.0990 -2.7687
  797MPD2     C11740   2.940   2.990  17.584 -0.0102 -0.1515 -0.5285
  797MPD2    C111741   2.995   3.042  17.472  0.6168  0.3455 -0.2066
  797MPD2    C211742   2.912   3.136  17.403  0.8442 -0.1350 -0.6015
  797MPD2    C311743   2.784   3.174  17.449  0.7646  0.5938 -0.0259
  797MPD2    C411744   2.742   3.129  17.575 -0.0865  0.0369  0.7295
  797MPD2    C511745   2.820   3.036  17.639  0.5233 -0.9736  0.2949
  797MPD2     H11746   2.943   3.181  17.309  1.1035  2.5966  0.8099
  797MPD2    H111747   2.653   3.167  17.623  0.5564  1.5889  0.7111
  797MPD2    H211748   2.994   2.913  17.639 -0.5817  0.0388  0.3176
  797MPD2    H311749   2.784   2.998   0.036  2.2928 -0.3672  1.2169
  797MPD2     N11750   2.711   3.272  17.378 -0.0242 -0.0510  0.1446
  797MPD2    H511751   2.630   3.320  17.416 -0.1248 -1.7747  2.1387
  797MPD2    N111752   3.117   3.009  17.414  0.8612  0.0221 -0.3036
  797MPD2    H711753   3.135   3.055  17.325  1.0137  0.2909 -0.1353
  798MPD2     C11754   3.323   3.579  16.978 -0.1504  0.0737 -0.2419
  798MPD2    C111755   3.247   3.522  17.076  0.1574 -0.2077  0.0395
  798MPD2    C211756   3.275   3.408  17.136  0.0370 -0.3956  0.1946
  798MPD2    C311757   3.390   3.345  17.106  0.1397 -1.3450  0.3137
  798MPD2    C411758   3.471   3.408  17.013  0.7051 -0.2215 -0.4112
  798MPD2    C511759   3.439   3.519  16.947 -0.1123 -0.2853  0.1447
  798MPD2     H11760   3.222   3.366  17.221  0.7556 -0.7713  0.4548
  798MPD2    H111761   3.556   3.352  16.976 -0.4552 -1.1533 -1.6370
  798MPD2    H211762   3.301   3.681  16.949 -0.4424  0.6888  2.0991
  798MPD2    H311763   3.507   3.550  16.869 -1.8870  0.9992 -0.8802
  798MPD2     N11764   3.407   3.219  17.163 -0.2809  0.0656  0.0861
  798MPD2    H511765   3.331   3.199  17.226 -2.2616  1.6852 -1.7812
  798MPD2    N111766   3.126   3.586  17.115  0.3175  0.0837  0.0602
  798MPD2    H711767   3.094   3.652  17.044 -0.5531 -1.1083 -0.6582
  799MPD2     C11768   0.971   4.561  14.737  0.1446  0.5828  0.0943
  799MPD2    C111769   1.084   4.573  14.655  0.0487  0.2348  0.3602
  799MPD2    C211770   1.076   4.619  14.526  0.5395 -0.2191 -0.2174
  799MPD2    C311771   0.955   4.676  14.491 -0.8929  0.2342  0.3826
  799MPD2    C411772   0.856   4.680  14.589  0.6583 -0.2895  0.0618
  799MPD2    C511773   0.853   4.621  14.707 -0.3456 -0.2455 -0.3525
  799MPD2     H11774   1.154   4.609  14.451 -0.4176 -0.1912 -1.2203
  799MPD2    H111775   0.759   4.722  14.565  0.8930  0.4665  0.4658
  799MPD2    H211776   0.984   4.518  14.836  0.9120  0.4418 -0.0693
  799MPD2    H311777   0.773   4.626  14.779  0.6949  0.7380  0.7421
  799MPD2     N11778   0.920   0.013  14.369  0.2866 -0.0622 -0.2005
  799MPD2    H511779   0.824   0.042  14.353  0.2575 -1.7013 -3.0136
  799MPD2    N111780   1.214   4.533  14.693 -0.2513  0.2687  0.5285
  799MPD2    H711781   1.290   4.536  14.626  0.0314  2.3206  0.9358
  800MPD2     C11782   2.357   1.207  14.585 -0.7810  0.0335  0.1149
  800MPD2    C111783   2.353   1.231  14.448 -0.8460  0.3234  0.3803
  800MPD2    C211784   2.265   1.152  14.368 -0.4618 -0.0397 -0.4961
  800MPD2    C311785   2.191   1.051  14.430 -0.2664  1.3242 -0.5416
  800MPD2    C411786   2.180   1.044  14.565  0.2853  0.0200 -0.8436
  800MPD2    C511787   2.261   1.128  14.640 -1.0938 -0.4166 -0.2185
  800MPD2     H11788   2.259   1.169  14.261 -2.0538 -0.6842 -0.5022
  800MPD2    H111789   2.131   0.968  14.625 -0.5048  0.5455 -0.8238
  800MPD2    H211790   2.422   1.264  14.652 -0.8524  0.2468  0.0034
  800MPD2    H311791   2.264   1.117  14.748 -2.7747  0.4049 -0.0840
  800MPD2     N11792   2.134   0.947  14.360  0.1775  0.5711 -0.0254
  800MPD2    H511793   2.068   0.888  14.410  0.7592  0.6447  0.8149
  800MPD2    N111794   2.440   1.334  14.399 -0.0794  0.3011 -0.6028
  800MPD2    H711795   2.505   1.366  14.469 -2.0798 -2.1767  2.4132
  801MPD2     C11796   2.424   2.074  14.273  0.8894  0.3766  0.2224
  801MPD2    C111797   2.400   1.951  14.330  0.3292  0.5854 -0.3790
  801MPD2    C211798   2.332   1.947  14.452 -0.2341  0.4852  0.0612
  801MPD2    C311799   2.280   2.065  14.509 -0.0156 -0.1437  0.0447
  801MPD2    C411800   2.310   2.185  14.452 -0.0529  0.1892 -0.0715
  801MPD2    C511801   2.380   2.188  14.338  0.0674 -0.1984  0.2031
  801MPD2     H11802   2.311   1.850  14.497  0.7182 -0.7996 -2.2748
  801MPD2    H111803   2.301   2.278  14.508 -3.2385 -0.6208  0.7235
  801MPD2    H211804   2.486   2.078  14.184  0.1691 -0.4523 -0.3117
  801MPD2    H311805   2.409   2.285  14.298 -1.7944  0.1727 -0.2540
  801MPD2     N11806   2.203   2.059  14.628  0.4264 -0.6149  0.5804
  801MPD2    H511807   2.169   2.151  14.656 -0.4317 -0.4648 -0.9658
  801MPD2    N111808   2.454   1.835  14.265  0.0211 -0.4677 -0.9572
  801MPD2    H711809   2.432   1.745  14.308 -1.1210  0.3675  0.2180
  802MPD2     C11810   2.160   2.002   0.086 -0.1478  0.5515 -0.3881
  802MPD2    C111811   2.036   2.042   0.040  0.5480  0.7028  0.3780
  802MPD2    C211812   1.981   1.977  17.620 -0.0675  0.5380  0.5719
  802MPD2    C311813   2.060   1.891  17.550 -0.4958  0.7123 -0.2303
  802MPD2    C411814   2.178   1.844  17.601  0.5133  0.2602 -0.1991
  802MPD2    C511815   2.227   1.905   0.017  0.1307  0.0772 -0.3404
  802MPD2     H11816   1.888   2.003  17.571  0.2761  1.3995  0.3845
  802MPD2    H111817   2.236   1.769  17.548 -0.4933 -0.6694  0.0126
  802MPD2    H211818   2.205   2.041   0.177 -1.5335  1.2613 -0.0049
  802MPD2    H311819   2.325   1.876   0.055  0.0417 -0.1385 -0.2745
  802MPD2     N11820   2.003   1.840  17.431 -0.4426  0.0145  0.2309
  802MPD2    H511821   1.922   1.884  17.388  0.8339  1.8437 -0.2592
  802MPD2    N111822   1.950   2.131   0.114 -0.7739 -0.3149 -0.3612
  802MPD2    H711823   1.871   2.168   0.063 -1.9094 -0.5012  1.2380
  803MPD2     C11824   3.434   0.757  12.181  0.7918  0.6250  0.2814
  803MPD2    C111825   3.305   0.814  12.176 -0.1805 -0.7130  0.3560
  803MPD2    C211826   3.201   0.738  12.126 -0.5207  0.5334 -1.0661
  803MPD2    C311827   3.220   0.595  12.105 -0.2626 -0.3874  0.1481
  803MPD2    C411828   3.347   0.538  12.126 -0.5844 -0.2390 -0.2401
  803MPD2    C511829   3.448   0.623  12.164  0.1534  0.2862  0.9174
  803MPD2     H11830   3.106   0.788  12.108 -1.0855 -0.6411 -1.3232
  803MPD2    H111831   3.357   0.431  12.110  2.7910  0.1010 -0.3537
  803MPD2    H211832   3.527   0.805  12.209  1.0912  1.1817 -1.6621
  803MPD2    H311833   3.548   0.582  12.176 -0.0203 -0.0669  1.1889
  803MPD2     N11834   3.110   0.516  12.072 -0.1805 -0.5721  0.4362
  803MPD2    H511835   3.124   0.416  12.080 -0.6692 -0.5019  2.1184
  803MPD2    N111836   3.273   0.941  12.231 -0.2515  0.5648 -0.1682
  803MPD2    H711837   3.174   0.963  12.234  0.2404  2.8646 -1.0024
  804MPD2     C11838   2.375   1.688  17.018  0.1260 -0.4383  0.7195
  804MPD2    C111839   2.409   1.619  17.132  0.0672 -0.2737 -0.1115
  804MPD2    C211840   2.435   1.689  17.247  0.3757 -0.5718 -0.1892
  804MPD2    C311841   2.433   1.826  17.249 -0.1987  0.1486  0.6039
  804MPD2    C411842   2.400   1.895  17.139  0.4371 -0.1918  0.0386
  804MPD2    C511843   2.376   1.825  17.020 -0.0060 -0.2272  0.3059
  804MPD2     H11844   2.452   1.635  17.339 -2.2574 -0.0318  0.6016
  804MPD2    H111845   2.402   2.003  17.136  0.3584 -0.2531 -2.0590
  804MPD2    H211846   2.352   1.638  16.925  1.2411  1.2288 -0.4382
  804MPD2    H311847   2.352   1.881  16.931  1.0585 -1.4514 -0.7462
  804MPD2     N11848   2.472   1.886  17.368  0.2784 -0.8451 -0.1086
  804MPD2    H511849   2.511   1.821  17.436  1.0596 -1.0708 -0.7624
  804MPD2    N111850   2.412   1.475  17.144  0.1707  0.4660  0.5451
  804MPD2    H711851   2.418   1.430  17.235  2.4459  0.0496  0.1829
  805MPD2     C11852   1.484   0.412  15.206 -0.5126 -0.3076  0.3975
  805MPD2    C111853   1.504   0.302  15.292  0.3931  0.0340  0.1664
  805MPD2    C211854   1.631   0.275  15.333  0.1093  0.4616  0.5601
  805MPD2    C311855   1.734   0.358  15.302  0.1905 -0.5458  0.0744
  805MPD2    C411856   1.710   0.471  15.232  0.4117  0.4553  0.5277
  805MPD2    C511857   1.592   0.489  15.172  0.4876 -0.2587  0.0835
  805MPD2     H11858   1.639   0.190  15.400  0.2028 -0.9923 -1.2977
  805MPD2    H111859   1.782   0.550  15.211  1.3161 -0.6779 -0.6349
  805MPD2    H211860   1.389   0.438  15.162  0.0424 -1.7356 -1.6512
  805MPD2    H311861   1.580   0.585  15.123 -0.4855 -0.2168  0.3946
  805MPD2     N11862   1.856   0.337  15.367 -0.2483  0.7310  0.1399
  805MPD2    H511863   1.870   0.262  15.433 -0.7306 -0.2591 -0.8683
  805MPD2    N111864   1.408   0.203  15.315  0.0999 -0.1133  0.1407
  805MPD2    H711865   1.440   0.110  15.340 -2.1996 -0.6354  1.1145
  806MPD2     C11866   2.179   4.258   0.618 -0.2415  0.6273 -0.3487
  806MPD2    C111867   2.157   4.378   0.686  0.3326 -0.6337 -0.2181
  806MPD2    C211868   2.129   4.494   0.617  0.3787  0.4542 -0.7808
  806MPD2    C311869   2.136   4.501   0.476 -0.2103 -0.4655  0.0619
  806MPD2    C411870   2.162   4.386   0.406  0.1207  0.0473  0.6193
  806MPD2    C511871   2.171   4.263   0.481 -0.0246 -0.1324  0.0619
  806MPD2     H11872   2.106   4.587   0.669  1.5500 -0.2606  1.0071
  806MPD2    H111873   2.145   4.363   0.301 -0.9712  3.1403  0.1184
  806MPD2    H211874   2.192   4.171   0.681 -0.8026 -0.1030 -1.2477
  806MPD2    H311875   2.157   4.167   0.433  1.3537  0.9206 -2.4282
  806MPD2     N11876   2.113   4.622   0.414 -0.0861  0.1348 -0.7504
  806MPD2    H511877   2.086   4.701   0.472  0.9957  1.0192 -1.4674
  806MPD2    N111878   2.165   4.376   0.834  0.1480  0.1179 -0.0835
  806MPD2    H711879   2.212   4.295   0.873  2.8475  1.3708 -0.7749
  807MPD2     C11880   1.746   4.379   1.533  0.6147  0.1030 -0.3608
  807MPD2    C111881   1.859   4.300   1.534  0.0684 -0.2921  0.0371
  807MPD2    C211882   1.875   4.193   1.620 -0.0188  0.2263 -0.3721
  807MPD2    C311883   1.767   4.163   1.704 -0.5354  0.1557  0.6585
  807MPD2    C411884   1.654   4.247   1.710  0.4773 -0.0487 -0.1560
  807MPD2    C511885   1.648   4.355   1.626  0.5327  0.1620  0.1514
  807MPD2     H11886   1.970   4.142   1.633 -0.1269 -0.2007 -1.2473
  807MPD2    H111887   1.571   4.226   1.776  0.2319 -1.8759 -1.0545
  807MPD2    H211888   1.730   4.460   1.462  1.3996  0.2685 -0.3449
  807MPD2    H311889   1.561   4.420   1.636  0.5456  0.2226 -0.1442
  807MPD2     N11890   1.791   4.047   1.785 -0.3898  0.0840 -1.0435
  807MPD2    H511891   1.872   3.988   1.771  0.6398  0.4776  3.2970
  807MPD2    N111892   1.973   4.326   1.456 -0.2134 -0.5414 -0.2976
  807MPD2    H711893   2.040   4.251   1.447 -0.7403 -1.1612  1.0086
  808MPD2     C11894   2.177   1.545   9.314 -0.3835  1.1013  0.1119
  808MPD2    C111895   2.182   1.552   9.451 -0.4765 -0.7261 -0.2067
  808MPD2    C211896   2.206   1.669   9.521  0.0479 -0.1719  0.2403
  808MPD2    C311897   2.241   1.779   9.452 -0.5884 -0.0311 -0.1949
  808MPD2    C411898   2.248   1.780   9.313  0.0293 -0.4586 -0.3399
  808MPD2    C511899   2.210   1.664   9.245  0.3213  0.1640  0.1889
  808MPD2     H11900   2.199   1.670   9.629  0.8871  0.0402  0.2947
  808MPD2    H111901   2.279   1.868   9.259  0.3083  0.4838  1.3674
  808MPD2    H211902   2.159   1.456   9.255  0.6954  0.9871 -0.0377
  808MPD2    H311903   2.217   1.665   9.137  1.3579 -1.8139  0.2459
  808MPD2     N11904   2.280   1.903   9.512 -0.0064 -0.3336  0.1732
  808MPD2    H511905   2.300   1.983   9.453 -2.6085  0.1132 -0.0986
  808MPD2    N111906   2.181   1.435   9.527  0.0740 -0.5342 -0.1436
  808MPD2    H711907   2.193   1.452   9.627 -0.4878  1.2438 -0.3802
  809MPD2     C11908   3.039   2.051   9.315  0.2380  0.9508 -0.5590
  809MPD2    C111909   3.013   2.020   9.446 -0.3627  0.3459  0.1608
  809MPD2    C211910   2.894   2.067   9.499  1.0786 -0.4460  0.3186
  809MPD2    C311911   2.800   2.135   9.419  0.4659  1.5414 -0.1673
  809MPD2    C411912   2.831   2.163   9.290 -0.5586 -0.1814 -0.0373
  809MPD2    C511913   2.951   2.121   9.241 -0.0245 -0.5218 -0.2798
  809MPD2     H11914   2.877   2.046   9.604 -2.1192 -0.5321 -0.2050
  809MPD2    H111915   2.767   2.214   9.219 -2.0435  0.7152  1.9257
  809MPD2    H211916   3.131   2.017   9.269  0.2150  1.6929 -1.1490
  809MPD2    H311917   2.971   2.155   9.140 -3.3550  0.4910 -0.5983
  809MPD2     N11918   2.686   2.193   9.472  0.1746  0.9129 -0.0426
  809MPD2    H511919   2.624   2.237   9.404 -0.6033  0.9164  0.6772
  809MPD2    N111920   3.094   1.934   9.521 -0.3280  0.1227  0.3660
  809MPD2    H711921   3.051   1.877   9.594  0.0632  1.3247  1.5382
  810MPD2     C11922   2.425   0.256  10.487  0.2999  0.9849 -0.3971
  810MPD2    C111923   2.295   0.300  10.500 -0.6226 -0.4129 -0.6880
  810MPD2    C211924   2.263   0.413  10.573  0.0954 -0.0479  1.0505
  810MPD2    C311925   2.364   0.490  10.628  0.7201  0.3920 -0.4960
  810MPD2    C411926   2.496   0.452  10.608  0.0649 -0.2204 -0.4900
  810MPD2    C511927   2.523   0.329  10.547 -0.3105  0.1179  0.4085
  810MPD2     H11928   2.156   0.429  10.572  0.3704  1.6997 -0.8296
  810MPD2    H111929   2.580   0.510  10.644 -0.6015 -0.4830  1.4984
  810MPD2    H211930   2.450   0.164  10.437  0.3490  0.4502  0.6002
  810MPD2    H311931   2.622   0.294  10.522 -0.1921  0.8107 -0.1153
  810MPD2     N11932   2.345   0.612  10.691 -0.5083 -0.0597 -0.9265
  810MPD2    H511933   2.423   0.663  10.733 -2.2293  1.9481 -0.1638
  810MPD2    N111934   2.185   0.230  10.452  0.0165  0.8384 -0.0100
  810MPD2    H711935   2.093   0.264  10.477  0.8488  0.8916  2.9219
  811MPD2     C11936   1.567   0.093   9.885  0.4560 -0.1098  0.1287
  811MPD2    C111937   1.626   0.186   9.971 -0.0959 -0.8452  0.4427
  811MPD2    C211938   1.597   0.320   9.939  0.8730 -0.1446 -0.5859
  811MPD2    C311939   1.505   0.355   9.844 -0.1409  0.6065  0.2394
  811MPD2    C411940   1.446   0.266   9.761  0.4494  0.6148 -0.0822
  811MPD2    C511941   1.476   0.133   9.785  0.2360  0.1552  0.6535
  811MPD2     H11942   1.652   0.394   9.996  2.3432 -1.8329  0.1822
  811MPD2    H111943   1.377   0.289   9.681  2.8516  2.5757 -1.5819
  811MPD2    H211944   1.582   4.710   9.887 -0.9232 -0.2929  0.5713
  811MPD2    H311945   1.447   0.050   9.721  2.0032  1.0412 -1.3047
  811MPD2     N11946   1.488   0.492   9.829 -0.0107  0.1057  0.1397
  811MPD2    H511947   1.526   0.549   9.904  2.5196  0.0552 -1.1192
  811MPD2    N111948   1.721   0.134  10.063  0.6977 -0.1883 -0.2832
  811MPD2    H711949   1.722   0.033  10.076  1.7967 -0.2648 -0.9720
  812MPD2     C11950   1.171   0.904  11.905  0.0652  0.2997  1.3116
  812MPD2    C111951   1.092   0.938  12.017  0.1876  0.2128  0.1260
  812MPD2    C211952   1.027   0.834  12.085 -0.2705  0.7387  0.8063
  812MPD2    C311953   1.040   0.705  12.032  1.2985 -0.3489 -0.0468
  812MPD2    C411954   1.122   0.680  11.920 -0.3139  0.2968  0.3648
  812MPD2    C511955   1.191   0.778  11.853 -0.2899  0.1041  0.8705
  812MPD2     H11956   0.964   0.850  12.172 -2.0255  2.3587 -0.7575
  812MPD2    H111957   1.126   0.584  11.870 -1.4647  0.2993  0.2507
  812MPD2    H211958   1.227   0.985  11.860 -1.7511  0.7110 -0.2411
  812MPD2    H311959   1.255   0.757  11.768 -0.2366 -1.3400  1.2733
  812MPD2     N11960   0.971   0.603  12.098 -1.2549  0.2213  0.1017
  812MPD2    H511961   0.935   0.631  12.189  0.6171  0.3715  0.8008
  812MPD2    N111962   1.071   1.071  12.045  0.6048  0.2421 -0.2762
  812MPD2    H711963   1.107   1.133  11.973  0.3698 -0.5088 -1.0443
  813MPD2     C11964   4.441   2.344  12.692 -0.3268 -0.6823  0.6143
  813MPD2    C111965   4.400   2.473  12.715 -0.7188  0.1974 -0.6085
  813MPD2    C211966   4.358   2.511  12.840  0.4395 -0.0664  0.1637
  813MPD2    C311967   4.341   2.420  12.947  0.2003  0.2551  0.0075
  813MPD2    C411968   4.383   2.291  12.922  0.6525  0.1969 -0.2507
  813MPD2    C511969   4.426   2.259  12.792 -0.5692  0.4281 -0.2188
  813MPD2     H11970   4.340   2.617  12.859  0.4587  0.1308 -0.9118
  813MPD2    H111971   4.376   2.208  12.991  2.0696 -0.3286 -0.7330
  813MPD2    H211972   4.472   2.311  12.593  0.2797  4.8223 -1.0521
  813MPD2    H311973   4.437   2.154  12.768  2.3310  0.4842  0.7577
  813MPD2     N11974   4.282   2.475  13.065  0.6382 -0.4562  0.4360
  813MPD2    H511975   4.258   2.574  13.057 -2.5301 -1.3093 -0.5679
  813MPD2    N111976   4.429   2.571  12.614 -0.2582 -0.1540  0.3434
  813MPD2    H711977   4.476   2.536  12.531 -1.7914 -0.0971 -0.5571
  814MPD2     C11978   0.082   3.583  12.223 -0.4930  0.0969  0.5850
  814MPD2    C111979   0.126   3.664  12.124 -0.0163 -0.8903 -0.5890
  814MPD2    C211980   0.173   3.789  12.152 -1.3006 -0.1489 -0.3686
  814MPD2    C311981   0.184   3.835  12.278 -0.0407  0.4145  0.0777
  814MPD2    C411982   0.124   3.753  12.382  0.4980 -0.2929  0.0522
  814MPD2    C511983   0.078   3.629  12.354 -0.3548 -0.6655 -0.6690
  814MPD2     H11984   0.213   3.847  12.069  1.2166 -0.2564  0.7852
  814MPD2    H111985   0.128   3.782  12.486 -0.7989  1.5659 -0.4061
  814MPD2    H211986   0.044   3.482  12.212  2.0266 -0.6231 -1.5390
  814MPD2    H311987   0.028   3.564  12.425 -0.0102  0.5459  0.6845
  814MPD2     N11988   0.233   3.967  12.310  0.0773 -0.3061 -0.0019
  814MPD2    H511989   0.218   3.994  12.407  0.9974  1.1724 -0.2676
  814MPD2    N111990   0.145   3.612  11.985 -0.3150  0.1522 -0.8855
  814MPD2    H711991   0.192   3.673  11.919 -1.0514  0.6753 -0.9232
  815MPD2     C11992   0.656   2.511  11.792  0.2385 -0.3711  0.3410
  815MPD2    C111993   0.685   2.373  11.776  0.3173 -0.0595 -0.0226
  815MPD2    C211994   0.584   2.280  11.808  0.1679  0.1913 -0.5355
  815MPD2    C311995   0.474   2.331  11.867 -0.4997 -0.1434 -0.0911
  815MPD2    C411996   0.439   2.463  11.872  0.1817  0.6179 -0.0006
  815MPD2    C511997   0.532   2.558  11.827  0.5409  0.3349  0.3550
  815MPD2     H11998   0.595   2.173  11.796  2.8547  0.2521  1.3785
  815MPD2    H111999   0.346   2.497  11.915 -0.0251  2.3289 -1.8129
  815MPD2    H212000   0.736   2.577  11.759  0.3335  0.0961  1.5325
  815MPD2    H312001   0.512   2.664  11.836 -0.8929 -0.0034  1.2191
  815MPD2     N12002   0.385   2.227  11.910 -0.3683 -0.4617 -0.2806
  815MPD2    H512003   0.417   2.131  11.895  0.7258 -0.0882 -0.3262
  815MPD2    N112004   0.813   2.339  11.727 -0.5122  0.0859  0.6951
  815MPD2    H712005   0.865   2.415  11.685  0.9771  0.4413  3.1555
  816MPD2     C12006   1.452   0.988  17.145 -0.1537  0.4109  0.0564
  816MPD2    C112007   1.380   1.080  17.068  0.2484 -0.0767  0.2728
  816MPD2    C212008   1.353   1.061  16.935 -0.1447  0.4560  0.1356
  816MPD2    C312009   1.405   0.952  16.869 -0.3004 -0.5526 -0.7472
  816MPD2    C412010   1.487   0.863  16.941  0.0594 -0.7276 -0.2079
  816MPD2    C512011   1.504   0.884  17.077  0.6565  0.4220  0.9707
  816MPD2     H12012   1.295   1.139  16.886  1.3383  0.6625 -1.2594
  816MPD2    H112013   1.531   0.777  16.892 -1.1425 -1.4737  0.0242
  816MPD2    H212014   1.457   0.986  17.253 -1.3617 -0.6826  0.0848
  816MPD2    H312015   1.562   0.811  17.131  2.2021  1.3736  0.5769
  816MPD2     N12016   1.374   0.937  16.731 -0.3364 -0.1984  0.5927
  816MPD2    H512017   1.320   1.010  16.686 -0.8092  1.1487  3.3613
  816MPD2    N112018   1.333   1.197  17.130  0.2619 -0.2003  0.4022
  816MPD2    H712019   1.271   1.259  17.078  1.8283  0.7443 -0.3424
  817MPD2     C12020   0.661   2.819   9.924 -0.5620  0.6336  0.4521
  817MPD2    C112021   0.659   2.795   9.789 -0.6739 -0.4436  0.2856
  817MPD2    C212022   0.599   2.890   9.704  0.7993  0.3539  0.1548
  817MPD2    C312023   0.540   3.009   9.753 -0.0343 -0.1310 -0.3312
  817MPD2    C412024   0.547   3.024   9.893 -0.2947 -0.2500 -0.3710
  817MPD2    C512025   0.608   2.935   9.972 -1.4452  0.4938  0.3131
  817MPD2     H12026   0.592   2.877   9.597  0.8383  1.9777 -0.0512
  817MPD2    H112027   0.512   3.114   9.941 -1.4067 -1.0400  0.3194
  817MPD2    H212028   0.715   2.760   9.997 -0.1377  0.0585 -0.3267
  817MPD2    H312029   0.620   2.963  10.076 -1.6502  1.8622 -0.0291
  817MPD2     N12030   0.476   3.101   9.665  0.4628 -0.2473 -0.4982
  817MPD2    H512031   0.474   3.070   9.569 -0.4121  0.6648 -0.7742
  817MPD2    N112032   0.717   2.675   9.731  0.4318  0.7632 -0.1101
  817MPD2    H712033   0.704   2.664   9.631  1.0002  2.4096 -0.3711
  818MPD2     C12034   4.361   3.234  10.008 -0.1816 -0.9083 -0.6081
  818MPD2    C112035   4.261   3.137  10.014 -0.4166  0.6685  0.1281
  818MPD2    C212036   4.262   3.038   9.921 -0.2863  0.5607  0.8516
  818MPD2    C312037   4.361   3.020   9.830 -0.2841  0.2033  0.0312
  818MPD2    C412038   4.464   3.117   9.819 -0.3376 -0.3728 -0.1813
  818MPD2    C512039   4.465   3.217   9.910  0.5278  0.1005 -0.5030
  818MPD2     H12040   4.185   2.963   9.929 -1.7435  2.0098  0.3962
  818MPD2    H112041   4.547   3.091   9.754  1.4046  1.7438  1.1755
  818MPD2    H212042   4.362   3.324  10.070 -0.3023 -1.6520  0.4758
  818MPD2    H312043   4.536   3.297   9.891  1.0645 -0.1206  0.5688
  818MPD2     N12044   4.376   2.893   9.760  0.5450 -0.2285 -0.4942
  818MPD2    H512045   4.466   2.866   9.721  0.3207  0.4259 -1.4657
  818MPD2    N112046   4.153   3.143  10.104  0.2296 -0.3846 -0.0816
  818MPD2    H712047   4.068   3.089  10.090 -2.1446  2.9033  1.6881
  819MPD2     C12048   2.140   4.214  15.398 -0.5836  0.2199 -0.0315
  819MPD2    C112049   2.131   4.184  15.526 -0.3657 -0.1946  0.3398
  819MPD2    C212050   2.246   4.186  15.599 -0.3545  0.0435 -0.1014
  819MPD2    C312051   2.371   4.230  15.533 -0.6038 -0.2018  0.2100
  819MPD2    C412052   2.366   4.268  15.405 -0.5159 -0.1335 -0.2709
  819MPD2    C512053   2.252   4.260  15.334  0.2351 -0.0081 -0.2491
  819MPD2     H12054   2.236   4.158  15.703  4.9097  0.2132  0.4636
  819MPD2    H112055   2.445   4.308  15.343 -0.7728 -0.6674 -0.9403
  819MPD2    H212056   2.054   4.199  15.334 -1.3297  0.7516  0.8524
  819MPD2    H312057   2.255   4.298  15.233 -0.5682  4.3883  1.3772
  819MPD2     N12058   2.493   4.223  15.606  0.1979  0.0431  0.3412
  819MPD2    H512059   2.492   4.209  15.706 -1.3615 -0.8493  0.2141
  819MPD2    N112060   2.008   4.128  15.575 -0.3568 -0.1801  0.6075
  819MPD2    H712061   1.919   4.137  15.528 -0.5049 -1.3383  0.6548
  820MPD2     C12062   1.058   4.143  15.408 -0.3779  0.3512 -0.0852
  820MPD2    C112063   1.161   4.233  15.403 -0.1463  0.4843 -0.3893
  820MPD2    C212064   1.288   4.185  15.435  0.0845 -0.0770  0.0219
  820MPD2    C312065   1.308   4.047  15.472  0.8192 -0.1260 -0.0222
  820MPD2    C412066   1.198   3.972  15.485 -0.2823 -0.3811  0.5362
  820MPD2    C512067   1.070   4.014  15.456 -0.2705  0.4117 -0.4294
  820MPD2     H12068   1.365   4.261  15.430 -1.9454  2.0330  0.7498
  820MPD2    H112069   1.208   3.867  15.510  0.4251  0.0775  2.1462
  820MPD2    H212070   0.960   4.165  15.365  0.1526 -0.0963 -1.5221
  820MPD2    H312071   0.986   3.946  15.461 -0.7978  1.1689  1.0216
  820MPD2     N12072   1.424   3.986  15.517 -0.1083 -0.8146 -0.5150
  820MPD2    H512073   1.416   3.889  15.545  2.7698 -0.3966  1.7708
  820MPD2    N112074   1.137   4.368  15.377 -0.5079 -0.5225 -0.0694
  820MPD2    H712075   1.040   4.395  15.367  0.5138  2.9130 -0.8256
  821MPD2     C12076   2.392   0.843  13.505 -0.4561  0.0494  0.4502
  821MPD2    C112077   2.486   0.903  13.584  0.0006 -0.4158  0.1072
  821MPD2    C212078   2.595   0.959  13.527 -0.6886 -0.0582 -0.6697
  821MPD2    C312079   2.621   0.967  13.391  0.1839  0.1652 -0.5284
  821MPD2    C412080   2.524   0.903  13.313 -0.4153  0.2764  0.0240
  821MPD2    C512081   2.415   0.842  13.366 -0.0421  0.8586 -0.6180
  821MPD2     H12082   2.666   1.007  13.593  0.5877 -1.5760 -0.9347
  821MPD2    H112083   2.529   0.898  13.205  0.3498  1.6810 -0.0049
  821MPD2    H212084   2.298   0.799  13.535 -0.2505  0.8174  2.2125
  821MPD2    H312085   2.345   0.786  13.304  1.8541 -3.9753  1.6213
  821MPD2     N12086   2.727   1.048  13.345 -0.2084  0.5375 -0.9687
  821MPD2    H512087   2.803   1.070  13.409 -1.3467 -0.4427  0.7444
  821MPD2    N112088   2.472   0.912  13.724 -0.3718 -0.3664 -0.0838
  821MPD2    H712089   2.551   0.941  13.782 -0.2336  1.5366 -1.2187
  822MPD2     C12090   3.264   1.149  15.857  0.6514  0.2475 -0.9563
  822MPD2    C112091   3.213   1.071  15.957  0.6325 -0.4137 -0.3589
  822MPD2    C212092   3.138   1.130  16.056  0.8396  0.6245 -0.0861
  822MPD2    C312093   3.111   1.263  16.059  0.3308  0.3520 -0.2126
  822MPD2    C412094   3.172   1.345  15.962  0.4297  0.0262 -0.0222
  822MPD2    C512095   3.243   1.287  15.858 -0.0969 -0.0842 -0.5721
  822MPD2     H12096   3.100   1.070  16.138 -1.0387  1.9198 -0.0103
  822MPD2    H112097   3.131   1.445  15.952 -0.2866 -0.3624 -0.8947
  822MPD2    H212098   3.324   1.104  15.779  1.4533  0.7857 -0.6516
  822MPD2    H312099   3.285   1.337  15.772 -1.9073  0.4194 -1.1635
  822MPD2     N12100   3.025   1.316  16.158 -0.4527  0.5281  1.0495
  822MPD2    H512101   2.998   1.247  16.228 -1.7964 -0.6732 -0.6633
  822MPD2    N112102   3.230   0.935  15.971  0.3465  0.0559  0.0943
  822MPD2    H712103   3.184   0.883  16.046  1.3248 -1.6294 -0.4846
  823MPD2     C12104   2.654   1.231  16.925 -0.1039  0.1605  0.4252
  823MPD2    C112105   2.697   1.187  16.800  0.1735  0.2458 -0.3309
  823MPD2    C212106   2.705   1.052  16.777  0.4401  0.0925 -0.3358
  823MPD2    C312107   2.673   0.966  16.879 -1.3480 -0.2736 -0.1365
  823MPD2    C412108   2.648   1.007  17.006  0.8658  0.3770  0.1893
  823MPD2    C512109   2.634   1.143  17.030  0.1836 -0.0419 -0.0553
  823MPD2     H12110   2.733   1.021  16.677 -1.5229  1.3515 -1.2683
  823MPD2    H112111   2.625   0.932  17.082 -0.4613 -0.9747 -1.5221
  823MPD2    H212112   2.656   1.336  16.950  1.3779  0.1528  0.3471
  823MPD2    H312113   2.618   1.186  17.128 -2.7564 -0.5032 -0.3225
  823MPD2     N12114   2.661   0.827  16.863  0.3918  0.1873  0.0851
  823MPD2    H512115   2.621   0.775  16.941  1.5469  0.8522  1.1353
  823MPD2    N112116   2.732   1.286  16.705  0.1780  0.0144  0.4729
  823MPD2    H712117   2.724   1.381  16.737  0.7379  0.3454 -0.3765
  824MPD2     C12118   3.312   0.153  15.679 -0.5918 -0.3699  0.4704
  824MPD2    C112119   3.390   0.269  15.674 -0.5110  0.0560 -0.3967
  824MPD2    C212120   3.519   0.262  15.615 -0.4412  0.3004  0.4135
  824MPD2    C312121   3.570   0.142  15.567 -0.3634 -0.1337  0.0738
  824MPD2    C412122   3.493   0.026  15.586 -0.3499 -0.0273  0.0508
  824MPD2    C512123   3.368   0.036  15.636  0.1856 -0.1985 -0.6948
  824MPD2     H12124   3.572   0.355  15.600  1.3286 -0.8759 -0.5694
  824MPD2    H112125   3.526   4.652  15.553 -0.6397  0.8505 -2.8071
  824MPD2    H212126   3.218   0.158  15.731 -0.5845 -1.4170  0.5820
  824MPD2    H312127   3.315   4.665  15.648 -1.0804  0.5924 -0.0148
  824MPD2     N12128   3.694   0.149  15.497 -0.5359  0.5080 -0.3659
  824MPD2    H512129   3.723   0.241  15.464 -0.8512  0.0461 -1.9049
  824MPD2    N112130   3.353   0.383  15.741 -0.1597 -0.2153 -0.3747
  824MPD2    H712131   3.417   0.461  15.732  0.0925 -0.3522  0.2314
  825MPD2     C12132   4.263   0.334  14.853 -0.4933  0.1834  0.2999
  825MPD2    C112133   4.187   0.360  14.964  0.0901 -0.3209  0.4305
  825MPD2    C212134   4.205   0.481  15.028  0.5015  0.2486 -0.3347
  825MPD2    C312135   4.277   0.584  14.969  0.6627 -0.6033  0.2207
  825MPD2    C412136   4.340   0.559  14.847 -0.2643 -0.1431  1.1394
  825MPD2    C512137   4.334   0.440  14.786 -0.3375 -0.2128  0.0195
  825MPD2     H12138   4.158   0.499  15.124  1.0353 -0.4972  0.0699
  825MPD2    H112139   4.399   0.635  14.798 -3.5944  2.1403  0.6334
  825MPD2    H212140   4.268   0.239  14.800  1.5697  0.7638 -0.5516
  825MPD2    H312141   4.369   0.418  14.686  0.6943  1.6226 -0.0249
  825MPD2     N12142   4.307   0.709  15.028 -0.1241 -0.3748  0.5545
  825MPD2    H512143   4.368   0.774  14.979  0.5458  0.5525  2.6240
  825MPD2    N112144   4.119   0.254  15.025 -0.1813 -0.1850 -0.1121
  825MPD2    H712145   4.135   0.163  14.982 -0.0111  0.3369 -1.1497
  826MPD2     C12146   3.609   0.294  13.725 -0.2246  0.4756 -0.6987
  826MPD2    C112147   3.484   0.318  13.669  0.0916  0.3771  0.2879
  826MPD2    C212148   3.414   0.428  13.708  0.8227  0.2534 -0.2726
  826MPD2    C312149   3.463   0.519  13.806 -0.2560  0.8835 -0.1704
  826MPD2    C412150   3.591   0.493  13.862 -0.9169  0.0345 -0.2208
  826MPD2    C512151   3.657   0.378  13.824  0.4685 -0.0402  0.7750
  826MPD2     H12152   3.317   0.447  13.663  1.7132  2.4057 -1.3192
  826MPD2    H112153   3.637   0.562  13.932  1.0126  0.0379 -1.4937
  826MPD2    H212154   3.668   0.204  13.707 -2.1838 -0.8853 -0.3341
  826MPD2    H312155   3.756   0.360  13.864  0.4054  0.6155  1.2280
  826MPD2     N12156   3.402   0.630  13.854  0.2467  0.0225 -0.1321
  826MPD2    H512157   3.444   0.681  13.931  1.7580  0.3510 -1.1853
  826MPD2    N112158   3.438   0.224  13.572 -0.1932  0.3464  0.3562
  826MPD2    H712159   3.484   0.134  13.578 -0.7250  0.1545  1.6471
  827MPD2     C12160   4.605   1.381   9.906 -0.3120 -0.1031  0.2435
  827MPD2    C112161   4.611   1.298  10.016  0.0430  0.1150 -0.1053
  827MPD2    C212162   4.643   1.162  10.003 -0.3631 -0.1571  0.3593
  827MPD2    C312163   4.644   1.108   9.879  0.4152  0.2453 -1.0391
  827MPD2    C412164   4.632   1.189   9.768  0.0626 -0.2185  0.0821
  827MPD2    C512165   4.618   1.328   9.780  0.5409  0.1002  0.0299
  827MPD2     H12166   4.647   1.096  10.090 -0.8740 -1.7206 -0.8078
  827MPD2    H112167   4.641   1.143   9.671  1.2720  2.5304 -1.1176
  827MPD2    H212168   4.588   1.486   9.927  1.1256  0.1348  0.2217
  827MPD2    H312169   4.597   1.399   9.700 -1.3612  0.9614  1.3161
  827MPD2     N12170   4.655   0.964   9.859 -0.3561  0.0384  0.7609
  827MPD2    H512171   4.651   0.901   9.938 -1.7684 -0.4910  0.2692
  827MPD2    N112172   4.619   1.360  10.144  0.4096  0.3664  0.0047
  827MPD2    H712173   4.606   1.461  10.138  1.8459  0.4193 -2.2933
  828MPD2     C12174   3.097   1.604  12.303  1.3855  0.5978 -0.1908
  828MPD2    C112175   3.006   1.504  12.269 -0.1612  0.1142 -0.6190
  828MPD2    C212176   3.051   1.403  12.181 -0.5070 -0.2013 -0.6387
  828MPD2    C312177   3.181   1.410  12.127 -0.5809 -0.1929 -0.0136
  828MPD2    C412178   3.253   1.524  12.150 -0.1512  0.1745 -0.5518
  828MPD2    C512179   3.210   1.623  12.232 -0.1723 -0.1984 -0.4191
  828MPD2     H12180   2.987   1.318  12.160 -1.0737  0.6038 -2.1429
  828MPD2    H112181   3.342   1.523  12.088  0.6916 -0.0294  0.6573
  828MPD2    H212182   3.075   1.676  12.381 -1.6871 -0.7443  0.1664
  828MPD2    H312183   3.271   1.710  12.249 -3.0282  2.0340 -1.5299
  828MPD2     N12184   3.233   1.322  12.023  0.5795 -0.0243  0.3561
  828MPD2    H512185   3.306   1.350  11.959  0.6660  0.3918  0.6351
  828MPD2    N112186   2.876   1.487  12.331  0.4024 -0.4108  0.0246
  828MPD2    H712187   2.818   1.409  12.301  1.6788 -0.8731 -1.2540
  829MPD2     C12188   2.196   1.482  11.843  0.3986 -0.0699  0.4158
  829MPD2    C112189   2.127   1.520  11.955 -0.2506  0.0024  0.2603
  829MPD2    C212190   2.189   1.513  12.072 -0.5245  0.3980 -0.3698
  829MPD2    C312191   2.331   1.489  12.080  0.1342 -0.0349  0.4791
  829MPD2    C412192   2.396   1.445  11.964 -0.2106  1.0484 -0.1383
  829MPD2    C512193   2.328   1.442  11.852 -0.5548  0.0224  0.0131
  829MPD2     H12194   2.131   1.543  12.158 -1.0545  1.5382 -1.1220
  829MPD2    H112195   2.502   1.419  11.961  0.5117  3.9511  0.7494
  829MPD2    H212196   2.150   1.494  11.746 -0.3745 -0.1951  0.7666
  829MPD2    H312197   2.381   1.419  11.760  1.8482 -1.0424  1.6586
  829MPD2     N12198   2.409   1.503  12.195 -0.0105  0.7887 -0.2779
  829MPD2    H512199   2.500   1.458  12.200 -1.0861 -1.1622  1.8602
  829MPD2    N112200   1.994   1.565  11.947 -0.0813  0.6765  0.4439
  829MPD2    H712201   1.964   1.588  11.853 -0.9414 -0.0777  0.5387
  830MPD2     C12202   3.442   4.220  15.653  0.2308  0.0203  0.0197
  830MPD2    C112203   3.330   4.287  15.592 -0.7156 -0.0701 -0.0978
  830MPD2    C212204   3.359   4.371  15.483 -0.0431  0.2156  0.5482
  830MPD2    C312205   3.486   4.407  15.452 -0.0559  0.6880 -0.1755
  830MPD2    C412206   3.596   4.352  15.520  0.0738 -0.2619  0.1837
  830MPD2    C512207   3.569   4.252  15.609  0.0264  0.4482 -0.0011
  830MPD2     H12208   3.286   4.441  15.443  0.9409  2.4316  2.5947
  830MPD2    H112209   3.700   4.366  15.493 -0.3734 -0.1317 -1.4346
  830MPD2    H212210   3.418   4.156  15.737  2.3131 -1.1141 -0.2349
  830MPD2    H312211   3.658   4.216  15.660  1.8151  3.0918 -1.1978
  830MPD2     N12212   3.517   4.489  15.335  0.3875 -0.3011  0.3667
  830MPD2    H512213   3.612   4.519  15.317  0.7000 -1.8277 -0.5077
  830MPD2    N112214   3.199   4.250  15.635  0.5688  0.5394 -0.6659
  830MPD2    H712215   3.187   4.176  15.704  2.0126  1.4180  0.5418
  831MPD2     C12216   3.229   1.246  16.506 -0.3032 -0.3683 -0.2556
  831MPD2    C112217   3.256   1.161  16.399 -0.0035 -0.6547 -0.5998
  831MPD2    C212218   3.175   1.054  16.384  0.3097  0.4011  0.6609
  831MPD2    C312219   3.063   1.025  16.466  0.4317  0.0299 -0.1229
  831MPD2    C412220   3.043   1.107  16.572 -0.0839 -0.5787 -0.5517
  831MPD2    C512221   3.137   1.204  16.602  0.5316  0.2544 -0.4649
  831MPD2     H12222   3.208   0.993  16.300  1.1148  1.6900  0.0522
  831MPD2    H112223   2.958   1.084  16.636  0.2560 -1.8799 -0.5844
  831MPD2    H212224   3.286   1.337  16.520  0.8894 -0.8748 -1.7858
  831MPD2    H312225   3.122   1.273  16.684 -0.0862 -1.0101  0.4843
  831MPD2     N12226   2.971   0.924  16.436 -0.0232  0.7182  0.0338
  831MPD2    H512227   2.900   0.894  16.502  0.0627  1.5842  0.5164
  831MPD2    N112228   3.359   1.174  16.311  0.1745 -0.8593  0.0477
  831MPD2    H712229   3.370   1.100  16.243 -0.0179  0.5122 -1.4824
  832MPD2     C12230   1.592   2.619  17.210 -0.2755 -0.8003  0.0952
  832MPD2    C112231   1.490   2.697  17.157  0.2093 -0.4278 -0.2968
  832MPD2    C212232   1.396   2.628  17.093  0.3123  0.1118  0.7672
  832MPD2    C312233   1.403   2.492  17.056  0.3714 -0.0863 -0.1080
  832MPD2    C412234   1.512   2.423  17.096 -0.2587  0.4037 -0.3223
  832MPD2    C512235   1.602   2.486  17.179 -0.1765  0.7721 -0.2654
  832MPD2     H12236   1.324   2.692  17.045  0.2833  0.5376  1.3893
  832MPD2    H112237   1.523   2.319  17.067  1.5182  0.2933  0.7245
  832MPD2    H212238   1.671   2.671  17.264  0.8490 -1.7970 -0.5902
  832MPD2    H312239   1.690   2.430  17.207  1.8353  3.2534 -1.6962
  832MPD2     N12240   1.309   2.429  16.983 -0.2146 -1.0940  0.1242
  832MPD2    H512241   1.323   2.331  16.963  3.3996 -0.5885  0.2808
  832MPD2    N112242   1.475   2.834  17.194  0.1084 -0.2284 -0.2152
  832MPD2    H712243   1.552   2.879  17.242  1.2244 -2.3362  0.0036
  833MPD2     C12244   3.369   3.764  12.677 -0.6634 -0.0569 -0.1602
  833MPD2    C112245   3.377   3.891  12.617 -0.3364 -0.4078  0.0685
  833MPD2    C212246   3.485   3.909  12.529 -0.1141 -0.3312 -0.3187
  833MPD2    C312247   3.579   3.809  12.511 -0.1389  0.2525 -0.0089
  833MPD2    C412248   3.568   3.687  12.573 -0.8862  0.3014 -0.5097
  833MPD2    C512249   3.464   3.669  12.649  0.1660 -0.6051  0.0273
  833MPD2     H12250   3.478   3.986  12.454 -0.2507  0.2094  0.2492
  833MPD2    H112251   3.636   3.605  12.554 -0.6491 -0.0174  1.7798
  833MPD2    H212252   3.288   3.731  12.742 -0.5661  0.3971  0.1946
  833MPD2    H312253   3.462   3.566  12.682 -0.3270 -0.8869 -0.8953
  833MPD2     N12254   3.686   3.820  12.426  0.4104 -0.3509 -0.4048
  833MPD2    H512255   3.740   3.735  12.412  0.7910  0.3632 -3.3327
  833MPD2    N112256   3.278   3.985  12.639  0.1438 -0.7278 -0.0003
  833MPD2    H712257   3.215   3.960  12.716 -0.7227 -1.0475 -0.8127
  834MPD2     C12258   3.603   3.208  11.753  0.4099  0.0408 -0.1607
  834MPD2    C112259   3.561   3.327  11.690 -0.4655  0.4376  0.2725
  834MPD2    C212260   3.580   3.444  11.757 -0.7096 -0.1028 -0.5833
  834MPD2    C312261   3.645   3.454  11.881 -0.2699  0.1850 -0.6515
  834MPD2    C412262   3.678   3.332  11.939 -0.2588  0.3502  0.1958
  834MPD2    C512263   3.661   3.213  11.872 -0.8212 -0.1026  0.4790
  834MPD2     H12264   3.547   3.541  11.720 -1.6684 -0.2884 -0.2096
  834MPD2    H112265   3.729   3.332  12.035 -1.1045 -0.2692  0.6472
  834MPD2    H212266   3.569   3.114  11.710  0.9466 -1.1275  1.9473
  834MPD2    H312267   3.697   3.124  11.922  1.8537 -0.3396 -1.7977
  834MPD2     N12268   3.664   3.583  11.944 -0.0861 -0.6755 -0.1196
  834MPD2    H512269   3.658   3.668  11.888  0.1318 -0.4227  0.2377
  834MPD2    N112270   3.479   3.309  11.574 -0.9708 -0.5425  0.5037
  834MPD2    H712271   3.462   3.211  11.554 -1.6817 -0.1612 -0.7256
  835MPD2     C12272   3.978   1.535  11.189  0.6139  0.9761  0.2283
  835MPD2    C112273   3.844   1.574  11.197  0.0813  0.2270 -0.2828
  835MPD2    C212274   3.785   1.583  11.320  0.2275 -0.1133  0.1199
  835MPD2    C312275   3.862   1.567  11.434  0.3677  0.2159 -0.2355
  835MPD2    C412276   3.999   1.548  11.424  0.5106  0.0680  0.5752
  835MPD2    C512277   4.051   1.524  11.299  0.4960 -0.2325 -0.1664
  835MPD2     H12278   3.678   1.592  11.329  0.0828 -0.9803 -0.7707
  835MPD2    H112279   4.057   1.532  11.514 -0.1416 -1.2781  0.7627
  835MPD2    H212280   4.022   1.525  11.091  1.2689 -1.5376  0.7700
  835MPD2    H312281   4.157   1.500  11.291  0.1589 -1.6609 -0.4955
  835MPD2     N12282   3.806   1.558  11.563  0.0683 -0.2067  0.2109
  835MPD2    H512283   3.872   1.556  11.639 -1.7911  1.5703  1.8775
  835MPD2    N112284   3.767   1.591  11.076  0.1969  0.1670  0.1618
  835MPD2    H712285   3.670   1.619  11.080 -0.3480 -1.6971 -0.2232
  836MPD2     C12286   3.184   1.939  11.778  0.1833 -0.5739  1.0201
  836MPD2    C112287   3.235   1.885  11.893 -0.5170 -0.5721 -0.0471
  836MPD2    C212288   3.164   1.889  12.013  0.3621 -0.1172 -0.2057
  836MPD2    C312289   3.050   1.976  12.012 -0.0388 -0.2188  0.2371
  836MPD2    C412290   3.020   2.052  11.899  0.3352  0.4126 -0.3388
  836MPD2    C512291   3.076   2.018  11.776  0.1355  0.9126  0.0247
  836MPD2     H12292   3.196   1.837  12.102  0.6236  1.1044  0.4076
  836MPD2    H112293   2.940   2.124  11.908  0.1141  0.0289  0.7962
  836MPD2    H212294   3.250   1.925  11.693  0.5318  1.1992  0.9928
  836MPD2    H312295   3.038   2.064  11.686 -0.8351 -0.5656 -0.3370
  836MPD2     N12296   2.969   2.001  12.123  0.3779 -0.4229  0.2239
  836MPD2    H512297   2.892   2.067  12.118  1.8251  1.2350  0.3020
  836MPD2    N112298   3.352   1.813  11.870  0.0427 -0.3294  0.1249
  836MPD2    H712299   3.383   1.798  11.774  0.3970  0.2510  0.1541
  837MPD2     C12300   1.441   1.182  10.217  0.6227 -0.7259 -0.1493
  837MPD2    C112301   1.435   1.192  10.081  0.0426 -0.2896  0.8698
  837MPD2    C212302   1.426   1.316  10.023 -0.0391  0.6806  0.1457
  837MPD2    C312303   1.405   1.430  10.095 -0.2896  0.1823  0.0809
  837MPD2    C412304   1.423   1.426  10.231 -0.7438 -0.0027  0.3548
  837MPD2    C512305   1.443   1.298  10.291  0.1643  0.0733  0.1979
  837MPD2     H12306   1.437   1.317   9.915  1.3696 -0.5406  0.2735
  837MPD2    H112307   1.404   1.517  10.287  0.3028  0.6011 -0.2517
  837MPD2    H212308   1.433   1.087  10.268  0.7076  0.4746  2.0676
  837MPD2    H312309   1.432   1.288  10.398  3.2420  0.5669  0.5561
  837MPD2     N12310   1.363   1.544  10.021  0.4900  0.3745  0.0454
  837MPD2    H512311   1.366   1.535   9.920 -0.2495 -0.5617  0.1102
  837MPD2    N112312   1.428   1.089   9.989 -0.1775 -0.1986  0.3443
  837MPD2    H712313   1.440   1.114   9.892 -0.3744 -0.6985  0.1930
  838MPD2     C12314   0.015   4.707  11.799 -0.4719 -0.5405  0.1183
  838MPD2    C112315   0.019   4.573  11.772 -0.5279  0.4006 -0.6116
  838MPD2    C212316   4.634   4.507  11.714  0.5793 -0.0626 -0.0896
  838MPD2    C312317   4.523   4.582  11.666  0.4814 -0.1041 -0.6241
  838MPD2    C412318   4.522   4.717  11.695  0.9964 -0.1496 -0.8183
  838MPD2    C512319   4.627   0.053  11.767  0.4684  0.0721 -0.0580
  838MPD2     H12320   4.636   4.400  11.702 -0.7970  0.0940 -1.6234
  838MPD2    H112321   4.444   0.057  11.655  2.7663  2.2476 -0.4857
  838MPD2    H212322   0.098   0.042  11.835 -1.0554  1.9888 -2.7050
  838MPD2    H312323   4.625   0.159  11.789 -0.4358 -0.3470  1.8476
  838MPD2     N12324   4.426   4.518  11.581 -0.2146 -0.7056 -0.2525
  838MPD2    H512325   4.444   4.419  11.563  1.5733 -0.3351 -0.4723
  838MPD2    N112326   0.130   4.496  11.799  0.3927 -0.1896  0.0205
  838MPD2    H712327   0.128   4.402  11.760  1.7061 -1.0930  2.1391
  839MPD2     C12328   4.501   3.870  11.812  0.2833  0.0474 -0.9796
  839MPD2    C112329   4.576   3.903  11.702  0.7314 -0.7091  0.3810
  839MPD2    C212330   4.697   3.962  11.713  0.1190  0.1808 -0.1939
  839MPD2    C312331   0.031   3.991  11.838 -0.3610 -0.4147 -0.7914
  839MPD2    C412332   4.682   3.960  11.949  0.0546  0.3609 -0.4036
  839MPD2    C512333   4.557   3.899  11.935 -0.1566  0.4997 -0.8338
  839MPD2     H12334   0.031   4.003  11.630  0.0185 -0.4595 -0.5787
  839MPD2    H112335   4.717   3.987  12.048  1.4050  0.1870 -0.8321
  839MPD2    H212336   4.405   3.818  11.814  0.7620 -0.8003 -0.3971
  839MPD2    H312337   4.492   3.874  12.018 -0.9209 -0.5521 -1.7305
  839MPD2     N12338   0.154   4.053  11.855  0.4370 -0.3433  0.1400
  839MPD2    H512339   0.167   4.089  11.949  1.6103 -0.9444  0.1989
  839MPD2    N112340   4.511   3.882  11.582 -0.2577  0.9896  0.1693
  839MPD2    H712341   4.414   3.852  11.588  0.3351 -1.5905 -2.7230
  840MPD2     C12342   0.117   1.909  10.101  0.6148 -0.3460  0.5269
  840MPD2    C112343   0.116   1.889  10.238 -0.7210  0.6323 -0.3832
  840MPD2    C212344   0.193   1.970  10.316 -0.1236  0.1318 -0.2687
  840MPD2    C312345   0.256   2.078  10.263  0.4023 -0.9609 -0.2791
  840MPD2    C412346   0.243   2.108  10.130 -0.2483  0.2024  1.1300
  840MPD2    C512347   0.177   2.021  10.053  0.1999 -0.3000  0.0818
  840MPD2     H12348   0.189   1.965  10.425  2.6740 -3.3926 -0.3411
  840MPD2    H112349   0.293   2.192  10.084  1.5877 -1.1470  0.6822
  840MPD2    H212350   0.071   1.838  10.032  2.5546 -1.5616  0.4878
  840MPD2    H312351   0.177   2.034   9.945  0.5642 -0.3821  0.0726
  840MPD2     N12352   0.342   2.162  10.340  0.0069 -0.4666 -0.2948
  840MPD2    H512353   0.415   2.218  10.297  0.2304 -0.1895  0.4396
  840MPD2    N112354   0.051   1.776  10.289 -0.3417 -0.1278 -0.3090
  840MPD2    H712355   0.011   1.712  10.221 -0.9063  0.9536 -1.0059
  841MPD2     C12356   0.110   2.133  14.040 -0.4943  0.1479  0.7501
  841MPD2    C112357   0.146   2.030  14.128  0.2316  0.5721 -0.0403
  841MPD2    C212358   0.266   2.044  14.192  0.6281  0.0980 -0.0232
  841MPD2    C312359   0.351   2.152  14.171  0.0865 -0.1740  0.1122
  841MPD2    C412360   0.319   2.252  14.083  0.5654 -0.3389  0.4665
  841MPD2    C512361   0.193   2.245  14.024 -0.0107  0.1683 -0.2142
  841MPD2     H12362   0.290   1.963  14.261 -0.1674  1.4205  1.8015
  841MPD2    H112363   0.381   2.336  14.054 -0.3553  0.3545  0.5113
  841MPD2    H212364   0.013   2.126  13.993 -0.8385 -1.1653  1.6544
  841MPD2    H312365   0.163   2.321  13.953 -1.5306  1.7340  2.0916
  841MPD2     N12366   0.478   2.149  14.242  0.6370 -0.0970  0.9602
  841MPD2    H512367   0.495   2.081  14.315 -1.4718 -2.4068 -0.7033
  841MPD2    N112368   0.070   1.914  14.154  0.0032 -0.2174 -0.0807
  841MPD2    H712369   0.094   1.862  14.237 -2.0635 -1.5176 -0.2835
  842MPD2     C12370   0.116   2.404  16.622 -0.0485  0.0550  0.3530
  842MPD2    C112371   4.714   2.420  16.670  0.1455 -0.5542  0.0181
  842MPD2    C212372   4.694   2.430  16.808  0.5389  0.5387  0.1515
  842MPD2    C312373   0.079   2.407  16.891  0.0157 -0.3560 -0.2294
  842MPD2    C412374   0.204   2.395  16.833 -0.4283 -0.0527  0.9443
  842MPD2    C512375   0.226   2.395  16.702 -0.2369  0.6694 -0.1968
  842MPD2     H12376   4.592   2.427  16.843  0.1991  0.3143 -0.8677
  842MPD2    H112377   0.287   2.373  16.899 -0.1208 -2.0462 -0.0936
  842MPD2    H212378   0.140   2.423  16.518 -0.7198 -0.7236  0.0495
  842MPD2    H312379   0.326   2.394  16.662  0.0839 -0.0055  0.6162
  842MPD2     N12380   0.066   2.416  17.033  0.1586  0.9093 -1.1455
  842MPD2    H512381   0.150   2.392  17.084 -0.1819 -0.0968 -1.0726
  842MPD2    N112382   4.612   2.439  16.575  0.4585  0.2088  0.5609
  842MPD2    H712383   4.640   2.426  16.479 -2.5039  1.9228 -0.5185
  843MPD2     C12384   2.159   3.600   0.443  0.1654 -0.0244  0.2986
  843MPD2    C112385   2.192   3.474   0.413  0.4907 -0.3303 -0.4756
  843MPD2    C212386   2.298   3.446   0.334 -0.1599 -0.0482  0.2137
  843MPD2    C312387   2.372   3.550   0.281  0.8155 -0.3444 -1.2531
  843MPD2    C412388   2.335   3.681   0.310 -0.0910  0.4512  0.7293
  843MPD2    C512389   2.227   3.709   0.396 -0.2722 -0.4083 -0.1298
  843MPD2     H12390   2.335   3.346   0.312  2.2775  1.3588 -2.0050
  843MPD2    H112391   2.404   3.761   0.285  1.0798 -1.4513 -2.2242
  843MPD2    H212392   2.078   3.620   0.513  0.5372  1.3532  0.3411
  843MPD2    H312393   2.210   3.812   0.423 -2.8730 -1.7641  3.2517
  843MPD2     N12394   2.484   3.533   0.192  0.5985  0.3304  0.2053
  843MPD2    H512395   2.538   3.618   0.180  0.2612  0.4261 -0.6077
  843MPD2    N112396   2.117   3.373   0.486 -0.3371 -0.1378  0.2171
  843MPD2    H712397   2.044   3.398   0.553  1.7956  0.0771  2.4614
  844MPD2     C12398   1.156   2.116  16.386 -0.4772  0.3601  0.8308
  844MPD2    C112399   1.274   2.147  16.327 -0.2078  0.4041 -0.4261
  844MPD2    C212400   1.356   2.249  16.381  0.6509  0.3695 -1.1765
  844MPD2    C312401   1.313   2.329  16.479  0.8948  0.1943  0.2317
  844MPD2    C412402   1.189   2.304  16.537  0.8263  0.3560  0.9119
  844MPD2    C512403   1.116   2.201  16.489  0.3004 -0.2918  1.1902
  844MPD2     H12404   1.454   2.261  16.336  1.2980 -1.8556 -0.3377
  844MPD2    H112405   1.146   2.360  16.619  0.7506  1.0044  0.4277
  844MPD2    H212406   1.088   2.040  16.351  2.8393 -1.6911 -1.2285
  844MPD2    H312407   1.021   2.180  16.537 -1.2263  0.1068 -1.6580
  844MPD2     N12408   1.407   2.429  16.523  0.0183 -0.2619 -0.2636
  844MPD2    H512409   1.504   2.430  16.495  0.0836 -1.8448 -0.1124
  844MPD2    N112410   1.323   2.063  16.223 -0.2791  1.1407  0.2498
  844MPD2    H712411   1.418   2.083  16.192 -0.7277 -0.5321 -2.1757
  845MPD2     C12412   1.412   3.386  16.969  0.0864 -0.5199 -0.3418
  845MPD2    C112413   1.310   3.298  16.938  0.2156 -0.5346 -0.4904
  845MPD2    C212414   1.331   3.170  16.906  0.5336  0.1940  0.2715
  845MPD2    C312415   1.455   3.113  16.907 -0.9712  0.7823 -0.0133
  845MPD2    C412416   1.564   3.200  16.942 -0.2265 -0.2311 -0.0330
  845MPD2    C512417   1.540   3.333  16.959  0.1453 -0.1441 -0.1791
  845MPD2     H12418   1.249   3.105  16.880  1.5249 -1.8747  2.2102
  845MPD2    H112419   1.659   3.152  16.962 -0.5662 -0.0736  2.0021
  845MPD2    H212420   1.406   3.494  16.978 -0.8383 -0.5673 -0.3191
  845MPD2    H312421   1.612   3.409  16.988  0.0331 -0.6633  1.4544
  845MPD2     N12422   1.470   2.978  16.860 -0.1904  0.0585  0.8104
  845MPD2    H512423   1.382   2.933  16.833  2.1447 -2.8352 -2.0202
  845MPD2    N112424   1.182   3.350  16.942 -0.3654 -0.1686  0.3008
  845MPD2    H712425   1.172   3.451  16.949 -1.4000 -0.2514  0.1216
  846MPD2     C12426   2.928   3.525  14.041  0.1058 -0.0079  0.2638
  846MPD2    C112427   2.792   3.547  14.030  0.2404 -0.1224  0.1988
  846MPD2    C212428   2.721   3.567  14.147 -0.0815  0.2534 -0.9353
  846MPD2    C312429   2.772   3.552  14.277 -0.3528  1.1048  0.1620
  846MPD2    C412430   2.906   3.536  14.284 -0.3475  0.1121  0.0904
  846MPD2    C512431   2.980   3.518  14.171 -0.2894 -0.1544  0.3657
  846MPD2     H12432   2.614   3.582  14.139  0.0112  0.5629 -1.5029
  846MPD2    H112433   2.956   3.533  14.380  0.7776 -1.1129 -0.5273
  846MPD2    H212434   2.990   3.541  13.953  0.2507  0.2357  0.4077
  846MPD2    H312435   3.086   3.498  14.176 -0.1839  0.5398  0.9211
  846MPD2     N12436   2.674   3.553  14.389  0.0877  0.0789  0.3779
  846MPD2    H512437   2.576   3.561  14.364 -0.3187  1.9836  2.6698
  846MPD2    N112438   2.739   3.573  13.904 -0.1771  0.0348 -0.3339
  846MPD2    H712439   2.646   3.616  13.907 -0.4474 -0.4543 -1.6738
  847MPD2     C12440   2.716   4.076  14.565  0.0736 -0.3250  0.0261
  847MPD2    C112441   2.788   4.182  14.504  0.1182 -0.5801  0.0917
  847MPD2    C212442   2.926   4.162  14.491  0.3066  0.0784  0.3490
  847MPD2    C312443   2.993   4.054  14.537 -0.8199  0.4108  0.3802
  847MPD2    C412444   2.923   3.954  14.604 -0.1531  0.5207 -0.4498
  847MPD2    C512445   2.787   3.969  14.611 -0.5257 -0.5251 -0.5878
  847MPD2     H12446   2.985   4.248  14.459 -1.0143  0.8644  0.0604
  847MPD2    H112447   2.965   3.862  14.645 -1.2275  0.1306 -0.2259
  847MPD2    H212448   2.611   4.064  14.589  0.5469  1.3181  2.8803
  847MPD2    H312449   2.730   3.889  14.657  2.8701 -2.7820 -0.2657
  847MPD2     N12450   3.136   4.059  14.530 -0.2530  0.0644  0.1033
  847MPD2    H512451   3.180   4.132  14.475  0.2475  0.5459  1.1477
  847MPD2    N112452   2.727   4.309  14.470 -0.0854  0.0717  0.3732
  847MPD2    H712453   2.782   4.373  14.414 -3.1119  1.3835 -1.0769
  848MPD2     C12454   0.526   2.632  16.701 -0.5825  0.9725 -0.2452
  848MPD2    C112455   0.642   2.610  16.622  0.2912  0.2481  0.3219
  848MPD2    C212456   0.647   2.662  16.493  0.4437  0.3575  0.5249
  848MPD2    C312457   0.534   2.716  16.436 -0.4174  0.4935  0.0132
  848MPD2    C412458   0.425   2.734  16.512 -0.3935 -0.1016  0.2930
  848MPD2    C512459   0.413   2.688  16.638 -0.1624 -0.2678  0.2053
  848MPD2     H12460   0.745   2.655  16.445 -1.0637  0.6935 -2.6011
  848MPD2    H112461   0.347   2.793  16.465 -0.3044 -0.5042 -0.3603
  848MPD2    H212462   0.515   2.613  16.807  1.5244  0.3985 -0.1409
  848MPD2    H312463   0.323   2.694  16.698 -0.2528  1.4358 -0.0980
  848MPD2     N12464   0.539   2.778  16.312 -0.2289  0.1998  0.4271
  848MPD2    H512465   0.463   2.838  16.283 -1.3682 -1.0068  0.9295
  848MPD2    N112466   0.753   2.548  16.676  0.1187  0.1903  0.7750
  848MPD2    H712467   0.841   2.556  16.626  0.2561  1.9386  1.2976
  849MPD2     C12468   0.124   2.665  13.702 -0.6049 -0.3034  0.1645
  849MPD2    C112469   0.130   2.777  13.765  0.5182  0.4531  0.0884
  849MPD2    C212470   0.220   2.790  13.869 -0.2914  0.4306  0.1116
  849MPD2    C312471   0.312   2.687  13.887 -0.0553  0.2749 -0.3145
  849MPD2    C412472   0.308   2.575  13.802  0.7469  0.0079 -0.8350
  849MPD2    C512473   0.208   2.563  13.718  0.8617  0.0576  0.5646
  849MPD2     H12474   0.207   2.877  13.932  0.6290 -0.0850  1.0107
  849MPD2    H112475   0.386   2.500  13.803  1.7330  1.0444  0.7597
  849MPD2    H212476   0.046   2.660  13.626 -1.1808  3.1985  0.5409
  849MPD2    H312477   0.195   2.467  13.669  0.8814  1.6714 -2.6491
  849MPD2     N12478   0.427   2.698  13.969  0.2849  0.0022  0.9761
  849MPD2    H512479   0.506   2.641  13.941  0.2203  0.1342  0.5113
  849MPD2    N112480   0.042   2.875  13.716 -0.3588 -0.4075 -0.2033
  849MPD2    H712481   4.724   2.852  13.627 -2.4922  1.2725  0.3788
  850MPD2     C12482   3.277   0.432  14.592  0.3724 -0.0101 -0.1166
  850MPD2    C112483   3.255   0.453  14.727 -0.6796 -0.5151 -0.4035
  850MPD2    C212484   3.359   0.456  14.815 -0.2310 -0.3121  0.2140
  850MPD2    C312485   3.495   0.448  14.769  0.5176 -0.8749 -0.0541
  850MPD2    C412486   3.518   0.441  14.631  0.2635  0.0559 -0.1022
  850MPD2    C512487   3.411   0.436  14.551 -0.2330 -0.1857  0.6057
  850MPD2     H12488   3.334   0.448  14.920  1.7651  0.9106  0.7759
  850MPD2    H112489   3.615   0.445  14.581  0.1516 -1.4377 -0.4270
  850MPD2    H212490   3.197   0.430  14.520  0.0895 -0.8115  0.2142
  850MPD2    H312491   3.416   0.427  14.443 -0.5920  0.3976  0.5371
  850MPD2     N12492   3.616   0.435  14.852  0.2526 -0.2644 -0.0133
  850MPD2    H512493   3.701   0.445  14.799 -0.5372 -0.3956 -1.3194
  850MPD2    N112494   3.124   0.465  14.772 -0.5070  0.7070  0.5161
  850MPD2    H712495   3.053   0.442  14.702 -0.8592  0.3314  0.9993
  851MPD2     C12496   2.894   0.358  15.364  0.2651  0.2060 -0.6955
  851MPD2    C112497   2.892   0.319  15.230 -0.0760  0.3883 -0.6992
  851MPD2    C212498   3.004   0.262  15.169 -0.2947  0.3674 -0.8532
  851MPD2    C312499   3.123   0.249  15.239  0.0493  0.4757  0.1762
  851MPD2    C412500   3.118   0.285  15.373  0.6215  0.3217 -0.1467
  851MPD2    C512501   3.008   0.334  15.434 -0.1243  0.6265  0.3859
  851MPD2     H12502   3.006   0.248  15.061 -1.4714  1.3642 -1.0187
  851MPD2    H112503   3.199   0.262  15.442  2.1125  1.0840 -1.6601
  851MPD2    H212504   2.808   0.402  15.415  1.0990 -1.0675  1.8040
  851MPD2    H312505   3.004   0.356  15.540  0.7699  0.8481  0.3711
  851MPD2     N12506   3.238   0.200  15.165 -0.2019 -0.6368  0.0819
  851MPD2    H512507   3.221   0.163  15.072 -1.2917 -1.3547  0.5671
  851MPD2    N112508   2.763   0.343  15.160  0.1999  0.6033 -0.5558
  851MPD2    H712509   2.709   0.412  15.211  2.3074  2.3552 -0.6922
  852MPD2     C12510   2.251   2.521  10.229 -0.1114 -0.0318 -0.1991
  852MPD2    C112511   2.350   2.582  10.299  0.2446  0.4044  0.0973
  852MPD2    C212512   2.445   2.654  10.237 -0.1319  0.1841 -0.0290
  852MPD2    C312513   2.432   2.668  10.098  0.4319  0.0673  0.3527
  852MPD2    C412514   2.334   2.604  10.022 -0.5807  0.2795 -0.6879
  852MPD2    C512515   2.236   2.532  10.094 -0.1065  0.2056  0.0246
  852MPD2     H12516   2.514   2.711  10.298  1.2128  0.4278 -1.7874
  852MPD2    H112517   2.332   2.612   9.913  0.4845  3.6827 -0.4573
  852MPD2    H212518   2.171   2.476  10.286  1.0031 -0.7749  0.7821
  852MPD2    H312519   2.158   2.476  10.045  0.4502  0.9938 -1.7449
  852MPD2     N12520   2.532   2.745  10.046  0.4116 -0.0841 -0.1865
  852MPD2    H512521   2.607   2.761  10.112  0.3040  0.0584 -0.0974
  852MPD2    N112522   2.358   2.577  10.440 -0.6073 -0.0864 -0.1207
  852MPD2    H712523   2.423   2.643  10.482  1.5060 -1.9110 -0.4829
  853MPD2     C12524   4.130   2.923  12.348 -0.0160 -0.0634  0.2714
  853MPD2    C112525   4.172   3.053  12.330  0.2863 -0.7691 -0.4312
  853MPD2    C212526   4.230   3.097  12.213  0.0945 -0.4126  0.1016
  853MPD2    C312527   4.255   2.998  12.115 -0.0981  0.6790 -0.6880
  853MPD2    C412528   4.220   2.871  12.135  0.0600 -0.4547  0.3036
  853MPD2    C512529   4.163   2.835  12.254 -0.4728  0.0617 -0.6322
  853MPD2     H12530   4.271   3.197  12.204 -0.4987 -0.0283  1.6103
  853MPD2    H112531   4.246   2.796  12.062  0.4379  2.1838 -2.2631
  853MPD2    H212532   4.074   2.901  12.438 -1.6340 -2.3388 -1.2713
  853MPD2    H312533   4.130   2.732  12.262  1.0554 -0.6468 -3.2581
  853MPD2     N12534   4.321   3.022  11.994  0.6161  0.2807  0.3072
  853MPD2    H512535   4.348   2.940  11.940  1.2451  1.7114 -1.5741
  853MPD2    N112536   4.139   3.140  12.440  0.3266 -0.4547 -1.0838
  853MPD2    H712537   4.114   3.096  12.528  1.5272 -1.5748 -1.3006
  854MPD2     C12538   1.121   2.932  12.786  0.6351 -0.9866  1.0998
  854MPD2    C112539   1.197   3.040  12.836 -0.1208  0.1099 -0.1911
  854MPD2    C212540   1.299   3.011  12.929 -0.4027  0.3061  0.1720
  854MPD2    C312541   1.305   2.884  12.990  0.1647  0.2925  0.1012
  854MPD2    C412542   1.233   2.782  12.930 -0.0817 -0.0133  0.5402
  854MPD2    C512543   1.147   2.803  12.822 -0.3468 -0.2510  0.2019
  854MPD2     H12544   1.369   3.090  12.951 -0.4401 -0.2561  2.2879
  854MPD2    H112545   1.253   2.682  12.967  2.1914  0.1365 -0.3028
  854MPD2    H212546   1.050   2.954  12.707 -0.1419  0.0061  2.0775
  854MPD2    H312547   1.091   2.719  12.783 -1.4287  0.0806  1.0411
  854MPD2     N12548   1.398   2.853  13.089 -0.4096 -0.3477  0.0167
  854MPD2    H512549   1.405   2.755  13.115 -1.2378  0.3193  2.8051
  854MPD2    N112550   1.183   3.168  12.768  0.2808 -0.3406 -0.1748
  854MPD2    H712551   1.113   3.189  12.698  2.4113 -0.1169 -2.2500
  855MPD2     C12552   1.914   3.079  13.938  0.2118 -0.0477 -0.0202
  855MPD2    C112553   1.925   2.945  13.903 -0.2465  0.3165  0.0606
  855MPD2    C212554   1.891   2.906  13.771  0.6025 -0.1123  0.4758
  855MPD2    C312555   1.835   3.000  13.685 -0.2407  0.5005  0.1586
  855MPD2    C412556   1.839   3.133  13.721  0.1036  0.1894  0.2118
  855MPD2    C512557   1.880   3.170  13.850  0.3444  0.1188 -0.1295
  855MPD2     H12558   1.892   2.800  13.747  0.2764  0.1557 -0.7283
  855MPD2    H112559   1.818   3.217  13.655  0.7072  1.1082  1.1916
  855MPD2    H212560   1.956   3.109  14.033 -1.1805 -0.0830  0.6099
  855MPD2    H312561   1.885   3.275  13.877  1.2273 -0.2782  1.2136
  855MPD2     N12562   1.804   2.976  13.554  0.4566 -0.1749 -0.1685
  855MPD2    H512563   1.790   3.058  13.496  1.3792  1.0822  1.3716
  855MPD2    N112564   1.968   2.846  13.992  0.7966 -0.0806  0.1335
  855MPD2    H712565   1.990   2.754  13.955  4.2055  0.7341  0.1736
  856MPD2     C12566   3.625   3.664  13.584 -0.0539 -0.0526  0.4846
  856MPD2    C112567   3.692   3.769  13.637 -0.0892  0.7497 -0.1490
  856MPD2    C212568   3.628   3.881  13.683 -0.0240  0.2700  0.2625
  856MPD2    C312569   3.491   3.896  13.658 -0.3402  0.0790 -0.2649
  856MPD2    C412570   3.430   3.794  13.591  0.1270  0.1886  0.2105
  856MPD2    C512571   3.495   3.678  13.553 -0.5054 -0.7474  0.0711
  856MPD2     H12572   3.691   3.947  13.741  0.5432  1.2247 -1.4207
  856MPD2    H112573   3.330   3.799  13.550  0.2260  3.0154  0.3104
  856MPD2    H212574   3.683   3.581  13.546  0.3251  0.7363 -0.6507
  856MPD2    H312575   3.448   3.594  13.504 -0.5446  0.5681 -2.1167
  856MPD2     N12576   3.409   4.011  13.688 -0.1738  0.3133 -0.2376
  856MPD2    H512577   3.310   4.011  13.668 -0.2391  3.2627  0.1218
  856MPD2    N112578   3.831   3.751  13.677  0.1988  0.3770  0.0728
  856MPD2    H712579   3.887   3.830  13.708  1.0479  0.0112 -0.5175
  857MPD2     C12580   0.448   1.110  13.146 -0.2824 -0.5670 -1.1066
  857MPD2    C112581   0.578   1.113  13.116  0.1354 -0.3470  0.2963
  857MPD2    C212582   0.654   1.219  13.172 -0.1315  0.5506  0.7688
  857MPD2    C312583   0.592   1.303  13.261 -0.0277  0.5853 -0.4696
  857MPD2    C412584   0.469   1.279  13.302  0.5274 -0.0250  0.3931
  857MPD2    C512585   0.399   1.181  13.248 -0.2005 -1.0548 -0.3030
  857MPD2     H12586   0.746   1.256  13.129 -1.1165 -2.5269 -3.9375
  857MPD2    H112587   0.419   1.347  13.371 -0.8249  0.1938 -0.7889
  857MPD2    H212588   0.389   1.025  13.113  1.2324 -2.1040  0.0998
  857MPD2    H312589   0.299   1.164  13.286 -0.7545  0.8942 -0.8648
  857MPD2     N12590   0.675   1.414  13.294 -0.2148 -0.0923 -0.8497
  857MPD2    H512591   0.769   1.419  13.257 -0.6239  0.7787 -1.7548
  857MPD2    N112592   0.623   1.026  13.017  0.0318 -0.5803  0.0723
  857MPD2    H712593   0.555   0.976  12.960 -0.5345 -1.6987  1.7399
  858MPD2     C12594   1.433   0.009  16.952  0.1187  0.5771 -0.1363
  858MPD2    C112595   1.464   0.143  16.910 -0.3442  0.4463  0.5001
  858MPD2    C212596   1.520   0.233  17.001 -0.4835  0.3038 -0.6091
  858MPD2    C312597   1.535   0.192  17.131 -0.8127  0.4554  0.1183
  858MPD2    C412598   1.511   0.060  17.169  0.6631  0.3630 -0.1490
  858MPD2    C512599   1.455   4.692  17.081 -0.1369 -0.0365  0.1062
  858MPD2     H12600   1.559   0.330  16.972  0.8186 -0.8653 -2.7979
  858MPD2    H112601   1.524   0.037  17.274  1.6581 -0.0817 -0.3708
  858MPD2    H212602   1.385   4.664  16.883  1.2979  0.2193 -0.5966
  858MPD2    H312603   1.416   4.599  17.120 -0.4341  0.8989  2.0608
  858MPD2     N12604   1.575   0.272  17.243 -0.0015  0.4934 -0.1771
  858MPD2    H512605   1.591   0.226  17.332 -1.3669 -1.7163 -1.0617
  858MPD2    N112606   1.432   0.175  16.778 -0.2906 -0.0615  0.1886
  858MPD2    H712607   1.382   0.109  16.720 -0.4884 -0.3670  0.7129
  859MPD2     C12608   0.264   2.179  15.453 -0.0891 -0.5994  0.7264
  859MPD2    C112609   0.372   2.206  15.358 -0.5685  0.3598  0.3644
  859MPD2    C212610   0.468   2.107  15.334  0.1479 -0.1269 -0.2020
  859MPD2    C312611   0.454   1.988  15.397  0.6161  1.5586  0.4722
  859MPD2    C412612   0.335   1.958  15.458  0.2863 -0.6918 -1.0731
  859MPD2    C512613   0.251   2.057  15.498 -0.2008 -1.0079  0.5898
  859MPD2     H12614   0.546   2.143  15.269 -0.2153  0.2910 -0.4109
  859MPD2    H112615   0.334   1.858  15.499  0.2727 -0.6552 -0.9816
  859MPD2    H212616   0.189   2.253  15.477 -1.0257 -2.0642  2.3578
  859MPD2    H312617   0.172   2.029  15.567 -1.9317  3.0582  0.2499
  859MPD2     N12618   0.536   1.880  15.367  0.0045 -0.1480 -0.4243
  859MPD2    H512619   0.501   1.787  15.385  0.3442  0.5186  3.7533
  859MPD2    N112620   0.380   2.322  15.284 -0.2228 -0.4473  0.8049
  859MPD2    H712621   0.463   2.337  15.228  0.5013 -3.4062  1.0544
  860MPD2     C12622   2.563   2.555  11.755  0.6636  0.3827 -0.0825
  860MPD2    C112623   2.552   2.655  11.855  0.6844 -0.0510 -0.1361
  860MPD2    C212624   2.427   2.675  11.914 -0.3724  0.0011 -0.2827
  860MPD2    C312625   2.319   2.596  11.885  0.3088 -0.2553  0.3743
  860MPD2    C412626   2.330   2.511  11.778  0.4795  0.3167 -0.3317
  860MPD2    C512627   2.450   2.483  11.722 -0.0051  0.2117  0.7722
  860MPD2     H12628   2.411   2.759  11.981  0.4166  1.6699 -2.1935
  860MPD2    H112629   2.248   2.443  11.754 -1.0611  2.1802 -0.3639
  860MPD2    H212630   2.654   2.541  11.698 -0.0882  0.6152 -1.3297
  860MPD2    H312631   2.457   2.413  11.640 -0.0150  2.6100 -1.2500
  860MPD2     N12632   2.202   2.610  11.962  0.2738  0.1501 -0.1913
  860MPD2    H512633   2.207   2.672  12.042 -2.6500  0.2817 -0.1007
  860MPD2    N112634   2.655   2.733  11.906 -0.0122 -0.8341  0.4612
  860MPD2    H712635   2.626   2.807  11.969  0.6267 -1.7148  1.7908
  861MPD2     C12636   0.931   0.885  11.122  0.5094  0.1545  0.1228
  861MPD2    C112637   1.026   0.990  11.140  0.3843  0.5976  0.1889
  861MPD2    C212638   1.027   1.088  11.039  0.1883 -0.4228 -0.2973
  861MPD2    C312639   0.928   1.083  10.935 -0.0219 -0.3055  0.4761
  861MPD2    C412640   0.844   0.977  10.921 -0.1353  0.0631  0.2306
  861MPD2    C512641   0.847   0.879  11.013  0.5997  0.1590  0.7037
  861MPD2     H12642   1.100   1.168  11.036  1.2573 -1.3550  1.1054
  861MPD2    H112643   0.763   0.961  10.850 -1.8548  1.3522  1.9008
  861MPD2    H212644   0.936   0.807  11.197  0.9023  0.1466  0.0890
  861MPD2    H312645   0.780   0.795  11.002  1.8555 -0.3911 -2.8117
  861MPD2     N12646   0.923   1.188  10.830  0.1383  0.0956  0.0197
  861MPD2    H512647   0.857   1.167  10.756 -0.7535 -0.0271  0.8413
  861MPD2    N112648   1.097   0.996  11.256 -0.2900 -0.1022  0.5435
  861MPD2    H712649   1.083   0.929  11.330  1.4590 -0.4467  0.5617
  862MPD2     C12650   0.730   1.191  10.159  0.2254  0.2765 -0.3542
  862MPD2    C112651   0.756   1.158  10.290 -0.1534  0.3756 -0.3699
  862MPD2    C212652   0.772   1.026  10.318 -0.0424  0.6782 -0.1992
  862MPD2    C312653   0.771   0.925  10.225  0.1996 -1.0893 -0.3113
  862MPD2    C412654   0.745   0.964  10.096 -0.2130  0.0434 -0.2627
  862MPD2    C512655   0.730   1.093  10.061 -0.1523 -0.1715  0.4264
  862MPD2     H12656   0.796   1.011  10.423  0.2890  1.0346 -0.2235
  862MPD2    H112657   0.740   0.885  10.021 -4.0272 -1.3580  1.4519
  862MPD2    H212658   0.719   1.292  10.121  0.2368  0.4139  0.0019
  862MPD2    H312659   0.717   1.117   9.956 -0.1213  1.1289  0.7264
  862MPD2     N12660   0.822   0.797  10.248  0.3214 -0.2602  0.3724
  862MPD2    H512661   0.828   0.738  10.165  0.1412  0.4935 -0.1730
  862MPD2    N112662   0.756   1.253  10.398 -0.6776 -0.6841  0.5737
  862MPD2    H712663   0.757   1.213  10.491  1.1357  0.3034  0.9670
  863MPD2     C12664   4.410   4.197  16.830 -0.0073  0.3296 -0.5221
  863MPD2    C112665   4.434   4.061  16.840 -0.3377  0.3946  0.5210
  863MPD2    C212666   4.511   4.007  16.941 -0.3451 -0.7871 -0.5956
  863MPD2    C312667   4.580   4.094  17.019 -0.6855  0.2191 -0.2623
  863MPD2    C412668   4.563   4.232  17.004 -0.2986  0.8245  0.1441
  863MPD2    C512669   4.469   4.282  16.915 -0.3369 -0.5323 -0.3759
  863MPD2     H12670   4.513   3.899  16.945  3.4440 -0.7123 -0.0556
  863MPD2    H112671   4.594   4.307  17.076  0.2513  0.1967  0.5637
  863MPD2    H212672   4.342   4.231  16.752  0.1179  0.9222 -0.3717
  863MPD2    H312673   4.449   4.388  16.903 -0.3426 -0.3426  1.4507
  863MPD2     N12674   4.658   4.056  17.127  0.4140  0.1912  0.0085
  863MPD2    H512675   4.706   4.131  17.176  0.4470  1.2595 -1.6632
  863MPD2    N112676   4.373   3.991  16.733  0.1095 -0.0970 -0.3514
  863MPD2    H712677   4.309   4.046  16.677  0.4701  3.6770  2.9725
  864MPD2     C12678   0.444   0.725  17.238  0.1326  0.3037  0.1515
  864MPD2    C112679   0.524   0.648  17.155 -0.1533  0.1244 -0.2615
  864MPD2    C212680   0.596   0.707  17.048 -0.0504 -0.1527 -0.8406
  864MPD2    C312681   0.585   0.837  17.016  0.3215  0.6565 -0.5375
  864MPD2    C412682   0.494   0.915  17.095 -0.9548 -0.0675 -0.2128
  864MPD2    C512683   0.434   0.858  17.205 -0.2554 -0.0269 -0.0841
  864MPD2     H12684   0.653   0.647  16.977  1.2936 -0.3787  0.4184
  864MPD2    H112685   0.475   1.021  17.081 -1.0555  0.0591  0.8205
  864MPD2    H212686   0.389   0.676  17.317 -0.1670  1.7197  0.8236
  864MPD2    H312687   0.362   0.921  17.255 -0.4508  0.8896 -1.5282
  864MPD2     N12688   0.640   0.893  16.897 -0.6511  0.4212  0.2385
  864MPD2    H512689   0.605   0.982  16.864  0.1489 -0.0391 -1.8163
  864MPD2    N112690   0.516   0.511  17.180 -0.8869 -0.1590  0.0670
  864MPD2    H712691   0.451   0.483  17.253 -0.0049 -0.5692  0.6975
  865MPD2     C12692   0.558   0.825  15.960  0.3179  0.2003  0.5848
  865MPD2    C112693   0.550   0.765  16.080 -0.1725 -0.3525  0.1489
  865MPD2    C212694   0.562   0.837  16.201 -0.2535 -0.7449 -0.1205
  865MPD2    C312695   0.586   0.971  16.200 -0.3229 -0.4702  0.4138
  865MPD2    C412696   0.606   1.036  16.078 -0.2138 -0.1532  0.3462
  865MPD2    C512697   0.592   0.963  15.957 -0.3417 -0.2490  0.7233
  865MPD2     H12698   0.563   0.780  16.293  2.4854 -2.0142 -0.9475
  865MPD2    H112699   0.631   1.141  16.074 -1.2240 -0.0061 -2.0322
  865MPD2    H212700   0.554   0.774  15.864 -0.2916 -0.9204  1.2112
  865MPD2    H312701   0.624   1.012  15.866  1.9536 -2.3470  0.4127
  865MPD2     N12702   0.620   1.041  16.319 -0.1025 -0.1390 -0.2986
  865MPD2    H512703   0.650   1.136  16.303  1.7913 -0.8240 -0.7973
  865MPD2    N112704   0.550   0.626  16.077 -0.9140 -0.5599 -0.3880
  865MPD2    H712705   0.536   0.590  15.983  0.3016  1.1643 -1.2430
  866MPD2     C12706   2.113   1.344  11.417  0.1305  0.2800  0.0260
  866MPD2    C112707   2.071   1.267  11.309 -0.9029 -0.0620 -0.5765
  866MPD2    C212708   1.945   1.285  11.255 -0.1444  0.0358  0.9187
  866MPD2    C312709   1.871   1.394  11.292  0.1540 -0.4389 -0.0366
  866MPD2    C412710   1.916   1.474  11.395  0.2946  0.4407  0.4934
  866MPD2    C512711   2.040   1.448  11.458 -0.3440  0.8251 -0.0043
  866MPD2     H12712   1.913   1.219  11.175 -0.8907 -1.0784  2.1429
  866MPD2    H112713   1.854   1.552  11.438 -2.8829 -2.5617  1.2975
  866MPD2    H212714   2.213   1.346  11.459 -0.1015 -0.2491  0.6164
  866MPD2    H312715   2.072   1.505  11.545 -2.8628 -0.5558  1.8365
  866MPD2     N12716   1.746   1.423  11.232 -0.1652 -0.3863 -0.5828
  866MPD2    H512717   1.689   1.495  11.274  1.3997  0.8540 -0.5988
  866MPD2    N112718   2.163   1.165  11.272 -0.0579  0.1220 -0.0418
  866MPD2    H712719   2.250   1.164  11.325  1.1160  2.8672 -1.9256
  867MPD2     C12720   3.929   4.689  15.941 -0.7035  0.1883  0.4220
  867MPD2    C112721   3.954   4.673  16.077 -0.6769 -0.7038 -0.1505
  867MPD2    C212722   3.979   0.059  16.153 -0.2209  0.6720 -0.0625
  867MPD2    C312723   3.962   0.183  16.098 -1.0087 -0.7367 -0.0851
  867MPD2    C412724   3.944   0.196  15.963  0.4594 -0.6017 -1.0200
  867MPD2    C512725   3.913   0.089  15.882  0.7614 -0.0194 -0.1768
  867MPD2     H12726   4.018   0.042  16.253 -1.4138 -2.1030 -0.0748
  867MPD2    H112727   3.925   0.287  15.907 -2.2334  0.3246  1.4123
  867MPD2    H212728   3.908   4.606  15.875 -1.4296  0.8655 -0.2115
  867MPD2    H312729   3.900   0.103  15.776 -2.1415 -0.8170  0.0738
  867MPD2     N12730   3.968   0.300  16.181  0.2525 -0.4812 -0.3259
  867MPD2    H512731   3.949   0.277  16.278  0.7505  0.3729 -0.0253
  867MPD2    N112732   3.934   4.545  16.137 -0.8384  0.5815 -0.8760
  867MPD2    H712733   3.893   4.478  16.071 -1.1452 -0.4713  0.3812
  868MPD2     C12734   0.628   3.934  12.750 -0.6890  0.2277  0.6151
  868MPD2    C112735   0.619   4.060  12.815  0.6192  1.0992  0.0965
  868MPD2    C212736   0.499   4.129  12.810  0.2570  0.1472 -0.1467
  868MPD2    C312737   0.393   4.065  12.753 -0.2166 -0.8136  0.1567
  868MPD2    C412738   0.403   3.940  12.690  0.6062  0.4909  0.0423
  868MPD2    C512739   0.526   3.880  12.685  0.2886  0.3101  0.0853
  868MPD2     H12740   0.487   4.223  12.864 -3.8553 -0.9534  0.8123
  868MPD2    H112741   0.316   3.896  12.643  0.1742  0.8421  0.5115
  868MPD2    H212742   0.724   3.882  12.749 -0.9456 -0.2640  1.3730
  868MPD2    H312743   0.532   3.785  12.634  1.2254  1.1030 -1.2701
  868MPD2     N12744   0.275   4.140  12.754  1.1638  0.0511 -0.0850
  868MPD2    H512745   0.280   4.219  12.818  0.8018  0.3384 -0.4162
  868MPD2    N112746   0.733   4.104  12.883 -0.3804  0.5313 -0.0347
  868MPD2    H712747   0.816   4.045  12.885 -0.3240  0.6337  0.6279
  869MPD2     C12748   2.562   2.885   2.277  0.0560  0.7544 -0.0241
  869MPD2    C112749   2.604   2.921   2.151 -0.6310  0.7037 -0.3025
  869MPD2    C212750   2.517   2.914   2.042 -0.2959 -0.4644 -0.4145
  869MPD2    C312751   2.387   2.880   2.069  0.0931  0.5047  0.1169
  869MPD2    C412752   2.345   2.840   2.193 -0.0156  0.2303 -0.3003
  869MPD2    C512753   2.430   2.848   2.300  0.3020  0.1721  0.0609
  869MPD2     H12754   2.542   2.956   1.945 -0.7603  1.4027  0.2904
  869MPD2    H112755   2.244   2.802   2.209  0.8805 -1.5338  1.1502
  869MPD2    H212756   2.628   2.898   2.362  0.6661  0.7601 -0.4963
  869MPD2    H312757   2.407   2.828   2.404 -1.0127  0.6394 -0.1314
  869MPD2     N12758   2.288   2.867   1.968  0.6816 -0.6232 -0.4231
  869MPD2    H512759   2.201   2.825   2.001  0.3105  1.5333  1.3065
  869MPD2    N112760   2.736   2.973   2.127 -0.6014  0.4705 -0.5770
  869MPD2    H712761   2.765   2.978   2.030  1.6956 -0.8658  0.0254
  870MPD2     C12762   1.536   2.305   1.593 -0.6942 -0.2300  0.9533
  870MPD2    C112763   1.667   2.278   1.622 -0.9256  0.8264 -0.3200
  870MPD2    C212764   1.749   2.251   1.515  0.4704  0.0039  0.1015
  870MPD2    C312765   1.711   2.272   1.379  0.0615 -0.6055  0.2332
  870MPD2    C412766   1.580   2.308   1.361  0.5032  0.1237  0.2955
  870MPD2    C512767   1.495   2.331   1.469  1.2957  0.4591 -0.5864
  870MPD2     H12768   1.854   2.228   1.531  0.1776 -1.0223  0.5300
  870MPD2    H112769   1.540   2.343   1.266  0.3031  0.7079  0.5916
  870MPD2    H212770   1.471   2.341   1.672  0.7071  2.2026  1.0034
  870MPD2    H312771   1.394   2.364   1.447  0.9385  0.4498  1.0602
  870MPD2     N12772   1.802   2.257   1.267 -0.1014  0.1170 -0.4688
  870MPD2    H512773   1.898   2.237   1.292 -0.8356 -3.3990 -0.3645
  870MPD2    N112774   1.700   2.254   1.756 -0.4706 -0.0027  0.6592
  870MPD2    H712775   1.625   2.261   1.824 -3.2370 -0.3407 -2.3644
  871MPD2     C12776   2.651   0.250  16.262 -0.2724  0.0900 -0.6747
  871MPD2    C112777   2.693   0.223  16.386  0.8063 -0.2552  0.3153
  871MPD2    C212778   2.765   0.102  16.408 -0.0281  0.1241 -0.8577
  871MPD2    C312779   2.803   0.024  16.294  0.2500 -0.2916 -1.0764
  871MPD2    C412780   2.752   0.051  16.173 -0.0591 -0.3648  0.1037
  871MPD2    C512781   2.681   0.164  16.153  0.2193 -0.8289  0.3009
  871MPD2     H12782   2.794   0.066  16.506  1.9977  2.0515 -0.7432
  871MPD2    H112783   2.780   4.718  16.085  0.8223  1.5447 -0.8641
  871MPD2    H212784   2.584   0.333  16.240 -1.3537  0.0128  2.2741
  871MPD2    H312785   2.641   0.179  16.054  0.1628  1.3438  0.6545
  871MPD2     N12786   2.872   4.629  16.311  0.2701  0.1801 -0.4001
  871MPD2    H512787   2.894   4.599  16.405  0.1611  2.1757  0.2710
  871MPD2    N112788   2.656   0.314  16.488  0.2348  0.3165  0.3779
  871MPD2    H712789   2.610   0.401  16.462 -0.1017  0.3026  0.9314
  872MPD2     C12790   4.206   2.868  13.958  0.7066 -0.1831 -0.6066
  872MPD2    C112791   4.140   2.994  13.966  0.0429  0.6819 -0.0913
  872MPD2    C212792   4.014   3.002  14.031  0.1356 -0.1669 -0.4405
  872MPD2    C312793   3.952   2.887  14.071  0.3137 -0.2644 -0.2910
  872MPD2    C412794   4.009   2.762  14.057 -0.6372 -0.4537 -0.5051
  872MPD2    C512795   4.138   2.756  14.001 -0.6581 -0.2103  0.5171
  872MPD2     H12796   3.970   3.101  14.045 -1.9530 -1.0532 -0.7326
  872MPD2    H112797   3.971   2.665  14.086 -1.1901  0.1149  0.6813
  872MPD2    H212798   4.306   2.860  13.917  1.2009 -0.0872  0.5782
  872MPD2    H312799   4.192   2.663  13.987 -0.2406  0.0814  0.1959
  872MPD2     N12800   3.826   2.883  14.139 -0.5867  0.0716 -0.2498
  872MPD2    H512801   3.790   2.793  14.169  1.4980  0.0318  2.1499
  872MPD2    N112802   4.198   3.107  13.908  0.2591  0.1756  0.0531
  872MPD2    H712803   4.133   3.185  13.905  0.1969  0.0743 -1.3194
  873MPD2     C12804   0.249   3.664   1.192 -0.1973 -0.6467  0.0625
  873MPD2    C112805   0.334   3.658   1.296 -0.2551 -0.3421  0.1674
  873MPD2    C212806   0.430   3.556   1.290  0.0073  0.2018  0.6256
  873MPD2    C312807   0.451   3.468   1.183 -1.0067  0.5782 -0.0258
  873MPD2    C412808   0.364   3.480   1.079 -0.6784  0.5835  0.3375
  873MPD2    C512809   0.268   3.578   1.085 -0.4481 -0.6859 -0.1841
  873MPD2     H12810   0.494   3.550   1.376  0.2232  1.7058  0.5822
  873MPD2    H112811   0.378   3.414   0.995  1.5208 -1.1362  2.0507
  873MPD2    H212812   0.177   3.744   1.180  0.4808 -0.2186 -1.1462
  873MPD2    H312813   0.199   3.588   1.002  0.9855  0.5061 -1.2187
  873MPD2     N12814   0.564   3.378   1.170  0.2627  0.2493 -0.0081
  873MPD2    H512815   0.587   3.314   1.095 -2.1376  0.9140 -1.2851
  873MPD2    N112816   0.322   3.755   1.399 -0.2293 -0.4469 -0.3116
  873MPD2    H712817   0.237   3.811   1.392 -0.0435 -0.4701 -2.9622
  874MPD2     C12818   4.553   2.891  15.887 -0.0540 -0.1805 -0.2268
  874MPD2    C112819   4.589   2.808  15.989  0.5054  0.5629 -0.2679
  874MPD2    C212820   0.002   2.805  16.001  0.5639 -0.5007 -0.0938
  874MPD2    C312821   0.089   2.906  15.947 -1.1496 -0.5013  0.4154
  874MPD2    C412822   0.041   2.987  15.847 -0.0883 -0.0087  0.3007
  874MPD2    C512823   4.633   2.976  15.817 -0.0353  0.3308  0.5145
  874MPD2     H12824   0.048   2.740  16.075  0.3074  0.1038  0.5900
  874MPD2    H112825   0.094   3.066  15.795 -1.7657  1.0664  0.2269
  874MPD2    H212826   4.447   2.900  15.867 -0.0634  0.5653  0.1753
  874MPD2    H312827   4.584   3.046  15.751  0.9998 -0.0224 -0.6346
  874MPD2     N12828   0.227   2.910  15.978  0.9653 -0.1845 -0.5630
  874MPD2    H512829   0.255   2.862  16.063  0.4385  1.6131  0.6255
  874MPD2    N112830   4.497   2.735  16.070 -0.5994  0.4151 -0.1967
  874MPD2    H712831   4.398   2.752  16.058  0.0639  3.0173 -1.6947
  875MPD2     C12832   1.907   1.594  14.677 -0.0652 -0.1182  0.3548
  875MPD2    C112833   1.810   1.586  14.777  0.4430  0.0050 -0.4630
  875MPD2    C212834   1.849   1.564  14.907  0.1791  0.2748  0.1883
  875MPD2    C312835   1.981   1.541  14.946  0.1829  0.3243 -0.4074
  875MPD2    C412836   2.074   1.534  14.844  0.6203 -0.3846  0.1805
  875MPD2    C512837   2.040   1.582  14.719  0.3921 -0.1982  0.4370
  875MPD2     H12838   1.769   1.566  14.980 -1.8927 -0.5543 -2.0185
  875MPD2    H112839   2.180   1.528  14.866  0.8487  3.3759  0.0362
  875MPD2    H212840   1.890   1.614  14.572 -0.2737  0.5343  0.5113
  875MPD2    H312841   2.114   1.592  14.641 -0.5179  0.5330 -0.3415
  875MPD2     N12842   2.028   1.521  15.077 -0.4700 -1.2342 -0.5355
  875MPD2    H512843   2.126   1.530  15.102 -0.4050  1.4287 -1.7454
  875MPD2    N112844   1.673   1.583  14.744  0.1514  0.7787  0.2085
  875MPD2    H712845   1.602   1.572  14.815 -0.4819  0.4539 -0.4780
  876MPD2     C12846   0.206   2.561  15.830 -0.1227 -0.1016 -0.1393
  876MPD2    C112847   0.335   2.608  15.825 -0.1719 -0.0437 -0.0992
  876MPD2    C212848   0.428   2.579  15.925  0.4858  0.7105  0.0253
  876MPD2    C312849   0.384   2.515  16.040  0.1286 -0.1297  0.1218
  876MPD2    C412850   0.246   2.489  16.056  0.5278  0.0654 -0.0098
  876MPD2    C512851   0.163   2.520  15.953 -0.5920  0.0893 -0.7331
  876MPD2     H12852   0.531   2.609  15.914  0.5671 -0.0132 -1.2357
  876MPD2    H112853   0.195   2.430  16.131  0.0202  0.3513 -0.1345
  876MPD2    H212854   0.134   2.575  15.750  0.0613 -1.0603 -0.4700
  876MPD2    H312855   0.058   2.501  15.973 -0.7507  0.2953 -1.3602
  876MPD2     N12856   0.477   2.467  16.139 -0.5418  0.5079 -0.0685
  876MPD2    H512857   0.570   2.480  16.101 -0.8755  1.1241 -0.6807
  876MPD2    N112858   0.369   2.678  15.705  0.9573 -0.1669 -0.0055
  876MPD2    H712859   0.294   2.690  15.638  0.1267  0.4747  1.0393
  877MPD2     C12860   0.092   3.050  15.048 -0.4050 -0.7347 -0.2516
  877MPD2    C112861   0.216   3.090  15.099  0.4337  0.3230  0.4025
  877MPD2    C212862   0.274   3.200  15.031 -0.1266  1.6261  0.4965
  877MPD2    C312863   0.221   3.248  14.910 -0.5185  0.2001  0.4010
  877MPD2    C412864   0.109   3.189  14.858  0.2019  0.0090  0.4732
  877MPD2    C512865   0.040   3.100  14.931 -0.8628 -0.5482  0.4935
  877MPD2     H12866   0.352   3.261  15.074  0.0953  1.3935  0.4266
  877MPD2    H112867   0.054   3.222  14.770 -0.9526  0.0511  1.2055
  877MPD2    H212868   0.021   2.979  15.087 -0.2995 -0.9942 -0.5378
  877MPD2    H312869   4.671   3.053  14.900 -0.7460 -0.7264  0.4098
  877MPD2     N12870   0.280   3.352  14.839 -0.3303 -1.1497 -0.4255
  877MPD2    H512871   0.254   3.356  14.740  0.6238  0.3522 -0.6153
  877MPD2    N112872   0.275   3.072  15.226  0.1804 -0.1838 -0.6563
  877MPD2    H712873   0.351   3.135  15.246 -0.0456 -0.2292  0.3248
  878MPD2     C12874   4.663   2.584  12.961 -0.5177 -0.2890 -0.0664
  878MPD2    C112875   4.716   2.708  12.910 -0.1344  0.6186  0.0602
  878MPD2    C212876   0.014   2.807  13.002  0.4749  0.1780  0.3758
  878MPD2    C312877   4.722   2.773  13.138  0.3784 -0.5329  0.0513
  878MPD2    C412878   4.693   2.648  13.183 -0.6861  0.5261 -0.4474
  878MPD2    C512879   4.644   2.561  13.094  0.3239 -0.2966  0.4171
  878MPD2     H12880   0.028   2.911  12.974 -4.0694  0.3863 -1.0971
  878MPD2    H112881   4.693   2.618  13.287 -2.3739 -0.3653 -0.7076
  878MPD2    H212882   4.638   2.507  12.888  0.2047 -3.0083  2.5493
  878MPD2    H312883   4.594   2.468  13.118 -0.9980  1.0075  2.6879
  878MPD2     N12884   0.021   2.882  13.231  0.1650  0.0675  0.2587
  878MPD2    H512885   0.040   2.967  13.178  1.4941  1.3719  2.8089
  878MPD2    N112886   4.712   2.730  12.773 -0.4756 -0.1425  0.1785
  878MPD2    H712887   4.664   2.661  12.717  2.3560 -1.7801 -0.2447
  879MPD2     C12888   0.419   4.249  17.092  0.3631  0.0130  0.0943
  879MPD2    C112889   0.499   4.157  17.156  0.3051 -0.3718 -0.0358
  879MPD2    C212890   0.468   4.023  17.142  0.1289 -0.0122 -0.5558
  879MPD2    C312891   0.362   3.985  17.062 -0.3609 -0.1677  0.0307
  879MPD2    C412892   0.290   4.081  16.990  0.7290  0.2121  0.2486
  879MPD2    C512893   0.312   4.213  17.018  0.1082 -0.1606 -1.1362
  879MPD2     H12894   0.529   3.943  17.182  0.2075  0.1442 -0.3654
  879MPD2    H112895   0.205   4.047  16.932  1.2007  1.3874 -1.1387
  879MPD2    H212896   0.430   4.355  17.111  1.3811 -0.0245 -0.2755
  879MPD2    H312897   0.255   4.289  16.966 -2.1032 -0.9619  0.0929
  879MPD2     N12898   0.331   3.848  17.040  0.3400  0.3958 -0.0992
  879MPD2    H512899   0.267   3.840  16.962 -0.6491 -0.5866  0.8201
  879MPD2    N112900   0.601   4.207  17.240 -0.7808  0.0209 -0.7792
  879MPD2    H712901   0.622   4.306  17.243 -0.1823 -0.1275 -0.1108
  880MPD2     C12902   1.850   0.995   0.911 -0.2296  0.3105  0.2125
  880MPD2    C112903   1.889   0.966   0.779 -0.1833  0.0727 -0.2350
  880MPD2    C212904   1.931   0.836   0.754  1.3488 -0.1620  0.5891
  880MPD2    C312905   1.938   0.743   0.863  0.1094 -1.0259  0.8442
  880MPD2    C412906   1.897   0.786   0.985 -0.4987  0.5462  0.3479
  880MPD2    C512907   1.851   0.908   1.008 -0.6094  0.6778  0.3500
  880MPD2     H12908   1.977   0.817   0.657  0.4325  0.2525  0.0726
  880MPD2    H112909   1.897   0.729   1.077 -1.0379  1.7437  1.0896
  880MPD2    H212910   1.810   1.091   0.943 -1.6285 -0.2271  0.0661
  880MPD2    H312911   1.818   0.938   1.106  0.0441 -2.5354  1.5214
  880MPD2     N12912   1.988   0.616   0.841  0.3518  0.1816  0.5376
  880MPD2    H512913   2.041   0.603   0.755 -1.4031 -0.3631 -0.4515
  880MPD2    N112914   1.883   1.074   0.688  0.5872  0.2109  0.3431
  880MPD2    H712915   1.841   1.159   0.725  3.7512  1.0529  1.9778
  881MPD2     C12916   1.809   0.924  17.408 -0.0465  0.2839 -0.1343
  881MPD2    C112917   1.867   1.049  17.428 -0.0107 -0.0875 -0.3270
  881MPD2    C212918   1.846   1.111  17.557 -0.0178 -0.4490  0.8756
  881MPD2    C312919   1.779   1.042  17.658  0.3310 -0.0285  0.2560
  881MPD2    C412920   1.733   0.918  17.631 -0.2698  0.1293 -0.0504
  881MPD2    C512921   1.747   0.859  17.511  0.8026 -0.5086 -0.2771
  881MPD2     H12922   1.895   1.202  17.588 -1.3177 -0.1334  2.0017
  881MPD2    H112923   1.680   0.861   0.009 -0.4372 -0.8930 -0.9400
  881MPD2    H212924   1.834   0.865  17.321 -0.4485 -1.2863  0.8109
  881MPD2    H312925   1.699   0.762  17.498 -1.5029  0.4649  0.9150
  881MPD2     N12926   1.770   1.098   0.093  0.3772 -0.0150  0.0005
  881MPD2    H512927   1.732   1.036   0.164  0.9816  0.8455  1.0613
  881MPD2    N112928   1.970   1.083  17.336 -0.3753 -0.3217  0.1737
  881MPD2    H712929   1.974   1.029  17.250  0.3658  0.2898 -0.1776
  882MPD2     C12930   0.455   3.391  14.152  0.5898 -0.4369  0.1644
  882MPD2    C112931   0.351   3.426  14.237  0.2101 -0.3053  0.1050
  882MPD2    C212932   0.224   3.366  14.219  0.0243 -0.1689 -0.3348
  882MPD2    C312933   0.212   3.273  14.121  0.1370 -0.3970 -0.1788
  882MPD2    C412934   0.322   3.224  14.047 -0.0408  0.4176  0.4605
  882MPD2    C512935   0.441   3.279  14.061 -0.7475 -0.0977 -0.0264
  882MPD2     H12936   0.146   3.383  14.293  0.9256 -0.2710  0.6370
  882MPD2    H112937   0.321   3.145  13.973  1.4519  1.5250 -0.7444
  882MPD2    H212938   0.553   3.429  14.180  0.8086  0.1642 -1.3595
  882MPD2    H312939   0.528   3.236  14.013 -0.2212 -2.0756  2.7410
  882MPD2     N12940   0.084   3.215  14.087  0.2155  0.0997 -0.2828
  882MPD2    H512941   0.088   3.145  14.014 -2.4923 -1.7101  1.2738
  882MPD2    N112942   0.387   3.504  14.346  0.4484 -0.1212 -0.5846
  882MPD2    H712943   0.482   3.537  14.342  1.8851 -3.9816  1.3594
  883MPD2     C12944   2.284   3.311  16.347  0.0141  0.1998  0.4869
  883MPD2    C112945   2.394   3.291  16.266  0.3050 -0.0712 -0.1586
  883MPD2    C212946   2.520   3.281  16.324 -0.3025  0.0294 -0.5032
  883MPD2    C312947   2.536   3.289  16.462  0.0866  0.3256 -1.0212
  883MPD2    C412948   2.422   3.291  16.545 -0.5561 -0.3498 -0.6798
  883MPD2    C512949   2.301   3.311  16.487  0.0999 -0.2923  0.6367
  883MPD2     H12950   2.607   3.283  16.259 -0.9231 -1.5934 -1.3809
  883MPD2    H112951   2.428   3.288  16.653  0.4055  0.5934 -0.7038
  883MPD2    H212952   2.183   3.311  16.309  0.0770 -1.3180  0.3174
  883MPD2    H312953   2.209   3.336  16.539  0.7452  2.7847  0.3166
  883MPD2     N12954   2.672   3.289  16.513 -0.1635  0.1212  0.4987
  883MPD2    H512955   2.744   3.281  16.442  0.0426 -4.0979  1.1731
  883MPD2    N112956   2.378   3.279  16.124  0.4355 -0.1558  0.2474
  883MPD2    H712957   2.459   3.269  16.064  1.6753 -2.0996  2.2572
  884MPD2     C12958   4.405   3.864  15.414  0.4115  0.5459 -0.0108
  884MPD2    C112959   4.403   3.984  15.344  0.1126 -0.6552  0.1595
  884MPD2    C212960   4.287   4.057  15.316  0.2665 -0.5630 -0.7457
  884MPD2    C312961   4.166   4.001  15.352  0.4586  0.5124  0.4424
  884MPD2    C412962   4.164   3.878  15.410  0.5157  0.3173 -0.4683
  884MPD2    C512963   4.277   3.813  15.447 -0.5550 -0.3011  0.1352
  884MPD2     H12964   4.288   4.151  15.262  1.2288  0.1629  0.5153
  884MPD2    H112965   4.068   3.833  15.433  0.5736  0.4459  0.0192
  884MPD2    H212966   4.485   3.794  15.437 -0.7990 -1.2995 -1.3594
  884MPD2    H312967   4.254   3.711  15.474  0.3492 -0.8623 -1.1938
  884MPD2     N12968   4.047   4.083  15.332 -0.7523  0.5638  0.5488
  884MPD2    H512969   4.056   4.167  15.276 -3.0872  0.1698 -0.4120
  884MPD2    N112970   4.527   4.034  15.292 -0.1299  0.5979 -0.0441
  884MPD2    H712971   4.519   4.129  15.260  0.3293  0.3212 -0.9749
  885MPD2     C12972   2.509   4.150   0.307 -0.5747  0.1549  0.2560
  885MPD2    C112973   2.555   4.027   0.266 -0.2252  0.3537  0.4881
  885MPD2    C212974   2.513   3.983   0.138 -0.4053 -0.4125  0.4528
  885MPD2    C312975   2.443   4.073   0.055  0.2930 -0.1519 -0.1324
  885MPD2    C412976   2.401   4.194   0.104 -0.0344 -0.0592  0.0091
  885MPD2    C512977   2.431   4.226   0.229 -0.0782  0.2444  0.7775
  885MPD2     H12978   2.549   3.888   0.101 -1.0865 -0.7987  0.7670
  885MPD2    H112979   2.355   4.264   0.034  1.1798  0.1833 -0.5360
  885MPD2    H212980   2.544   4.192   0.400 -0.4007 -1.4478  0.9165
  885MPD2    H312981   2.408   4.320   0.278 -3.4209 -0.3322  0.3215
  885MPD2     N12982   2.418   4.031  17.617 -0.0770 -0.3943 -0.5049
  885MPD2    H512983   2.437   3.932  17.607  0.7080 -0.4660  1.7471
  885MPD2    N112984   2.635   3.950   0.354  0.7321 -0.3674  0.4648
  885MPD2    H712985   2.661   4.003   0.437  0.3562  2.5013 -1.2305
  886MPD2     C12986   3.552   3.008  15.732 -0.7395  0.2422 -0.5851
  886MPD2    C112987   3.659   2.925  15.711 -0.0330  0.5326 -0.4764
  886MPD2    C212988   3.720   2.925  15.582  0.5704 -0.0126 -0.3020
  886MPD2    C312989   3.671   3.001  15.481  0.3443  0.2247 -0.1712
  886MPD2    C412990   3.543   3.067  15.499  0.1166 -0.3062 -0.5472
  886MPD2    C512991   3.481   3.063  15.619  0.5885  0.5652  0.4613
  886MPD2     H12992   3.813   2.869  15.578 -0.0966 -1.3025  2.0029
  886MPD2    H112993   3.494   3.117  15.416  1.7228  0.0664 -1.2738
  886MPD2    H212994   3.502   3.010  15.828  0.0444 -0.0824 -0.1718
  886MPD2    H312995   3.397   3.130  15.633  1.3302  2.1018 -2.3314
  886MPD2     N12996   3.736   3.013  15.357  0.2544  0.3424  0.2870
  886MPD2    H512997   3.682   3.057  15.283 -0.8955 -0.9758  0.3499
  886MPD2    N112998   3.709   2.840  15.813  0.0931  0.7237  0.3482
  886MPD2    H712999   3.778   2.775  15.778 -1.7828 -2.0317  1.7411
  887MPD2     C13000   4.306   2.504  15.783  0.1732  0.3636  0.0710
  887MPD2    C113001   4.230   2.619  15.778 -0.2115 -0.0138  0.4338
  887MPD2    C213002   4.254   2.708  15.677  0.9590  0.1725  0.7210
  887MPD2    C313003   4.364   2.696  15.596  0.2658 -0.4962 -0.3392
  887MPD2    C413004   4.442   2.588  15.609  0.2705  0.0418 -0.4495
  887MPD2    C513005   4.410   2.492  15.694  0.6562  0.1402 -0.1121
  887MPD2     H13006   4.193   2.795  15.661  0.7078  0.1176  1.3838
  887MPD2    H113007   4.531   2.560  15.554  0.3377  1.4513 -1.0543
  887MPD2    H213008   4.304   2.420  15.852  0.3551  1.5204  1.4931
  887MPD2    H313009   4.468   2.401  15.707 -0.4842 -0.2363  2.5020
  887MPD2     N13010   4.394   2.813  15.520 -0.2379 -0.2276 -0.2804
  887MPD2    H513011   4.320   2.882  15.525 -0.3172 -0.3320 -0.0471
  887MPD2    N113012   4.116   2.647  15.859 -0.2306 -0.3013 -0.4175
  887MPD2    H713013   4.065   2.733  15.840  2.5677  1.2164 -1.1236
  888MPD2     C13014   1.244   2.656  15.316  0.0635  0.0398 -0.7602
  888MPD2    C113015   1.224   2.740  15.423  0.6671  0.6775 -0.2758
  888MPD2    C213016   1.262   2.870  15.408 -0.0275 -0.2860 -0.6938
  888MPD2    C313017   1.324   2.920  15.292  0.4387 -0.2477 -0.3673
  888MPD2    C413018   1.347   2.835  15.186 -0.6459  0.2972  0.2761
  888MPD2    C513019   1.312   2.705  15.208 -0.1033  0.4698  0.0893
  888MPD2     H13020   1.245   2.931  15.495  2.0892  1.0743 -1.2305
  888MPD2    H113021   1.397   2.856  15.093 -1.5437 -0.4068 -0.3661
  888MPD2    H213022   1.238   2.548  15.321  0.6038  0.0340 -0.2722
  888MPD2    H313023   1.342   2.631  15.134  2.2242 -0.3243  1.8611
  888MPD2     N13024   1.358   3.053  15.293 -0.6921  0.2053 -0.0833
  888MPD2    H513025   1.324   3.100  15.376 -4.0287 -0.6801 -0.9719
  888MPD2    N113026   1.183   2.703  15.549 -0.2027  1.0984 -0.0722
  888MPD2    H713027   1.162   2.780  15.611 -0.7178 -0.3065  1.5106
  889MPD2     C13028   0.528   2.008  12.997  0.3882 -0.6033  0.2528
  889MPD2    C113029   0.643   2.029  13.069 -0.3878  0.2090  0.0656
  889MPD2    C213030   0.697   2.154  13.057  0.6547  0.4244 -0.2068
  889MPD2    C313031   0.647   2.249  12.971 -0.4865  0.2253 -0.2957
  889MPD2    C413032   0.544   2.213  12.885 -0.2828 -0.6083 -0.9251
  889MPD2    C513033   0.480   2.094  12.898 -0.5948 -0.7150 -0.1521
  889MPD2     H13034   0.771   2.186  13.129 -2.2681  1.4834  2.3132
  889MPD2    H113035   0.495   2.275  12.811 -1.1640 -0.5888 -0.3280
  889MPD2    H213036   0.472   1.921  13.029 -1.9427  0.6512 -0.4368
  889MPD2    H313037   0.399   2.064  12.833 -0.5456  0.0762 -0.5830
  889MPD2     N13038   0.702   2.376  12.986  0.8442 -0.2932  0.3299
  889MPD2    H513039   0.747   2.406  13.071  0.9746  0.3469  0.0338
  889MPD2    N113040   0.684   1.941  13.171  0.0972 -0.0581 -0.6432
  889MPD2    H713041   0.636   1.852  13.170 -0.5418  0.3261 -3.4841
  890MPD2     C13042   4.635   4.266  14.804 -0.2125  0.2561 -0.6468
  890MPD2    C113043   0.037   4.329  14.812  0.4134 -0.0577  1.0699
  890MPD2    C213044   0.144   4.249  14.849 -0.2815 -0.1604  0.4230
  890MPD2    C313045   0.134   4.113  14.872 -0.3404  0.5196  1.0810
  890MPD2    C413046   0.010   4.052  14.878 -0.6480  0.5893 -0.0178
  890MPD2    C513047   4.626   4.131  14.847 -0.6617 -0.1326  0.2912
  890MPD2     H13048   0.241   4.296  14.843 -0.2866 -0.0525  1.1720
  890MPD2    H113049   4.721   3.944  14.887  1.9455  0.1642 -1.2355
  890MPD2    H213050   4.548   4.316  14.765 -1.2184 -0.9546  0.0326
  890MPD2    H313051   4.528   4.086  14.848  0.3119 -2.2405  1.1006
  890MPD2     N13052   0.255   4.040  14.889 -0.5761 -0.0472 -0.9124
  890MPD2    H513053   0.347   4.084  14.886 -0.6678  0.1961  0.1119
  890MPD2    N113054   0.053   4.464  14.766 -0.1848 -0.5517  0.6572
  890MPD2    H713055   4.689   4.498  14.728 -0.1578 -1.3551 -0.0950
  891MPD2     C13056   2.947   1.401  16.946  0.3688 -0.0202 -0.1159
  891MPD2    C113057   2.939   1.515  17.025 -0.2192 -0.5414 -0.1371
  891MPD2    C213058   3.035   1.531  17.126 -0.3018  0.0527 -0.2193
  891MPD2    C313059   3.143   1.449  17.136  0.0689  0.2434  0.1879
  891MPD2    C413060   3.147   1.341  17.050  0.4641  0.2707 -0.5406
  891MPD2    C513061   3.049   1.314  16.960  0.2587  0.5241  0.0553
  891MPD2     H13062   3.044   1.625  17.179  0.8044  0.0350 -0.3752
  891MPD2    H113063   3.219   1.260  17.058 -0.7080 -0.8635 -1.2580
  891MPD2    H213064   2.888   1.395  16.855  2.7608 -0.8199 -1.6087
  891MPD2    H313065   3.055   1.226  16.897 -1.7314  0.5872 -0.2110
  891MPD2     N13066   3.249   1.477  17.229 -0.1660  0.3789 -0.1183
  891MPD2    H513067   3.241   1.560  17.285  1.7655  0.0015  0.7336
  891MPD2    N113068   2.844   1.616  16.994  0.1067 -0.6187 -0.5218
  891MPD2    H713069   2.798   1.611  16.904 -0.0176 -2.4557 -0.3428
  892MPD2     C13070   4.306   3.235  14.858  0.1221  0.1279 -0.9992
  892MPD2    C113071   4.235   3.311  14.758  0.2441  0.4019  0.9295
  892MPD2    C213072   4.267   3.293  14.625  0.3451  0.6554  0.3519
  892MPD2    C313073   4.360   3.199  14.593 -0.1087  0.8371 -0.0066
  892MPD2    C413074   4.438   3.134  14.695 -0.4947  0.1215  0.4482
  892MPD2    C513075   4.409   3.161  14.828  0.0361 -0.8612 -0.0563
  892MPD2     H13076   4.198   3.341  14.557 -0.2333  0.9261  1.1183
  892MPD2    H113077   4.514   3.057  14.687 -0.4449  0.0854  1.2823
  892MPD2    H213078   4.296   3.228  14.966 -0.7690  0.6498 -1.0431
  892MPD2    H313079   4.468   3.112  14.905 -0.4255  0.4537  1.1504
  892MPD2     N13080   4.386   3.157  14.461 -0.0156  0.5033 -0.3499
  892MPD2    H513081   4.443   3.074  14.454  0.0372  0.3990  1.2192
  892MPD2    N113082   4.134   3.403  14.791  0.2778  0.0256  0.0343
  892MPD2    H713083   4.085   3.441  14.711  0.8839 -1.3459 -0.9972
  893MPD2     C13084   2.185   2.599   0.860 -0.0954  0.4220 -0.3528
  893MPD2    C113085   2.248   2.596   0.987  0.1844 -0.2589 -0.4969
  893MPD2    C213086   2.162   2.601   1.098  0.3051 -0.5737  0.0830
  893MPD2    C313087   2.023   2.603   1.083 -0.4156 -0.0300 -0.6026
  893MPD2    C413088   1.970   2.599   0.955 -0.1075  0.0338  0.5690
  893MPD2    C513089   2.050   2.602   0.845  0.1127  0.8047  0.1972
  893MPD2     H13090   2.200   2.612   1.199 -1.1067  0.7179  0.4827
  893MPD2    H113091   1.864   2.603   0.934  0.0759  0.2744 -0.3173
  893MPD2    H213092   2.249   2.599   0.773 -1.0588  0.4580 -1.0497
  893MPD2    H313093   2.009   2.607   0.745  1.9679 -0.0863 -0.6132
  893MPD2     N13094   1.926   2.604   1.187  0.7560 -0.0013 -0.5299
  893MPD2    H513095   1.831   2.611   1.150  0.4929 -1.7206 -0.1864
  893MPD2    N113096   2.391   2.590   0.994 -0.3329 -0.7173 -0.4314
  893MPD2    H713097   2.441   2.601   0.906  0.4013  0.6110  0.1462
  894MPD2     C13098   4.109   0.468   1.076  0.7466 -0.0630 -0.2002
  894MPD2    C113099   4.209   0.369   1.079  0.1856 -0.1912 -0.1069
  894MPD2    C213100   4.319   0.374   1.002 -0.3038  0.0384  0.5702
  894MPD2    C313101   4.333   0.474   0.906  0.4055 -0.9086 -0.7374
  894MPD2    C413102   4.233   0.572   0.899 -1.1105 -0.1518 -0.1213
  894MPD2    C513103   4.121   0.569   0.982 -0.3851  0.5671 -0.2638
  894MPD2     H13104   4.397   0.299   1.001 -0.2839  0.0696 -1.1335
  894MPD2    H113105   4.231   0.656   0.830  0.0029  0.1569  0.2204
  894MPD2    H213106   4.026   0.484   1.144  0.9345 -1.1825  0.2843
  894MPD2    H313107   4.047   0.648   0.980 -1.5119 -0.4607  0.4284
  894MPD2     N13108   4.448   0.489   0.831  0.2332 -0.0298 -0.1567
  894MPD2    H513109   4.524   0.423   0.844  1.0544  0.6694 -1.4834
  894MPD2    N113110   4.204   0.273   1.188  0.0632  0.1889 -0.2259
  894MPD2    H713111   4.272   0.198   1.196  1.0954  1.1847  0.2929
  895MPD2     C13112   3.219   2.814  14.071 -0.5974 -0.2218 -0.8902
  895MPD2    C113113   3.192   2.782  13.940  0.3656 -0.0170 -0.5915
  895MPD2    C213114   3.290   2.724  13.862 -0.2777  0.1425  0.0725
  895MPD2    C313115   3.419   2.711  13.914  0.0329  0.8035 -0.2194
  895MPD2    C413116   3.446   2.750  14.048  0.0134  1.0314  0.3362
  895MPD2    C513117   3.345   2.797  14.128 -0.5088  0.3582 -0.5720
  895MPD2     H13118   3.276   2.694  13.758 -0.3669 -0.8510  0.3725
  895MPD2    H113119   3.538   2.736  14.104 -0.6840 -0.9509  0.9801
  895MPD2    H213120   3.140   2.828  14.143  0.1315  1.1113 -0.3359
  895MPD2    H313121   3.354   2.812  14.235  1.3865 -0.0735 -0.6752
  895MPD2     N13122   3.515   2.670  13.820 -0.1725 -0.2440 -0.8510
  895MPD2    H513123   3.473   2.637  13.734 -2.7316 -0.8115  0.6212
  895MPD2    N113124   3.066   2.797  13.879  0.6629  0.0262  0.3422
  895MPD2    H713125   3.067   2.767  13.782 -1.1803 -0.0634  0.3445
  896MPD2     C13126   0.867   1.172   2.216  0.0123 -0.3718 -0.2999
  896MPD2    C113127   0.905   1.120   2.092 -0.4702  0.6659  0.0633
  896MPD2    C213128   0.834   1.008   2.044  0.5447  0.5015 -0.1113
  896MPD2    C313129   0.730   0.953   2.115 -0.3377  0.0219 -0.1122
  896MPD2    C413130   0.684   1.012   2.230 -0.1576  0.4078  0.0362
  896MPD2    C513131   0.761   1.113   2.281  0.3372  0.7399 -0.1194
  896MPD2     H13132   0.876   0.959   1.957 -2.4012  0.2925 -1.4025
  896MPD2    H113133   0.592   0.979   2.277  0.7364  0.8575  2.1054
  896MPD2    H213134   0.931   1.250   2.256 -0.3011  0.4147 -1.3158
  896MPD2    H313135   0.725   1.163   2.370 -0.3278  2.2075 -1.2267
  896MPD2     N13136   0.655   0.854   2.045  0.6128 -0.1732  0.3965
  896MPD2    H513137   0.690   0.845   1.951  1.7725 -2.4255  1.0480
  896MPD2    N113138   1.012   1.178   2.023  0.5661 -0.0926 -0.2772
  896MPD2    H713139   1.064   1.252   2.070  0.8966  0.3343 -1.3190
  897MPD2     C13140   1.747   1.732  10.324 -0.0141 -0.6068 -0.9263
  897MPD2    C113141   1.762   1.831  10.417  0.1531  0.2586  0.4297
  897MPD2    C213142   1.705   1.806  10.543 -0.4132  0.3637 -0.3087
  897MPD2    C313143   1.612   1.699  10.568  0.0074  0.1008  0.3242
  897MPD2    C413144   1.596   1.605  10.468 -0.3193 -0.8961 -0.1182
  897MPD2    C513145   1.679   1.620  10.359 -0.8283  0.1996 -0.0080
  897MPD2     H13146   1.709   1.887  10.615 -0.3225 -0.4301  0.5896
  897MPD2    H113147   1.523   1.527  10.481 -0.9356  0.0188  1.9413
  897MPD2    H213148   1.787   1.746  10.225 -1.9543  0.4320 -1.5706
  897MPD2    H313149   1.668   1.546  10.281  0.1376 -0.6519  0.6641
  897MPD2     N13150   1.527   1.703  10.681 -0.7949  0.0691 -0.2518
  897MPD2    H513151   1.449   1.638  10.681 -1.6770  1.1285 -0.3520
  897MPD2    N113152   1.829   1.959  10.391  0.4646  0.1669  0.1278
  897MPD2    H713153   1.848   1.974  10.292 -0.9423  0.3815 -0.1078
  898MPD2     C13154   3.741   2.900   0.403  0.0643  0.0476  0.1087
  898MPD2    C113155   3.860   2.925   0.341  0.0309  0.0704 -0.1383
  898MPD2    C213156   3.849   2.996   0.221 -0.2925  0.4244  0.3488
  898MPD2    C313157   3.732   3.021   0.151  0.2603 -0.1686  0.0401
  898MPD2    C413158   3.617   2.982   0.215  0.1406 -0.2648  0.2670
  898MPD2    C513159   3.624   2.924   0.339  0.3106  0.2649 -0.3387
  898MPD2     H13160   3.946   3.034   0.194  0.6526 -2.0640  0.2093
  898MPD2    H113161   3.525   3.005   0.164  0.7900  0.4200 -0.5860
  898MPD2    H213162   3.730   2.851   0.499 -0.5100 -1.6755 -0.8322
  898MPD2    H313163   3.538   2.895   0.399  0.3717 -0.4996 -0.6190
  898MPD2     N13164   3.739   3.076   0.017 -0.0943  0.6989  0.5484
  898MPD2    H513165   3.831   3.099  17.678 -0.8579  0.2754 -1.6777
  898MPD2    N113166   3.980   2.884   0.397 -0.6918 -0.0402  0.0374
  898MPD2    H713167   4.062   2.897   0.339 -1.4396  1.1644 -0.7469
  899MPD2     C13168   0.012   3.340  17.500 -0.1043 -0.2716 -0.3513
  899MPD2    C113169   0.065   3.450  17.555  0.3189  0.2884 -0.4811
  899MPD2    C213170   0.054   3.461  17.695  0.2127  0.2604 -0.4823
  899MPD2    C313171   4.723   3.359   0.078 -0.1547  0.5628  1.0278
  899MPD2    C413172   4.703   3.239   0.018  0.3575 -0.5636 -0.5398
  899MPD2    C513173   4.706   3.232  17.579  0.9548 -0.5088 -0.2170
  899MPD2     H13174   0.070   3.561   0.036  0.1325  0.3210 -0.6079
  899MPD2    H113175   4.677   3.157   0.084 -1.3217  0.3768 -0.0280
  899MPD2    H213176   0.006   3.319  17.394  1.6850  0.8667 -0.6882
  899MPD2    H313177   4.670   3.136  17.545 -2.6196  0.9819 -0.5798
  899MPD2     N13178   4.699   3.370   0.218  0.5646 -0.2450  0.5822
  899MPD2    H513179   4.640   3.295   0.255 -1.2534  0.7100 -0.3892
  899MPD2    N113180   0.108   3.556  17.474 -0.5407 -0.3247 -0.2047
  899MPD2    H713181   0.104   3.541  17.374  0.2537 -0.8218 -0.1568
  900MPD2     C13182   4.171   0.774  12.492  0.2560 -0.0210 -0.2096
  900MPD2    C113183   4.105   0.677  12.566 -0.6133 -0.8903  0.2590
  900MPD2    C213184   3.973   0.688  12.595 -0.1456 -0.0423  0.0525
  900MPD2    C313185   3.900   0.796  12.547  0.6483 -0.4208 -0.0490
  900MPD2    C413186   3.968   0.899  12.486  0.2608  0.1954 -0.4286
  900MPD2    C513187   4.098   0.880  12.457 -0.2648  0.2425  0.7135
  900MPD2     H13188   3.915   0.602  12.627  0.8513 -0.0042  1.9787
  900MPD2    H113189   3.914   0.984  12.446  1.7408  1.0548 -0.5932
  900MPD2    H213190   4.277   0.774  12.471  0.2240  4.1778 -0.3620
  900MPD2    H313191   4.143   0.955  12.393 -2.2806  0.0856 -0.8896
  900MPD2     N13192   3.761   0.794  12.566  0.0103  0.5710  0.2683
  900MPD2    H513193   3.725   0.708  12.607 -0.9118  0.4344 -0.8228
  900MPD2    N113194   4.188   0.574  12.613 -0.5910  0.3899 -0.0248
  900MPD2    H713195   4.284   0.582  12.581 -0.7116 -1.6055 -0.9222
  901MPD2     C13196   4.354   4.326  12.961  1.1793  0.4271  0.0422
  901MPD2    C113197   4.394   4.356  12.834 -0.0365 -0.0783  0.8559
  901MPD2    C213198   4.405   4.490  12.801  0.5912  0.5332  0.6243
  901MPD2    C313199   4.365   4.590  12.890  0.3118 -0.2284  0.7286
  901MPD2    C413200   4.328   4.555  13.013 -0.6353 -0.0922 -0.3723
  901MPD2    C513201   4.335   4.426  13.052  0.5060  0.6393 -0.2067
  901MPD2     H13202   4.453   4.514  12.707 -0.6520 -2.0133 -0.6476
  901MPD2    H113203   4.305   4.628  13.089  0.5154  1.0624 -1.1396
  901MPD2    H213204   4.340   4.226  13.000 -3.3871  1.0685  0.0729
  901MPD2    H313205   4.305   4.405  13.154 -0.4382 -0.1097 -0.6374
  901MPD2     N13206   4.385   0.001  12.861  0.7372 -0.6074 -0.5784
  901MPD2    H513207   4.407   0.028  12.765 -0.2263 -0.1481 -0.6742
  901MPD2    N113208   4.429   4.245  12.752  0.4838  0.1710  0.0920
  901MPD2    H713209   4.442   4.154  12.796 -1.1496  1.1661  2.6746
  902MPD2     C13210   3.376   2.905  13.202  0.5966  0.3914 -0.8416
  902MPD2    C113211   3.303   2.885  13.088 -0.3087 -0.0089  0.2164
  902MPD2    C213212   3.298   2.753  13.037 -0.7319  0.3255 -0.1557
  902MPD2    C313213   3.385   2.654  13.078  0.3197  0.2570  0.3815
  902MPD2    C413214   3.466   2.687  13.189 -0.2876 -0.2675  0.2398
  902MPD2    C513215   3.460   2.812  13.251  0.1762 -0.0081 -0.0493
  902MPD2     H13216   3.215   2.730  12.971 -0.0331 -2.0616 -0.2107
  902MPD2    H113217   3.542   2.621  13.229 -0.4211 -0.9140 -0.5735
  902MPD2    H213218   3.379   3.006  13.242  1.0545  0.0395 -0.0012
  902MPD2    H313219   3.512   2.828  13.344 -0.6916 -1.0822  0.6223
  902MPD2     N13220   3.390   2.522  13.031  0.3907  0.4686  0.4142
  902MPD2    H513221   3.463   2.458  13.063  1.4902  2.2299  1.4049
  902MPD2    N113222   3.226   2.998  13.047  0.2095 -0.7268  0.6538
  902MPD2    H713223   3.239   3.087  13.094 -0.1931 -0.3074 -0.0278
  903MPD2     C13224   3.574   2.446  12.328  0.4535  0.0916  0.8960
  903MPD2    C113225   3.480   2.477  12.426 -0.4334  0.5726 -0.3196
  903MPD2    C213226   3.367   2.551  12.386  0.0828 -0.1699 -0.9728
  903MPD2    C313227   3.347   2.589  12.255  0.0847  0.8196  0.4458
  903MPD2    C413228   3.440   2.551  12.165  0.1560  0.3001  0.2597
  903MPD2    C513229   3.551   2.476  12.205 -0.2458  0.2427  0.2568
  903MPD2     H13230   3.282   2.557  12.453  0.0753 -0.6287 -0.9416
  903MPD2    H113231   3.436   2.575  12.060  1.1204 -0.5838  0.0118
  903MPD2    H213232   3.671   2.408  12.357  0.8063 -0.6663 -1.2980
  903MPD2    H313233   3.624   2.460  12.127 -1.4567  1.4567 -1.1193
  903MPD2     N13234   3.240   2.663  12.220  0.6486 -0.6542  0.6740
  903MPD2    H513235   3.166   2.675  12.289  0.5273  1.4704  0.1553
  903MPD2    N113236   3.495   2.440  12.563  0.5618  0.3187  0.0915
  903MPD2    H713237   3.434   2.467  12.640  1.3390 -2.1190  1.5836
  904MPD2     C13238   3.263   2.251  14.031  0.4462  0.1837  0.0956
  904MPD2    C113239   3.265   2.143  14.115  0.2893  0.1004 -0.6389
  904MPD2    C213240   3.386   2.110  14.178  0.3941 -0.2622  0.4924
  904MPD2    C313241   3.499   2.183  14.171 -0.4228  0.2050 -0.7844
  904MPD2    C413242   3.484   2.309  14.114  0.2735  0.2876 -0.5435
  904MPD2    C513243   3.371   2.334  14.041  0.3813  0.6067 -0.5250
  904MPD2     H13244   3.386   2.024  14.244  1.6636  0.5209  1.5167
  904MPD2    H113245   3.564   2.382  14.110 -0.8610  1.4177 -2.4860
  904MPD2    H213246   3.181   2.286  13.970  0.7562  0.3522 -0.2305
  904MPD2    H313247   3.375   2.426  13.984 -1.5843 -0.3354 -2.1777
  904MPD2     N13248   3.619   2.130  14.215 -0.0632 -0.5455 -0.2538
  904MPD2    H513249   3.604   2.042  14.262 -0.8201 -1.0753 -1.4904
  904MPD2    N113250   3.159   2.046  14.118 -0.4243 -0.1230 -0.0860
  904MPD2    H713251   3.186   1.955  14.151  0.4031 -0.3186 -1.3131
  905MPD2     C13252   3.001   2.241  13.447 -0.2807 -0.4681  0.5891
  905MPD2    C113253   3.044   2.312  13.558  0.3132 -0.2874 -0.9948
  905MPD2    C213254   3.172   2.371  13.544  0.1599  0.0819 -0.0933
  905MPD2    C313255   3.245   2.348  13.434 -0.6940  0.2314  0.4285
  905MPD2    C413256   3.203   2.256  13.336  0.7500 -0.4871 -0.3327
  905MPD2    C513257   3.077   2.204  13.339  0.0458  0.6848  0.2307
  905MPD2     H13258   3.214   2.415  13.634  0.2277  1.2335 -0.6877
  905MPD2    H113259   3.258   2.245  13.243  0.4164 -0.0621 -0.5750
  905MPD2    H213260   2.895   2.218  13.452 -0.5611  0.6322 -0.1943
  905MPD2    H313261   3.037   2.138  13.262  0.2447 -0.9237  1.5049
  905MPD2     N13262   3.378   2.398  13.422  0.6666  0.0700 -0.5403
  905MPD2    H513263   3.432   2.359  13.346 -2.1419 -0.7663 -2.1373
  905MPD2    N113264   2.965   2.313  13.671 -0.0160  0.4589  0.7667
  905MPD2    H713265   2.885   2.251  13.683  0.1025 -0.0486 -1.1947
  906MPD2     C13266   0.613   2.344  11.149  0.3337 -0.2907 -0.2032
  906MPD2    C113267   0.541   2.260  11.063 -0.0056 -0.0908  0.2792
  906MPD2    C213268   0.480   2.146  11.119 -0.4644  0.4472 -0.3795
  906MPD2    C313269   0.461   2.126  11.258 -0.2135  0.5813 -0.4138
  906MPD2    C413270   0.532   2.215  11.333  0.3485 -0.5316  0.5099
  906MPD2    C513271   0.611   2.315  11.281 -0.2659  0.2023  0.2108
  906MPD2     H13272   0.429   2.080  11.049 -1.3066 -1.3406  1.8963
  906MPD2    H113273   0.536   2.210  11.441 -3.3571 -0.9555  0.6157
  906MPD2    H213274   0.664   2.432  11.112 -0.9853  0.6601  0.2528
  906MPD2    H313275   0.666   2.379  11.349  0.0492  1.8325 -1.5591
  906MPD2     N13276   0.381   2.023  11.301  0.0804 -0.8543 -0.2694
  906MPD2    H513277   0.323   1.971  11.236 -0.4254 -0.3870 -0.1895
  906MPD2    N113278   0.523   2.278  10.926  0.0469 -0.4141 -0.2572
  906MPD2    H713279   0.474   2.205  10.874 -0.3359 -0.1841 -0.2190
  907MPD2     C13280   4.295   1.217  15.721 -0.0406 -0.1226 -0.3339
  907MPD2    C113281   4.321   1.090  15.668 -0.2936  0.1511  0.3794
  907MPD2    C213282   4.385   0.993  15.745 -0.1418  0.9901  0.1690
  907MPD2    C313283   4.413   1.022  15.877  0.3122  0.1490 -0.2299
  907MPD2    C413284   4.380   1.144  15.933  0.0406  0.1296 -0.4415
  907MPD2    C513285   4.317   1.239  15.858  0.6240 -0.0208  0.4236
  907MPD2     H13286   4.400   0.895  15.701 -0.8073  0.1970  1.6996
  907MPD2    H113287   4.406   1.180  16.032 -1.2403 -0.5452  0.1393
  907MPD2    H213288   4.237   1.296  15.676 -0.4690 -0.7090 -0.8065
  907MPD2    H313289   4.290   1.332  15.907  1.2920  1.9799 -3.0206
  907MPD2     N13290   4.481   0.917  15.942  0.4027 -0.3347  0.0620
  907MPD2    H513291   4.497   0.835  15.886 -1.1621  0.7272 -1.9508
  907MPD2    N113292   4.305   1.055  15.533  0.0416  0.0034 -0.6529
  907MPD2    H713293   4.354   0.970  15.508  1.1373  0.3265  0.4192
  908MPD2     C13294   2.024   2.206   9.630  0.4404  0.2290 -0.3515
  908MPD2    C113295   1.974   2.092   9.701  0.0900 -0.0877 -0.1058
  908MPD2    C213296   1.933   2.110   9.831 -0.2494 -0.4374  0.7463
  908MPD2    C313297   1.950   2.228   9.893  0.3759 -0.0061  0.0650
  908MPD2    C413298   2.014   2.334   9.839 -0.5340 -0.1979  0.0301
  908MPD2    C513299   2.038   2.323   9.702  0.2038 -0.5393  0.0416
  908MPD2     H13300   1.886   2.030   9.886  0.6406 -0.5011  1.4165
  908MPD2    H113301   2.031   2.430   9.886  0.0400 -1.7720  2.9915
  908MPD2    H213302   2.049   2.193   9.526 -0.1432  1.5851 -0.6553
  908MPD2    H313303   2.083   2.410   9.654 -2.9794  1.7516  1.2181
  908MPD2     N13304   1.889   2.239  10.021  0.4277  0.5999  0.3262
  908MPD2    H513305   1.862   2.150  10.061 -0.2175  2.0491  3.0690
  908MPD2    N113306   1.947   1.981   9.623  0.0426 -0.3943 -0.0715
  908MPD2    H713307   1.936   1.994   9.523  2.7119  1.4752 -0.1451
  909MPD2     C13308   2.499   4.611  11.897  0.5322  0.2058 -0.5702
  909MPD2    C113309   2.515   0.008  11.820  0.5106 -0.0268  0.6671
  909MPD2    C213310   2.450   0.121  11.861 -0.0786  0.2295  1.1993
  909MPD2    C313311   2.362   0.121  11.966  0.1330 -0.1094  0.0437
  909MPD2    C413312   2.356   0.014  12.045  0.5543 -0.1388 -0.3614
  909MPD2    C513313   2.429   4.625  12.017  0.3436  0.3232 -0.6442
  909MPD2     H13314   2.456   0.212  11.803  0.3813  0.2494  1.2848
  909MPD2    H113315   2.307   0.016  12.142  1.0712 -0.9565 -0.0735
  909MPD2    H213316   2.549   4.515  11.888 -2.2347 -1.1759 -1.1121
  909MPD2    H313317   2.433   4.533  12.075 -2.8563  0.0927 -0.7705
  909MPD2     N13318   2.263   0.231  11.981  0.0309 -0.0880  0.1448
  909MPD2    H513319   2.240   0.281  11.895  1.7230  1.9302  0.8751
  909MPD2    N113320   2.592   0.004  11.701  0.5510 -0.1039  0.2134
  909MPD2    H713321   2.597   0.094  11.654 -1.0010 -0.8849 -1.4395
  910MPD2     C13322   3.932   1.428  16.091 -0.0847  0.2011  0.1607
  910MPD2    C113323   3.970   1.368  15.972  0.3986 -0.1047  0.2613
  910MPD2    C213324   3.967   1.439  15.855 -0.0126  0.0023 -0.6045
  910MPD2    C313325   3.953   1.580  15.853 -0.1561 -0.0256 -0.2217
  910MPD2    C413326   3.923   1.642  15.975  0.0495  0.3948 -0.6167
  910MPD2    C513327   3.906   1.563  16.089  0.2606  0.0591 -0.0139
  910MPD2     H13328   3.955   1.384  15.763  1.0590  0.5097 -1.0460
  910MPD2    H113329   3.890   1.744  15.986  0.8364  0.5128  0.6184
  910MPD2    H213330   3.921   1.373  16.183  0.3652 -0.4427 -0.1753
  910MPD2    H313331   3.852   1.613  16.168  0.6161  1.6251 -0.7626
  910MPD2     N13332   3.953   1.662  15.740  0.5504  0.1398 -0.0799
  910MPD2    H513333   3.948   1.762  15.751 -2.0576 -0.0557  0.5176
  910MPD2    N113334   4.009   1.233  15.963  0.8546  0.2572  0.0259
  910MPD2    H713335   4.015   1.199  15.868 -2.6111  1.3836 -0.5992
  911MPD2     C13336   1.984   2.780  16.745 -0.5365 -0.6569 -0.3752
  911MPD2    C113337   1.976   2.691  16.636 -0.3910  0.1308  0.2363
  911MPD2    C213338   1.885   2.715  16.534  0.6233 -0.2100 -0.4652
  911MPD2    C313339   1.798   2.825  16.531  0.9604  0.0185 -0.6414
  911MPD2    C413340   1.814   2.915  16.633 -0.3527 -0.0089 -0.4312
  911MPD2    C513341   1.906   2.890  16.734 -0.5462 -0.1722  0.0862
  911MPD2     H13342   1.886   2.649  16.448  0.0560 -0.0482 -0.5983
  911MPD2    H113343   1.747   3.001  16.628 -1.6367 -0.8901  1.4722
  911MPD2    H213344   2.047   2.753  16.829  0.2130  0.6542 -0.5266
  911MPD2    H313345   1.918   2.972  16.804 -0.2217 -1.2250  1.2499
  911MPD2     N13346   1.710   2.855  16.424 -0.1281  0.3902 -0.4080
  911MPD2    H513347   1.651   2.937  16.429 -3.0154 -1.8546  1.9065
  911MPD2    N113348   2.063   2.580  16.632 -0.1260 -0.1749  0.4235
  911MPD2    H713349   2.123   2.565  16.712  1.1620 -0.6338 -0.6381
  912MPD2     C13350   1.514   2.548  15.581  0.0339  0.2086  0.3170
  912MPD2    C113351   1.486   2.546  15.719 -0.0002  0.0768  0.2285
  912MPD2    C213352   1.456   2.415  15.769 -0.0650  0.1196  0.0791
  912MPD2    C313353   1.445   2.304  15.685 -0.1106  0.6593 -0.2780
  912MPD2    C413354   1.466   2.313  15.555 -0.2304  0.4943  0.4786
  912MPD2    C513355   1.505   2.431  15.501  0.4353  0.5672 -0.7259
  912MPD2     H13356   1.417   2.404  15.870 -0.3441  0.8489  0.0512
  912MPD2    H113357   1.476   2.230  15.486 -4.4849 -0.4020  1.0020
  912MPD2    H213358   1.532   2.643  15.533  0.9442 -0.9121 -1.5666
  912MPD2    H313359   1.537   2.435  15.398  0.7585  0.0626 -0.6456
  912MPD2     N13360   1.410   2.187  15.753  0.3329  0.0672 -0.4581
  912MPD2    H513361   1.412   2.196  15.854 -2.2820 -2.7747 -0.1813
  912MPD2    N113362   1.509   2.661  15.793  0.6187 -0.9419  0.1920
  912MPD2    H713363   1.576   2.728  15.756 -2.4908  1.6124 -0.7129
  913MPD2     C13364   1.472   3.388  10.936 -0.1897  0.3199 -0.2074
  913MPD2    C113365   1.566   3.437  11.022  0.3340 -0.3130  0.5313
  913MPD2    C213366   1.658   3.526  10.970  0.4328  0.1925 -0.3162
  913MPD2    C313367   1.666   3.557  10.831  0.4455  0.0465  0.6135
  913MPD2    C413368   1.576   3.492  10.750 -0.2051 -0.0090 -1.7772
  913MPD2    C513369   1.471   3.414  10.800 -0.4835  0.0189 -0.3505
  913MPD2     H13370   1.737   3.566  11.032  3.2614 -1.1265 -3.0565
  913MPD2    H113371   1.581   3.519  10.645 -4.4270  1.0341 -1.6990
  913MPD2    H213372   1.404   3.311  10.973 -0.2688  0.1611 -0.6848
  913MPD2    H313373   1.390   3.375  10.738  0.9443 -1.0595 -1.5287
  913MPD2     N13374   1.751   3.651  10.778  0.2494 -0.9566 -0.0544
  913MPD2    H513375   1.761   3.655  10.677 -0.6974  0.4045 -0.0901
  913MPD2    N113376   1.569   3.401  11.156 -0.5059  0.1580  0.3493
  913MPD2    H713377   1.500   3.331  11.182  0.5429 -0.9088  0.2392
  914MPD2     C13378   4.008   4.021  11.919  0.2921 -0.0599  0.2550
  914MPD2    C113379   4.095   4.131  11.929 -0.6370  0.3764  1.0234
  914MPD2    C213380   4.200   4.125  12.017 -0.0622 -0.0016 -0.5143
  914MPD2    C313381   4.218   4.022  12.101  0.1949  0.2264  0.8987
  914MPD2    C413382   4.131   3.916  12.093 -0.8098  0.3224 -0.0596
  914MPD2    C513383   4.038   3.909  11.995 -0.2788  0.1251  0.1127
  914MPD2     H13384   4.266   4.210  12.027  0.3096 -0.4994  1.3038
  914MPD2    H113385   4.122   3.839  12.169  0.5465 -0.6486 -0.8805
  914MPD2    H213386   3.922   4.010  11.854 -0.0497  3.9325  0.0080
  914MPD2    H313387   3.970   3.825  12.004 -2.0693  1.6410  0.7144
  914MPD2     N13388   4.322   4.028  12.201 -0.1328 -0.1617 -0.0036
  914MPD2    H513389   4.381   4.110  12.211 -0.4786  0.3836 -2.3658
  914MPD2    N113390   4.098   4.230  11.828 -0.1427  0.0961  0.2486
  914MPD2    H713391   4.181   4.288  11.838 -0.2483  0.2094  0.4464
  915MPD2     C13392   2.687   3.797  15.666  0.2125  0.6975 -0.1944
  915MPD2    C113393   2.576   3.836  15.597  0.7144 -0.6682 -0.6663
  915MPD2    C213394   2.465   3.886  15.671 -0.2177  0.2547  0.2066
  915MPD2    C313395   2.455   3.883  15.811 -0.0378 -1.0490 -0.0216
  915MPD2    C413396   2.579   3.856  15.876  0.0488 -0.1761  0.3603
  915MPD2    C513397   2.688   3.818  15.802 -0.0669  0.4191 -0.1493
  915MPD2     H13398   2.378   3.925  15.620  0.4708  1.1611 -0.2876
  915MPD2    H113399   2.603   3.872  15.980 -0.2599 -0.1342  0.4259
  915MPD2    H213400   2.780   3.763  15.623  0.6532  0.2171  1.1351
  915MPD2    H313401   2.783   3.802  15.853 -0.3812 -3.1971 -0.7163
  915MPD2     N13402   2.348   3.947  15.877  0.3286  0.1450  0.3830
  915MPD2    H513403   2.275   3.994  15.825 -1.1846  0.0890  2.4448
  915MPD2    N113404   2.580   3.846  15.460 -0.0545 -0.1737 -0.4770
  915MPD2    H713405   2.673   3.841  15.421 -0.3104 -0.4187 -1.0528
  916MPD2     C13406   1.076   2.295  16.026  0.2942  0.3831 -0.5233
  916MPD2    C113407   0.989   2.203  16.079  0.0965 -0.6706  0.4152
  916MPD2    C213408   0.972   2.083  16.000  0.1539 -0.2677 -0.3774
  916MPD2    C313409   1.027   2.071  15.877  0.1616  0.3076 -0.5685
  916MPD2    C413410   1.110   2.164  15.823 -0.1008 -0.3171  0.1002
  916MPD2    C513411   1.131   2.272  15.900 -0.8801  0.0959 -0.7664
  916MPD2     H13412   0.899   2.009  16.031  2.0328 -0.4577  3.5971
  916MPD2    H113413   1.164   2.149  15.730  0.8344  1.9089  0.2956
  916MPD2    H213414   1.092   2.394  16.068  1.2939  0.3768 -0.9029
  916MPD2    H313415   1.179   2.358  15.855 -0.8037  0.7608  0.5884
  916MPD2     N13416   1.015   1.939  15.822  0.0286 -0.0620 -0.5954
  916MPD2    H513417   0.963   1.872  15.877 -0.4319 -0.0877 -1.0647
  916MPD2    N113418   0.927   2.237  16.201 -0.2011  0.2484  0.5474
  916MPD2    H713419   0.952   2.322  16.250  1.2098 -0.0546  0.3561
  917MPD2     C13420   1.030   4.361  11.226 -0.2093 -0.2082  0.1863
  917MPD2    C113421   1.111   4.367  11.331 -0.0738 -0.2876  0.0093
  917MPD2    C213422   1.225   4.448  11.329 -0.2230  0.1533 -0.4658
  917MPD2    C313423   1.257   4.519  11.217  0.3386  0.2016 -0.2345
  917MPD2    C413424   1.186   4.497  11.095  0.1013  0.6148 -0.4164
  917MPD2    C513425   1.067   4.422  11.110 -0.1518 -0.2476  0.0865
  917MPD2     H13426   1.289   4.456  11.416 -0.3148  0.6910 -0.4490
  917MPD2    H113427   1.202   4.542  10.997  1.0623 -2.3468 -1.6191
  917MPD2    H213428   0.940   4.300  11.230 -1.0455  0.9477 -0.7784
  917MPD2    H313429   0.998   4.404  11.029 -1.8408 -1.8448  1.8806
  917MPD2     N13430   1.363   4.616  11.207  0.7873 -0.0568 -0.5452
  917MPD2    H513431   1.370   4.671  11.122 -0.2891 -0.0469 -0.6292
  917MPD2    N113432   1.066   4.314  11.457  0.3815  0.1811 -0.1748
  917MPD2    H713433   0.982   4.257  11.446  0.4794 -0.3079  1.6503
  918MPD2     C13434   0.928   0.014  12.328  0.4256 -1.1421 -0.0828
  918MPD2    C113435   1.049   4.717  12.266  0.2305 -0.1566  0.8902
  918MPD2    C213436   1.050   4.618  12.172 -0.0492  0.5484 -0.5597
  918MPD2    C313437   0.942   4.541  12.130 -0.1166  0.8722 -0.2147
  918MPD2    C413438   0.823   4.562  12.199 -0.0752  0.3306  0.0039
  918MPD2    C513439   0.819   4.661  12.297  0.0555 -0.1178 -0.2997
  918MPD2     H13440   1.142   4.607  12.115 -0.6772  5.3264 -2.5647
  918MPD2    H113441   0.736   4.510  12.160 -0.2753  0.3089  0.4712
  918MPD2    H213442   0.913   0.099  12.393 -1.4366 -0.7568 -1.0288
  918MPD2    H313443   0.730   4.680  12.356 -0.1958  1.0727 -1.0668
  918MPD2     N13444   0.961   4.446  12.032 -0.2157 -0.6733 -0.2315
  918MPD2    H513445   1.058   4.432  12.005 -0.5529 -0.2496 -1.6801
  918MPD2    N113446   1.171   0.061  12.286  0.2951  0.1034 -0.0637
  918MPD2    H713447   1.260   0.033  12.244  0.7908  3.2805 -1.1101
  919MPD2     C13448   1.433   3.471  11.923  0.1726 -0.4223 -0.4280
  919MPD2    C113449   1.349   3.370  11.885  0.0881  0.1293  0.0196
  919MPD2    C213450   1.290   3.387  11.767 -0.1316 -0.0072  0.8237
  919MPD2    C313451   1.320   3.482  11.672  0.2107  0.0428 -0.9665
  919MPD2    C413452   1.403   3.586  11.716 -0.1429  0.0434 -0.4376
  919MPD2    C513453   1.457   3.575  11.839  0.1028 -0.2840  0.5492
  919MPD2     H13454   1.222   3.307  11.742  1.2053 -0.7121 -0.5491
  919MPD2    H113455   1.446   3.667  11.657  0.3178 -0.4400 -0.7708
  919MPD2    H213456   1.497   3.470  12.011  0.1006 -1.6445 -0.3845
  919MPD2    H313457   1.512   3.661  11.876  0.7694 -0.1576 -0.7277
  919MPD2     N13458   1.264   3.488  11.540 -0.1536  0.2313 -0.7428
  919MPD2    H513459   1.288   3.570  11.485  1.2312 -0.7713 -1.6512
  919MPD2    N113460   1.317   3.260  11.968  0.4440 -0.0115  0.4339
  919MPD2    H713461   1.259   3.184  11.935  0.4992 -0.1002  0.5404
  920MPD2     C13462   1.388   3.792  10.614  0.1731  0.5796  0.3881
  920MPD2    C113463   1.286   3.702  10.588  0.6835  0.1588 -0.1993
  920MPD2    C213464   1.233   3.645  10.706  0.7317  0.6466 -0.6089
  920MPD2    C313465   1.265   3.682  10.832  0.0666  0.3331  0.2439
  920MPD2    C413466   1.369   3.774  10.850  1.0627  0.5165  0.4834
  920MPD2    C513467   1.433   3.819  10.738 -0.1219  0.2614 -0.6693
  920MPD2     H13468   1.163   3.564  10.689  1.4924 -0.0891 -0.2120
  920MPD2    H113469   1.402   3.809  10.947 -0.5000  1.2489  0.7535
  920MPD2    H213470   1.440   3.849  10.537 -0.7912  0.5876 -0.2700
  920MPD2    H313471   1.514   3.891  10.736 -0.2522  0.3842 -1.6574
  920MPD2     N13472   1.214   3.617  10.948 -0.4268  0.0003 -0.4685
  920MPD2    H513473   1.154   3.536  10.932  0.3590 -0.4743 -1.0241
  920MPD2    N113474   1.225   3.680  10.461  0.7757  0.5744  0.0328
  920MPD2    H713475   1.151   3.612  10.453 -0.0953  1.6968 -1.4021
  921MPD2     C13476   2.631   2.472  17.191  0.3056 -0.2996 -0.2850
  921MPD2    C113477   2.646   2.342  17.142 -0.7740  0.5969  0.3021
  921MPD2    C213478   2.544   2.294  17.058 -0.5355  0.2953  0.4632
  921MPD2    C313479   2.452   2.383  17.005 -0.1247  0.3344 -0.3908
  921MPD2    C413480   2.445   2.509  17.053 -0.4696  0.1061 -0.0264
  921MPD2    C513481   2.525   2.549  17.151  0.0097 -0.2287  0.3181
  921MPD2     H13482   2.543   2.192  17.022  0.0823 -0.3807  2.3621
  921MPD2    H113483   2.380   2.583  17.008  0.6548  1.1939  0.1493
  921MPD2    H213484   2.700   2.518  17.262  1.2470 -0.6394 -0.9761
  921MPD2    H313485   2.517   2.651  17.188  1.8198 -0.5813  1.6840
  921MPD2     N13486   2.373   2.360  16.886  0.2864 -0.1229  0.4810
  921MPD2    H513487   2.323   2.433  16.837  3.1052  2.1215  0.9341
  921MPD2    N113488   2.761   2.270  17.182  0.1528  0.1178  0.0045
  921MPD2    H713489   2.810   2.319  17.255 -1.5183  1.0698  0.4786
  922MPD2     C13490   3.253   4.464  16.894  0.0746 -0.1461 -0.2336
  922MPD2    C113491   3.201   4.580  16.952  0.6762 -0.3397 -0.8106
  922MPD2    C213492   3.123   4.575  17.072  0.2294  0.3438 -0.7168
  922MPD2    C313493   3.097   4.454  17.128 -0.3606 -0.6197 -0.5882
  922MPD2    C413494   3.145   4.337  17.068 -0.6153 -0.1625  0.3256
  922MPD2    C513495   3.222   4.341  16.952  0.1362 -0.7112  0.6942
  922MPD2     H13496   3.078   4.671  17.096  1.1709  0.7034 -0.3782
  922MPD2    H113497   3.118   4.243  17.114 -0.3059  0.3245  1.4984
  922MPD2    H213498   3.311   4.463  16.803 -2.1423 -1.1686 -1.6301
  922MPD2    H313499   3.259   4.247  16.914 -1.4878 -0.6833 -0.9909
  922MPD2     N13500   3.004   4.451  17.229  0.0520 -0.2095 -0.7987
  922MPD2    H513501   2.955   4.537  17.253  0.4702 -0.4207  0.7746
  922MPD2    N113502   3.230   4.714  16.912 -0.6030 -0.7085  0.2750
  922MPD2    H713503   3.201   0.064  16.976 -1.3248 -2.4341  1.9290
  923MPD2     C13504   0.678   1.572   9.299 -0.0547 -0.4305 -0.4211
  923MPD2    C113505   0.564   1.591   9.366 -0.5679 -0.1218 -0.4235
  923MPD2    C213506   0.564   1.622   9.502 -0.8339 -0.4066  0.3513
  923MPD2    C313507   0.683   1.635   9.572 -0.4866  1.3034 -0.1223
  923MPD2    C413508   0.799   1.626   9.494  0.4618 -0.1752  0.2613
  923MPD2    C513509   0.796   1.596   9.361 -0.0595 -0.5595  0.5269
  923MPD2     H13510   0.468   1.632   9.552 -0.7655  3.6668 -0.3490
  923MPD2    H113511   0.900   1.621   9.533 -0.1051  1.6073  1.9160
  923MPD2    H213512   0.670   1.538   9.196 -0.5023 -0.7527 -0.2815
  923MPD2    H313513   0.888   1.564   9.312 -0.2440  0.5470 -0.5419
  923MPD2     N13514   0.689   1.679   9.714 -0.2527  0.1121  0.1566
  923MPD2    H513515   0.767   1.735   9.746  0.0134  0.6073 -1.3738
  923MPD2    N113516   0.437   1.583   9.292 -0.1144  0.1244 -0.3036
  923MPD2    H713517   0.436   1.556   9.194 -0.0743 -0.3256 -0.1779
  924MPD2     C13518   4.624   0.277  15.519  0.0865 -0.2100 -0.4251
  924MPD2    C113519   4.642   0.225  15.647  0.2738 -0.3528 -0.6194
  924MPD2    C213520   4.677   0.310  15.756  0.3750 -0.2477  0.1630
  924MPD2    C313521   4.718   0.442  15.729  0.5032 -0.6913 -0.3189
  924MPD2    C413522   0.001   0.482  15.606  0.0315 -0.1047  0.3564
  924MPD2    C513523   4.682   0.400  15.501  0.3503  0.0718  0.0354
  924MPD2     H13524   4.683   0.269  15.856 -1.0208 -0.7800  0.0251
  924MPD2    H113525   0.042   0.577  15.576 -0.1628 -0.4089 -0.8547
  924MPD2    H213526   4.587   0.219  15.435 -1.5576  0.7655 -0.3678
  924MPD2    H313527   4.684   0.436  15.399  1.9689  0.8225  0.3196
  924MPD2     N13528   0.031   0.529  15.835 -0.3367 -0.1817  0.1304
  924MPD2    H513529   0.080   0.614  15.809 -0.8132 -0.7794 -2.8019
  924MPD2    N113530   4.594   0.100  15.677 -0.1682 -0.5594  0.0210
  924MPD2    H713531   4.553   0.045  15.602 -0.1407 -1.5932  0.7705
  925MPD2     C13532   3.775   2.740  14.879  0.5327  0.6808  0.0517
  925MPD2    C113533   3.654   2.804  14.851 -0.6538  0.3096  0.3277
  925MPD2    C213534   3.565   2.818  14.960 -0.7527 -0.6092  0.2395
  925MPD2    C313535   3.591   2.768  15.086  0.0988  0.1981 -0.1205
  925MPD2    C413536   3.717   2.714  15.110  0.6923  0.1023  0.7170
  925MPD2    C513537   3.806   2.704  15.003  0.6283  0.4235  0.3980
  925MPD2     H13538   3.481   2.880  14.932 -0.3730  0.5727  1.7385
  925MPD2    H113539   3.760   2.679  15.203  1.0046  0.5314  0.7341
  925MPD2    H213540   3.850   2.712  14.806  1.5279 -0.5057  1.5184
  925MPD2    H313541   3.904   2.659  15.011  0.9360  1.1567  0.7473
  925MPD2     N13542   3.494   2.777  15.194 -0.0808  0.0858 -0.1305
  925MPD2    H513543   3.523   2.726  15.277 -0.9301  0.4162  0.3686
  925MPD2    N113544   3.614   2.862  14.726  1.1312  0.4392  0.2028
  925MPD2    H713545   3.520   2.899  14.718  1.9697  2.4399 -0.2373
  926MPD2     C13546   1.688   1.420  13.341 -0.1801 -0.3740  0.0172
  926MPD2    C113547   1.799   1.497  13.346 -0.3494 -0.4926  0.1013
  926MPD2    C213548   1.862   1.556  13.236  0.4269 -0.0225 -0.2409
  926MPD2    C313549   1.803   1.531  13.116  0.3548 -0.5539 -0.7883
  926MPD2    C413550   1.680   1.474  13.108 -0.7440  0.0750 -0.0452
  926MPD2    C513551   1.624   1.416  13.217 -0.2153  0.0600 -0.4463
  926MPD2     H13552   1.953   1.614  13.245 -0.4749  1.4928 -0.7768
  926MPD2    H113553   1.623   1.459  13.017 -2.2612  2.9357  0.4142
  926MPD2    H213554   1.634   1.377  13.424 -0.3772 -1.0453 -0.4581
  926MPD2    H313555   1.537   1.353  13.207  0.6266 -1.0402 -0.7837
  926MPD2     N13556   1.875   1.582  13.011 -0.0562  0.0741  0.3483
  926MPD2    H513557   1.974   1.595  13.030  0.3057 -0.7977 -0.9356
  926MPD2    N113558   1.872   1.509  13.469  0.3379 -0.1087 -0.5641
  926MPD2    H713559   1.950   1.574  13.472 -1.5223  2.1229 -0.2622
  927MPD2     C13560   1.311   3.787   0.463  0.7191 -0.1197 -1.5267
  927MPD2    C113561   1.412   3.867   0.519  0.1972  0.2691 -0.1111
  927MPD2    C213562   1.542   3.855   0.456  0.3172  0.6089 -0.4214
  927MPD2    C313563   1.567   3.762   0.360 -0.0975 -0.1589  0.3417
  927MPD2    C413564   1.466   3.678   0.316 -0.5560 -0.2597 -0.0667
  927MPD2    C513565   1.340   3.691   0.366  0.1292 -0.7415 -0.1425
  927MPD2     H13566   1.629   3.915   0.483  1.3378 -0.5504 -1.1118
  927MPD2    H113567   1.492   3.605   0.240  0.2988  0.3013 -0.3224
  927MPD2    H213568   1.209   3.789   0.499  0.7719  1.5974 -1.4712
  927MPD2    H313569   1.275   3.609   0.339 -1.0948  0.7574 -1.7453
  927MPD2     N13570   1.700   3.767   0.300  0.1680  0.3305  0.6570
  927MPD2    H513571   1.773   3.833   0.324 -2.8136  3.5745  0.7165
  927MPD2    N113572   1.383   3.953   0.626 -0.3241  0.0931  0.1570
  927MPD2    H713573   1.293   3.956   0.672  0.3251 -0.2113  1.4369
  928MPD2     C13574   3.871   2.666   0.976 -0.3646  0.4987 -0.7222
  928MPD2    C113575   3.971   2.729   1.044  0.1374 -0.0476 -0.8547
  928MPD2    C213576   4.099   2.657   1.040  0.2321  0.4166  0.6727
  928MPD2    C313577   4.113   2.549   0.957  0.5303  0.1796 -1.0936
  928MPD2    C413578   4.006   2.495   0.885 -0.1491  0.3810  0.3657
  928MPD2    C513579   3.890   2.555   0.897 -0.9150 -0.2292 -0.4822
  928MPD2     H13580   4.190   2.702   1.077  1.7149 -1.2847 -0.8975
  928MPD2    H113581   4.020   2.411   0.818  0.7766 -0.9990  2.2645
  928MPD2    H213582   3.767   2.695   0.980 -0.1418  1.0966  0.7467
  928MPD2    H313583   3.818   2.510   0.830  1.0832 -0.3089 -2.5726
  928MPD2     N13584   4.242   2.509   0.918  1.0084 -0.3261  0.3811
  928MPD2    H513585   4.246   2.455   0.832  1.5950  0.4419 -0.0710
  928MPD2    N113586   3.947   2.833   1.132 -0.1733  0.2860 -0.3577
  928MPD2    H713587   3.862   2.888   1.124  0.2264  0.7314 -1.4951
  929MPD2     C13588   4.700   2.271  10.194 -0.2398  0.6015  0.1603
  929MPD2    C113589   4.592   2.205  10.139  0.2306 -0.4380  0.2072
  929MPD2    C213590   4.555   2.242  10.011 -0.2462  0.2131  0.4086
  929MPD2    C313591   4.611   2.355   9.952 -0.7771  0.2822 -0.7486
  929MPD2    C413592   0.002   2.408  10.003 -0.2258  0.5750  1.2622
  929MPD2    C513593   0.047   2.365  10.122 -0.4965  0.1241  0.0877
  929MPD2     H13594   4.471   2.191   9.968  0.8835 -0.5838 -0.8570
  929MPD2    H113595   0.055   2.489   9.953  1.8292 -0.1904  2.1940
  929MPD2    H213596   0.016   2.251  10.293  0.9156 -0.7383 -0.5720
  929MPD2    H313597   0.122   2.425  10.172  1.1510 -2.0901  0.2972
  929MPD2     N13598   4.556   2.413   9.836  0.1142  0.1955 -0.6282
  929MPD2    H513599   4.599   2.497   9.798 -0.7803  1.3713  1.0036
  929MPD2    N113600   4.548   2.090  10.204 -0.2548 -0.1347  0.0895
  929MPD2    H713601   4.607   2.052  10.276  0.2142  0.2984 -0.0639
  930MPD2     C13602   0.936   4.251  13.821  0.4787  0.0001  0.4163
  930MPD2    C113603   1.066   4.231  13.826  0.1501  0.1539 -0.1161
  930MPD2    C213604   1.122   4.120  13.763  0.6259  0.0407 -0.9161
  930MPD2    C313605   1.051   4.024  13.701 -0.1015  0.4090 -0.0948
  930MPD2    C413606   0.913   4.037  13.717  0.4734 -0.6078  0.6626
  930MPD2    C513607   0.860   4.144  13.784 -0.1971  0.3655  0.2575
  930MPD2     H13608   1.230   4.113  13.755  0.4667 -0.7072 -2.2589
  930MPD2    H113609   0.851   3.960  13.673 -1.4674  2.1669 -1.4475
  930MPD2    H213610   0.887   4.336  13.868  1.3491  0.9353 -0.3833
  930MPD2    H313611   0.752   4.151  13.794 -0.1455  0.2751  0.8386
  930MPD2     N13612   1.101   3.908  13.635 -0.9134 -0.4098  0.6909
  930MPD2    H513613   1.035   3.830  13.637 -1.6038  0.0801 -2.5818
  930MPD2    N113614   1.145   4.318  13.903  0.1276  0.7168  0.2495
  930MPD2    H713615   1.104   4.409  13.923 -1.8859 -0.0997 -0.0947
  931MPD2     C13616   1.807   3.943   1.323 -0.7674  0.2078  0.2220
  931MPD2    C113617   1.668   3.953   1.315 -0.2976  0.3901  0.2050
  931MPD2    C213618   1.594   3.893   1.417 -0.8377  0.8114  0.4803
  931MPD2    C313619   1.660   3.836   1.527 -0.1253 -0.2781 -0.0414
  931MPD2    C413620   1.802   3.820   1.529 -0.5060  0.1638 -0.3084
  931MPD2    C513621   1.879   3.878   1.428 -1.2720  0.0271  0.0464
  931MPD2     H13622   1.487   3.883   1.404 -0.7182 -1.2844  1.1014
  931MPD2    H113623   1.846   3.763   1.610 -0.6957 -0.7653 -0.8522
  931MPD2    H213624   1.860   3.969   1.233  1.5364  0.1293  1.5544
  931MPD2    H313625   1.986   3.860   1.427 -1.2468  0.1557  0.4697
  931MPD2     N13626   1.592   3.786   1.637 -0.1925 -0.1196  0.0021
  931MPD2    H513627   1.645   3.732   1.705  0.9653  0.9510 -0.0440
  931MPD2    N113628   1.606   4.018   1.205  0.2461 -0.0085  0.1939
  931MPD2    H713629   1.667   4.072   1.144  0.4223  0.7683  1.0595
  932MPD2     C13630   3.124   2.757  11.319  0.2575 -0.6381  0.2630
  932MPD2    C113631   3.220   2.827  11.391  0.3741  0.0630  0.4952
  932MPD2    C213632   3.298   2.755  11.477  0.2641  0.0159 -0.0604
  932MPD2    C313633   3.291   2.612  11.487 -0.4705  0.8187 -0.1517
  932MPD2    C413634   3.197   2.543  11.413  0.4701 -0.2207 -0.1446
  932MPD2    C513635   3.116   2.620  11.331 -0.1243  0.3700  0.2586
  932MPD2     H13636   3.368   2.805  11.542  1.9936 -1.1192 -1.0470
  932MPD2    H113637   3.184   2.436  11.418  1.1560 -0.2702  0.5851
  932MPD2    H213638   3.056   2.807  11.250  1.4830 -0.6675 -0.9725
  932MPD2    H313639   3.038   2.565  11.280 -0.9299  1.0481  0.7550
  932MPD2     N13640   3.366   2.526  11.571  0.6849  0.1549 -0.8687
  932MPD2    H513641   3.343   2.427  11.568  2.0234 -0.1932  0.3385
  932MPD2    N113642   3.248   2.966  11.381  0.0755 -0.0701 -0.3774
  932MPD2    H713643   3.316   2.998  11.449 -0.9901 -0.5649  0.9156
  933MPD2     C13644   3.512   3.258   1.034 -0.0558 -0.1883  0.5702
  933MPD2    C113645   3.605   3.318   1.119 -0.3836 -0.5800 -0.1940
  933MPD2    C213646   3.653   3.445   1.087  0.2299 -0.3813 -0.6738
  933MPD2    C313647   3.593   3.517   0.983 -0.0097  0.1692  0.3689
  933MPD2    C413648   3.496   3.454   0.904 -0.5822  0.0175 -0.6596
  933MPD2    C513649   3.461   3.325   0.930 -0.3072  0.2551  1.0430
  933MPD2     H13650   3.730   3.492   1.147  0.9596 -2.5435  0.1008
  933MPD2    H113651   3.449   3.509   0.824  0.8064 -2.0302 -2.9030
  933MPD2    H213652   3.476   3.156   1.037 -0.6578  0.0088 -0.0280
  933MPD2    H313653   3.391   3.275   0.863  2.7866  0.8361 -2.6552
  933MPD2     N13654   3.627   3.658   0.970  0.3998 -0.3076  0.1723
  933MPD2    H513655   3.685   3.698   1.043  0.7278 -1.0592  0.3219
  933MPD2    N113656   3.664   3.230   1.218 -0.3810 -0.3602 -0.4089
  933MPD2    H713657   3.619   3.139   1.222  1.0021 -0.9734  1.3907
  934MPD2     C13658   0.206   0.509   2.061 -0.1511 -0.2307 -0.5451
  934MPD2    C113659   0.279   0.396   2.090  0.3110 -0.1496 -0.5918
  934MPD2    C213660   0.306   0.312   1.984  0.3477 -0.0658 -0.1907
  934MPD2    C313661   0.245   0.318   1.858  0.9031  0.2907  0.3594
  934MPD2    C413662   0.182   0.432   1.836 -0.4205  0.5130 -0.3000
  934MPD2    C513663   0.153   0.518   1.932  0.5687  0.4177  0.6187
  934MPD2     H13664   0.371   0.225   1.990  0.2293 -0.0926  0.8038
  934MPD2    H113665   0.152   0.461   1.735 -1.5295 -0.7244 -0.3289
  934MPD2    H213666   0.176   0.590   2.126 -2.4676 -1.6967  0.2346
  934MPD2    H313667   0.095   0.607   1.912 -0.2559 -0.0039  1.1127
  934MPD2     N13668   0.268   0.241   1.746  0.0823 -0.3373  0.0394
  934MPD2    H513669   0.226   0.263   1.656 -0.6409  1.6188  0.8616
  934MPD2    N113670   0.349   0.383   2.215 -0.3371  1.0452  0.2272
  934MPD2    H713671   0.412   0.304   2.225 -1.6620 -0.1123 -0.5766
  935MPD2     C13672   0.741   4.062   1.590  0.7250  0.4250 -0.2100
  935MPD2    C113673   0.665   4.088   1.483  0.0369 -0.6964 -0.0444
  935MPD2    C213674   0.571   4.190   1.478 -1.1667 -0.3807  0.2022
  935MPD2    C313675   0.558   4.277   1.585  0.9441  0.7019  0.6502
  935MPD2    C413676   0.626   4.246   1.694  0.0683  0.1275  0.1527
  935MPD2    C513677   0.715   4.144   1.701 -0.5941 -1.1039  0.4514
  935MPD2     H13678   0.524   4.209   1.382  1.4882  1.0179 -0.8308
  935MPD2    H113679   0.628   4.311   1.781  0.9093 -1.6364  1.4420
  935MPD2    H213680   0.816   3.985   1.601  2.1258  1.8359  0.1702
  935MPD2    H313681   0.775   4.119   1.787  0.7839 -1.5415 -0.6409
  935MPD2     N13682   0.480   4.395   1.586  0.1587 -0.0228 -0.2358
  935MPD2    H513683   0.455   4.437   1.675 -3.2994 -2.7723  0.0985
  935MPD2    N113684   0.669   3.996   1.371  0.4491 -0.2674 -0.3374
  935MPD2    H713685   0.598   4.004   1.298 -0.2920 -1.6873  0.2208
  936MPD2     C13686   4.376   0.989  13.249 -0.1896 -0.1714 -0.1038
  936MPD2    C113687   4.286   1.080  13.187 -0.4619  0.2486 -0.1735
  936MPD2    C213688   4.287   1.099  13.053 -0.0521 -0.7705  0.3563
  936MPD2    C313689   4.379   1.039  12.975 -0.4936  0.3732  0.6859
  936MPD2    C413690   4.468   0.952  13.031 -0.3302 -0.0919 -0.5242
  936MPD2    C513691   4.472   0.926  13.170  0.0360  0.0778  0.1608
  936MPD2     H13692   4.208   1.163  13.014  0.2656 -0.3649  0.3684
  936MPD2    H113693   4.547   0.902  12.975  0.0845 -2.1640  1.9420
  936MPD2    H213694   4.370   0.954  13.351  1.5268 -0.5967 -0.1423
  936MPD2    H313695   4.546   0.853  13.201  0.7730  0.8423  0.2166
  936MPD2     N13696   4.371   1.067  12.836  0.0072  0.1759 -0.2438
  936MPD2    H513697   4.306   1.136  12.802  0.0790  0.5973  0.4842
  936MPD2    N113698   4.192   1.153  13.258 -0.7538 -0.0838 -0.2935
  936MPD2    H713699   4.123   1.192  13.194  0.7141 -0.2297 -1.9698
  937MPD2     C13700   1.541   2.559  11.965 -0.4919  0.3465  0.7648
  937MPD2    C113701   1.578   2.692  11.967 -0.6735  0.1282 -0.5206
  937MPD2    C213702   1.677   2.721  11.872  0.3172 -0.5143 -0.0464
  937MPD2    C313703   1.749   2.620  11.802  0.1851 -0.4802 -0.4310
  937MPD2    C413704   1.709   2.490  11.819 -0.2671 -0.3205  0.3480
  937MPD2    C513705   1.603   2.457  11.901  0.4970 -0.4918 -0.5133
  937MPD2     H13706   1.702   2.822  11.842  0.1360 -1.4174 -3.2438
  937MPD2    H113707   1.768   2.406  11.785 -1.1916 -1.0485  0.5647
  937MPD2    H213708   1.467   2.517  12.032  0.1883  2.0428  2.5924
  937MPD2    H313709   1.562   2.358  11.912 -0.6637 -0.2050 -2.2723
  937MPD2     N13710   1.853   2.662  11.718  0.0222 -0.0202  0.3110
  937MPD2    H513711   1.891   2.755  11.731 -1.1515 -0.0773  3.9534
  937MPD2    N113712   1.482   2.785  12.008 -0.1627  0.1324  0.6177
  937MPD2    H713713   1.502   2.882  11.988 -1.0169  0.1151 -0.3217
  938MPD2     C13714   0.536   4.413   0.871  0.3321  0.0219  0.2832
  938MPD2    C113715   0.505   4.433   1.000 -0.9951  0.0306  0.0657
  938MPD2    C213716   0.373   4.450   1.030 -0.1502  0.1336 -0.5959
  938MPD2    C313717   0.272   4.448   0.939  0.0797 -0.0311  0.2151
  938MPD2    C413718   0.301   4.429   0.806  0.3891  0.5253  0.2585
  938MPD2    C513719   0.437   4.416   0.775  1.3321 -0.1629 -0.2889
  938MPD2     H13720   0.351   4.463   1.135  0.3247  0.9069 -0.5852
  938MPD2    H113721   0.225   4.410   0.731  0.2658 -0.3600  0.6177
  938MPD2    H213722   0.638   4.410   0.834 -0.1149  0.2691 -0.9786
  938MPD2    H313723   0.465   4.416   0.671  0.4694 -1.3344 -0.5176
  938MPD2     N13724   0.136   4.437   0.978 -0.0613  0.5740 -0.3231
  938MPD2    H513725   0.067   4.445   0.904 -1.8505 -0.1165  1.2490
  938MPD2    N113726   0.596   4.414   1.107 -0.4677 -0.2840 -0.1474
  938MPD2    H713727   0.569   4.443   1.200 -1.2041  1.0564 -0.7772
  939MPD2     C13728   1.169   1.250   1.316 -0.6124  0.6237  0.3222
  939MPD2    C113729   1.143   1.286   1.185 -0.3162  1.3613 -0.0120
  939MPD2    C213730   1.145   1.183   1.091  0.5169 -0.4431  0.7209
  939MPD2    C313731   1.157   1.052   1.120 -0.3549 -0.4810 -0.6061
  939MPD2    C413732   1.186   1.014   1.246 -0.5789  0.0250 -0.1957
  939MPD2    C513733   1.184   1.111   1.346 -0.8933 -0.0281  0.4041
  939MPD2     H13734   1.129   1.209   0.987 -0.1795  2.1905  1.4596
  939MPD2    H113735   1.224   0.915   1.270 -1.3288  0.6866  3.6809
  939MPD2    H213736   1.172   1.327   1.392 -3.1109  0.3936  0.6486
  939MPD2    H313737   1.192   1.081   1.450  0.5417 -1.4016 -0.1073
  939MPD2     N13738   1.157   0.962   1.015  0.1422  0.2455 -0.6874
  939MPD2    H513739   1.138   0.998   0.922  1.0227 -1.3629 -1.4881
  939MPD2    N113740   1.115   1.420   1.155 -0.3276 -0.0826  0.6518
  939MPD2    H713741   1.128   1.486   1.232  1.8458 -0.4448  0.5872
  940MPD2     C13742   0.467   1.334  12.874  0.4839 -0.5807  0.3069
  940MPD2    C113743   0.352   1.291  12.822 -0.3226  0.2047 -0.3004
  940MPD2    C213744   0.353   1.232  12.700  0.0647 -0.3320 -0.7509
  940MPD2    C313745   0.471   1.213  12.629  0.2382 -0.1215 -0.5169
  940MPD2    C413746   0.589   1.252  12.677 -0.0557  0.5484 -0.8041
  940MPD2    C513747   0.588   1.310  12.804 -0.0575 -0.5517 -0.4070
  940MPD2     H13748   0.258   1.203  12.656 -0.2971  3.8684 -2.6936
  940MPD2    H113749   0.685   1.247  12.627  0.1083 -1.1919 -0.3119
  940MPD2    H213750   0.473   1.387  12.969  4.0791 -1.3343  0.5142
  940MPD2    H313751   0.685   1.348  12.835 -1.8346  1.4451  2.7797
  940MPD2     N13752   0.465   1.160  12.492  0.1287 -0.0967 -0.0887
  940MPD2    H513753   0.542   1.182  12.430 -0.9977 -0.5024 -1.6515
  940MPD2    N113754   0.234   1.314  12.898 -0.1692 -0.0888  0.6950
  940MPD2    H713755   0.255   1.340  12.993  2.1309  0.8426 -0.0715
  941MPD2     C13756   4.391   0.075   9.748  0.8508  0.2593 -0.3854
  941MPD2    C113757   4.407   0.021   9.623  0.0896 -0.4870  0.7595
  941MPD2    C213758   4.342   4.630   9.589  0.0356 -0.4186 -0.9260
  941MPD2    C313759   4.269   4.558   9.677 -1.0028  0.3510 -0.3643
  941MPD2    C413760   4.247   4.613   9.805 -0.1236 -0.4629 -0.5747
  941MPD2    C513761   4.309   0.004   9.837 -0.0700  0.7967  0.1687
  941MPD2     H13762   4.362   4.595   9.488  1.2115  1.0511 -1.1914
  941MPD2    H113763   4.201   4.555   9.884  0.0658 -0.9597 -0.8298
  941MPD2    H213764   4.428   0.172   9.779 -0.8831  1.4871 -2.1152
  941MPD2    H313765   4.305   0.045   9.937 -1.1104  0.6863  0.1745
  941MPD2     N13766   4.216   4.427   9.651 -0.1079 -0.1883 -0.1934
  941MPD2    H513767   4.168   4.379   9.726 -0.1260  1.8631  1.0986
  941MPD2    N113768   4.479   0.090   9.524  1.1232  0.8976 -0.8059
  941MPD2    H713769   4.469   0.066   9.426  0.6425  2.6421 -1.1850
  942MPD2     C13770   3.393   2.205   9.832 -0.6562 -0.4852 -0.6007
  942MPD2    C113771   3.382   2.221   9.694  0.4470 -0.9215 -0.3050
  942MPD2    C213772   3.498   2.178   9.624  0.2965 -0.2623  0.1055
  942MPD2    C313773   3.606   2.126   9.687  0.0205  0.2975 -0.1856
  942MPD2    C413774   3.605   2.106   9.826 -0.1126  0.2026 -0.2047
  942MPD2    C513775   3.496   2.150   9.898  0.2304 -0.1595 -0.1670
  942MPD2     H13776   3.493   2.182   9.515  1.4240  0.1337  0.0653
  942MPD2    H113777   3.683   2.063   9.888 -1.3835 -0.1292  1.1624
  942MPD2    H213778   3.313   2.238   9.897 -1.1233 -2.0043 -0.4207
  942MPD2    H313779   3.494   2.136  10.005  2.1121 -0.4186 -0.1730
  942MPD2     N13780   3.724   2.079   9.619  0.2136  0.9715 -0.4071
  942MPD2    H513781   3.790   2.011   9.657 -1.3633 -0.3095  0.0094
  942MPD2    N113782   3.272   2.273   9.616 -0.4148 -0.1596 -0.1317
  942MPD2    H713783   3.279   2.266   9.515  1.2589  0.7901 -0.0866
  943MPD2     C13784   3.299   4.290  10.205  0.7043 -0.6309  0.4178
  943MPD2    C113785   3.179   4.246  10.247  0.4083 -0.6645 -0.4883
  943MPD2    C213786   3.078   4.230  10.148  0.1803 -0.8420  0.0794
  943MPD2    C313787   3.092   4.262  10.013 -0.1873  0.0732 -0.3896
  943MPD2    C413788   3.215   4.312   9.978  0.6895 -0.1528  0.3204
  943MPD2    C513789   3.314   4.322  10.071  0.0358 -0.6721 -0.1320
  943MPD2     H13790   2.979   4.198  10.178 -0.9948  2.0214 -0.7134
  943MPD2    H113791   3.221   4.345   9.875 -0.3520 -0.1733  0.2579
  943MPD2    H213792   3.375   4.309  10.280  1.3619 -0.9774 -0.1670
  943MPD2    H313793   3.411   4.363  10.044 -0.2873  0.0231 -0.2257
  943MPD2     N13794   2.981   4.276   9.923 -0.1932  0.3382 -0.0083
  943MPD2    H513795   2.995   4.329   9.838 -1.5876  1.9614  0.7789
  943MPD2    N113796   3.160   4.217  10.378 -0.1008 -0.0671 -0.7430
  943MPD2    H713797   3.223   4.252  10.448  1.6698  0.4283 -2.5939
  944MPD2     C13798   2.494   3.899  11.643 -0.4533 -0.0535  0.0951
  944MPD2    C113799   2.559   3.984  11.557  0.0796 -0.0633 -0.1241
  944MPD2    C213800   2.521   4.121  11.540 -0.6486 -0.3330  0.9560
  944MPD2    C313801   2.426   4.168  11.626 -0.2761 -0.3013  0.2785
  944MPD2    C413802   2.359   4.082  11.711  0.8648  0.0779 -0.0094
  944MPD2    C513803   2.390   3.952  11.713 -0.2062  0.2555  0.2741
  944MPD2     H13804   2.576   4.183  11.470  1.5532 -1.9571  1.2253
  944MPD2    H113805   2.270   4.106  11.768  0.1743  0.2084 -1.1287
  944MPD2    H213806   2.508   3.791  11.636  0.3831 -0.1040  2.4819
  944MPD2    H313807   2.324   3.885  11.766 -0.1117 -0.6920 -0.8054
  944MPD2     N13808   2.389   4.310  11.625 -0.0723  0.5711 -0.0051
  944MPD2    H513809   2.427   4.357  11.544  1.4610  1.3786  1.1843
  944MPD2    N113810   2.637   3.914  11.470 -0.3500  0.1854  0.4650
  944MPD2    H713811   2.635   3.812  11.471  1.9887  0.1210  0.1944
    1TCq1    O113812   0.352   0.150  13.851 -0.0421  0.1921  0.6129
    1TCq1    C113813   0.306   0.254  13.914  0.1345  0.4401 -0.5976
    1TCq1    O213814   0.323   0.369  13.874 -0.0677 -0.0556 -0.7890
    1TCq1    C213815   0.336   0.216  14.051 -0.4969 -0.1241 -0.6906
    1TCq1    C313816   0.299   0.089  14.077  0.3532 -0.3410  0.0858
    1TCq1    C413817   0.379   0.021  14.169  0.3761  0.4285 -0.3712
    1TCq1    C513818   0.481   0.079  14.235  0.1997 -0.6171  0.2724
    1TCq1    C613819   0.511   0.208  14.201  0.9043 -0.4877  0.1909
    1TCq1    C713820   0.439   0.282  14.115  0.3825  0.5962 -0.0240
    1TCq1    C813821   0.622   0.275  14.268  0.1549  0.8789  0.6341
    1TCq1    O413822   0.718   0.213  14.299  0.0753  0.0431  0.3110
    1TCq1    C913823   0.357   4.603  14.188  0.0272 -0.2955 -0.0211
    1TCq1    O513824   0.262   4.555  14.111 -0.0222  0.1265 -0.0086
    1TCq1    O613825   0.434   4.543  14.268  0.0836 -0.6038 -0.2793
    1TCq1    H113826   0.343   0.075  13.913 -1.2316  1.7587  2.3659
    1TCq1    H213827   0.207   0.049  14.035  0.4238  0.0967 -0.4859
    1TCq1    H313828   0.539   0.030  14.312  0.1651 -1.9194 -0.5268
    1TCq1    H413829   0.483   0.370  14.070 -0.0640  1.4591  1.2164
    2MPD2     C13830   0.806   0.710  14.483 -0.1647 -0.0355  0.2232
    2MPD2    C113831   0.675   0.725  14.442 -1.2288 -0.9360 -0.6998
    2MPD2    C213832   0.609   0.619  14.388 -0.7798 -0.6901  0.1181
    2MPD2    C313833   0.674   0.500  14.351  1.0207 -0.1215  0.3672
    2MPD2    C413834   0.806   0.488  14.380  0.2066  0.3989  0.1691
    2MPD2    C513835   0.872   0.590  14.446 -0.1049  0.2844  0.2116
    2MPD2     H13836   0.505   0.642  14.370 -0.7682  0.3514  1.3558
    2MPD2    H113837   0.859   0.395  14.362 -0.4903  0.3993 -1.8818
    2MPD2    H213838   0.861   0.783  14.541  0.3268 -0.9787  0.9388
    2MPD2    H313839   0.972   0.568  14.483  0.5630  3.4219  0.2515
    2MPD2     N13840   0.590   0.402  14.298  0.1337  0.6839  0.1466
    2MPD2    H513841   0.493   0.425  14.282  0.1841 -0.1144 -1.3535
    2MPD2    N113842   0.613   0.852  14.470  0.1730 -0.4383  0.0158
    2MPD2    H713843   0.670   0.929  14.502 -1.4621 -0.1149  2.1694
    3TMC2    C113844   0.461   1.027  14.473  1.0440  0.3443 -0.0267
    3TMC2    C213845   0.544   1.099  14.548  1.0577 -0.0968  0.0612
    3TMC2    C313846   0.532   1.236  14.526  0.5700 -0.0281  0.0836
    3TMC2    C413847   0.366   1.083  14.393  0.0616 -0.4706  0.3627
    3TMC2    C513848   0.365   1.216  14.366  0.4153 -1.2102  0.1520
    3TMC2    C613849   0.447   1.291  14.439  0.2348 -0.2566 -0.4408
    3TMC2     C13850   0.482   0.888  14.464  0.4898  0.1935 -0.1279
    3TMC2     O13851   0.388   0.822  14.427  0.1426  0.3194  0.4907
    3TMC2     H13852   0.621   1.061  14.614  0.3084  1.4333  1.8089
    3TMC2    H113853   0.295   1.019  14.343 -1.5297  0.8803  0.9069
    3TMC2    H213854   0.444   1.400  14.434  2.8912 -0.0658  1.7031
    3TMC2    C713855   0.276   1.274  14.263  0.0057  0.0117  0.1331
    3TMC2    C813856   0.593   1.331  14.618  0.0197  0.2140 -0.1034
    3TMC2    O113857   0.183   1.208  14.221  0.3719  0.1637  0.4071
    3TMC2    O213858   0.517   1.413  14.665 -0.5747 -0.7474 -0.1478
    3TMC2    O513859   0.690   1.267  14.682  0.3998 -0.2657 -0.2647
    3TMC2    H513860   0.734   1.202  14.624 -0.5578  0.2814 -1.6169
    4MPD2     C13861   4.655   2.292  13.373 -0.4535 -0.0194  0.0936
    4MPD2    C113862   4.619   2.214  13.482 -0.4892  0.2283 -0.2310
    4MPD2    C213863   4.716   2.173  13.569 -0.6390 -0.2024  0.1552
    4MPD2    C313864   0.126   2.218  13.565 -0.3722 -0.0088 -1.0566
    4MPD2    C413865   0.148   2.313  13.462 -0.8993 -0.3190  0.1663
    4MPD2    C513866   0.048   2.352  13.380 -0.3044 -0.1131  0.7934
    4MPD2     H13867   4.686   2.107  13.650 -1.2625  1.1207  1.0109
    4MPD2    H113868   0.244   2.357  13.439 -1.3359  0.2657 -0.5118
    4MPD2    H213869   4.592   2.309  13.287 -0.6073 -1.1932 -0.0244
    4MPD2    H313870   0.071   2.414  13.294 -1.1192  0.7603  1.2018
    4MPD2     N13871   0.225   2.167  13.657 -0.4136  0.3107  0.2706
    4MPD2    H513872   0.203   2.094  13.724 -0.7826  0.0982 -0.0814
    4MPD2    N113873   4.491   2.155  13.475 -0.1889  0.1479  0.3103
    4MPD2    H713874   4.450   2.176  13.385  1.3314  0.3026 -0.3483
    5TCq2    C113875   0.348   2.225  13.669 -0.3872 -0.9743 -0.4509
    5TCq2    O213876   0.402   2.316  13.605  0.3039  0.1156  0.6026
    5TCq2    C213877   0.427   2.166  13.780 -0.2051  0.1247  0.9549
    5TCq2    C313878   0.551   2.215  13.800  0.5960  0.2061 -0.4216
    5TCq2    C413879   0.639   2.159  13.892 -0.2060 -0.6651 -0.7260
    5TCq2    C513880   0.608   2.043  13.952 -0.8077  0.3540  0.1052
    5TCq2    C613881   0.487   1.986  13.916  0.5987 -0.1564 -0.4979
    5TCq2    C713882   0.385   2.048  13.843 -0.2556  0.0772 -0.5255
    5TCq2    C813883   0.461   1.863  13.989  0.5265  0.2266 -0.0992
    5TCq2    O413884   0.522   1.830  14.089  0.3155 -0.2087 -0.6396
    5TCq2    C913885   0.777   2.213  13.903  0.2918 -0.5891  0.8579
    5TCq2    O513886   0.868   2.141  13.949  0.4373 -0.7491  0.0507
    5TCq2    O613887   0.794   2.325  13.846 -0.1680 -0.4990 -0.1095
    5TCq2    H213888   0.586   2.300  13.742  1.2456 -0.6016 -1.2092
    5TCq2    H313889   0.674   1.984  14.015  1.5492  1.4608 -1.3166
    5TCq2    H413890   0.282   2.015  13.829 -0.4564  0.7741 -0.6928
    6MPD1     C13891   3.686   2.843  12.021  0.8314  0.0486  0.2570
    6MPD1    C113892   3.606   2.846  12.132 -0.4717 -0.5012 -0.5403
    6MPD1    C213893   3.660   2.794  12.251 -0.9120 -0.2217  0.1627
    6MPD1    C313894   3.786   2.736  12.262  0.9873 -0.3869  0.1675
    6MPD1    C413895   3.858   2.735  12.149 -0.0188  0.6105 -0.0431
    6MPD1    C513896   3.813   2.790  12.034 -0.7084  0.0026  0.2532
    6MPD1     H13897   3.603   2.805  12.343 -1.6524 -1.4208 -0.1533
    6MPD1    H113898   3.950   2.678  12.141 -1.7698 -2.1607 -0.4294
    6MPD1    H213899   3.656   2.878  11.923  0.3223  2.5541  1.3197
    6MPD1    H313900   3.874   2.772  11.946 -0.9847 -3.6506  0.8063
    6MPD1     N13901   3.853   2.677  12.376 -0.6281 -0.4430  0.7219
    6MPD1    H513902   3.941   2.628  12.366 -1.0161 -1.0451  0.2808
    6MPD1    N113903   3.506   2.942  12.132  0.2097  0.3887  0.2705
    6MPD1    H613904   3.454   2.944  12.044 -1.1021 -0.9515  1.0114
    6MPD1    H713905   3.442   2.929  12.210  1.1862  0.1038  1.0159
    7MPD2     C13906   3.853   2.596  13.250  0.0935 -0.6689  0.1757
    7MPD2    C113907   3.858   2.479  13.176  0.3731 -0.3450 -0.0473
    7MPD2    C213908   3.887   2.355  13.242 -0.3118 -0.1628  0.3172
    7MPD2    C313909   3.904   2.350  13.372 -0.5062 -0.0810  0.0960
    7MPD2    C413910   3.900   2.459  13.446  0.9366 -1.1486 -0.1325
    7MPD2    C513911   3.864   2.575  13.384 -1.1308  0.1504  1.2515
    7MPD2     H13912   3.895   2.262  13.187 -0.3080 -1.1849  2.0668
    7MPD2    H113913   3.902   2.466  13.554 -0.4351  1.0341 -0.2521
    7MPD2    H213914   3.847   2.695  13.206  1.4300 -0.7871 -0.2916
    7MPD2    H313915   3.859   2.657  13.455 -1.5893  2.0144 -0.9476
    7MPD2     N13916   3.946   2.219  13.427 -0.3507  0.0596 -0.3371
    7MPD2    H513917   3.964   2.148  13.356 -1.2652  1.3544 -1.8791
    7MPD2    N113918   3.864   2.483  13.035 -0.4824 -0.0021 -0.1044
    7MPD2    H713919   3.872   2.396  12.983  0.3428 -0.6776  1.1300
    8TMC3    C113920   4.060   2.065  13.549  0.5575  0.0661  0.4898
    8TMC3    C213921   4.190   2.080  13.601 -0.2496 -0.3169  0.5849
    8TMC3    C313922   4.297   2.051  13.526 -0.5564  0.2276 -0.0273
    8TMC3    C413923   4.043   1.986  13.438 -0.1863  0.1933 -0.5788
    8TMC3    C513924   4.152   1.964  13.355 -1.1715 -0.2207 -0.2388
    8TMC3    C613925   4.278   1.996  13.397  0.4974  0.4739  0.0563
    8TMC3     C13926   3.992   2.189  13.548 -0.2776  0.3049 -0.1365
    8TMC3     O13927   3.995   2.252  13.650  0.0710 -0.2616  0.1103
    8TMC3     H13928   4.203   2.150  13.683 -0.1711  0.1547  0.1742
    8TMC3    H113929   3.942   1.969  13.402 -0.5543 -3.7580  2.3878
    8TMC3    H213930   4.361   1.967  13.333 -0.7807 -1.7915 -0.5679
    8TMC3    C713931   4.120   1.986  13.217  0.2136  0.2930  0.5721
    8TMC3    C813932   4.427   2.078  13.569  1.1597  0.0729  0.2786
    8TMC3    O113933   4.024   2.058  13.201 -0.4681  0.3218  0.0835
    8TMC3    O213934   4.447   2.069  13.687 -0.1171 -0.1526 -0.1695
    9TMC3    C113935   3.895   2.615  12.603  0.0641  0.0925  0.0684
    9TMC3    C213936   3.964   2.496  12.573  0.3461 -0.1379 -0.0103
    9TMC3    C313937   4.013   2.429  12.680 -0.0851  0.0366  0.1332
    9TMC3    C413938   3.862   2.649  12.736  0.1333  0.0904 -0.1351
    9TMC3    C513939   3.908   2.564  12.830 -0.3271 -0.1312  0.9594
    9TMC3    C613940   3.996   2.462  12.804 -1.0203 -0.4151 -0.4660
    9TMC3     C13941   3.802   2.673  12.505 -0.0717  0.6046  0.5264
    9TMC3     O13942   3.703   2.727  12.559 -0.1121  0.0553  1.0007
    9TMC3     H13943   3.964   2.460  12.471  1.8296 -1.3522  0.4266
    9TMC3    H113944   3.807   2.735  12.770 -0.3182 -0.6853  1.0900
    9TMC3    H213945   4.055   2.406  12.876  1.8996  0.7660 -1.9633
    9TMC3    C713946   3.862   2.598  12.960  0.4595 -0.3051 -0.6427
    9TMC3    C813947   4.061   2.294  12.651 -0.0247  0.0339  0.2403
    9TMC3    O113948   3.815   2.707  12.991 -0.0387 -0.1367  0.2619
    9TMC3    O213949   4.107   2.270  12.537  0.4124  0.2348 -0.2304
   10MPD2     C13950   4.252   1.888  12.885 -0.4827 -0.2532 -0.4248
   10MPD2    C113951   4.184   1.964  12.985  0.5646 -0.2182 -0.5957
   10MPD2    C213952   4.100   2.059  12.928  0.1846 -0.1528  0.3881
   10MPD2    C313953   4.102   2.095  12.794 -0.0125  0.2864  0.3326
   10MPD2    C413954   4.184   2.028  12.704  0.1382  0.2178 -0.3184
   10MPD2    C513955   4.257   1.918  12.750 -0.4059 -0.1448 -0.2498
   10MPD2     H13956   4.049   2.128  12.995 -2.0846 -0.7433 -0.7821
   10MPD2    H113957   4.197   2.067  12.603 -0.9698  0.8796 -0.1966
   10MPD2    H213958   4.306   1.797  12.910 -0.7853 -1.0211 -2.5530
   10MPD2    H313959   4.314   1.855  12.683  0.2898  1.1046 -0.8112
   10MPD2     N13960   4.035   2.213  12.758 -0.5343 -0.0907  0.8637
   10MPD2    H513961   3.976   2.255  12.830  0.0741 -1.5836  2.2198
   10MPD2    N113962   4.199   1.932  13.120  0.0205 -0.4294  0.8314
   10MPD2    H713963   4.270   1.866  13.148  0.1140 -0.6685  0.0028
   11MPD2     C13964   0.197   1.416  14.013  0.5948  0.7436  0.5436
   11MPD2    C113965   0.287   1.467  14.102 -0.4694  0.1502  0.4920
   11MPD2    C213966   0.330   1.600  14.080 -0.6113 -0.2890 -0.7085
   11MPD2    C313967   0.297   1.676  13.972  0.6106  0.1175 -0.0566
   11MPD2    C413968   0.224   1.606  13.874  0.0102  0.2385 -0.4346
   11MPD2    C513969   0.176   1.482  13.898 -0.5142  0.0588  0.6498
   11MPD2     H13970   0.389   1.643  14.160 -2.8946  0.6078  0.4817
   11MPD2    H113971   0.212   1.646  13.774  0.2182  1.7160  0.1365
   11MPD2    H213972   0.160   1.316  14.033 -1.0523  0.5891 -3.1607
   11MPD2    H313973   0.123   1.432  13.818  0.0593  3.0345 -1.5927
   11MPD2     N13974   0.352   1.804  13.931 -0.0540 -0.0109 -0.7053
   11MPD2    H513975   0.325   1.835  13.838 -0.2000 -0.5034 -0.8302
   11MPD2    N113976   0.323   1.397  14.218 -0.2645  0.1583  0.3381
   11MPD2    H713977   0.400   1.438  14.270 -0.1305 -0.2980  0.4982
    1MPD1     C13978   3.044   2.696  17.120 -0.5754 -0.4085  0.2273
    1MPD1    C113979   3.103   2.682  17.240  0.8521 -0.1086 -0.3339
    1MPD1    C213980   3.225   2.629  17.231 -0.6521 -0.6985 -0.5950
    1MPD1    C313981   3.310   2.622  17.118  0.0230  0.3123  0.1340
    1MPD1    C413982   3.259   2.667  17.002 -0.1324  0.0093 -0.4139
    1MPD1    C513983   3.127   2.699  17.004  0.0854 -0.2064  0.1003
    1MPD1     H13984   3.266   2.578  17.317  0.9050 -0.6524 -1.3056
    1MPD1    H113985   3.319   2.671  16.912  1.5261  2.1513  0.7833
    1MPD1    H213986   2.940   2.725  17.108 -1.1678 -1.4009  2.9753
    1MPD1    H313987   3.080   2.725  16.910 -0.8992 -0.0335  0.6484
    1MPD1     N13988   3.436   2.560  17.127 -0.3975 -0.3749 -0.1582
    1MPD1    H513989   3.491   2.559  17.042 -0.1341 -1.6312  0.0228
    1MPD1    N113990   3.026   2.680  17.363  0.6233 -0.3876 -0.2112
    1MPD1    H613991   3.089   2.680  17.443 -1.5072  0.9938  1.4630
    1MPD1    H713992   2.957   2.754  17.368 -1.5363 -2.5192  1.6883
    2MPD1     C13993   4.126   1.909  17.661 -0.1958  0.1920 -0.1282
    2MPD1    C113994   4.084   1.853  17.541 -0.4148  0.1488 -0.6554
    2MPD1    C213995   3.981   1.920  17.473  1.3082 -0.3343 -0.1509
    2MPD1    C313996   3.939   2.051  17.518  0.3067 -0.5042  0.2326
    2MPD1    C413997   4.001   2.114  17.621  0.1753 -0.3451 -0.2718
    2MPD1    C513998   4.091   2.042  17.689  0.4576  0.2930 -0.4224
    2MPD1     H13999   3.927   1.865  17.396  0.3193  0.2352  0.1336
    2MPD1    H114000   3.982   2.216  17.655  1.8033 -0.4999  1.0951
    2MPD1    H214001   4.190   1.860   0.037  0.8438  1.5617 -0.1349
    2MPD1    H314002   4.117   2.071   0.093  0.3190 -1.6310  0.1580
    2MPD1     N14003   3.845   2.115  17.436 -0.9201 -0.2533  0.2692
    2MPD1    H514004   3.791   2.055  17.374 -0.5981 -1.9370  1.6185
    2MPD1    N114005   4.118   1.725  17.499 -0.0621 -0.0182 -0.3960
    2MPD1    H614006   4.077   1.705  17.409 -0.3883 -2.9405  0.4029
    2MPD1    H714007   4.218   1.706  17.502  0.1818  1.5646  1.9475
    3TMC3    C114008   3.750   2.276  17.313 -0.1819 -0.3901 -0.1593
    3TMC3    C214009   3.768   2.201  17.201 -0.2121  0.5988  0.0194
    3TMC3    C314010   3.695   2.241  17.092 -0.4768  0.6285 -0.3483
    3TMC3    C414011   3.671   2.387  17.320 -0.5728  0.2944  0.0206
    3TMC3    C514012   3.603   2.413  17.211  1.0029  0.2323 -0.2483
    3TMC3    C614013   3.613   2.347  17.090 -0.8714  0.1288  0.1401
    3TMC3     C14014   3.837   2.246  17.426 -0.5642  0.3840  0.2054
    3TMC3     O14015   3.871   2.338  17.504  0.1648 -0.3707 -0.0403
    3TMC3     H14016   3.833   2.114  17.203 -1.5817 -0.4551 -1.7944
    3TMC3    H114017   3.660   2.437  17.415 -0.1079 -1.2896  0.9126
    3TMC3    H214018   3.541   2.358  17.010  1.2133 -0.0913 -1.7801
    3TMC3    C714019   3.494   2.508  17.237  0.1829 -0.0249  0.4243
    3TMC3    C814020   3.656   2.128  17.019 -0.6651  0.2218 -0.5711
    3TMC3    O114021   3.483   2.549  17.351  0.5857 -0.2063 -0.4051
    3TMC3    O214022   3.735   2.033  17.009 -0.1794 -0.2634  0.2575
    4MPD1     C14023   3.290   1.772  16.990 -0.4256  0.2446 -0.9615
    4MPD1    C114024   3.234   1.890  17.035  0.2626 -0.3798 -0.2716
    4MPD1    C214025   3.313   2.004  17.033  0.0990 -0.8344 -0.0175
    4MPD1    C314026   3.443   2.001  16.995  0.2973 -0.7719  0.3352
    4MPD1    C414027   3.494   1.885  16.938  0.0114  0.0881 -0.2329
    4MPD1    C514028   3.418   1.770  16.930  0.6546  0.5511  0.1761
    4MPD1     H14029   3.281   2.101  17.071  0.7839 -1.1816  1.4600
    4MPD1    H114030   3.593   1.882  16.892  2.2916  4.2812  4.5175
    4MPD1    H214031   3.228   1.683  16.990  0.9081 -0.6885  2.6675
    4MPD1    H314032   3.453   1.686  16.871 -1.7973 -1.7782  2.0036
    4MPD1     N14033   3.517   2.121  17.001  0.0062 -0.4645  0.3061
    4MPD1    H514034   3.453   2.198  17.020 -1.3356 -2.1273  2.5754
    4MPD1    N114035   3.109   1.892  17.105 -0.7318 -0.2253 -0.0122
    4MPD1    H614036   3.053   1.814  17.072  0.1856 -1.1345  0.5906
    4MPD1    H714037   3.059   1.981  17.100  0.0146  0.3985  3.7462
    1TCq1    O114038   4.448   1.664  12.618  0.3727 -0.0502  0.4983
    1TCq1    C114039   4.569   1.715  12.639  0.6519  0.6837 -0.0637
    1TCq1    O214040   4.626   1.694  12.745  0.0207  0.4366  0.0033
    1TCq1    C214041   4.554   1.850  12.581  0.0674  0.3349  0.1381
    1TCq1    C314042   4.508   1.857  12.451 -0.4530  0.0790 -0.3280
    1TCq1    C414043   4.533   1.974  12.383 -0.0675  0.1132 -0.3719
    1TCq1    C514044   4.611   2.067  12.441  0.3623  0.1802 -0.9982
    1TCq1    C614045   4.651   2.057  12.571 -0.7118  0.1612 -0.2446
    1TCq1    C714046   4.609   1.951  12.651 -0.2966 -0.1789  0.9538
    1TCq1    C814047   0.005   2.158  12.638 -0.8061  0.0278  0.1757
    1TCq1    O414048   0.035   2.137  12.755  0.5449  0.0086  0.2521
    1TCq1    C914049   4.533   1.964  12.240 -0.0945 -0.2761 -0.7544
    1TCq1    O514050   4.483   1.862  12.185 -0.3923  0.5984 -0.2588
    1TCq1    O614051   4.570   2.066  12.174 -1.1921 -0.4439  0.1115
    1TCq1    H114052   4.415   1.695  12.531 -0.1183 -0.0537  0.6786
    1TCq1    H214053   4.503   1.765  12.396  0.2012 -0.1196 -0.0525
    1TCq1    H314054   4.649   2.151  12.383  0.6921  0.2374 -0.6992
    1TCq1    H414055   4.656   1.932  12.748 -0.8288 -1.7131  0.9136
    2MPD1     C14056   0.274   2.596  12.651  0.3300 -0.4249 -0.2783
    2MPD1    C114057   0.216   2.577  12.527 -0.6310  0.8687 -0.5966
    2MPD1    C214058   0.128   2.471  12.503  0.1395  0.2682 -0.0234
    2MPD1    C314059   0.114   2.379  12.596 -0.0231 -0.1423  0.4066
    2MPD1    C414060   0.169   2.393  12.722  0.1852 -0.9843  0.7295
    2MPD1    C514061   0.251   2.499  12.746  0.0607 -0.1333  0.4262
    2MPD1     H14062   0.074   2.465  12.408  2.3921  0.3718 -1.2974
    2MPD1    H114063   0.144   2.335  12.810  0.4655  0.8958  2.0477
    2MPD1    H214064   0.343   2.676  12.676 -1.0386  0.7063 -0.1023
    2MPD1    H314065   0.307   2.509  12.838  0.9004  0.8720 -0.1848
    2MPD1     N14066   0.037   2.267  12.557  0.7360  0.3766  0.1686
    2MPD1    H514067   4.721   2.263  12.464 -0.1925  0.9933  0.5329
    2MPD1    N114068   0.224   2.681  12.440 -0.1047  0.1202 -0.0257
    2MPD1    H614069   0.315   2.726  12.442 -0.9295  1.7801 -0.2814
    2MPD1    H714070   0.212   2.653  12.343  0.2609 -0.3781  0.0701
    1TCq1    O114071   0.936   0.528   1.912 -0.0961  0.4290 -0.5421
    1TCq1    C114072   0.933   0.607   2.016 -0.1261 -0.1817 -0.0444
    1TCq1    O214073   0.874   0.579   2.121 -0.2820 -0.1542 -0.0233
    1TCq1    C214074   1.038   0.705   2.009  0.0384  0.2568  0.3861
    1TCq1    C314075   1.131   0.701   1.905 -0.7702  1.0408  0.6695
    1TCq1    C414076   1.235   0.790   1.912 -0.7293  0.3436 -0.1542
    1TCq1    C514077   1.265   0.848   2.031 -0.1009  0.4719 -0.5780
    1TCq1    C614078   1.175   0.855   2.135 -0.2866  0.0316 -0.0459
    1TCq1    C714079   1.054   0.780   2.127  0.6125 -0.6120  0.3148
    1TCq1    C814080   1.220   0.923   2.262  0.3582 -0.4387  0.3832
    1TCq1    O414081   1.329   0.980   2.264 -0.1927  0.0599  0.4736
    1TCq1    C914082   1.341   0.765   1.823  0.0587 -0.2658  0.5716
    1TCq1    O514083   1.455   0.826   1.840 -0.0533  0.0711  0.3886
    1TCq1    O614084   1.331   0.676   1.736 -0.4212  0.8352  0.1768
    1TCq1    H114085   0.966   0.580   1.835 -1.2062 -0.4681 -1.5742
    1TCq1    H214086   1.129   0.633   1.821 -3.4618  1.7559  0.1421
    1TCq1    H314087   1.354   0.911   2.031  0.1934  0.0463  0.8512
    1TCq1    H414088   0.973   0.792   2.197  0.2427 -0.4906 -0.1345
    2MPD1     C14089   1.133   1.026   2.755 -0.4656 -0.5619  0.2090
    2MPD1    C114090   1.016   0.985   2.704  0.5149  0.5374 -0.4504
    2MPD1    C214091   1.013   0.971   2.564 -0.3042  0.1609  0.1827
    2MPD1    C314092   1.129   0.977   2.488 -0.3361 -0.2530  0.3342
    2MPD1    C414093   1.244   1.028   2.538 -0.0052  0.3802  0.6946
    2MPD1    C514094   1.243   1.052   2.676  0.0193 -0.7645  0.5320
    2MPD1     H14095   0.925   0.933   2.513 -0.1179  0.7038 -0.5352
    2MPD1    H114096   1.336   1.043   2.481 -0.1550  1.3036  0.6952
    2MPD1    H214097   1.146   1.041   2.862 -2.5519  0.3389  0.3480
    2MPD1    H314098   1.331   1.078   2.733  0.2794 -1.4006  0.4210
    2MPD1     N14099   1.118   0.942   2.355 -0.3140 -0.2806 -0.2384
    2MPD1    H514100   1.029   0.901   2.330  0.7875 -4.0915  2.1341
    2MPD1    N114101   0.896   0.988   2.787  0.1608  0.9327  0.1452
    2MPD1    H614102   0.814   0.942   2.748  0.7756  1.7856 -2.1228
    2MPD1    H714103   0.919   0.963   2.883  1.1085 -0.8998 -0.5493
    1MPD1     C14104   0.380   2.057  12.401 -0.9951  0.2151  0.1610
    1MPD1    C114105   0.522   2.075  12.392  0.0607  0.8057  0.5013
    1MPD1    C214106   0.564   2.187  12.332  0.7363  0.0130  0.0282
    1MPD1    C314107   0.473   2.287  12.296 -0.0707  1.1277 -0.1576
    1MPD1    C414108   0.342   2.277  12.320  0.1557  0.1423 -0.2773
    1MPD1    C514109   0.293   2.162  12.365 -0.4664 -0.2523  0.3362
    1MPD1     H14110   0.669   2.212  12.325  0.2098  2.1488 -0.2633
    1MPD1    H114111   0.279   2.342  12.260  0.0338  0.7043  0.4606
    1MPD1    H214112   0.340   1.959  12.422  0.6521  0.0150  2.4144
    1MPD1    H314113   0.188   2.138  12.361 -0.1408 -1.6370 -0.0385
    1MPD1     N14114   0.527   2.400  12.235 -0.0112  0.2972 -0.8010
    1MPD1    H514115   0.628   2.406  12.233 -0.0997  1.9595 -0.2984
    1MPD1    N114116   0.616   1.973  12.417  0.0967 -0.1132 -0.4985
    1MPD1    H614117   0.602   1.919  12.502  0.6879  0.9665  0.2833
    1MPD1    H714118   0.713   2.003  12.424  0.9301 -2.4274 -1.9177
    2MPD1     C14119   0.116   3.084  11.663 -1.0211 -0.1593  0.5430
    2MPD1    C114120   0.055   3.093  11.545  0.5079 -0.8745 -0.5402
    2MPD1    C214121   0.118   3.022  11.442  0.5782 -0.0499 -0.1348
    2MPD1    C314122   0.210   2.921  11.458 -0.6870  0.9025 -0.1874
    2MPD1    C414123   0.254   2.897  11.582  0.5391 -0.3055 -0.3349
    2MPD1    C514124   0.212   2.981  11.683  0.1211 -0.4651 -1.0366
    2MPD1     H14125   0.079   3.027  11.340  0.3021  0.0854 -0.0229
    2MPD1    H114126   0.321   2.817  11.610 -0.3957 -1.1655 -0.5619
    2MPD1    H214127   0.083   3.141  11.749  0.0692 -0.0720  0.9127
    2MPD1    H314128   0.242   2.959  11.784 -0.0020  0.4577 -0.7929
    2MPD1     N14129   0.257   2.833  11.361  0.0076 -0.4866  0.1170
    2MPD1    H514130   0.315   2.756  11.394  0.6805 -0.1419 -0.2741
    2MPD1    N114131   4.701   3.202  11.516 -0.0709  0.5745  0.1767
    2MPD1    H614132   4.655   3.187  11.427 -1.2979  0.0028  0.8988
    2MPD1    H714133   4.639   3.229  11.593  1.5585  1.7805  1.0539
    3MPD1     C14134   0.379   2.590  10.303  0.2469  0.6427  0.4965
    3MPD1    C114135   0.475   2.672  10.344 -0.0239  0.1944 -0.3135
    3MPD1    C214136   0.471   2.712  10.470  0.3047 -0.3484 -0.3069
    3MPD1    C314137   0.377   2.665  10.564  0.2834 -0.6476 -0.4576
    3MPD1    C414138   0.285   2.571  10.523 -0.1240  0.3471 -0.1730
    3MPD1    C514139   0.294   2.526  10.389  0.9402 -0.0116 -0.2831
    3MPD1     H14140   0.542   2.788  10.501 -1.7598  0.1824  3.1113
    3MPD1    H114141   0.220   2.524  10.596 -1.3076  0.9766 -0.8088
    3MPD1    H214142   0.360   2.565  10.199  0.4985  0.5031  0.4847
    3MPD1    H314143   0.213   2.464  10.352 -0.2476  1.6340 -0.4360
    3MPD1     N14144   0.389   2.705  10.698  0.3254  0.0784 -0.5500
    3MPD1    H514145   0.475   2.753  10.723 -0.1278  0.3832  0.4396
    3MPD1    N114146   0.554   2.742  10.246 -0.1065 -0.0022  0.3226
    3MPD1    H614147   0.643   2.778  10.279 -0.5058  1.5001 -0.2742
    3MPD1    H714148   0.576   2.683  10.165 -2.6169 -0.7665  0.2010
    4MPD2     C14149   0.635   2.915  11.693 -0.0070  0.4605  0.6764
    4MPD2    C114150   0.725   2.942  11.798 -0.2197 -0.4285 -0.1362
    4MPD2    C214151   0.848   2.980  11.770  0.1484 -0.6584  1.3408
    4MPD2    C314152   0.890   2.991  11.642  0.2077  0.3885  0.3978
    4MPD2    C414153   0.801   2.965  11.537  0.3705  0.0065 -0.3565
    4MPD2    C514154   0.672   2.931  11.562  0.3817  0.2085  0.5638
    4MPD2     H14155   0.920   2.994  11.850  0.9447 -0.9555  0.6734
    4MPD2    H114156   0.827   2.998  11.438 -0.8379 -1.3817 -1.1308
    4MPD2    H214157   0.533   2.891  11.719  0.6820 -2.2012  0.9622
    4MPD2    H314158   0.590   2.923  11.492 -1.3069  0.5313  2.4791
    4MPD2     N14159   1.017   3.023  11.599 -0.0755 -0.1805  0.2801
    4MPD2    H514160   1.024   3.002  11.500  1.3366 -0.1047  0.3580
    4MPD2    N114161   0.689   2.916  11.935 -0.0286  0.0024  0.0351
    4MPD2    H714162   0.771   2.903  11.994 -0.3226  0.3067  0.5123
    5TMC3    C114163   0.572   2.855  12.132 -0.0722  0.0184  0.8677
    5TMC3    C214164   0.496   2.743  12.129  0.3769  0.2500 -0.0524
    5TMC3    C314165   0.553   2.624  12.165 -0.3222  0.1404  0.7710
    5TMC3    C414166   0.702   2.855  12.170  0.0095 -0.2164  0.0837
    5TMC3    C514167   0.759   2.734  12.192 -0.1013 -0.6246 -0.4239
    5TMC3    C614168   0.690   2.617  12.196  0.1442  0.0422 -0.2319
    5TMC3     C14169   0.561   2.903  11.989 -0.4297 -0.1534  0.2171
    5TMC3     O14170   0.449   2.913  11.934  0.3225 -0.1000 -0.1384
    5TMC3     H14171   0.395   2.753  12.091  0.6999 -0.6553 -1.1553
    5TMC3    H114172   0.751   2.952  12.171 -2.9949  1.3095  0.7703
    5TMC3    H214173   0.732   2.524  12.232  0.3164  0.6635  1.1477
    5TMC3    C714174   0.888   2.732  12.132  0.3556 -0.4624  0.2775
    5TMC3    C814175   0.459   2.515  12.198 -0.2251  0.5555 -0.0582
    5TMC3    O114176   0.923   2.841  12.089  0.1120  0.2785  0.3857
    5TMC3    O214177   0.340   2.551  12.196 -0.3834  0.0363 -0.1568
    6TMC3    C114178   0.305   2.765  11.153  0.3770  0.6750  0.6485
    6TMC3    C214179   0.261   2.725  11.025  0.1315 -0.8197 -0.1045
    6TMC3    C314180   0.351   2.707  10.918  0.2842  0.3571  0.1494
    6TMC3    C414181   0.437   2.790  11.171  0.2445  0.8184 -0.1249
    6TMC3    C514182   0.527   2.770  11.069  0.6084  0.1994 -0.3886
    6TMC3    C614183   0.488   2.721  10.946 -0.4896  0.1894 -0.1285
    6TMC3     C14184   0.204   2.824  11.237  0.0517  0.2429  0.1316
    6TMC3     O14185   0.114   2.881  11.176 -0.7293 -0.4037  0.1082
    6TMC3     H14186   0.155   2.720  11.004  0.2604 -1.5183 -0.5561
    6TMC3    H114187   0.475   2.814  11.270  0.3556 -1.6267  0.4242
    6TMC3    H214188   0.562   2.706  10.869  0.7987  3.6128  0.4160
    6TMC3    C714189   0.663   2.762  11.114 -0.2768 -0.0009  0.0001
    6TMC3    C814190   0.296   2.675  10.797  0.4379  0.0234  0.2438
    6TMC3    O114191   0.696   2.833  11.206 -0.0521  0.0687 -0.0531
    6TMC3    O214192   0.183   2.628  10.785 -0.3030  0.7738 -0.0160
    7MPD2     C14193   1.220   2.502  11.810  0.3556 -0.1842  0.4030
    7MPD2    C114194   1.180   2.631  11.825 -0.0160  1.5125 -0.1522
    7MPD2    C214195   1.074   2.666  11.909  0.0789 -0.0101  0.7276
    7MPD2    C314196   1.014   2.576  11.991 -0.4095 -0.1542  0.0772
    7MPD2    C414197   1.042   2.444  11.965 -0.5307  0.6461  0.1575
    7MPD2    C514198   1.141   2.407  11.876  0.6514 -0.5054  0.9320
    7MPD2     H14199   1.051   2.769  11.933 -0.3818 -0.2093  1.1435
    7MPD2    H114200   1.004   2.374  12.038 -0.4968 -0.3021 -0.7259
    7MPD2    H214201   1.295   2.467  11.739  0.8507 -0.1954  0.9242
    7MPD2    H314202   1.162   2.302  11.862 -0.8349 -0.5004 -1.3418
    7MPD2     N14203   0.922   2.607  12.094  0.3970 -0.5043 -0.5683
    7MPD2    H514204   0.878   2.528  12.139  1.1311 -1.3905 -1.3922
    7MPD2    N114205   1.233   2.734  11.742  0.5834 -0.2399 -0.0522
    7MPD2    H714206   1.196   2.827  11.757  0.4731 -0.5090  1.3418
    8TMC3    C114207   1.351   2.832  11.564 -0.3384  0.4907 -0.2745
    8TMC3    C214208   1.314   2.821  11.428 -0.2153 -0.3598  0.2703
    8TMC3    C314209   1.246   2.930  11.380  0.1652 -0.2884 -0.0663
    8TMC3    C414210   1.317   2.948  11.636  0.3992  0.3661  0.4581
    8TMC3    C514211   1.235   3.045  11.584 -0.4291 -0.7165  0.1526
    8TMC3    C614212   1.202   3.034  11.455  0.0608  0.2480 -0.3314
    8TMC3     C14213   1.318   2.707  11.635 -0.3818  0.1023 -0.4172
    8TMC3     O14214   1.346   2.607  11.568 -0.9683 -0.1179 -0.4236
    8TMC3     H14215   1.339   2.735  11.368 -1.0134  0.7775 -1.6962
    8TMC3    H114216   1.348   2.961  11.740  2.3956 -0.0680 -0.0852
    8TMC3    H214217   1.156   3.120  11.408 -0.2601  0.6564  0.7452
    8TMC3    C714218   1.129   3.063  11.668 -0.3679 -0.8120  0.0876
    8TMC3    C814219   1.148   2.908  11.283 -0.0717 -0.5176  0.1986
    8TMC3    O114220   1.145   3.074  11.790  0.3051  0.4421  0.0735
    8TMC3    O214221   1.044   2.971  11.301 -0.0075 -0.6998 -0.0734
    9MPD2     C14222   1.155   2.632  11.040 -0.5368 -0.0692  0.0973
    9MPD2    C114223   1.100   2.736  11.113  0.9236  0.5918  0.1271
    9MPD2    C214224   0.964   2.749  11.121  0.6289  0.0809 -0.6046
    9MPD2    C314225   0.883   2.676  11.031 -0.0182 -0.4438 -0.2323
    9MPD2    C414226   0.939   2.570  10.969 -0.3772 -0.1379  0.1095
    9MPD2    C514227   1.072   2.547  10.969 -0.4774  0.4633  0.3860
    9MPD2     H14228   0.919   2.821  11.189 -1.7245 -1.9722  0.0145
    9MPD2    H114229   0.878   2.495  10.921  0.9549  1.9325 -4.8715
    9MPD2    H214230   1.260   2.608  11.048 -0.3881  0.5630  0.0526
    9MPD2    H314231   1.107   2.470  10.901  0.0331 -1.6012  2.9726
    9MPD2     N14232   0.738   2.683  11.033  0.0401 -0.2467  0.3552
    9MPD2    H514233   0.691   2.623  10.966  1.0718 -0.4572 -0.1880
    9MPD2    N114234   1.186   2.812  11.195  0.2056  0.1667  0.4911
    9MPD2    H714235   1.285   2.787  11.199  0.3653  1.0879  2.1600
    1MPD1     C14236   1.138   2.520   0.434  0.5063 -0.5476 -0.6559
    1MPD1    C114237   1.148   2.473   0.563  0.3303 -0.5947  0.4000
    1MPD1    C214238   1.053   2.389   0.606 -0.4778  0.3300 -0.5577
    1MPD1    C314239   0.935   2.375   0.537 -0.6437 -0.0334  0.4466
    1MPD1    C414240   0.922   2.432   0.408  0.2857  0.4149 -0.4308
    1MPD1    C514241   1.029   2.506   0.360  0.5414 -0.4572  0.1029
    1MPD1     H14242   1.064   2.334   0.698 -1.2227  2.9750  1.1077
    1MPD1    H114243   0.836   2.405   0.347  0.7929 -1.5823 -0.2660
    1MPD1    H214244   1.220   2.574   0.388  0.9377  0.3661  1.1872
    1MPD1    H314245   1.014   2.559   0.267 -1.0342 -1.1770 -0.0647
    1MPD1     N14246   0.831   2.291   0.581  0.3577  0.7806 -0.1646
    1MPD1    H514247   0.753   2.289   0.516  1.0784  1.2827 -1.0511
    1MPD1    N114248   1.272   2.483   0.625 -0.0849 -0.1787 -0.1043
    1MPD1    H614249   1.301   2.581   0.622  1.1930 -0.5113  1.5785
    1MPD1    H714250   1.262   2.467   0.725  0.4050 -2.1292 -0.3697
    2MPD1     C14251   0.328   1.858   0.052 -0.3702 -0.9922  0.0673
    2MPD1    C114252   0.386   1.984   0.056  0.1716  0.5144 -0.2739
    2MPD1    C214253   0.433   2.028   0.175  0.4115 -0.5378 -0.2112
    2MPD1    C314254   0.414   1.959   0.295 -0.1870 -1.0042  0.2871
    2MPD1    C414255   0.341   1.844   0.288 -0.4985  0.7404 -0.3628
    2MPD1    C514256   0.305   1.790   0.166 -0.3192 -0.6163 -0.6849
    2MPD1     H14257   0.479   2.126   0.174  1.0447 -0.8306  2.3962
    2MPD1    H114258   0.308   1.784   0.372  0.0795  0.9674  0.0249
    2MPD1    H214259   0.293   1.813  17.658 -0.5698 -0.8220  0.0607
    2MPD1    H314260   0.252   1.695   0.173  1.2288 -1.3838  0.8135
    2MPD1     N14261   0.486   2.005   0.408 -0.4434 -0.5059 -0.5622
    2MPD1    H514262   0.556   2.077   0.400  0.0883 -0.8742  0.7004
    2MPD1    N114263   0.412   2.057  17.639 -0.4174  0.5562 -0.4338
    2MPD1    H614264   0.437   2.155  17.653  0.0498  0.0743  2.1493
    2MPD1    H714265   0.341   2.036  17.569 -1.9742 -0.8648  1.5645
    3TCq2    C114266   0.461   1.959   0.532 -0.1036 -0.2088 -0.2919
    3TCq2    O214267   0.370   1.880   0.564  0.2544 -0.2460 -0.6530
    3TCq2    C214268   0.547   2.007   0.639 -0.1687 -0.1094 -0.7118
    3TCq2    C314269   0.517   1.959   0.766 -0.1118  0.0357 -0.0082
    3TCq2    C414270   0.583   2.016   0.872 -0.1064  0.8623 -0.5335
    3TCq2    C514271   0.681   2.110   0.851  0.5604 -0.3953  0.6108
    3TCq2    C614272   0.705   2.154   0.719 -0.1982 -0.2951 -0.1493
    3TCq2    C714273   0.632   2.111   0.612  0.4865  0.0465 -0.0528
    3TCq2    C814274   0.826   2.224   0.695  0.1686 -0.0996 -0.5377
    3TCq2    O414275   0.901   2.217   0.790  0.1336 -0.7960 -0.2195
    3TCq2    C914276   0.551   1.960   1.006  0.3742  0.7431  0.4213
    3TCq2    O514277   0.631   1.990   1.101  0.0743  0.0400  0.6982
    3TCq2    O614278   0.442   1.898   1.014  0.2638 -0.5025 -0.0618
    3TCq2    H214279   0.455   1.871   0.775 -1.8215  1.1838 -0.5462
    3TCq2    H314280   0.729   2.147   0.940 -1.1161  0.4486  1.1438
    3TCq2    H414281   0.645   2.157   0.515 -1.9645 -0.2881 -0.5330
    1TCq1    O114282   2.408   0.596  12.924 -0.5690 -0.3531  0.1698
    1TCq1    C114283   2.484   0.700  12.974  0.6510 -0.3310  0.6063
    1TCq1    O214284   2.517   0.792  12.897 -0.0223  0.4521  0.3223
    1TCq1    C214285   2.588   0.637  13.047  0.4790  0.5280 -0.2830
    1TCq1    C314286   2.558   0.596  13.170 -0.6433  0.2136 -0.9455
    1TCq1    C414287   2.662   0.575  13.255 -0.3629 -0.5075  0.7449
    1TCq1    C514288   2.789   0.611  13.232 -0.3965 -0.3564  0.7633
    1TCq1    C614289   2.818   0.662  13.110 -0.5528 -0.1048  0.4210
    1TCq1    C714290   2.714   0.669  13.019  0.0888  0.7484  0.9614
    1TCq1    C814291   2.945   0.726  13.081  0.1498 -0.3131 -0.0326
    1TCq1    O414292   2.955   0.794  12.983 -0.5300 -0.3067 -0.2124
    1TCq1    C914293   2.638   0.510  13.384  0.4965 -0.1321  0.6284
    1TCq1    O514294   2.530   0.452  13.400  0.2332 -0.0836  0.4309
    1TCq1    O614295   2.731   0.487  13.463  0.2019  0.7353  0.5141
    1TCq1    H114296   2.392   0.525  12.990 -2.6588 -0.1870 -0.1702
    1TCq1    H214297   2.456   0.582  13.205 -0.6848  1.9934 -0.3254
    1TCq1    H314298   2.857   0.610  13.316 -1.1030 -0.2480  1.3392
    1TCq1    H414299   2.735   0.728  12.930  2.4574  1.4988  1.9981
    2MPD2     C14300   3.203   0.845  13.123 -0.2609 -0.3060 -0.9142
    2MPD2    C114301   3.176   0.716  13.165 -0.3638  0.1700  0.3630
    2MPD2    C214302   3.271   0.640  13.228  0.3922  0.4068  0.1438
    2MPD2    C314303   3.399   0.690  13.242 -0.1271  0.1193 -0.2157
    2MPD2    C414304   3.419   0.815  13.195 -0.6702 -0.3551  0.0639
    2MPD2    C514305   3.331   0.887  13.123 -0.3005 -0.5192 -0.9739
    2MPD2     H14306   3.234   0.545  13.265  2.1137  0.5639  2.2618
    2MPD2    H114307   3.515   0.862  13.210 -0.7225  0.1430 -1.1117
    2MPD2    H214308   3.129   0.905  13.071  0.1395  1.8997  1.0288
    2MPD2    H314309   3.358   0.988  13.093 -2.1720  0.2949  0.0335
    2MPD2     N14310   3.497   0.617  13.315 -0.5213  0.5902 -0.4066
    2MPD2    H514311   3.472   0.533  13.367  3.2215 -0.8024 -0.8463
    2MPD2    N114312   3.045   0.658  13.141  0.6134 -0.2213 -0.3981
    2MPD2    H714313   3.029   0.570  13.190 -3.2204  0.9848  0.4672
    3TCq1    O114314   3.703   0.168  13.310 -0.4869  0.0002 -0.7284
    3TCq1    C114315   3.761   0.210  13.424 -0.7547  0.5507 -0.1156
    3TCq1    O214316   3.806   0.140  13.510 -0.6140  0.3345  0.4868
    3TCq1    C214317   3.778   0.351  13.430  0.1066  1.0018 -0.3119
    3TCq1    C314318   3.877   0.395  13.521 -0.0438  0.4706 -0.2253
    3TCq1    C414319   3.886   0.532  13.540 -0.2688 -0.7162 -0.5675
    3TCq1    C514320   3.799   0.620  13.486  0.8880  0.2302  0.2435
    3TCq1    C614321   3.697   0.566  13.407  0.3870  0.3987 -0.8592
    3TCq1    C714322   3.690   0.435  13.372  0.5019  0.3036 -0.9737
    3TCq1    C814323   3.623   0.665  13.342 -0.0736  0.0690  0.6311
    3TCq1    O414324   3.678   0.770  13.322  0.3825 -0.6473 -0.1106
    3TCq1    C914325   4.000   0.583  13.615  0.3328 -0.7025 -0.2463
    3TCq1    O514326   3.988   0.700  13.662  0.7818 -0.3228  0.7312
    3TCq1    O614327   4.103   0.514  13.636 -0.4718 -0.3035  0.4102
    3TCq1    H114328   3.684   0.239  13.245  1.2960 -0.1369 -1.4146
    3TCq1    H214329   3.946   0.326  13.568  1.2768  0.8882 -1.5226
    3TCq1    H314330   3.796   0.728  13.500  1.3913  0.4053 -0.9756
    3TCq1    H414331   3.619   0.401  13.297 -0.8328 -0.5712  0.7095
    1MPD2     C14332   3.049   1.493  15.478 -0.4942 -0.2861 -0.5724
    1MPD2    C114333   2.993   1.437  15.363  0.4697 -0.0848  0.3160
    1MPD2    C214334   3.074   1.387  15.261  0.3162  0.9113  0.3938
    1MPD2    C314335   3.209   1.388  15.272  0.1228 -0.1953  0.4239
    1MPD2    C414336   3.264   1.420  15.393  0.4904 -0.1423 -0.1760
    1MPD2    C514337   3.187   1.475  15.495 -0.9988  0.1255 -0.1086
    1MPD2     H14338   3.028   1.347  15.171  2.1156 -2.3390  0.9527
    1MPD2    H114339   3.372   1.424  15.401  0.3642  2.5188  0.1238
    1MPD2    H214340   2.989   1.532  15.559 -0.0026 -2.1463  0.6882
    1MPD2    H314341   3.227   1.501  15.592  0.5533 -2.3252 -0.0834
    1MPD2     N14342   3.278   1.322  15.170  0.3457 -0.5686  0.3808
    1MPD2    H514343   3.231   1.311  15.081  1.7123  0.2516 -0.4420
    1MPD2    N114344   2.854   1.443  15.353  0.1189  0.0939  0.3476
    1MPD2    H714345   2.818   1.502  15.428  1.2819  2.0317 -0.6239
    2TMC3    C114346   2.640   1.367  15.281 -0.5863 -0.0165 -0.9890
    2TMC3    C214347   2.591   1.262  15.212  0.0943  0.0455  0.6334
    2TMC3    C314348   2.487   1.275  15.125  0.4483 -0.2819 -1.0675
    2TMC3    C414349   2.582   1.488  15.250  0.5013 -0.3071  0.0480
    2TMC3    C514350   2.483   1.504  15.156  0.3718 -0.0617  0.2003
    2TMC3    C614351   2.442   1.397  15.088 -0.2422 -0.5287 -0.1003
    2TMC3     C14352   2.783   1.357  15.274 -0.1452 -0.5308 -0.3377
    2TMC3     O14353   2.815   1.254  15.223 -0.0425  0.0685  0.2872
    2TMC3     H14354   2.621   1.160  15.236  0.7906 -0.2225 -1.3161
    2TMC3    H114355   2.611   1.575  15.309 -0.5983 -0.2879  0.5542
    2TMC3    H214356   2.364   1.408  15.014 -1.0589  0.3029  0.8756
    2TMC3    C714357   2.418   1.619  15.103 -0.0597 -0.7766  0.8658
    2TMC3    C814358   2.519   1.193  15.011  0.6809  0.4780 -0.0979
    2TMC3    O114359   2.293   1.616  15.096  0.1520  0.7237 -0.1204
    2TMC3    O214360   2.428   1.143  14.942  0.0702 -0.4575  0.0849
    3TCq1    O114361   2.788   2.652  14.568 -0.1691 -0.0830  0.4113
    3TCq1    C114362   2.879   2.568  14.618  0.3639  0.2434 -0.1503
    3TCq1    O214363   2.986   2.600  14.666 -0.8197 -0.2718  0.3073
    3TCq1    C214364   2.842   2.432  14.589 -0.5201  0.3726 -0.1249
    3TCq1    C314365   2.945   2.350  14.564  0.0001 -0.0588  0.1236
    3TCq1    C414366   2.927   2.218  14.587  0.7334  0.1033  0.2386
    3TCq1    C514367   2.803   2.174  14.626  0.3098 -0.0668 -0.4856
    3TCq1    C614368   2.698   2.256  14.636  1.0737 -0.3443 -0.1753
    3TCq1    C714369   2.709   2.392  14.619 -0.2737 -0.2937 -0.5146
    3TCq1    C814370   2.587   2.213  14.718 -0.3521  0.1849  0.5607
    3TCq1    O414371   2.481   2.279  14.727 -0.4431 -0.4489 -0.4526
    3TCq1    C914372   3.039   2.127  14.587  0.0789 -0.4668 -0.4136
    3TCq1    O514373   3.155   2.161  14.555 -0.0238 -0.0803  0.1601
    3TCq1    O614374   3.015   2.006  14.620  0.1822  0.0881 -0.0990
    3TCq1    H114375   2.727   2.605  14.507 -2.1052  1.4607  1.1479
    3TCq1    H214376   3.047   2.383  14.551  0.1895 -0.0985  1.5131
    3TCq1    H314377   2.793   2.066  14.633 -3.2961  0.3393  0.5554
    3TCq1    H414378   2.629   2.464  14.637 -0.4137 -0.1496 -1.6991
    4MPD2     C14379   2.411   2.081  14.911 -0.5089  0.6588 -0.0978
    4MPD2    C114380   2.525   2.022  14.866  1.0886 -0.1630  0.4676
    4MPD2    C214381   2.555   1.895  14.908 -0.3101  0.3155 -0.2346
    4MPD2    C314382   2.467   1.825  14.993  0.3340 -0.5681 -0.7578
    4MPD2    C414383   2.364   1.895  15.045 -0.0554 -0.2230  0.3332
    4MPD2    C514384   2.326   2.021  15.000 -0.4772 -0.2586 -0.2433
    4MPD2     H14385   2.650   1.856  14.874  0.5929  0.7048  1.8143
    4MPD2    H114386   2.306   1.849  15.124 -0.6855  1.3232  0.7754
    4MPD2    H214387   2.369   2.171  14.867 -2.9438  0.1389  1.1586
    4MPD2    H314388   2.244   2.081  15.038 -0.5628  0.0681 -0.9461
    4MPD2     N14389   2.508   1.700  15.042 -0.3420 -0.1305 -0.0377
    4MPD2    H514390   2.600   1.669  15.011  0.9322  0.3230  3.3889
    4MPD2    N114391   2.623   2.098  14.790  1.1800  0.1730  0.5717
    4MPD2    H714392   2.707   2.047  14.767  1.3011  1.4195 -1.6885
    5TMC2    C114393   3.296   1.064  14.932 -0.6572 -0.6494  0.1099
    5TMC2    C214394   3.328   0.946  14.985 -0.1087  0.7727 -0.6327
    5TMC2    C314395   3.437   0.950  15.070  0.7973 -0.2661 -0.0517
    5TMC2    C414396   3.356   1.185  14.973  0.1352 -0.1966  0.0477
    5TMC2    C514397   3.452   1.185  15.067 -0.3271  0.1982 -0.0367
    5TMC2    C614398   3.499   1.065  15.106  0.5128  0.6455  0.2271
    5TMC2     C14399   3.156   1.090  14.927  0.0360 -0.0825 -0.1269
    5TMC2     O14400   3.113   1.196  14.972  0.0995 -0.7152 -0.4561
    5TMC2     H14401   3.272   0.858  14.958 -1.4675  1.0859  1.1600
    5TMC2    H114402   3.332   1.273  14.914  1.2288 -1.3374 -2.1140
    5TMC2    H214403   3.571   1.045  15.184 -0.0061  0.8099  0.7458
    5TMC2    C714404   3.408   1.278  15.174  0.8160 -0.1277 -0.0554
    5TMC2    C814405   3.491   0.827  15.110 -0.2573 -0.1032  0.1952
    5TMC2    O114406   3.488   1.268  15.271  0.8805  0.3009  0.1900
    5TMC2    O214407   3.541   0.808  15.220 -0.6651 -0.3270  0.1155
    5TMC2    O514408   3.475   0.736  15.018 -0.0951 -0.7420  0.1856
    5TMC2    H514409   3.482   0.778  14.930  1.7041  0.1591  0.7570
    6MPD2     C14410   2.666   1.047  14.801  0.6979 -0.4935 -0.0850
    6MPD2    C114411   2.729   1.106  14.907  0.1418 -0.3484  0.3937
    6MPD2    C214412   2.864   1.095  14.926 -0.0117 -0.4166 -0.8347
    6MPD2    C314413   2.943   1.018  14.840  0.1718  0.0064 -0.1465
    6MPD2    C414414   2.878   0.958  14.735 -0.0378 -0.3624 -0.7055
    6MPD2    C514415   2.742   0.965  14.719  0.3038 -0.2214  0.5374
    6MPD2     H14416   2.906   1.148  15.010 -1.0781 -0.3584 -0.3321
    6MPD2    H114417   2.927   0.895  14.662 -1.2037 -1.0331 -0.9153
    6MPD2    H214418   2.559   1.047  14.785  0.8705  1.9289 -1.2502
    6MPD2    H314419   2.705   0.907  14.636 -0.5964  0.2623  0.5922
    6MPD2     N14420   3.080   1.009  14.847  0.3494  0.1415 -0.3095
    6MPD2    H514421   3.122   0.937  14.790  0.1552  0.1274 -0.4320
    6MPD2    N114422   2.655   1.187  14.997 -0.6578 -0.0702 -0.0394
    6MPD2    H714423   2.707   1.217  15.079  1.5101  1.7122 -2.0572
  945NH4     N114424   1.771   3.013   1.149  0.0026 -0.1277 -0.7374
  945NH4     H214425   1.822   3.080   1.210  0.8958 -1.1668 -0.3337
  945NH4     H314426   1.701   3.067   1.095  0.2019  1.1826  0.3000
  945NH4     H414427   1.724   2.946   1.214  0.4244  0.0189 -0.2788
  945NH4     H514428   1.848   2.967   1.097  0.5814 -0.9234  0.8104
  946SOD     NA14429   1.185   0.674   1.560 -0.2437  0.4859  0.2307
  947SOD     NA14430   0.246   2.489  14.684 -0.1336 -0.1405 -0.1299
  948SOD     NA14431   1.248   4.023   1.443 -0.1602 -0.1667  0.5205
  949SOD     NA14432   3.269   0.904  15.539 -0.1692  0.0218  0.3674
  950SOD     NA14433   1.723   3.100   9.971 -0.1426  0.2656 -0.1347
  951SOD     NA14434   3.938   4.046   1.560 -0.2077 -0.4412 -0.3666
  952SOD     NA14435   4.689   1.128  14.292 -0.1690  0.0013  0.1962
  953SOD     NA14436   3.594   0.288  12.037 -0.4947  0.0974 -0.4665
  954SOD     NA14437   3.190   1.294  12.843  0.1850  0.5023  0.4202
  955SOD     NA14438   3.483   0.548   7.431  0.0763 -0.1388 -0.3108
  956SOD     NA14439   0.051   3.717  14.453 -0.1188 -0.3554  0.2319
  957SOD     NA14440   3.683   1.424  12.650 -0.2811 -0.3317 -0.0243
  958SOD     NA14441   2.687   2.852  16.079 -0.1432 -0.3505 -0.3243
  959SOD     NA14442   0.356   1.532  13.542 -0.0013  0.0666 -0.2935
  960SOD     NA14443   4.213   2.199  11.706  0.0838 -0.0676 -0.3087
  961SOD     NA14444   1.472   0.640   1.562  0.5881  0.0050  0.9748
  962SOD     NA14445   0.902   0.561   1.246  0.0880  0.1071  0.1667
  963SOD     NA14446   0.003   4.414   8.444 -0.3493  0.1953  0.2276
  964SOD     NA14447   3.505   1.980  12.181 -0.1562  0.6739 -0.6322
  965SOD     NA14448   1.658   3.406  12.893  0.4210  0.1081 -0.1572
  966SOD     NA14449   3.559   0.567  11.887  0.1372  0.1660 -0.2630
  967SOD     NA14450   2.689   4.083  11.935  0.2235  0.5471 -0.1951
  968SOD     NA14451   2.095   0.673  10.273  0.3751 -0.1814  0.3798
  969SOD     NA14452   4.447   2.515   1.324 -0.3243 -0.2480  0.3072
  970SOD     NA14453   2.605   1.232   0.454 -0.2584  0.3371 -0.4467
  971SOD     NA14454   3.897   3.773   8.813  0.1536  0.3607  0.5314
  972SOD     NA14455   1.206   1.470  15.149 -0.0001  0.2853 -0.5724
  973SOD     NA14456   0.605   3.561   7.296 -0.3827  0.3157 -0.3082
  974SOD     NA14457   2.370   1.396  10.768  0.5724  0.0305  0.4995
  975SOD     NA14458   4.231   2.097  16.296  0.0243 -0.0776  0.3169
  976SOD     NA14459   4.239   0.682  13.690 -0.1379  0.2042 -0.3505
  977SOD     NA14460   3.565   4.651   3.226 -0.1955  0.5879 -0.3492
  978SOD     NA14461   3.135   4.160  11.173  0.1870  0.3201 -0.1447
  979SOD     NA14462   1.722   3.702  10.086 -0.0834  0.4678  0.3290
  980SOD     NA14463   0.574   0.618   0.370 -0.1018 -0.7445  0.3134
  981SOD     NA14464   0.059   2.138   6.657 -0.1416 -0.1805  0.1080
  982SOD     NA14465   2.979   1.228   9.496 -0.1075 -0.0555 -0.4024
  983SOD     NA14466   4.392   3.975   9.096  0.7928 -0.2953  0.1556
  984SOD     NA14467   4.016   2.159   7.857  0.1890 -0.3984 -0.4547
  985SOD     NA14468   1.227   2.047  15.428  0.2132  0.1265 -0.0387
  986SOD     NA14469   1.579   4.360  15.406 -0.0823 -0.1507  0.1566
  987SOD     NA14470   0.964   3.278  14.709  0.4564  0.4727  0.1681
  988SOD     NA14471   1.277   3.068   1.722 -0.7464 -0.3107  0.8908
  989SOD     NA14472   2.632   4.314  10.152  0.1720 -0.2404  0.6768
  990SOD     NA14473   2.765   1.086  10.674 -0.0680  0.4872  0.3890
  991SOD     NA14474   0.700   2.616   4.694 -0.1644  0.3746  0.2493
  992SOD     NA14475   2.977   0.814  12.755  0.0981  0.0265  0.3156
  993SOD     NA14476   4.191   1.260  14.266 -0.2454  0.0856 -0.1042
  994SOD     NA14477   1.806   0.913  13.523  0.5877 -0.4562  0.0994
  995SOD     NA14478   1.531   2.753  14.148  0.4689 -0.1271  0.2281
  996SOD     NA14479   1.849   4.507  13.198  0.1309  0.2808  0.4694
  997SOD     NA14480   2.879   3.839   7.751 -0.2264  0.0392  0.7844
  998SOD     NA14481   3.359   2.177  14.583  0.1161  0.2341  0.2072
  999SOD     NA14482   2.330   1.792   2.348 -0.2104  0.3564 -0.4058
 1000SOD     NA14483   0.007   3.003  10.998  0.4995 -0.6112  0.4650
 1001SOD     NA14484   0.342   0.832  16.584 -0.0217  0.5443  0.1187
 1002SOD     NA14485   1.693   0.437   1.425 -0.0647  0.0161 -0.2373
 1003SOD     NA14486   0.758   3.394   3.221 -0.1897 -0.0095 -0.1585
 1004SOD     NA14487   1.810   1.086  13.995  0.9619  0.0591  0.3534
 1005SOD     NA14488   4.556   3.344  16.530 -0.0258  0.6347 -0.6032
 1006SOD     NA14489   3.941   2.656  10.284  0.1129  0.1529 -0.0377
 1007SOD     NA14490   1.218   0.455   8.446 -0.2819  0.5381 -0.3884
 1008SOD     NA14491   4.680   1.153  10.954  0.4439 -0.1752 -0.5175
 1009SOD     NA14492   4.009   0.163  13.049 -0.3781 -0.4843 -0.2032
 1010SOD     NA14493   1.238   4.298   1.640 -0.0277 -0.3785 -0.1992
 1011SOL     OW14494   2.647   2.685   2.945 -0.6191  0.1439  0.4066
 1011SOL    HW114495   2.692   2.601   2.958  0.2469  0.2117 -2.0678
 1011SOL    HW214496   2.583   2.677   3.016 -0.3658 -1.4992  0.4510
 1012SOL     OW14497   1.659   2.688   4.632  0.0613 -0.1077 -0.1043
 1012SOL    HW114498   1.703   2.604   4.642 -2.3330 -1.1039  2.1437
 1012SOL    HW214499   1.686   2.736   4.710 -3.0672  1.2307  0.1850
 1013SOL     OW14500   0.887   0.124  11.060 -0.4661  0.5183  0.9942
 1013SOL    HW114501   0.845   0.147  10.978  0.5286  2.5913  1.0581
 1013SOL    HW214502   0.808   0.140  11.111 -1.4338  1.4924 -0.8433
 1014SOL     OW14503   0.474   0.105   6.237 -0.3842  0.6655  0.0538
 1014SOL    HW114504   0.558   0.112   6.192 -0.8786  0.0223 -0.9654
 1014SOL    HW214505   0.439   0.017   6.219  1.0951 -0.6448  3.4521
 1015SOL     OW14506   2.277   4.124   6.741  0.2766 -0.2018  0.0127
 1015SOL    HW114507   2.296   4.032   6.723 -0.4138 -0.5813  1.1870
 1015SOL    HW214508   2.185   4.138   6.719  0.7301  1.1341 -0.9705
 1016SOL     OW14509   2.627   2.893   9.345 -0.1253  0.7190 -0.2123
 1016SOL    HW114510   2.574   2.834   9.400 -1.2737  1.5928 -0.3699
 1016SOL    HW214511   2.695   2.920   9.406  0.0711 -2.1653  0.8804
 1017SOL     OW14512   2.760   1.535   3.960 -0.2820  0.6284 -0.3047
 1017SOL    HW114513   2.683   1.477   3.962  0.0024  0.2884  0.7977
 1017SOL    HW214514   2.773   1.546   4.054  3.7005  0.2027 -0.7881
 1018SOL     OW14515   2.305   4.540  17.600  0.1693  0.0917  0.0505
 1018SOL    HW114516   2.216   4.506  17.596  0.1889  0.1389 -0.8743
 1018SOL    HW214517   2.331   4.533  17.691 -0.9276 -0.0223  0.3555
 1019SOL     OW14518   3.803   0.777  17.143  0.1190  0.2211 -0.3203
 1019SOL    HW114519   3.862   0.820  17.081  0.4690 -1.2099 -1.0036
 1019SOL    HW214520   3.740   0.753  17.074  2.4847 -1.4774 -1.8916
 1020SOL     OW14521   1.693   0.491   6.931  0.6887  0.0650  0.3875
 1020SOL    HW114522   1.694   0.581   6.963  4.2260  1.3122 -3.1738
 1020SOL    HW214523   1.599   0.500   6.916  0.2376 -0.5531  2.9354
 1021SOL     OW14524   1.742   0.218   1.824  0.9408 -0.3198 -0.2649
 1021SOL    HW114525   1.697   0.252   1.746  0.0771 -0.6564  0.0853
 1021SOL    HW214526   1.661   0.193   1.869  0.9559 -0.9980 -0.6023
 1022SOL     OW14527   4.505   2.196   0.406  0.4444 -0.7452  0.4697
 1022SOL    HW114528   4.479   2.125   0.465  2.6400 -2.5220 -0.7203
 1022SOL    HW214529   4.428   2.199   0.349 -0.8546  1.0011  2.3139
 1023SOL     OW14530   3.870   1.448   4.000 -0.2323  0.8242  0.3757
 1023SOL    HW114531   3.944   1.409   4.046  0.1564  1.7722  0.5615
 1023SOL    HW214532   3.879   1.415   3.910  0.1815  0.3367  0.5947
 1024SOL     OW14533   2.692   3.642   6.918  0.0740 -0.3594  0.1038
 1024SOL    HW114534   2.779   3.654   6.881  0.7292 -1.3201  1.3248
 1024SOL    HW214535   2.700   3.670   7.010 -1.2167 -0.1058  0.1404
 1025SOL     OW14536   2.387   4.056   6.213 -0.3795 -0.0417  0.0657
 1025SOL    HW114537   2.441   3.996   6.263 -1.7880  0.0085  1.6342
 1025SOL    HW214538   2.323   4.064   6.283 -0.3680 -0.4388  0.1223
 1026SOL     OW14539   4.370   0.480   6.765  0.0653 -0.5685 -0.0656
 1026SOL    HW114540   4.465   0.485   6.782 -0.0395 -1.9652  0.9357
 1026SOL    HW214541   4.367   0.416   6.695  0.3694  0.0864 -0.6752
 1027SOL     OW14542   0.688   1.954  10.411 -0.0510  0.0387  0.1130
 1027SOL    HW114543   0.742   2.033  10.407 -1.8789  1.4078  2.3947
 1027SOL    HW214544   0.734   1.910  10.482  0.8573 -1.9394 -1.7022
 1028SOL     OW14545   0.347   3.500   3.681 -0.2862  0.3188 -0.0477
 1028SOL    HW114546   0.344   3.505   3.585  1.2385  0.5056 -0.0986
 1028SOL    HW214547   0.361   3.406   3.688 -0.2988  0.2359 -1.1163
 1029SOL     OW14548   1.753   2.240   5.645  0.2166 -0.1977  0.0625
 1029SOL    HW114549   1.747   2.303   5.573  2.0462 -2.7250 -2.3311
 1029SOL    HW214550   1.734   2.153   5.609  1.2136 -0.5928  0.5047
 1030SOL     OW14551   0.530   1.434  10.972 -0.1088  0.2787 -0.4692
 1030SOL    HW114552   0.438   1.459  10.978 -1.0969 -2.4647 -4.3202
 1030SOL    HW214553   0.509   1.358  10.917  1.1811 -0.5039  0.1139
 1031SOL     OW14554   2.187   0.525   3.787 -0.4451 -0.2576  0.1338
 1031SOL    HW114555   2.183   0.545   3.694 -1.9339 -1.2601 -0.0132
 1031SOL    HW214556   2.119   0.458   3.790 -0.8699  0.1198 -1.1461
 1032SOL     OW14557   1.784   3.313   6.929  0.1289  0.3272  0.2145
 1032SOL    HW114558   1.855   3.250   6.915 -1.1793 -1.0655 -0.2274
 1032SOL    HW214559   1.721   3.256   6.974 -0.7666  0.7849 -0.4700
 1033SOL     OW14560   1.527   3.269   3.371 -0.3631 -0.2499  0.4369
 1033SOL    HW114561   1.547   3.357   3.404 -1.4012  0.6931 -1.4653
 1033SOL    HW214562   1.445   3.285   3.323  1.0305 -0.3395 -1.9605
 1034SOL     OW14563   3.739   2.069   5.123  0.6025  0.3183  0.3164
 1034SOL    HW114564   3.690   2.021   5.056  2.1542  0.3409 -0.8182
 1034SOL    HW214565   3.825   2.058   5.083  1.1282 -2.8341  2.2509
 1035SOL     OW14566   1.177   0.282   4.623  0.3888  0.1205 -0.0149
 1035SOL    HW114567   1.131   0.253   4.545 -2.3106  0.6612  1.3928
 1035SOL    HW214568   1.122   0.359   4.640 -0.4577 -0.4938 -0.0181
 1036SOL     OW14569   4.699   1.806   0.665 -0.0662  0.1009 -0.3238
 1036SOL    HW114570   4.716   1.718   0.630 -1.4623 -0.3229  0.0414
 1036SOL    HW214571   0.031   1.810   0.742 -0.3676  2.0112 -0.2149
 1037SOL     OW14572   2.242   1.594   5.666 -0.4387  0.2682 -0.7484
 1037SOL    HW114573   2.166   1.612   5.722 -0.3922  0.6363 -0.8042
 1037SOL    HW214574   2.268   1.685   5.659  0.4806 -0.0453 -1.3756
 1038SOL     OW14575   3.752   1.088   6.053 -0.2369 -0.2483  0.8169
 1038SOL    HW114576   3.806   1.078   5.975  0.2303  1.4656  0.9086
 1038SOL    HW214577   3.694   1.017   6.028  3.6360 -3.1826  0.2356
 1039SOL     OW14578   2.750   3.739   3.924 -0.1922 -0.4372 -0.0854
 1039SOL    HW114579   2.761   3.811   3.862 -0.4871 -0.0944  0.2620
 1039SOL    HW214580   2.667   3.758   3.968  1.4685 -0.0484  2.8913
 1040SOL     OW14581   2.628   1.577  10.086  0.1863  0.1651  0.4397
 1040SOL    HW114582   2.621   1.484  10.108  0.8385 -0.2365 -1.0931
 1040SOL    HW214583   2.721   1.587  10.068  0.6270 -2.4783  1.1788
 1041SOL     OW14584   4.020   1.218   9.057 -0.7182 -0.7011 -0.0483
 1041SOL    HW114585   3.935   1.233   9.099 -0.3882  2.1577 -0.3981
 1041SOL    HW214586   4.034   1.297   9.006 -0.4924 -2.2700 -2.4054
 1042SOL     OW14587   2.318   3.449  11.241 -0.0324  0.5232  0.3664
 1042SOL    HW114588   2.273   3.409  11.166  2.3226 -1.0341 -0.2192
 1042SOL    HW214589   2.372   3.520  11.207  0.8290 -0.5251 -0.4259
 1043SOL     OW14590   3.883   0.945   0.422 -0.3327  0.1855  0.4249
 1043SOL    HW114591   3.967   0.992   0.419 -0.2126 -0.0189  0.6190
 1043SOL    HW214592   3.846   0.995   0.349 -1.0852  0.2683  0.8659
 1044SOL     OW14593   1.992   3.403   7.502  0.5857  0.4421  0.1277
 1044SOL    HW114594   1.914   3.424   7.554 -0.0391 -0.6812 -0.3627
 1044SOL    HW214595   2.065   3.432   7.557  0.8121  1.4688 -0.7174
 1045SOL     OW14596   4.603   3.951   2.989  0.4186  0.4603 -0.4442
 1045SOL    HW114597   4.553   3.894   3.048  1.6845 -1.6823 -1.4518
 1045SOL    HW214598   4.543   3.942   2.915  0.1629  2.1989 -0.4444
 1046SOL     OW14599   4.287   4.472  10.106  0.2187 -0.2934 -0.4419
 1046SOL    HW114600   4.356   4.531  10.135 -0.1231 -1.0824  2.0495
 1046SOL    HW214601   4.212   4.494  10.161 -0.2177  1.2244 -1.6567
 1047SOL     OW14602   3.972   1.964   6.865 -0.1547  0.0261 -0.3617
 1047SOL    HW114603   4.046   1.948   6.924 -0.6307 -1.8518 -0.2730
 1047SOL    HW214604   3.944   2.047   6.905 -1.5232 -0.8185  0.4316
 1048SOL     OW14605   1.388   2.916   7.112 -0.3498  0.3103 -0.8485
 1048SOL    HW114606   1.406   3.003   7.074  0.0743  0.6334  0.1047
 1048SOL    HW214607   1.323   2.935   7.179  0.2030  0.6833 -0.4173
 1049SOL     OW14608   0.501   1.047   5.707  0.3280  0.2433  0.0655
 1049SOL    HW114609   0.541   1.093   5.633  0.9228 -1.8213 -0.9169
 1049SOL    HW214610   0.409   1.059   5.684  0.4048  0.8795  0.1123
 1050SOL     OW14611   3.736   1.873   8.847  0.0371  0.5781 -0.2093
 1050SOL    HW114612   3.804   1.881   8.913  0.4605 -2.7519 -0.2077
 1050SOL    HW214613   3.701   1.790   8.881  0.1001  0.6049 -0.0774
 1051SOL     OW14614   0.398   3.582  11.034 -0.1168  0.9218 -0.0177
 1051SOL    HW114615   0.308   3.581  11.000  0.2397  0.6940 -0.9467
 1051SOL    HW214616   0.390   3.667  11.076 -1.5661  0.2922  1.0094
 1052SOL     OW14617   1.041   4.258   4.638  0.8215  0.4894 -0.2751
 1052SOL    HW114618   1.060   4.196   4.567 -1.4193  1.3240 -1.5902
 1052SOL    HW214619   0.957   4.287   4.602  0.1876 -2.0473 -0.8640
 1053SOL     OW14620   3.434   0.434   0.127  0.2638  0.2100 -0.0963
 1053SOL    HW114621   3.391   0.352   0.150 -0.4026  0.4760 -0.3893
 1053SOL    HW214622   3.472   0.413   0.042 -0.3166 -3.2093  0.5114
 1054SOL     OW14623   0.178   3.791  13.531  0.0153 -0.6608  0.4969
 1054SOL    HW114624   0.089   3.763  13.509 -0.4583  0.7470  0.6319
 1054SOL    HW214625   0.183   3.784  13.626  0.6744  2.7841  0.7168
 1055SOL     OW14626   1.630   1.007   2.576 -0.0858  0.3084 -0.5686
 1055SOL    HW114627   1.709   1.057   2.555  0.7677 -0.2814  1.2408
 1055SOL    HW214628   1.570   1.081   2.574 -2.4267 -1.5242  0.6828
 1056SOL     OW14629   4.631   1.975   6.633  0.0817 -0.0044 -0.0283
 1056SOL    HW114630   4.663   1.902   6.686 -1.3732 -1.1541 -0.7540
 1056SOL    HW214631   4.550   1.943   6.596 -0.3114 -1.0454  1.7170
 1057SOL     OW14632   0.376   2.992   4.191 -0.3669 -0.3477  0.3056
 1057SOL    HW114633   0.393   2.941   4.270 -1.2470  1.4520  1.6563
 1057SOL    HW214634   0.406   2.926   4.129 -0.1568  0.2306 -0.2040
 1058SOL     OW14635   1.657   3.838   4.359  0.4412  0.1869  0.2270
 1058SOL    HW114636   1.677   3.766   4.419 -1.1955 -0.8541 -0.4491
 1058SOL    HW214637   1.707   3.909   4.398 -0.8253  0.6576  1.0196
 1059SOL     OW14638   1.120   0.484  11.541 -0.2555  0.1079  0.1488
 1059SOL    HW114639   1.185   0.504  11.474 -0.9165 -4.8455 -2.0246
 1059SOL    HW214640   1.166   0.488  11.625 -0.2331 -0.3994  0.1657
 1060SOL     OW14641   0.795   1.482   2.871  0.0425  0.3112 -0.3974
 1060SOL    HW114642   0.739   1.405   2.882  0.4177  0.2804  1.3221
 1060SOL    HW214643   0.886   1.455   2.883  0.2923  1.6054  0.5790
 1061SOL     OW14644   4.393   0.861   9.555  0.3611 -0.3862 -0.4146
 1061SOL    HW114645   4.433   0.945   9.534 -2.9180  1.2995  0.0421
 1061SOL    HW214646   4.301   0.873   9.529 -0.3289  1.7761  3.1077
 1062SOL     OW14647   3.233   3.224   8.492  0.2371  0.1171  0.1561
 1062SOL    HW114648   3.221   3.130   8.482 -0.9511  0.2070  0.6251
 1062SOL    HW214649   3.142   3.256   8.496  0.5189  1.0538 -0.8489
 1063SOL     OW14650   1.492   2.777   8.184 -0.2971  0.3078 -0.4310
 1063SOL    HW114651   1.400   2.772   8.209 -0.2594 -1.5025 -0.6878
 1063SOL    HW214652   1.524   2.835   8.253 -0.8407  0.3469 -0.2102
 1064SOL     OW14653   0.771   4.126   2.558 -0.6411  0.1198  0.5543
 1064SOL    HW114654   0.762   4.120   2.653 -0.5811 -2.1869  0.4285
 1064SOL    HW214655   0.702   4.184   2.526  0.7285  1.4334  0.0079
 1065SOL     OW14656   1.595   3.044   7.926  0.3979  0.4209  0.5308
 1065SOL    HW114657   1.650   3.014   7.999  0.5145  2.3218  1.2374
 1065SOL    HW214658   1.517   2.991   7.944 -0.0017  0.4985 -1.0101
 1066SOL     OW14659   4.694   3.197   0.620  0.1930 -0.1607 -0.0238
 1066SOL    HW114660   0.024   3.142   0.676 -1.0413 -2.2376 -0.9068
 1066SOL    HW214661   0.038   3.230   0.561  0.3114  1.4814  1.0222
 1067SOL     OW14662   2.334   4.361  13.536 -0.2661 -0.1753  0.3225
 1067SOL    HW114663   2.334   4.331  13.445  1.5871  0.7063  0.0346
 1067SOL    HW214664   2.420   4.404  13.532 -0.0065 -0.8063 -0.9572
 1068SOL     OW14665   0.080   1.941  17.530  0.5898 -0.7849  0.0873
 1068SOL    HW114666   0.060   2.029  17.561  2.7933 -0.0804 -0.4966
 1068SOL    HW214667   0.063   1.951  17.437 -0.4744  1.2101  0.4886
 1069SOL     OW14668   3.416   0.386   8.351  1.1107 -0.2415  0.1643
 1069SOL    HW114669   3.488   0.449   8.353  0.3725  0.6085 -0.3525
 1069SOL    HW214670   3.343   0.446   8.364  0.2250 -1.1194 -0.7740
 1070SOL     OW14671   0.661   1.434   8.511  0.1194  0.7367 -0.3798
 1070SOL    HW114672   0.726   1.364   8.519 -0.4863  0.0367 -1.5730
 1070SOL    HW214673   0.577   1.388   8.508  1.1182 -1.0593 -0.6851
 1071SOL     OW14674   1.023   3.835  17.503 -0.0892  0.3047  0.0411
 1071SOL    HW114675   1.098   3.775  17.511  1.3461  1.7719 -2.7115
 1071SOL    HW214676   0.953   3.771  17.485 -1.5703  1.3981  1.9042
 1072SOL     OW14677   3.448   3.092   3.891  0.0321  0.1495  0.3534
 1072SOL    HW114678   3.391   3.160   3.927  0.5478  0.0980  1.2615
 1072SOL    HW214679   3.528   3.133   3.922 -0.5639  1.3953  0.2387
 1073SOL     OW14680   1.868   1.624  10.872  0.1107  0.7119  0.2094
 1073SOL    HW114681   1.920   1.591  10.799 -1.1436 -0.9575  0.0677
 1073SOL    HW214682   1.782   1.639  10.835 -0.6453  0.2548  1.7792
 1074SOL     OW14683   3.393   0.013   1.951 -0.2884  0.2191 -0.1385
 1074SOL    HW114684   3.461   0.076   1.928 -3.1845  2.0674 -3.7437
 1074SOL    HW214685   3.449   4.671   1.991 -0.4827 -0.1237 -0.4209
 1075SOL     OW14686   4.224   2.001  16.080 -0.1267 -0.2264  0.0562
 1075SOL    HW114687   4.290   1.937  16.054  0.8366  1.0420 -0.6047
 1075SOL    HW214688   4.168   2.011  16.003 -0.3857  0.8641  0.3981
 1076SOL     OW14689   0.387   2.701   3.124  0.3633  0.0941 -0.1741
 1076SOL    HW114690   0.305   2.750   3.119  2.3813  3.3196 -0.9401
 1076SOL    HW214691   0.379   2.642   3.048  1.5692  0.0618 -0.2746
 1077SOL     OW14692   3.432   4.017  16.254 -0.4920 -0.2901 -0.0118
 1077SOL    HW114693   3.368   4.076  16.292 -0.0265  0.6452 -0.6788
 1077SOL    HW214694   3.426   4.040  16.161 -1.3596 -0.1111  0.0899
 1078SOL     OW14695   0.334   2.611   0.709  0.0906  0.0267  0.2413
 1078SOL    HW114696   0.241   2.617   0.730  0.2323  2.6527  0.0454
 1078SOL    HW214697   0.348   2.677   0.641  0.6045 -1.4899 -1.1433
 1079SOL     OW14698   2.649   3.858   2.454  0.0983  0.3456 -0.3343
 1079SOL    HW114699   2.650   3.940   2.405 -0.2621  1.5360  1.6550
 1079SOL    HW214700   2.570   3.874   2.506  1.0533 -2.5582  2.0097
 1080SOL     OW14701   1.295   0.252  11.438 -0.1556 -1.1374  0.1698
 1080SOL    HW114702   1.310   0.319  11.372 -1.0819 -0.5534  0.5486
 1080SOL    HW214703   1.227   0.205  11.390  0.6157 -1.3559 -0.7061
 1081SOL     OW14704   4.532   1.130   7.275 -0.7455 -0.0265  0.0659
 1081SOL    HW114705   4.453   1.080   7.298 -1.0655  0.0767 -0.8101
 1081SOL    HW214706   4.499   1.184   7.203 -1.7755 -0.7649 -0.0117
 1082SOL     OW14707   0.176   2.491   3.052 -0.3990 -0.3557 -0.4664
 1082SOL    HW114708   0.143   2.573   3.090  2.5860  1.5607 -1.9904
 1082SOL    HW214709   0.092   2.448   3.037 -0.4344 -0.2516 -0.5615
 1083SOL     OW14710   2.522   3.182   9.563 -0.0725 -0.0677  0.1428
 1083SOL    HW114711   2.465   3.106   9.572  0.0128  0.0079  1.2558
 1083SOL    HW214712   2.583   3.175   9.637  0.5449  0.0548 -0.3500
 1084SOL     OW14713   0.633   1.306   5.087  0.2081  0.1969 -0.5455
 1084SOL    HW114714   0.566   1.252   5.129  0.5589  0.1462 -0.0666
 1084SOL    HW214715   0.622   1.383   5.143  1.1228  1.7345 -2.4513
 1085SOL     OW14716   2.413   1.826   1.552  0.2660  0.0391  0.2564
 1085SOL    HW114717   2.455   1.893   1.605  0.3846 -0.5119  0.8563
 1085SOL    HW214718   2.411   1.871   1.467  0.3115  0.1874  0.3345
 1086SOL     OW14719   2.796   2.197  11.685 -0.3231 -0.1116  0.2085
 1086SOL    HW114720   2.792   2.220  11.593 -3.9065 -0.0625  0.3867
 1086SOL    HW214721   2.770   2.104  11.687 -0.1751 -0.1341  1.4439
 1087SOL     OW14722   2.844   1.847  14.724  0.3084  0.1063 -0.0210
 1087SOL    HW114723   2.916   1.833  14.785  1.1886  4.2684 -0.1209
 1087SOL    HW214724   2.898   1.911  14.677  0.4618 -0.9343 -1.2634
 1088SOL     OW14725   2.518   0.848   9.197  0.2791 -0.1069 -0.4212
 1088SOL    HW114726   2.493   0.756   9.189 -0.2121 -0.0130  0.0358
 1088SOL    HW214727   2.590   0.848   9.134  0.1013 -0.5865 -0.6278
 1089SOL     OW14728   4.658   4.599   2.655 -0.6871 -0.2669  0.4184
 1089SOL    HW114729   4.644   4.657   2.579  0.3339  1.7358  1.7636
 1089SOL    HW214730   4.657   4.665   2.724  0.5504  0.9805 -0.7492
 1090SOL     OW14731   1.705   3.136   1.409  0.0389 -0.5250 -0.2028
 1090SOL    HW114732   1.697   3.137   1.505 -3.8946  0.6377 -0.5433
 1090SOL    HW214733   1.610   3.146   1.399  0.2049  1.2737  0.0426
 1091SOL     OW14734   3.903   0.722   7.215  0.4696 -0.3863  0.3860
 1091SOL    HW114735   3.971   0.659   7.195 -0.8412 -2.4177  2.3721
 1091SOL    HW214736   3.841   0.705   7.144 -0.5919  2.4045  0.6174
 1092SOL     OW14737   1.836   3.636   7.080 -0.3264 -0.2206 -0.5215
 1092SOL    HW114738   1.840   3.542   7.096 -0.5364  0.0884  1.3335
 1092SOL    HW214739   1.918   3.662   7.123 -0.3965 -0.8836 -0.0038
 1093SOL     OW14740   1.019   2.081   1.590  0.3135 -0.1768  0.6755
 1093SOL    HW114741   1.063   2.126   1.518 -1.1168  1.2004  0.6738
 1093SOL    HW214742   1.004   1.997   1.545 -0.5859  0.3079  0.0683
 1094SOL     OW14743   2.304   2.621  16.772 -0.1093  0.3941 -0.3745
 1094SOL    HW114744   2.299   2.698  16.829  0.9626  0.4544 -0.3714
 1094SOL    HW214745   2.381   2.637  16.718  1.8124  1.2590  2.6093
 1095SOL     OW14746   2.158   1.013   4.901  0.2935 -0.5373 -0.0327
 1095SOL    HW114747   2.235   0.957   4.889 -0.1227 -1.5749  2.0064
 1095SOL    HW214748   2.108   0.969   4.970 -0.3242 -0.8729 -0.6906
 1096SOL     OW14749   2.554   4.616   2.477 -1.3163 -0.0731 -0.8946
 1096SOL    HW114750   2.554   4.541   2.418  1.1318 -0.1294 -0.8238
 1096SOL    HW214751   2.627   4.669   2.445 -0.5972  0.3645  1.5060
 1097SOL     OW14752   2.855   0.044  13.335 -0.2903  0.3484  0.0870
 1097SOL    HW114753   2.927   0.027  13.274 -1.5499 -1.4807 -0.8697
 1097SOL    HW214754   2.869   0.135  13.364  1.6856  0.5564 -1.5183
 1098SOL     OW14755   1.748   0.562   2.185 -0.5087  0.4188  0.5551
 1098SOL    HW114756   1.694   0.634   2.153  0.9157  0.2026 -2.3495
 1098SOL    HW214757   1.836   0.581   2.153 -0.2626  1.3068  1.7973
 1099SOL     OW14758   0.402   4.441   1.883 -0.2346 -0.0708 -0.2316
 1099SOL    HW114759   0.341   4.389   1.937 -0.5209  0.1936 -0.3019
 1099SOL    HW214760   0.440   4.502   1.946 -2.3736 -0.0498  1.0253
 1100SOL     OW14761   3.497   4.451   4.816  0.2156  0.1288  0.4454
 1100SOL    HW114762   3.557   4.397   4.766 -0.5264 -0.2738 -0.0079
 1100SOL    HW214763   3.414   4.420   4.781 -0.3473 -0.1010  1.9829
 1101SOL     OW14764   4.388   3.581   4.977  0.0910 -0.2709  0.3405
 1101SOL    HW114765   4.401   3.609   4.887 -1.2401 -0.9915 -0.0686
 1101SOL    HW214766   4.297   3.552   4.970 -0.4059  1.8204 -1.8986
 1102SOL     OW14767   1.922   1.467   3.514 -0.9352 -0.1836  0.4225
 1102SOL    HW114768   1.921   1.399   3.582 -0.6137 -1.5255 -0.9027
 1102SOL    HW214769   1.829   1.468   3.493 -0.3297  3.2779 -2.1130
 1103SOL     OW14770   0.082   1.657   7.999 -0.3008  0.6680  0.1132
 1103SOL    HW114771   0.067   1.750   8.018 -4.6903 -0.1996  0.9057
 1103SOL    HW214772   0.024   1.607   8.057 -0.8856 -0.0328 -1.0812
 1104SOL     OW14773   1.953   0.297  13.751  0.1954  0.3171 -0.2529
 1104SOL    HW114774   2.016   0.369  13.759 -0.4974  0.7292  1.4878
 1104SOL    HW214775   1.972   0.261  13.665 -2.1172 -1.0101 -0.2176
 1105SOL     OW14776   1.416   3.597   8.232 -0.2528 -0.2749 -0.2493
 1105SOL    HW114777   1.471   3.525   8.263  1.7656  1.2695 -0.2512
 1105SOL    HW214778   1.365   3.614   8.311 -1.8132  3.4725 -2.0576
 1106SOL     OW14779   0.647   3.159   8.936 -0.2862 -0.6300 -0.1740
 1106SOL    HW114780   0.665   3.230   8.874  0.9554  0.1526  1.0918
 1106SOL    HW214781   0.729   3.110   8.944  0.5645  0.8352  0.1241
 1107SOL     OW14782   2.331   2.989   9.580  0.3276 -0.0574 -0.1549
 1107SOL    HW114783   2.264   2.968   9.645 -1.7444 -0.6815 -2.4843
 1107SOL    HW214784   2.350   2.900   9.549  1.0952  0.4652 -1.1834
 1108SOL     OW14785   0.830   1.246   1.343  0.5525  1.0782  0.1075
 1108SOL    HW114786   0.772   1.322   1.354  0.7180  0.9125  2.0825
 1108SOL    HW214787   0.897   1.294   1.294  1.0849 -1.1019 -1.3068
 1109SOL     OW14788   2.228   3.872   3.106 -0.3694 -0.5146 -0.1340
 1109SOL    HW114789   2.276   3.939   3.155 -1.2458  0.5653 -0.7598
 1109SOL    HW214790   2.160   3.924   3.064  0.6869  1.0187  0.0265
 1110SOL     OW14791   0.790   2.293   2.014  0.2960 -0.3258  0.6535
 1110SOL    HW114792   0.700   2.268   1.992  0.5351 -0.7537  0.1450
 1110SOL    HW214793   0.831   2.305   1.928  0.0979 -0.0735  0.5945
 1111SOL     OW14794   2.765   4.680   5.028 -0.0954  0.3389  0.2118
 1111SOL    HW114795   2.831   0.025   5.032 -1.2475  1.4860 -0.3604
 1111SOL    HW214796   2.748   4.672   5.122  0.5906 -0.1138  0.2919
 1112SOL     OW14797   2.376   1.054  13.028 -0.0706 -0.0944 -0.2359
 1112SOL    HW114798   2.375   1.145  13.059  1.5189  0.2512 -1.1932
 1112SOL    HW214799   2.470   1.035  13.036  0.2449  2.2921  1.8977
 1113SOL     OW14800   2.435   3.508  10.060 -0.3281  0.5495 -0.0931
 1113SOL    HW114801   2.480   3.570  10.118 -2.3818  0.9602  1.0726
 1113SOL    HW214802   2.501   3.485   9.994 -0.0532 -0.6316  0.5912
 1114SOL     OW14803   2.281   2.206  12.077 -0.1253  0.8199 -0.2028
 1114SOL    HW114804   2.249   2.213  11.987 -1.0400  0.1573  0.0677
 1114SOL    HW214805   2.223   2.131  12.092  1.0920 -0.2208 -0.6799
 1115SOL     OW14806   1.273   1.943  10.336  0.0140  0.3478 -0.3887
 1115SOL    HW114807   1.303   1.856  10.311 -1.1765 -0.6056  1.5118
 1115SOL    HW214808   1.185   1.932  10.372 -0.2635  0.0767 -1.1427
 1116SOL     OW14809   1.748   4.557   5.452  0.5523 -0.2379 -0.2468
 1116SOL    HW114810   1.812   4.593   5.514 -0.3982  1.5164 -0.2842
 1116SOL    HW214811   1.669   4.600   5.486  0.0019 -0.1745 -1.6377
 1117SOL     OW14812   3.586   0.560   9.237  0.4258  0.2114  0.1502
 1117SOL    HW114813   3.598   0.525   9.148 -0.6155 -1.3590  0.6333
 1117SOL    HW214814   3.498   0.597   9.237  1.2905  2.2692  0.8456
 1118SOL     OW14815   0.921   4.199   5.741 -0.7560  0.2053  0.5935
 1118SOL    HW114816   0.928   4.281   5.692  1.3028 -0.9096 -0.9984
 1118SOL    HW214817   0.945   4.130   5.678  0.1646 -0.6371  1.8629
 1119SOL     OW14818   0.599   1.241   0.358 -0.1744 -0.5435 -0.7355
 1119SOL    HW114819   0.632   1.223   0.446 -0.8100 -1.2575 -0.6426
 1119SOL    HW214820   0.681   1.267   0.318 -0.5610  2.1938  0.2341
 1120SOL     OW14821   1.076   0.488   3.919  0.6772 -0.2123  0.5306
 1120SOL    HW114822   1.079   0.544   3.842 -1.7584 -1.1544 -0.2765
 1120SOL    HW214823   1.167   0.476   3.946  0.9529  0.2843 -0.1953
 1121SOL     OW14824   4.116   0.054  13.538 -0.5904  0.1499 -0.1384
 1121SOL    HW114825   4.035   0.083  13.580  0.8894  0.1032  2.7718
 1121SOL    HW214826   4.173   0.083  13.609 -0.4604 -0.3940 -0.0162
 1122SOL     OW14827   3.497   3.661   8.926 -0.4702  0.2951 -0.5121
 1122SOL    HW114828   3.526   3.659   9.017 -0.8232 -0.1828 -0.4109
 1122SOL    HW214829   3.467   3.751   8.913  2.5595  1.2046 -1.0326
 1123SOL     OW14830   2.470   3.590  13.878 -0.0928  0.0271  0.2254
 1123SOL    HW114831   2.440   3.593  13.969  1.2296  1.2931  0.6101
 1123SOL    HW214832   2.398   3.558  13.824  0.1918  0.8832 -0.6466
 1124SOL     OW14833   0.758   0.002  16.872  0.0428  0.0056  0.3757
 1124SOL    HW114834   0.777   0.002  16.778 -0.9701  1.2120  0.1625
 1124SOL    HW214835   0.842   0.035  16.904 -0.4967  1.8765 -0.1312
 1125SOL     OW14836   2.244   2.900   7.150 -0.6567 -0.1035  0.2162
 1125SOL    HW114837   2.224   2.909   7.057 -1.3716  3.8190  0.7503
 1125SOL    HW214838   2.287   2.815   7.152  0.0122  0.2602  1.0209
 1126SOL     OW14839   2.961   0.793   3.620  0.0241 -0.1420  0.4968
 1126SOL    HW114840   2.881   0.844   3.625 -1.3766 -2.2593 -0.2424
 1126SOL    HW214841   2.925   0.710   3.652  0.2851 -0.0361  1.0807
 1127SOL     OW14842   2.510   4.659   6.507 -0.1713 -0.1641  0.3991
 1127SOL    HW114843   2.469   4.574   6.490  1.9818 -1.3563  1.1359
 1127SOL    HW214844   2.606   4.652   6.504 -0.3609 -2.2828 -1.0248
 1128SOL     OW14845   0.885   3.567  15.091 -0.1201  1.0232 -0.6572
 1128SOL    HW114846   0.970   3.527  15.112 -0.6788  0.2421  0.1254
 1128SOL    HW214847   0.869   3.623  15.167 -1.1754 -2.1000  1.4180
 1129SOL     OW14848   1.468   0.404   7.512  0.4208  0.0570  0.1497
 1129SOL    HW114849   1.419   0.372   7.436 -0.7005 -0.5591  1.1255
 1129SOL    HW214850   1.415   0.479   7.539  0.6066  0.4251 -0.5182
 1130SOL     OW14851   2.303   1.426  16.686 -0.4137 -0.1683  0.0288
 1130SOL    HW114852   2.347   1.436  16.771 -1.6265  0.5548  0.5640
 1130SOL    HW214853   2.228   1.483  16.703 -2.6487 -3.5350  1.4744
 1131SOL     OW14854   2.068   3.731   2.597 -0.1394 -0.6412 -0.2264
 1131SOL    HW114855   2.016   3.667   2.548  1.6643 -1.2114 -1.4450
 1131SOL    HW214856   1.997   3.792   2.616 -0.1328 -1.3401  2.0301
 1132SOL     OW14857   0.407   0.544   7.531  0.3826  0.1843  0.3637
 1132SOL    HW114858   0.371   0.601   7.464 -0.6304 -1.1365 -0.2176
 1132SOL    HW214859   0.433   0.467   7.481  0.4897  0.3941  0.0996
 1133SOL     OW14860   2.346   0.138  16.386  0.3970  0.7826 -0.2787
 1133SOL    HW114861   2.392   0.068  16.340  0.0086  0.0769  0.4055
 1133SOL    HW214862   2.321   0.192  16.311 -1.6894  2.1592  1.4004
 1134SOL     OW14863   3.002   2.911   2.614 -0.1617  0.1431 -0.3488
 1134SOL    HW114864   3.095   2.934   2.616 -0.8533  2.9456 -1.2386
 1134SOL    HW214865   2.999   2.829   2.564  0.1925  0.4434 -0.8579
 1135SOL     OW14866   4.686   2.202  16.419 -0.1891  0.1105  0.1951
 1135SOL    HW114867   4.678   2.106  16.415 -0.6282  0.1443  0.1981
 1135SOL    HW214868   4.669   2.212  16.512  0.9221  1.1315  0.2797
 1136SOL     OW14869   0.350   0.953   1.853 -0.1051 -0.1932  0.5892
 1136SOL    HW114870   0.264   0.992   1.840 -0.2500 -1.0761 -1.0668
 1136SOL    HW214871   0.373   0.995   1.936 -1.3221  0.1846  0.7295
 1137SOL     OW14872   1.182   2.723   4.477 -0.0940 -0.0239  0.1795
 1137SOL    HW114873   1.270   2.749   4.505  0.2356  0.1297 -0.9841
 1137SOL    HW214874   1.140   2.804   4.449 -0.7230 -1.7153 -3.8284
 1138SOL     OW14875   2.617   0.682   7.346  0.2316 -0.0259 -0.2851
 1138SOL    HW114876   2.643   0.709   7.435 -3.2974 -1.1433  1.0812
 1138SOL    HW214877   2.658   0.754   7.298  1.1427 -1.6974 -2.0272
 1139SOL     OW14878   2.574   0.013  13.331 -0.2357 -0.1976  0.1753
 1139SOL    HW114879   2.531   0.094  13.304 -0.9042  0.6445  3.6823
 1139SOL    HW214880   2.664   0.023  13.302 -0.1598 -3.0135 -0.5530
 1140SOL     OW14881   4.451   4.594   0.321  0.2126 -0.4914  0.0465
 1140SOL    HW114882   4.546   4.603   0.318  0.2795 -1.2225  0.0016
 1140SOL    HW214883   4.415   4.678   0.348  0.3052  0.0468 -1.5288
 1141SOL     OW14884   2.197   2.422  15.100 -0.2481  0.4327 -0.6858
 1141SOL    HW114885   2.171   2.504  15.143 -1.5108  0.0010 -0.6100
 1141SOL    HW214886   2.259   2.451  15.033 -0.0949 -0.7158 -1.0354
 1142SOL     OW14887   1.811   3.474   6.380  0.3691 -0.5632  0.4310
 1142SOL    HW114888   1.790   3.384   6.403  0.2789 -0.4439  0.8189
 1142SOL    HW214889   1.883   3.461   6.319 -1.7175  0.9835 -2.3651
 1143SOL     OW14890   2.252   3.082   9.330 -0.0392 -0.0557 -0.0982
 1143SOL    HW114891   2.317   3.111   9.265  0.5036 -0.5970  0.2024
 1143SOL    HW214892   2.307   3.071   9.407  1.8614 -0.2768 -1.4763
 1144SOL     OW14893   2.376   3.893   3.722  0.1620 -0.0550  0.5865
 1144SOL    HW114894   2.400   3.865   3.634  0.1163 -1.2712  0.9642
 1144SOL    HW214895   2.387   3.987   3.706  0.8648 -0.4788 -1.3955
 1145SOL     OW14896   0.690   0.074  13.109 -0.1914  0.0876  0.3281
 1145SOL    HW114897   0.762   0.096  13.049 -1.6077  1.7665 -0.7889
 1145SOL    HW214898   0.670   4.707  13.086 -2.2330  0.6209 -0.0118
 1146SOL     OW14899   3.692   1.394   4.817  0.4677  0.0537  0.2262
 1146SOL    HW114900   3.733   1.310   4.837  0.6500 -0.0491 -0.5550
 1146SOL    HW214901   3.606   1.387   4.859 -0.4022 -0.5251 -1.6396
 1147SOL     OW14902   0.588   1.413  16.608  0.2448  0.5197 -0.1194
 1147SOL    HW114903   0.579   1.441  16.516  0.5594 -0.0105 -0.3091
 1147SOL    HW214904   0.676   1.441  16.633  0.2513 -0.5953  1.0530
 1148SOL     OW14905   1.607   0.746   3.442  0.5513  0.1522  0.2920
 1148SOL    HW114906   1.646   0.741   3.354  0.5250  0.0345  0.2871
 1148SOL    HW214907   1.518   0.769   3.417  0.4109 -0.4169  0.2715
 1149SOL     OW14908   2.064   2.501   1.930  0.0453  0.1898 -0.1421
 1149SOL    HW114909   2.126   2.517   1.860 -0.0402  0.2898 -0.1947
 1149SOL    HW214910   1.980   2.496   1.884 -1.9754  3.1860  3.2448
 1150SOL     OW14911   2.772   0.181   4.688  0.4825  0.4217  0.3041
 1150SOL    HW114912   2.775   0.264   4.736  1.7750 -0.2023  1.3229
 1150SOL    HW214913   2.864   0.155   4.688  0.3413 -0.0820 -0.3159
 1151SOL     OW14914   3.906   1.503   1.602 -0.1671 -0.7909 -1.1102
 1151SOL    HW114915   3.988   1.487   1.556  1.0513  1.9539  0.1231
 1151SOL    HW214916   3.895   1.413   1.635 -1.3878 -0.2875 -0.1354
 1152SOL     OW14917   3.781   1.101  13.846 -0.0920 -0.3180  0.5418
 1152SOL    HW114918   3.802   1.012  13.820  2.1442  0.2114  0.5307
 1152SOL    HW214919   3.869   1.135  13.833  0.2197 -1.3778 -0.0468
 1153SOL     OW14920   1.853   4.087   2.339 -0.3387  0.1096 -0.0525
 1153SOL    HW114921   1.921   4.076   2.273  0.0411 -1.8168  0.6657
 1153SOL    HW214922   1.808   4.157   2.291 -0.3739 -0.3514 -0.6906
 1154SOL     OW14923   4.182   2.042   8.582 -0.1731 -0.0164 -0.2009
 1154SOL    HW114924   4.134   2.107   8.635  0.0963 -0.4622  0.5904
 1154SOL    HW214925   4.218   2.100   8.515  0.1454 -0.3208 -0.2898
 1155SOL     OW14926   1.923   2.916  11.806 -0.4154 -0.4065  0.2031
 1155SOL    HW114927   1.883   3.001  11.825  1.1642  0.5747 -0.8235
 1155SOL    HW214928   2.012   2.926  11.838 -0.2657 -1.3290  0.0622
 1156SOL     OW14929   0.085   3.189   8.144 -0.1809 -0.4640  0.3014
 1156SOL    HW114930   0.000   3.233   8.135  0.5478  0.6053 -1.3698
 1156SOL    HW214931   0.142   3.266   8.141 -2.9761  1.6767  1.1583
 1157SOL     OW14932   2.123   2.789   0.472  0.1676 -0.2389 -0.0739
 1157SOL    HW114933   2.032   2.759   0.465 -0.2260  0.8779  0.1689
 1157SOL    HW214934   2.157   2.753   0.391  0.9045  0.6639 -0.1688
 1158SOL     OW14935   3.091   3.958   1.405  0.0317  0.1876  0.1483
 1158SOL    HW114936   3.045   3.878   1.382 -0.2637  0.4242 -0.0825
 1158SOL    HW214937   3.168   3.922   1.449  0.2355  0.4655  0.0239
 1159SOL     OW14938   2.247   1.258   1.061  0.6035 -0.1803  0.1345
 1159SOL    HW114939   2.290   1.314   1.126  0.3564 -0.8512  0.8893
 1159SOL    HW214940   2.153   1.264   1.079  0.2644  0.5214 -1.9179
 1160SOL     OW14941   0.111   3.823   7.912  0.4559 -0.1208 -0.1107
 1160SOL    HW114942   0.160   3.861   7.985 -1.7663  2.2492  0.1769
 1160SOL    HW214943   0.137   3.874   7.835 -1.2711  1.5780  0.4116
 1161SOL     OW14944   3.272   4.085   5.708 -0.1009  0.4435 -0.2524
 1161SOL    HW114945   3.233   4.063   5.793  0.7132  0.9550  0.2602
 1161SOL    HW214946   3.200   4.136   5.672 -1.8195 -1.9467 -0.1458
 1162SOL     OW14947   0.283   2.335  17.541 -0.4157 -0.0510 -0.1956
 1162SOL    HW114948   0.357   2.329  17.601 -2.2576 -0.4400  2.0334
 1162SOL    HW214949   0.320   2.389  17.471  0.3690 -0.6396 -0.2353
 1163SOL     OW14950   2.661   4.035   5.723 -0.4590  0.8334 -0.4748
 1163SOL    HW114951   2.664   3.944   5.752  0.0770  0.3197 -2.1737
 1163SOL    HW214952   2.640   4.024   5.630  0.2445  0.7033 -0.6205
 1164SOL     OW14953   1.211   2.885   9.073 -0.0434 -0.7512 -0.0804
 1164SOL    HW114954   1.284   2.945   9.085 -1.6290  1.2899 -0.5391
 1164SOL    HW214955   1.227   2.856   8.983  0.4475  1.6062 -0.7777
 1165SOL     OW14956   3.978   2.474  11.050 -0.1982 -0.6309  0.5367
 1165SOL    HW114957   4.045   2.427  10.999 -0.0819 -1.0144  1.0418
 1165SOL    HW214958   4.026   2.553  11.075  0.2987 -0.5319 -0.7348
 1166SOL     OW14959   3.590   0.485   6.148  0.2799 -0.7005  0.0624
 1166SOL    HW114960   3.537   0.549   6.099  0.0157  0.3617  1.7219
 1166SOL    HW214961   3.637   0.544   6.206  1.3731 -2.3365  0.8213
 1167SOL     OW14962   1.659   0.237   9.220 -0.2598  0.6005  0.1666
 1167SOL    HW114963   1.736   0.263   9.171  0.5479  0.7590  1.5415
 1167SOL    HW214964   1.610   0.196   9.148  1.8679 -2.0050  0.2287
 1168SOL     OW14965   4.681   2.160  15.165 -0.3255  0.3099  0.2844
 1168SOL    HW114966   4.657   2.219  15.236 -0.5005 -0.2840  0.7226
 1168SOL    HW214967   4.653   2.077  15.204  0.1004  1.0519  2.2067
 1169SOL     OW14968   1.520   1.455  11.524 -0.1621  0.1926  0.1352
 1169SOL    HW114969   1.445   1.492  11.478  2.0524  2.3491 -1.6840
 1169SOL    HW214970   1.531   1.523  11.590  1.3293 -0.1111  0.2061
 1170SOL     OW14971   4.517   4.539  15.008  0.6240  0.5326 -0.5140
 1170SOL    HW114972   4.438   4.567  15.054  0.5643  2.0758 -1.5419
 1170SOL    HW214973   4.585   4.526  15.074 -1.8814 -0.1957  1.8888
 1171SOL     OW14974   1.975   3.726   6.427 -0.2592 -0.2818 -0.1850
 1171SOL    HW114975   1.933   3.669   6.361  1.4847 -1.0958 -0.5995
 1171SOL    HW214976   2.047   3.666   6.449 -0.5399 -0.8303 -0.7391
 1172SOL     OW14977   0.897   4.570   6.042 -0.2575 -0.1575 -0.1546
 1172SOL    HW114978   0.974   4.616   6.076 -0.4067  1.4370 -2.0269
 1172SOL    HW214979   0.910   4.476   6.055  0.2148 -0.1658 -0.6731
 1173SOL     OW14980   0.359   3.651   2.017  0.0554  0.1640  0.0571
 1173SOL    HW114981   0.426   3.594   1.979 -1.7901 -1.8390 -0.1521
 1173SOL    HW214982   0.282   3.595   2.024  2.1123 -2.6862 -0.3412
 1174SOL     OW14983   2.496   4.281   7.589 -0.0349 -0.6496 -0.2159
 1174SOL    HW114984   2.527   4.192   7.576  0.9576 -0.2369 -0.6717
 1174SOL    HW214985   2.415   4.281   7.538  0.5722 -4.5338 -1.1831
 1175SOL     OW14986   2.863   2.188   3.769  0.1212  0.0492 -0.5029
 1175SOL    HW114987   2.889   2.140   3.691  0.7815 -0.7393  0.2070
 1175SOL    HW214988   2.787   2.233   3.733 -0.2680 -0.7924 -0.7421
 1176SOL     OW14989   4.384   1.813   8.276  0.1038 -0.0188 -0.0738
 1176SOL    HW114990   4.406   1.730   8.319  0.8362 -0.6734 -1.6963
 1176SOL    HW214991   4.469   1.856   8.268 -0.1609  1.0363  2.8382
 1177SOL     OW14992   3.842   0.975   6.905  0.5645  0.6266  0.7519
 1177SOL    HW114993   3.854   1.055   6.854  1.0885 -0.8549 -1.4285
 1177SOL    HW214994   3.896   0.998   6.981 -0.5648 -0.2662  1.8111
 1178SOL     OW14995   1.868   0.875   4.718 -0.5625  0.4158 -0.2926
 1178SOL    HW114996   1.959   0.874   4.689 -0.9881  2.0078 -1.6759
 1178SOL    HW214997   1.831   0.820   4.649  1.3845  0.6462 -1.5214
 1179SOL     OW14998   2.776   2.821  17.409  0.1704  0.1447 -0.6714
 1179SOL    HW114999   2.819   2.884  17.467  2.4292  1.2613 -3.5542
 1179SOL    HW215000   2.775   2.871  17.327  1.3592  1.6199  0.2138
 1180SOL     OW15001   2.323   1.860   5.690 -0.2596 -0.2290  0.1079
 1180SOL    HW115002   2.418   1.864   5.682 -0.1948 -2.3726 -0.0054
 1180SOL    HW215003   2.310   1.847   5.784 -1.2157  1.7542  0.2580
 1181SOL     OW15004   4.620   2.823   2.528 -0.4139  0.2520 -0.1843
 1181SOL    HW115005   4.696   2.878   2.546 -0.1959 -0.4111  0.9582
 1181SOL    HW215006   4.552   2.890   2.526  1.7895  2.4895  0.0118
 1182SOL     OW15007   1.258   1.744   3.233 -0.0634  0.1904 -0.2486
 1182SOL    HW115008   1.349   1.715   3.236 -0.4117 -1.0203 -1.5682
 1182SOL    HW215009   1.239   1.720   3.323  0.8941 -0.0287 -0.1027
 1183SOL     OW15010   1.418   3.204  16.184 -0.5605 -0.0269 -0.2453
 1183SOL    HW115011   1.341   3.229  16.133  0.8140  1.4377 -1.5830
 1183SOL    HW215012   1.361   3.165  16.251 -0.0855  1.9548  1.3196
 1184SOL     OW15013   2.186   1.352   2.235  0.4073  0.7548 -0.5069
 1184SOL    HW115014   2.220   1.314   2.154 -0.1902  3.2797 -1.9184
 1184SOL    HW215015   2.096   1.375   2.212  0.4603  0.5144 -0.9535
 1185SOL     OW15016   3.460   3.911   3.235 -0.2308 -0.4060 -0.4463
 1185SOL    HW115017   3.414   3.840   3.278  1.5126 -0.8694  0.6591
 1185SOL    HW215018   3.509   3.858   3.171  1.2783 -1.1732  1.3380
 1186SOL     OW15019   0.157   0.966   5.760  0.6526 -0.2288 -0.5546
 1186SOL    HW115020   0.087   1.030   5.767  0.4181 -0.5800  0.3894
 1186SOL    HW215021   0.196   0.957   5.847  2.3971 -0.0202 -1.3244
 1187SOL     OW15022   2.834   2.085   2.914 -0.2657  0.0523 -0.1782
 1187SOL    HW115023   2.867   2.102   3.002 -1.0030  0.1034  0.0869
 1187SOL    HW215024   2.757   2.031   2.929  1.6071 -2.4292  0.3219
 1188SOL     OW15025   2.371   4.543   7.817 -0.6521 -0.0456 -0.0925
 1188SOL    HW115026   2.386   4.449   7.811 -1.2058  0.0013 -2.0022
 1188SOL    HW215027   2.372   4.573   7.727  2.0142 -0.7946 -0.3026
 1189SOL     OW15028   2.743   1.464  11.987  0.5142 -0.1737 -0.4656
 1189SOL    HW115029   2.742   1.446  11.893 -2.9848 -0.9680 -0.2669
 1189SOL    HW215030   2.741   1.372  12.014  1.5126 -0.5208 -1.5409
 1190SOL     OW15031   3.698   2.193   2.965 -0.0006  0.1142 -0.4905
 1190SOL    HW115032   3.604   2.205   2.969  0.1763  1.8946 -1.5451
 1190SOL    HW215033   3.733   2.250   2.897 -1.0799 -0.1387 -1.2411
 1191SOL     OW15034   0.468   4.628  12.113 -1.0115  0.6919 -0.2120
 1191SOL    HW115035   0.483   4.707  12.165  0.2228  0.2158  0.1435
 1191SOL    HW215036   0.391   4.646  12.059 -1.0586  2.7428  0.5165
 1192SOL     OW15037   0.260   2.302   5.002  0.4101  0.4144 -0.7596
 1192SOL    HW115038   0.331   2.359   4.973  1.4229 -0.8719 -0.7653
 1192SOL    HW215039   0.313   2.229   5.033 -0.1995  0.0300 -0.6370
 1193SOL     OW15040   1.504   2.327   7.301  0.1857  0.1625 -0.6634
 1193SOL    HW115041   1.499   2.409   7.350  2.0515 -0.3914  0.4630
 1193SOL    HW215042   1.578   2.280   7.340  1.9366  2.1169 -1.6292
 1194SOL     OW15043   2.205   3.718   3.323 -0.5146  0.3023 -0.0822
 1194SOL    HW115044   2.199   3.765   3.240  1.9573  1.0333  0.1607
 1194SOL    HW215045   2.195   3.631   3.283 -1.7847  0.2385  0.3801
 1195SOL     OW15046   0.599   0.065  10.410 -0.4528  0.3201 -0.5453
 1195SOL    HW115047   0.540   4.713  10.416  0.5070 -0.5398 -1.7940
 1195SOL    HW215048   0.597   0.099  10.321  1.1666 -1.8507 -1.4320
 1196SOL     OW15049   0.714   3.980   5.789 -0.5558  0.3148  0.0445
 1196SOL    HW115050   0.687   4.004   5.701  0.7896 -1.5382 -0.8769
 1196SOL    HW215051   0.784   4.044   5.804 -4.0809  3.7587  1.7003
 1197SOL     OW15052   3.099   1.959   7.923 -0.0826  0.6401  0.2490
 1197SOL    HW115053   3.083   1.929   8.012 -0.9728 -1.3043 -0.5655
 1197SOL    HW215054   3.103   1.880   7.870  2.2895 -0.0369  1.4298
 1198SOL     OW15055   1.004   4.027  14.439 -0.1951  0.2752 -0.2918
 1198SOL    HW115056   0.955   4.031  14.357 -0.1436 -1.1406 -0.4075
 1198SOL    HW215057   0.954   4.087  14.494  0.8566  0.2875  0.6690
 1199SOL     OW15058   3.874   3.819   5.017 -0.3175  0.5834 -0.0790
 1199SOL    HW115059   3.808   3.752   5.001 -0.8151  0.4486  2.6634
 1199SOL    HW215060   3.816   3.891   5.041  0.5591  1.0996  0.4837
 1200SOL     OW15061   0.402   1.170   4.219  0.0393 -0.0579  0.2916
 1200SOL    HW115062   0.371   1.243   4.165  0.9105  1.3371  1.7010
 1200SOL    HW215063   0.493   1.173   4.190 -0.3599  3.5681 -0.5517
 1201SOL     OW15064   4.093   0.147  12.399 -0.0899  0.4933  0.6579
 1201SOL    HW115065   4.138   0.063  12.409 -0.2475  0.2690 -0.4933
 1201SOL    HW215066   4.069   0.151  12.307  3.7188 -0.7226 -0.4137
 1202SOL     OW15067   0.660   2.558   7.844 -0.2460 -0.6741 -0.1092
 1202SOL    HW115068   0.748   2.527   7.825  0.1071  0.2954 -0.0563
 1202SOL    HW215069   0.671   2.635   7.900  1.2539 -1.8925  1.2519
 1203SOL     OW15070   2.429   2.889   7.505 -0.4418  0.5273  0.1615
 1203SOL    HW115071   2.421   2.817   7.567  1.8544 -0.9485 -1.2795
 1203SOL    HW215072   2.341   2.916   7.478 -0.8185 -2.7924 -1.9179
 1204SOL     OW15073   1.618   0.166   4.494  0.4474  0.6886  0.3694
 1204SOL    HW115074   1.568   0.159   4.576 -0.4357  0.6377 -0.1803
 1204SOL    HW215075   1.559   0.214   4.437 -1.3920  0.5029  2.1075
 1205SOL     OW15076   4.060   0.913   8.544  0.4408 -0.7621 -0.0290
 1205SOL    HW115077   3.966   0.906   8.564  0.5269  0.3925  0.7471
 1205SOL    HW215078   4.088   0.840   8.599  0.9076 -1.1371 -0.7644
 1206SOL     OW15079   2.051   3.196   2.130 -0.1897 -0.6683  0.0968
 1206SOL    HW115080   2.004   3.218   2.050 -1.8313 -1.8246  0.7481
 1206SOL    HW215081   2.141   3.196   2.096  0.1672  1.6247  1.0579
 1207SOL     OW15082   2.667   2.425   5.768  0.3216 -0.3727  0.8971
 1207SOL    HW115083   2.696   2.493   5.708 -0.4348  0.6022  1.6292
 1207SOL    HW215084   2.573   2.419   5.751  0.4333 -0.8826  0.4512
 1208SOL     OW15085   2.488   4.688   5.715 -0.1203 -0.1148  0.5438
 1208SOL    HW115086   2.523   0.012   5.791 -0.6914 -0.0743  0.7828
 1208SOL    HW215087   2.458   0.043   5.670  3.4523  0.0634 -1.5004
 1209SOL     OW15088   4.080   1.471   4.335 -0.2517  0.2646 -0.3528
 1209SOL    HW115089   4.003   1.454   4.389  1.9853 -2.1799  2.0789
 1209SOL    HW215090   4.067   1.419   4.256  0.4557  0.8904 -0.8815
 1210SOL     OW15091   4.448   3.466   2.549 -0.1036 -0.7169 -0.0449
 1210SOL    HW115092   4.354   3.482   2.536  0.3983  0.9148 -1.6524
 1210SOL    HW215093   4.456   3.437   2.640  1.3800  0.0490  0.0651
 1211SOL     OW15094   2.358   1.839   4.558  0.1778  0.0166  0.2397
 1211SOL    HW115095   2.283   1.864   4.612 -0.6126 -1.7341 -0.0548
 1211SOL    HW215096   2.381   1.761   4.608 -0.9136  0.0010  0.7098
 1212SOL     OW15097   1.802   1.784  11.474 -0.3548  0.0634 -0.6233
 1212SOL    HW115098   1.865   1.842  11.517 -1.0807  0.2661  0.1532
 1212SOL    HW215099   1.748   1.764  11.550  1.4806 -0.3111  0.5867
 1213SOL     OW15100   3.657   2.349   3.824  0.3214 -0.2306  0.4967
 1213SOL    HW115101   3.667   2.276   3.885 -1.7481 -0.6239  0.3856
 1213SOL    HW215102   3.649   2.298   3.743  1.0312 -1.2277  1.0653
 1214SOL     OW15103   1.122   3.667  14.711 -1.0959 -0.0180 -0.3305
 1214SOL    HW115104   1.189   3.599  14.708  1.7705  2.8125 -0.3266
 1214SOL    HW215105   1.154   3.725  14.780  0.3468  0.8544 -1.7530
 1215SOL     OW15106   2.520   3.188   6.439  0.2178 -0.2807 -0.2318
 1215SOL    HW115107   2.465   3.110   6.449 -0.5653  0.3104  0.0508
 1215SOL    HW215108   2.464   3.254   6.480  0.8233  1.4208 -2.1172
 1216SOL     OW15109   2.509   3.238   5.120  0.6718 -0.1069  0.1163
 1216SOL    HW115110   2.417   3.223   5.100  1.0000 -1.7575 -0.1611
 1216SOL    HW215111   2.546   3.263   5.035 -0.2559 -1.2856 -0.6280
 1217SOL     OW15112   3.696   3.345  13.388  0.6340  0.9028  0.0141
 1217SOL    HW115113   3.705   3.272  13.327  0.2130  0.6221  0.2822
 1217SOL    HW215114   3.747   3.314  13.463  2.2816  0.2045 -1.3971
 1218SOL     OW15115   4.535   0.734   4.129  0.3122  0.8090  0.2502
 1218SOL    HW115116   4.525   0.787   4.208 -0.4159  0.9753  0.0394
 1218SOL    HW215117   4.630   0.736   4.113  0.1001  0.0890 -1.0589
 1219SOL     OW15118   3.109   4.117   9.298 -0.3233 -0.2362  0.0330
 1219SOL    HW115119   3.046   4.172   9.344 -1.5936 -0.1286 -1.8492
 1219SOL    HW215120   3.185   4.174   9.312  0.7323 -1.0425 -2.4837
 1220SOL     OW15121   1.148   3.217   7.646  0.5445 -0.0555 -0.5096
 1220SOL    HW115122   1.149   3.194   7.739 -0.0593  0.3528 -0.4051
 1220SOL    HW215123   1.068   3.169   7.622  0.8535  0.2132 -2.0652
 1221SOL     OW15124   2.801   1.458  10.976  0.8061  0.8587 -0.3057
 1221SOL    HW115125   2.835   1.545  10.954 -0.0969  1.0420 -1.0084
 1221SOL    HW215126   2.753   1.482  11.054 -1.1942 -2.1963 -0.6005
 1222SOL     OW15127   3.279   3.464   5.467  0.1142 -0.0437 -0.0325
 1222SOL    HW115128   3.300   3.553   5.437 -0.8249  0.9178  2.1437
 1222SOL    HW215129   3.365   3.422   5.463 -0.5281 -1.4558  0.9364
 1223SOL     OW15130   3.911   0.383   7.394  0.7168  0.0275 -0.3390
 1223SOL    HW115131   3.952   0.386   7.480 -1.6356 -0.3962  0.8034
 1223SOL    HW215132   3.862   0.301   7.401  2.6533 -1.2659 -1.9611
 1224SOL     OW15133   0.519   2.388   7.629 -0.5346 -0.0655  0.0805
 1224SOL    HW115134   0.587   2.410   7.693  1.0890  1.2866 -2.1240
 1224SOL    HW215135   0.485   2.473   7.599  0.0549  1.0475  2.5721
 1225SOL     OW15136   3.360   3.011   5.690  0.8400 -0.1525  0.2696
 1225SOL    HW115137   3.422   3.079   5.665  0.8239 -0.7840 -1.5043
 1225SOL    HW215138   3.401   2.976   5.768 -0.7602 -1.6134  0.4573
 1226SOL     OW15139   0.660   4.584   7.287  0.4417 -0.0200 -0.5199
 1226SOL    HW115140   0.690   4.493   7.288  1.8666  0.4903  1.9331
 1226SOL    HW215141   0.632   4.597   7.196  1.1994  1.8601 -0.4818
 1227SOL     OW15142   4.277   3.279   8.160 -0.4858  0.2245 -0.4336
 1227SOL    HW115143   4.229   3.352   8.199 -1.6392 -1.0659  0.5612
 1227SOL    HW215144   4.219   3.269   8.084  1.2977  1.7893 -1.9734
 1228SOL     OW15145   1.928   4.568   3.973  0.6468 -0.1321 -0.1685
 1228SOL    HW115146   1.869   4.493   3.971  0.7293 -0.2403  1.6777
 1228SOL    HW215147   1.971   4.540   4.054  1.2995  1.1219 -0.0835
 1229SOL     OW15148   4.254   0.562   6.526  0.0790 -0.4420  0.0608
 1229SOL    HW115149   4.282   0.543   6.615 -0.1180  1.7383  0.5715
 1229SOL    HW215150   4.230   0.473   6.500 -1.0540 -0.2127  0.3424
 1230SOL     OW15151   1.734   1.269  15.000  0.1151 -0.3036  0.1945
 1230SOL    HW115152   1.664   1.324  14.963 -1.6374 -0.0659  3.8638
 1230SOL    HW215153   1.742   1.320  15.081 -0.4386  0.4393 -0.2127
 1231SOL     OW15154   0.066   4.428   8.839 -0.3755 -0.4474  0.1789
 1231SOL    HW115155   0.129   4.407   8.908 -0.5601 -1.9586 -0.1149
 1231SOL    HW215156   0.029   4.512   8.866  0.4967 -0.8413  2.6532
 1232SOL     OW15157   3.660   1.709   6.893 -0.3957  0.2842 -0.1162
 1232SOL    HW115158   3.682   1.626   6.851 -0.9693  0.2616 -0.3693
 1232SOL    HW215159   3.660   1.762   6.813  1.4507  1.3793  0.6043
 1233SOL     OW15160   2.455   0.833   6.414 -0.6574 -0.1620 -0.3756
 1233SOL    HW115161   2.367   0.870   6.423 -1.6672 -2.0459 -2.3916
 1233SOL    HW215162   2.490   0.847   6.502 -1.6216  2.6776 -0.4667
 1234SOL     OW15163   0.569   1.556   3.022  0.1401 -0.7253 -0.7392
 1234SOL    HW115164   0.657   1.521   3.031 -1.0573 -3.4808  0.2621
 1234SOL    HW215165   0.558   1.575   2.929  0.3937 -0.9174 -0.8086
 1235SOL     OW15166   1.449   3.220   2.738 -0.1553 -0.4306  0.4538
 1235SOL    HW115167   1.415   3.136   2.706 -1.7148  0.5059 -0.3333
 1235SOL    HW215168   1.534   3.198   2.778 -0.2746 -2.0057 -0.1304
 1236SOL     OW15169   0.196   0.866   4.292  0.1404 -0.4104  0.2635
 1236SOL    HW115170   0.120   0.814   4.318  0.2052  0.1658  1.5977
 1236SOL    HW215171   0.164   0.955   4.277  0.6731  0.3848  3.8678
 1237SOL     OW15172   3.668   1.189  14.301 -0.1144  0.5069 -0.1278
 1237SOL    HW115173   3.621   1.129  14.359  1.1310  0.2573  0.6411
 1237SOL    HW215174   3.631   1.180  14.214 -0.0263 -0.1352 -0.0976
 1238SOL     OW15175   4.403   1.815   6.582  0.0966 -0.0136  0.0817
 1238SOL    HW115176   4.343   1.889   6.583  3.7236  2.9347 -3.2287
 1238SOL    HW215177   4.338   1.754   6.549  1.3497 -0.7217 -1.1046
 1239SOL     OW15178   3.718   4.644  11.277 -0.4597  0.7551 -0.0273
 1239SOL    HW115179   3.708   0.003  11.230  0.8688  0.6113 -0.5391
 1239SOL    HW215180   3.734   4.593  11.198  2.6836 -0.9505  1.7411
 1240SOL     OW15181   3.624   3.933   8.017  0.2392 -0.0189 -0.2102
 1240SOL    HW115182   3.614   3.876   8.093 -0.8686  0.2451 -0.1628
 1240SOL    HW215183   3.606   3.878   7.941 -0.7801  0.5674 -0.4054
 1241SOL     OW15184   2.598   1.147   7.510 -0.0996 -0.4996  0.3476
 1241SOL    HW115185   2.616   1.118   7.599  0.0819 -0.9707  0.1582
 1241SOL    HW215186   2.512   1.109   7.496 -0.4681  0.0596  1.0723
 1242SOL     OW15187   3.945   4.455   4.213 -0.0735  0.4801 -0.1821
 1242SOL    HW115188   3.970   4.370   4.249  1.5362  1.2036  0.4183
 1242SOL    HW215189   3.894   4.481   4.290 -1.3866 -1.9318 -0.2520
 1243SOL     OW15190   1.432   0.616   8.067  0.1943 -0.0471 -0.0682
 1243SOL    HW115191   1.501   0.586   8.009  0.4535  3.8310 -1.7654
 1243SOL    HW215192   1.442   0.709   8.046  1.1745 -0.6388 -2.2185
 1244SOL     OW15193   0.735   3.892   8.053  0.0547  0.3018  0.0065
 1244SOL    HW115194   0.666   3.949   8.018 -0.2387  0.5030  0.9086
 1244SOL    HW215195   0.693   3.864   8.135  0.4294 -1.6865 -0.4803
 1245SOL     OW15196   0.161   3.134   7.820  0.4998  0.0459 -0.4966
 1245SOL    HW115197   0.085   3.146   7.877 -0.0025  2.7298 -1.7489
 1245SOL    HW215198   0.225   3.192   7.862  0.0851  0.7627 -0.8429
 1246SOL     OW15199   0.337   0.643   6.222 -0.3558  0.4575 -0.1589
 1246SOL    HW115200   0.363   0.558   6.186  0.6825  0.1683  1.2687
 1246SOL    HW215201   0.244   0.630   6.207 -0.0107 -0.7789 -1.2716
 1247SOL     OW15202   3.878   3.789   9.269 -0.5593  0.3863 -0.0155
 1247SOL    HW115203   3.935   3.740   9.328 -0.2944 -0.8912 -1.3356
 1247SOL    HW215204   3.939   3.846   9.221  0.5080 -0.4925  0.3148
 1248SOL     OW15205   3.032   2.208  10.046 -1.0263  0.4562  0.5929
 1248SOL    HW115206   3.091   2.261   9.992  1.4816  0.2619  3.1829
 1248SOL    HW215207   2.983   2.151   9.986  0.3650  0.3301 -0.4092
 1249SOL     OW15208   1.378   3.566  12.222  0.5506  0.3498 -0.2328
 1249SOL    HW115209   1.407   3.475  12.214 -0.0343  0.3325 -2.2259
 1249SOL    HW215210   1.286   3.544  12.239  0.1145 -0.0006 -2.9463
 1250SOL     OW15211   0.084   3.836  16.872 -0.0254  0.3685  0.1695
 1250SOL    HW115212   0.043   3.896  16.810  0.6324  0.3734 -0.2696
 1250SOL    HW215213   0.022   3.769  16.900  0.5251 -0.5733 -0.9045
 1251SOL     OW15214   2.166   0.663  15.153 -0.3734  0.0676 -0.1871
 1251SOL    HW115215   2.199   0.683  15.241 -1.1613 -2.1891  0.6250
 1251SOL    HW215216   2.091   0.613  15.185  0.1495 -0.9350 -0.5437
 1252SOL     OW15217   3.811   1.538   9.062 -0.0414 -0.4358  0.5307
 1252SOL    HW115218   3.758   1.616   9.072 -1.5763 -1.3514 -0.3471
 1252SOL    HW215219   3.889   1.568   9.014 -0.9663 -1.8745 -1.9094
 1253SOL     OW15220   3.916   4.311   8.086  0.1029  0.4924  0.4238
 1253SOL    HW115221   3.865   4.323   8.166  3.4174  0.4286  2.5520
 1253SOL    HW215222   3.932   4.217   8.083  2.1390  0.7584  2.9628
 1254SOL     OW15223   1.288   0.137   5.280  0.0844 -0.5354  0.3847
 1254SOL    HW115224   1.334   0.196   5.340  1.6775 -1.5685  0.1866
 1254SOL    HW215225   1.208   0.132   5.333  0.1519 -1.9505  0.3679
 1255SOL     OW15226   1.827   2.219  16.530  0.1150  0.4449 -0.0867
 1255SOL    HW115227   1.852   2.305  16.565  0.6686  0.9746 -1.7740
 1255SOL    HW215228   1.771   2.253  16.459 -1.3566  0.6193  1.1567
 1256SOL     OW15229   2.298   4.305  12.077 -0.1624  0.4440 -0.1136
 1256SOL    HW115230   2.298   4.275  11.986  0.1643  0.1219 -0.0051
 1256SOL    HW215231   2.204   4.320  12.089 -0.4127 -0.3542 -1.1148
 1257SOL     OW15232   4.387   0.985   7.715 -0.2290 -0.1562 -0.0169
 1257SOL    HW115233   4.318   0.928   7.682  1.6009 -1.0885 -2.2906
 1257SOL    HW215234   4.457   0.919   7.720  1.4731  1.5847 -0.8912
 1258SOL     OW15235   0.599   2.990   7.435 -0.3545 -0.1088 -0.1816
 1258SOL    HW115236   0.633   2.903   7.457  0.1710 -0.0302 -0.6583
 1258SOL    HW215237   0.505   2.973   7.432 -0.5554  0.5767  2.2794
 1259SOL     OW15238   2.800   1.551   8.709 -0.6111 -0.1979 -0.4683
 1259SOL    HW115239   2.777   1.512   8.793 -0.4727  3.6572  1.3442
 1259SOL    HW215240   2.754   1.635   8.712  1.5432  0.9881 -0.7506
 1260SOL     OW15241   2.520   1.603   1.677 -0.0523 -0.4698  0.2159
 1260SOL    HW115242   2.491   1.679   1.626  2.5791  1.0761  0.9997
 1260SOL    HW215243   2.441   1.568   1.718 -0.9344  1.5799  0.2611
 1261SOL     OW15244   3.049   0.266   0.243  0.1130  0.1678  0.2556
 1261SOL    HW115245   3.011   0.232   0.323 -0.2162  1.3954  0.6309
 1261SOL    HW215246   3.142   0.263   0.264  0.1714  2.4443  0.3886
 1262SOL     OW15247   0.758   1.295   4.857 -0.2322  0.0134 -0.5031
 1262SOL    HW115248   0.696   1.287   4.785  0.6546  0.8120 -1.3601
 1262SOL    HW215249   0.695   1.301   4.928 -0.3290  1.9700 -0.7648
 1263SOL     OW15250   2.350   3.469   3.543 -0.4666 -0.2713  0.5192
 1263SOL    HW115251   2.282   3.529   3.574 -0.7983 -0.1932 -0.3694
 1263SOL    HW215252   2.290   3.419   3.489  1.8199 -0.1978 -2.0788
 1264SOL     OW15253   2.490   1.596   6.126  0.0180 -0.0934 -0.0374
 1264SOL    HW115254   2.418   1.621   6.184  1.2087  1.2398  0.8611
 1264SOL    HW215255   2.449   1.516   6.092  0.7633  0.4954 -2.3454
 1265SOL     OW15256   1.203   1.470   8.680 -0.3166 -0.0395 -0.3288
 1265SOL    HW115257   1.293   1.478   8.648 -0.7882  0.4491 -1.5358
 1265SOL    HW215258   1.201   1.530   8.755 -0.6214 -0.4700  0.0066
 1266SOL     OW15259   1.023   0.938   5.464 -0.0079  0.1717  0.2183
 1266SOL    HW115260   1.110   0.930   5.425  0.9340  1.3162  2.0874
 1266SOL    HW215261   0.975   0.875   5.409  0.6702  0.7785 -1.0743
 1267SOL     OW15262   3.540   2.038   4.103 -0.0962 -0.3156 -0.6290
 1267SOL    HW115263   3.600   2.088   4.049  0.0871 -1.5993 -1.6129
 1267SOL    HW215264   3.476   2.021   4.034 -0.7419 -0.2840 -0.0498
 1268SOL     OW15265   4.663   3.034   5.380 -0.3206  0.8712 -0.2389
 1268SOL    HW115266   4.609   3.112   5.365 -0.6831  0.6937  0.1348
 1268SOL    HW215267   4.659   2.987   5.296 -0.3512  0.2212  0.1250
 1269SOL     OW15268   4.349   0.999  10.510 -0.1068 -0.1718  0.1222
 1269SOL    HW115269   4.298   1.069  10.549  1.6180  0.4454  1.2586
 1269SOL    HW215270   4.282   0.935  10.486  0.9308 -1.2764  0.1210
 1270SOL     OW15271   3.945   4.699   3.001  0.1048 -0.0499  0.2900
 1270SOL    HW115272   4.030   4.663   3.028  0.2130  1.1911  1.5462
 1270SOL    HW215273   3.968   0.066   2.982  1.2910  0.0675  2.2658
 1271SOL     OW15274   4.018   3.722   2.953 -0.1102  0.1168 -0.6029
 1271SOL    HW115275   4.026   3.805   2.905 -0.5575  2.3703  3.2155
 1271SOL    HW215276   3.990   3.762   3.035 -2.0910 -0.9731 -0.7714
 1272SOL     OW15277   2.834   4.373   9.113 -0.0437  0.5307 -0.4619
 1272SOL    HW115278   2.816   4.295   9.166 -1.4218  0.7362 -0.6205
 1272SOL    HW215279   2.918   4.406   9.145  0.3491 -0.3852 -0.5551
 1273SOL     OW15280   2.723   3.055   1.518  0.1326 -0.0325  0.1303
 1273SOL    HW115281   2.675   3.089   1.443  0.4285 -0.1031 -0.0908
 1273SOL    HW215282   2.741   2.964   1.493  0.1163  0.4678 -1.6373
 1274SOL     OW15283   3.859   0.224  14.474 -0.0561  0.5683  0.1987
 1274SOL    HW115284   3.947   0.261  14.487 -0.1079  1.0013 -0.7135
 1274SOL    HW215285   3.818   0.310  14.476  3.0956  2.0401  1.9282
 1275SOL     OW15286   3.027   0.206  11.771 -0.6832  0.0790  0.3336
 1275SOL    HW115287   2.996   0.279  11.718 -0.5884 -0.2124 -0.1221
 1275SOL    HW215288   3.106   0.234  11.818 -2.3653  0.5761  2.8258
 1276SOL     OW15289   4.138   3.407   6.442  0.2285  1.0634  0.0172
 1276SOL    HW115290   4.154   3.439   6.531  2.5074 -0.1417  0.0564
 1276SOL    HW215291   4.225   3.379   6.413 -0.7217 -3.0715  1.1681
 1277SOL     OW15292   3.612   0.755   7.855  0.3382 -0.0348 -0.0828
 1277SOL    HW115293   3.653   0.798   7.930  0.4090  0.7430 -0.5796
 1277SOL    HW215294   3.563   0.681   7.893  1.2858  0.0085  1.2263
 1278SOL     OW15295   2.162   0.406   1.331  0.5075 -0.1828 -0.2282
 1278SOL    HW115296   2.146   0.321   1.291 -1.1651 -0.7425  1.6360
 1278SOL    HW215297   2.249   0.432   1.301  1.4546 -0.6294  2.0934
 1279SOL     OW15298   0.822   3.677   6.667 -0.0324 -0.4962 -0.4142
 1279SOL    HW115299   0.795   3.745   6.729 -1.5827 -0.5590 -1.0341
 1279SOL    HW215300   0.741   3.652   6.623  0.1256  0.1680 -1.0880
 1280SOL     OW15301   3.440   4.521   5.841  0.2043  0.0486 -0.0817
 1280SOL    HW115302   3.358   4.478   5.815  0.4834 -0.7864  0.4330
 1280SOL    HW215303   3.503   4.473   5.788 -2.1661 -0.4680 -2.4666
 1281SOL     OW15304   1.650   1.569  12.485  0.2130  0.1686  0.7152
 1281SOL    HW115305   1.743   1.593  12.487  1.2905 -4.2283  1.8450
 1281SOL    HW215306   1.647   1.474  12.483  1.0638  0.1549  0.3703
 1282SOL     OW15307   3.439   4.438   3.790  0.5303 -0.7306  0.3429
 1282SOL    HW115308   3.511   4.394   3.836  1.0976 -0.1449  0.0200
 1282SOL    HW215309   3.419   4.367   3.730  3.2273 -1.3809  0.2059
 1283SOL     OW15310   3.495   2.145   9.154 -0.1952  0.4142  0.1001
 1283SOL    HW115311   3.476   2.052   9.164  1.4798  0.1708  1.0258
 1283SOL    HW215312   3.534   2.152   9.067 -1.3573 -0.0773 -0.4512
 1284SOL     OW15313   1.412   3.987   2.617 -0.2595 -0.0182  0.0244
 1284SOL    HW115314   1.346   3.923   2.645  0.6794  0.1923  2.7158
 1284SOL    HW215315   1.481   3.921   2.617 -0.0673  0.1798 -2.0548
 1285SOL     OW15316   1.006   2.904   8.292 -0.2387 -0.8504  0.2679
 1285SOL    HW115317   1.032   2.996   8.299 -1.6340 -0.3577 -1.0232
 1285SOL    HW215318   0.916   2.914   8.326 -0.7448 -1.6536 -0.8394
 1286SOL     OW15319   0.434   2.595   7.465  0.2242  0.2618 -0.2614
 1286SOL    HW115320   0.375   2.593   7.390  1.9253 -3.2958 -1.4800
 1286SOL    HW215321   0.426   2.678   7.513  0.8445  0.2024 -0.0474
 1287SOL     OW15322   4.613   4.694   6.513 -0.2496  0.6071  0.0121
 1287SOL    HW115323   4.699   4.713   6.550 -0.2862 -0.2985  0.5711
 1287SOL    HW215324   4.588   4.623   6.573  0.9740  0.5401  0.4381
 1288SOL     OW15325   1.322   2.861  14.827 -0.1518 -0.2348 -0.0046
 1288SOL    HW115326   1.416   2.862  14.846 -0.2694  1.5495  0.4935
 1288SOL    HW215327   1.292   2.952  14.827 -0.0679 -0.2065  0.9823
 1289SOL     OW15328   2.053   4.672  12.172  0.1293  0.1156  0.1451
 1289SOL    HW115329   2.019   4.702  12.088  0.0304 -1.5650 -0.4113
 1289SOL    HW215330   2.111   0.021  12.195  0.5668 -0.0066 -0.5640
 1290SOL     OW15331   2.051   0.249   1.858  0.1596  0.2146 -0.4136
 1290SOL    HW115332   1.985   0.311   1.887 -1.7400 -0.2242 -3.8249
 1290SOL    HW215333   2.009   0.218   1.777 -0.2838  1.0861 -0.5160
 1291SOL     OW15334   1.454   2.653   9.221  0.0646 -0.1041 -0.0444
 1291SOL    HW115335   1.404   2.648   9.139  2.2378 -0.1962 -1.3555
 1291SOL    HW215336   1.386   2.667   9.287  1.4061  1.6555  0.9759
 1292SOL     OW15337   0.970   1.439   5.248 -0.0060 -0.3952  0.0131
 1292SOL    HW115338   0.962   1.436   5.153  1.4986  2.0821 -0.1884
 1292SOL    HW215339   1.056   1.400   5.262 -0.1678 -0.1307  1.8399
 1293SOL     OW15340   0.788   1.842   4.285  0.0980  0.4359 -0.3686
 1293SOL    HW115341   0.697   1.869   4.295  0.2602  0.2771  1.5340
 1293SOL    HW215342   0.813   1.798   4.366 -0.5066  2.2632  0.7949
 1294SOL     OW15343   4.005   4.267   8.921 -0.9197 -0.1767  0.0466
 1294SOL    HW115344   4.074   4.297   8.979 -3.3506  1.0947  2.2885
 1294SOL    HW215345   3.948   4.209   8.972  0.3031 -0.2245  1.3699
 1295SOL     OW15346   2.080   0.915   4.023 -0.6140 -0.2131  0.2305
 1295SOL    HW115347   2.153   0.958   3.979 -0.1501  0.3579  1.5593
 1295SOL    HW215348   2.060   0.845   3.961 -1.0103  2.1557 -2.3725
 1296SOL     OW15349   0.933   2.320  12.297  0.0279  0.1690  0.7071
 1296SOL    HW115350   0.897   2.261  12.231 -0.4316  0.4711  0.6902
 1296SOL    HW215351   0.905   2.279  12.379 -0.1656  0.3028  0.7062
 1297SOL     OW15352   0.379   2.178   7.513 -0.1669  0.0551 -0.1097
 1297SOL    HW115353   0.407   2.222   7.593 -0.0652  0.0245 -0.1293
 1297SOL    HW215354   0.332   2.101   7.544  1.3805 -0.6089  0.5466
 1298SOL     OW15355   0.489   4.237   5.043  0.4641  0.2565 -0.2972
 1298SOL    HW115356   0.552   4.293   5.088  2.9671 -2.3650 -0.5117
 1298SOL    HW215357   0.413   4.294   5.050  0.5890  0.4137 -0.2433
 1299SOL     OW15358   4.172   2.292   7.946  0.2036  0.3139  0.1794
 1299SOL    HW115359   4.172   2.374   7.994  2.2323  1.1081 -1.1716
 1299SOL    HW215360   4.243   2.239   7.982 -1.0271 -0.4014  1.5639
 1300SOL     OW15361   0.851   3.338   5.538 -0.1217  0.0704  0.8450
 1300SOL    HW115362   0.874   3.377   5.453  0.7825  0.4996  1.2796
 1300SOL    HW215363   0.928   3.289   5.567 -0.4059 -1.3133 -0.7452
 1301SOL     OW15364   0.892   0.192   7.170 -0.4326 -0.0122  0.4950
 1301SOL    HW115365   0.797   0.202   7.179 -0.4095 -0.2536  0.9753
 1301SOL    HW215366   0.913   0.272   7.121  0.8252 -0.5921  0.0911
 1302SOL     OW15367   3.074   3.069  17.137  0.3143  0.6093 -0.3300
 1302SOL    HW115368   2.983   3.047  17.120  0.4782  1.3024 -2.0933
 1302SOL    HW215369   3.090   3.092  17.045 -5.5156 -0.3923 -1.5611
 1303SOL     OW15370   0.901   3.361   5.107 -0.2089  0.5809 -0.2985
 1303SOL    HW115371   0.829   3.396   5.161  0.7969  0.7564  0.9344
 1303SOL    HW215372   0.860   3.371   5.021  1.8272  0.5377 -1.2485
 1304SOL     OW15373   2.875   2.649   8.257 -0.2623 -0.0492 -0.2677
 1304SOL    HW115374   2.914   2.572   8.299 -1.6748 -0.5203  0.1681
 1304SOL    HW215375   2.952   2.686   8.213 -0.1002 -0.6845 -0.5236
 1305SOL     OW15376   0.873   3.071  11.124 -0.2169 -0.7976 -0.0785
 1305SOL    HW115377   0.785   3.041  11.148 -0.4763  0.8525  1.0032
 1305SOL    HW215378   0.920   3.035  11.199 -0.4552 -2.4697 -0.7447
 1306SOL     OW15379   4.418   2.434   4.720 -0.0812 -0.3665 -0.3156
 1306SOL    HW115380   4.405   2.443   4.626  2.4027  1.4404 -0.5039
 1306SOL    HW215381   4.385   2.345   4.719  1.5338 -0.9810  1.2591
 1307SOL     OW15382   2.679   4.149   6.693  0.1437  0.2543  0.2045
 1307SOL    HW115383   2.607   4.184   6.745 -1.0124  0.1314 -1.3230
 1307SOL    HW215384   2.680   4.210   6.619 -0.6365 -0.6881 -0.5779
 1308SOL     OW15385   1.470   3.117   9.965 -0.5114  0.1241  0.0774
 1308SOL    HW115386   1.428   3.061   9.899 -1.8235 -0.1637  1.1510
 1308SOL    HW215387   1.429   3.075  10.041 -0.6002 -1.1101 -0.6549
 1309SOL     OW15388   1.084   0.916   6.686  0.2888  0.5983 -0.4760
 1309SOL    HW115389   1.135   0.987   6.646 -0.9734  1.8275  0.0927
 1309SOL    HW215390   1.130   0.838   6.657  0.3597  0.2106  0.7124
 1310SOL     OW15391   0.464   2.097   8.290 -0.1902 -0.1688 -0.0893
 1310SOL    HW115392   0.453   2.182   8.247  2.2927 -1.3781 -3.0831
 1310SOL    HW215393   0.415   2.101   8.372 -1.0256  2.2522 -0.7079
 1311SOL     OW15394   2.728   2.067   6.460 -0.0113  0.0556  0.5153
 1311SOL    HW115395   2.730   1.981   6.501  3.2838 -0.9413 -1.7149
 1311SOL    HW215396   2.718   2.120   6.539  0.0942  0.3138  0.3583
 1312SOL     OW15397   0.213   1.256  14.661 -0.0289  0.0158  0.5729
 1312SOL    HW115398   0.254   1.173  14.640  1.0063  0.3378  1.3781
 1312SOL    HW215399   0.204   1.238  14.755 -2.3117  0.4764  0.4542
 1313SOL     OW15400   3.794   3.055   5.939  0.2394 -0.0813  0.1770
 1313SOL    HW115401   3.750   3.135   5.967 -1.2626 -0.3635 -1.3930
 1313SOL    HW215402   3.828   3.021   6.022  0.1477  0.6815  0.5272
 1314SOL     OW15403   0.927   4.324   6.422  0.2370 -0.0199 -0.2883
 1314SOL    HW115404   0.889   4.261   6.360 -1.4376  1.2556 -0.5641
 1314SOL    HW215405   0.986   4.376   6.367 -0.4895  0.0743 -0.9845
 1315SOL     OW15406   1.052   2.693   6.756 -0.4043  0.1666 -0.0067
 1315SOL    HW115407   1.087   2.619   6.706 -1.0036 -0.1080 -0.0249
 1315SOL    HW215408   0.959   2.696   6.733 -0.4767  1.2940  0.4078
 1316SOL     OW15409   4.670   4.369   5.057 -0.3158  0.4405 -0.8727
 1316SOL    HW115410   4.659   4.449   5.005  1.1304  1.1551 -0.0837
 1316SOL    HW215411   4.643   4.412   5.139 -0.6253 -0.9396 -0.2452
 1317SOL     OW15412   4.040   0.528   9.730 -0.0306 -0.1227 -0.5574
 1317SOL    HW115413   4.101   0.487   9.669  0.8391 -0.2523  0.4130
 1317SOL    HW215414   4.095   0.603   9.751 -0.6043  0.5989 -1.6325
 1318SOL     OW15415   3.328   0.142   9.209  0.0885 -0.9044  0.3353
 1318SOL    HW115416   3.302   0.078   9.275 -1.2243  0.1179  0.8284
 1318SOL    HW215417   3.283   0.213   9.256 -2.1363 -0.6150 -2.1964
 1319SOL     OW15418   2.618   2.845   3.218 -0.1972  0.1854  0.5899
 1319SOL    HW115419   2.701   2.842   3.170 -0.9270  1.6877 -0.7464
 1319SOL    HW215420   2.569   2.903   3.161  0.7679  0.4269  0.0061
 1320SOL     OW15421   3.574   0.661   1.833  0.1721  0.3911 -0.4917
 1320SOL    HW115422   3.617   0.628   1.754 -1.6350 -1.0694 -0.8584
 1320SOL    HW215423   3.618   0.592   1.883  0.0720 -0.0861 -1.0628
 1321SOL     OW15424   0.481   2.810   4.017  0.5317 -0.6321 -0.0101
 1321SOL    HW115425   0.451   2.861   3.942  0.7643  0.8316  0.9113
 1321SOL    HW215426   0.415   2.741   4.025 -0.3099  0.5491  3.3576
 1322SOL     OW15427   2.563   2.146  10.571 -0.0183  0.0590 -0.8654
 1322SOL    HW115428   2.573   2.053  10.551  0.9034  0.0224 -0.2177
 1322SOL    HW215429   2.502   2.173  10.502  0.0250  0.7960 -0.6189
 1323SOL     OW15430   3.196   3.953   8.444  0.1901  0.1926 -0.1635
 1323SOL    HW115431   3.189   3.926   8.353 -0.6790 -1.0937  0.2869
 1323SOL    HW215432   3.263   4.022   8.439 -0.2037  0.5924  0.0905
 1324SOL     OW15433   2.094   2.369   3.026 -0.0865  0.8840 -0.6614
 1324SOL    HW115434   2.161   2.379   3.094 -0.3345  0.5797 -0.3725
 1324SOL    HW215435   2.017   2.409   3.067 -0.8116 -0.9733 -0.1781
 1325SOL     OW15436   2.243   0.499  10.226  0.0604  0.3189  0.2145
 1325SOL    HW115437   2.314   0.458  10.277 -2.0081 -1.8527  1.3581
 1325SOL    HW215438   2.226   0.429  10.163 -0.4175  0.9374 -0.3397
 1326SOL     OW15439   0.433   0.781  12.972  0.4616  0.6855  0.2296
 1326SOL    HW115440   0.403   0.690  12.965  2.9942 -0.1274 -0.0527
 1326SOL    HW215441   0.437   0.781  13.068 -1.6308  2.0628  0.3187
 1327SOL     OW15442   2.104   1.318   6.568  0.4500 -0.0869  0.2835
 1327SOL    HW115443   2.093   1.379   6.494 -3.4685 -0.8622  0.1948
 1327SOL    HW215444   2.196   1.295   6.571  0.3756 -0.5240 -0.8427
 1328SOL     OW15445   0.324   4.628   7.114  0.5560  0.2861  0.7367
 1328SOL    HW115446   0.411   4.596   7.092  0.1809 -0.3295  0.1442
 1328SOL    HW215447   0.313   4.572   7.191 -1.4450 -0.3320  0.0045
 1329SOL     OW15448   3.822   3.561   4.149 -0.5168 -0.2788  0.2090
 1329SOL    HW115449   3.795   3.580   4.059 -2.1665 -0.5278  0.6532
 1329SOL    HW215450   3.809   3.643   4.197  0.8896  1.1631 -1.9027
 1330SOL     OW15451   4.144   3.614   9.277 -0.3233  0.2434  0.0642
 1330SOL    HW115452   4.130   3.520   9.286  3.1696 -0.3499 -0.5055
 1330SOL    HW215453   4.131   3.650   9.365 -2.6076 -2.5538  0.8877
 1331SOL     OW15454   0.481   0.217  11.009  0.3750 -0.2361  0.7456
 1331SOL    HW115455   0.437   0.151  11.062  2.5281 -2.8900 -0.7656
 1331SOL    HW215456   0.505   0.277  11.079 -0.9653 -1.5674  2.3333
 1332SOL     OW15457   1.673   4.186  12.400 -0.3316  0.0626  0.8628
 1332SOL    HW115458   1.758   4.182  12.355 -1.0245  0.8081 -0.5167
 1332SOL    HW215459   1.669   4.275  12.433  1.1725  0.5921 -0.3736
 1333SOL     OW15460   2.519   4.706  10.675 -0.3171 -0.2243 -0.1146
 1333SOL    HW115461   2.564   4.628  10.705  0.1195 -0.7691 -2.1557
 1333SOL    HW215462   2.482   0.020  10.755  1.0961  0.9092 -0.0047
 1334SOL     OW15463   4.042   1.132  11.044 -0.0916  0.2749 -0.6409
 1334SOL    HW115464   4.122   1.090  11.076 -0.5628  0.2819  0.5439
 1334SOL    HW215465   3.983   1.057  11.039 -0.2048  0.2167  1.4564
 1335SOL     OW15466   3.685   0.569   8.565 -0.1148  0.1892  0.0380
 1335SOL    HW115467   3.597   0.558   8.602 -0.7698  2.6833 -0.7999
 1335SOL    HW215468   3.710   0.645   8.617 -1.4439 -1.0504  2.4999
 1336SOL     OW15469   1.996   2.151   5.713 -0.2043 -0.5107  0.4774
 1336SOL    HW115470   1.906   2.171   5.688 -0.5388 -1.2717  1.0904
 1336SOL    HW215471   1.991   2.061   5.746  0.1683 -0.2085  1.3495
 1337SOL     OW15472   2.072   3.540  11.138 -0.5205  0.0934 -0.9616
 1337SOL    HW115473   2.000   3.584  11.094 -0.0073  0.9538 -0.9294
 1337SOL    HW215474   2.134   3.613  11.139 -0.7268  0.2640 -0.0794
 1338SOL     OW15475   0.277   4.706   5.345  0.2194  0.7691 -0.3415
 1338SOL    HW115476   0.254   0.005   5.255 -1.5117  0.6161  0.0688
 1338SOL    HW215477   0.340   0.052   5.365  0.6088  1.1111 -2.7870
 1339SOL     OW15478   0.839   1.216   2.617  0.1558 -0.0871  0.4312
 1339SOL    HW115479   0.892   1.265   2.680  1.3251 -0.0958 -0.5320
 1339SOL    HW215480   0.851   1.130   2.658 -1.5315 -0.6259 -0.2115
 1340SOL     OW15481   2.138   0.257   5.430  0.2711 -0.2206 -0.0188
 1340SOL    HW115482   2.143   0.246   5.335 -0.8580 -0.8985  0.0039
 1340SOL    HW215483   2.085   0.336   5.435 -1.0332 -1.1394  0.6694
 1341SOL     OW15484   1.833   4.122  13.849 -0.1151  0.5467 -0.0464
 1341SOL    HW115485   1.858   4.030  13.858 -0.9694  0.0743 -2.5108
 1341SOL    HW215486   1.797   4.143  13.935  0.1667 -3.1301  0.9714
 1342SOL     OW15487   1.727   3.930  11.280 -0.4869 -0.6557  0.0083
 1342SOL    HW115488   1.650   3.900  11.231  0.4013  0.1730 -1.8955
 1342SOL    HW215489   1.791   3.864  11.253  1.5130  1.5536 -0.6590
 1343SOL     OW15490   4.493   0.984   8.330 -0.1797 -0.6086 -0.6643
 1343SOL    HW115491   4.516   1.073   8.305 -1.3403  0.6352  2.6326
 1343SOL    HW215492   4.402   0.978   8.303  0.6729 -0.2907 -3.5564
 1344SOL     OW15493   1.363   0.092  14.322 -0.4367 -0.0035 -0.6779
 1344SOL    HW115494   1.286   0.051  14.282 -1.7565  1.5721  0.2591
 1344SOL    HW215495   1.340   0.185  14.314 -0.6802  0.0872  0.9576
 1345SOL     OW15496   3.873   3.583   8.460 -0.5717  0.1990 -0.2975
 1345SOL    HW115497   3.869   3.490   8.485 -0.8220  0.3556  0.2381
 1345SOL    HW215498   3.904   3.618   8.544  0.0443  0.0577 -0.4675
 1346SOL     OW15499   3.243   3.606   8.049  0.6854  0.1562  0.2188
 1346SOL    HW115500   3.249   3.651   7.965  0.0139  1.8796  1.1085
 1346SOL    HW215501   3.269   3.517   8.024  3.0178  1.5084 -2.1394
 1347SOL     OW15502   0.161   0.479   8.426 -0.1169 -0.6952 -0.4654
 1347SOL    HW115503   0.166   0.474   8.521  1.8032  0.4121 -0.4876
 1347SOL    HW215504   0.250   0.507   8.401  0.6768 -0.5373  2.5682
 1348SOL     OW15505   3.180   4.665  16.034 -0.5341 -0.1631  0.0523
 1348SOL    HW115506   3.094   4.622  16.031  0.1854 -1.5478 -0.7834
 1348SOL    HW215507   3.225   4.598  15.983 -0.9015  0.6119 -1.2853
 1349SOL     OW15508   3.723   3.240  10.104 -0.0620  0.7045 -0.0962
 1349SOL    HW115509   3.679   3.270  10.183 -0.5517  0.6782 -0.3624
 1349SOL    HW215510   3.794   3.304  10.092 -0.7942  1.1093 -2.3656
 1350SOL     OW15511   2.915   2.421  17.377 -0.6551 -0.7452  0.5283
 1350SOL    HW115512   2.906   2.479  17.452  1.9545 -0.6482  0.7782
 1350SOL    HW215513   2.935   2.483  17.306  1.4106  0.0586  1.8179
 1351SOL     OW15514   4.096   1.615   6.151 -0.0181 -0.2717 -0.4759
 1351SOL    HW115515   4.123   1.531   6.187  0.4141  1.5126  3.4460
 1351SOL    HW215516   4.182   1.656   6.148 -0.0960 -0.1339 -0.7665
 1352SOL     OW15517   4.435   3.192   5.266  0.0880 -0.2741  0.2310
 1352SOL    HW115518   4.377   3.120   5.292 -0.4345 -0.3196 -1.0542
 1352SOL    HW215519   4.384   3.225   5.192  1.5322 -0.2792 -0.7649
 1353SOL     OW15520   3.607   1.231   1.561 -0.4863 -0.1985 -0.6831
 1353SOL    HW115521   3.512   1.239   1.556 -0.4851 -0.0221 -0.4240
 1353SOL    HW215522   3.622   1.223   1.655  1.3409  1.5395 -0.8225
 1354SOL     OW15523   0.870   2.331   7.971 -0.0113  0.4832 -0.4290
 1354SOL    HW115524   0.856   2.388   8.047 -1.1620  1.3163 -1.2689
 1354SOL    HW215525   0.808   2.261   7.991 -3.4720  3.4003 -1.0697
 1355SOL     OW15526   1.900   1.348   3.957  0.4692 -0.5388  0.6879
 1355SOL    HW115527   1.945   1.292   4.019 -0.2094 -1.4731  0.3358
 1355SOL    HW215528   1.919   1.435   3.993 -3.3345  1.8384 -3.0065
 1356SOL     OW15529   4.178   1.378   8.255 -0.1428  0.2667 -0.4025
 1356SOL    HW115530   4.188   1.365   8.161 -0.8403  0.0067 -0.4408
 1356SOL    HW215531   4.162   1.287   8.280 -0.7710  0.3311 -0.5858
 1357SOL     OW15532   2.605   3.538   3.459 -0.3051 -0.2644 -0.3192
 1357SOL    HW115533   2.601   3.526   3.364 -2.6603 -1.4432 -0.0671
 1357SOL    HW215534   2.518   3.507   3.483  0.0878 -0.2794  1.0701
 1358SOL     OW15535   1.624   3.690   1.090 -0.2282  0.3580 -0.2841
 1358SOL    HW115536   1.684   3.618   1.108  2.4572  2.4114 -1.0496
 1358SOL    HW215537   1.623   3.740   1.172 -2.1420 -0.8498  0.4502
 1359SOL     OW15538   0.373   0.846   5.943 -0.0978  0.0746  0.2014
 1359SOL    HW115539   0.457   0.808   5.915 -1.1751 -0.9726 -1.5610
 1359SOL    HW215540   0.310   0.775   5.932 -0.1365  0.1666 -0.1641
 1360SOL     OW15541   3.472   3.374   7.132  0.0289 -0.3758 -0.3374
 1360SOL    HW115542   3.380   3.378   7.109 -0.2678  0.0472  0.9366
 1360SOL    HW215543   3.483   3.455   7.181 -1.3809  0.2067 -0.9995
 1361SOL     OW15544   1.075   1.118  13.164 -0.2287 -0.4149 -0.4962
 1361SOL    HW115545   1.085   1.093  13.256  0.0825  0.8522 -0.1948
 1361SOL    HW215546   0.995   1.069  13.145  0.9014 -1.2084 -3.1479
 1362SOL     OW15547   3.610   1.017  14.499  0.0216  0.4445 -0.2499
 1362SOL    HW115548   3.610   1.058  14.585 -1.1506 -0.3931  0.1425
 1362SOL    HW215549   3.536   0.956  14.501 -0.0173  0.4893 -0.3140
 1363SOL     OW15550   1.913   3.719   8.653  0.2242  0.0688 -0.7842
 1363SOL    HW115551   2.003   3.691   8.639 -0.0581  0.3000 -3.1658
 1363SOL    HW215552   1.899   3.723   8.747 -0.3685  1.3963 -0.9304
 1364SOL     OW15553   2.620   3.411  11.725  0.3881  0.2540  0.2320
 1364SOL    HW115554   2.538   3.382  11.686  0.1867  3.3370 -1.6198
 1364SOL    HW215555   2.673   3.391  11.648  0.3339 -0.5824  0.4091
 1365SOL     OW15556   1.197   2.880   6.873  0.3245 -0.1372  0.3009
 1365SOL    HW115557   1.160   2.796   6.846  0.6407 -0.5243  1.0670
 1365SOL    HW215558   1.184   2.883   6.968 -0.6743 -1.2883  0.1978
 1366SOL     OW15559   3.286   2.133   5.305 -0.1764  0.3641  0.7930
 1366SOL    HW115560   3.310   2.123   5.212 -0.8173  1.2498  0.5409
 1366SOL    HW215561   3.374   2.162   5.329 -0.0178 -0.2024  0.9025
 1367SOL     OW15562   3.555   3.258   6.230  0.0103 -0.3639  0.3291
 1367SOL    HW115563   3.600   3.279   6.149  0.6069 -0.6730  0.5823
 1367SOL    HW215564   3.626   3.260   6.294  1.5413  0.8041 -1.4100
 1368SOL     OW15565   4.417   3.191  17.105 -0.1397 -0.2624 -0.4575
 1368SOL    HW115566   4.322   3.204  17.097  0.0281  0.0254 -1.9930
 1368SOL    HW215567   4.437   3.148  17.022 -0.3858 -0.2689 -0.5138
 1369SOL     OW15568   1.641   0.172   5.355  0.5289 -0.3882 -0.3801
 1369SOL    HW115569   1.633   0.207   5.266  1.2636  0.7833  0.0178
 1369SOL    HW215570   1.723   0.124   5.339  0.6879 -1.0172  2.3575
 1370SOL     OW15571   2.013   1.605   5.831  0.1518  0.2738  0.0804
 1370SOL    HW115572   1.979   1.643   5.911  0.6926 -2.0988  1.4385
 1370SOL    HW215573   1.931   1.597   5.783  0.7903  0.5087 -1.0606
 1371SOL     OW15574   0.518   4.188  14.810  0.1158 -0.9665 -0.0866
 1371SOL    HW115575   0.554   4.274  14.790 -0.2424 -1.2866 -2.1634
 1371SOL    HW215576   0.600   4.154  14.846  0.0819 -0.9586 -0.0021
 1372SOL     OW15577   3.855   1.246   0.484  0.1043  0.2058 -0.0715
 1372SOL    HW115578   3.919   1.247   0.413  1.6971 -2.3348  1.3189
 1372SOL    HW215579   3.773   1.228   0.439 -0.3936  0.2449  0.8216
 1373SOL     OW15580   4.514   0.218   3.305 -0.1513 -0.4136  0.2429
 1373SOL    HW115581   4.560   0.295   3.337 -2.9416  1.6215 -0.6198
 1373SOL    HW215582   4.524   0.154   3.375  3.0399 -1.0962 -0.8489
 1374SOL     OW15583   3.984   4.394   3.191  0.0063 -0.0474 -1.0570
 1374SOL    HW115584   3.937   4.461   3.240 -0.1240  0.5450 -1.9950
 1374SOL    HW215585   4.064   4.437   3.159 -0.9618  1.9492 -0.7604
 1375SOL     OW15586   2.806   1.622   9.531  0.1655 -0.4178 -0.4723
 1375SOL    HW115587   2.806   1.645   9.624 -1.1182 -2.2631 -0.0138
 1375SOL    HW215588   2.880   1.562   9.534  1.8909  1.6650 -1.1990
 1376SOL     OW15589   2.753   3.697   1.444  0.3904  0.3944 -0.0035
 1376SOL    HW115590   2.779   3.777   1.490  1.3781 -0.9786  1.8264
 1376SOL    HW215591   2.729   3.637   1.515 -2.1281  1.9315  0.4697
 1377SOL     OW15592   1.949   1.396   2.103 -0.6864 -0.3615 -0.1406
 1377SOL    HW115593   1.864   1.367   2.136 -0.6408  0.1382  0.4034
 1377SOL    HW215594   1.929   1.369   2.013 -1.9404  0.3650 -0.0754
 1378SOL     OW15595   2.212   3.318   8.200  0.6317  0.1951  0.6071
 1378SOL    HW115596   2.196   3.400   8.154 -0.7215  0.2149  1.1209
 1378SOL    HW215597   2.306   3.303   8.189  0.5258  1.4672 -2.0798
 1379SOL     OW15598   0.099   3.196   5.112  0.0975  0.2062 -0.2464
 1379SOL    HW115599   0.037   3.161   5.176  1.5157  1.1654  1.6567
 1379SOL    HW215600   0.066   3.286   5.104  0.3804  0.2710 -0.7576
 1380SOL     OW15601   0.372   2.164   3.449  0.3488 -0.5200 -0.5527
 1380SOL    HW115602   0.319   2.237   3.417  0.4690  1.1457  3.0940
 1380SOL    HW215603   0.437   2.154   3.379  0.4602  0.8900 -0.6642
 1381SOL     OW15604   0.871   0.182   0.140 -0.7494 -0.1506 -0.3217
 1381SOL    HW115605   0.957   0.192   0.180 -0.9464 -1.4825  0.4496
 1381SOL    HW215606   0.810   0.208   0.209 -0.6502 -3.2408  0.9678
 1382SOL     OW15607   4.264   4.259   6.329  0.4845  0.3374  0.4535
 1382SOL    HW115608   4.217   4.325   6.279  3.7743  1.4267 -1.2196
 1382SOL    HW215609   4.349   4.301   6.316  0.6621  0.2827  1.3818
 1383SOL     OW15610   0.228   0.561   8.069  0.1101  0.0072 -0.0523
 1383SOL    HW115611   0.262   0.547   7.981 -2.2732  1.9240 -1.3011
 1383SOL    HW215612   0.309   0.539   8.114  0.4167  1.1072 -0.0644
 1384SOL     OW15613   2.918   1.144   1.372  0.0820 -0.8885  0.6774
 1384SOL    HW115614   2.839   1.148   1.318 -0.8139  1.1454  2.1519
 1384SOL    HW215615   2.965   1.222   1.344  0.7833 -0.3453  3.2924
 1385SOL     OW15616   0.722   0.730   9.300  0.5266  0.0214  0.0981
 1385SOL    HW115617   0.719   0.825   9.288  1.7264  0.0717  0.2075
 1385SOL    HW215618   0.778   0.715   9.376  0.0951  2.8256  0.9683
 1386SOL     OW15619   3.518   0.712  16.528  0.2778 -0.1325  0.1050
 1386SOL    HW115620   3.537   0.620  16.543  1.0506 -0.0204 -0.1639
 1386SOL    HW215621   3.445   0.707  16.467  1.1022 -1.0960 -0.7915
 1387SOL     OW15622   1.315   1.301  14.732 -0.0620 -0.0664 -0.5295
 1387SOL    HW115623   1.364   1.226  14.699  0.9797 -0.3427  1.6530
 1387SOL    HW215624   1.224   1.272  14.722 -0.3299  0.7184 -0.3981
 1388SOL     OW15625   3.302   0.800   7.122 -0.0588 -0.0299  0.1205
 1388SOL    HW115626   3.220   0.763   7.092  0.3844  0.5945 -1.8472
 1388SOL    HW215627   3.264   0.831   7.204 -1.2920  0.0608 -0.4890
 1389SOL     OW15628   0.513   4.292  14.271 -0.0250  0.0903 -0.2726
 1389SOL    HW115629   0.484   4.383  14.278 -2.5344 -0.7668  0.5139
 1389SOL    HW215630   0.494   4.257  14.358  0.5225 -0.0386 -0.2074
 1390SOL     OW15631   0.737   4.508   6.528  0.8821 -0.1562  0.4178
 1390SOL    HW115632   0.761   4.595   6.494 -0.3335 -0.1625 -0.4515
 1390SOL    HW215633   0.811   4.465   6.484 -0.2868  0.6624 -2.3413
 1391SOL     OW15634   0.145   2.028  14.755 -0.0982 -0.1191  0.0663
 1391SOL    HW115635   0.054   2.000  14.750  0.4124 -1.5756 -1.0044
 1391SOL    HW215636   0.147   2.087  14.831 -0.8612 -1.3905  1.0617
 1392SOL     OW15637   1.240   2.301  14.998 -0.1374  0.6863 -0.2561
 1392SOL    HW115638   1.241   2.380  14.944  0.8935  1.6794  1.2248
 1392SOL    HW215639   1.318   2.257  14.963 -0.3065  0.3340 -0.1942
 1393SOL     OW15640   4.097   1.341   4.621 -0.0669  0.0523  0.4825
 1393SOL    HW115641   4.005   1.336   4.596  0.3200  1.3318 -1.1685
 1393SOL    HW215642   4.089   1.342   4.716 -1.0839  0.0489  0.3922
 1394SOL     OW15643   1.482   3.568  17.567  0.3237  0.0422 -0.2613
 1394SOL    HW115644   1.523   3.500  17.512  1.4513  0.3404  0.2091
 1394SOL    HW215645   1.459   3.510  17.639 -2.1182  0.0217 -1.0494
 1395SOL     OW15646   1.302   3.186  14.851  0.3701 -0.0862 -0.0557
 1395SOL    HW115647   1.285   3.236  14.771 -1.1590  2.0888  1.6138
 1395SOL    HW215648   1.396   3.174  14.850  0.4329  0.3811  1.4924
 1396SOL     OW15649   4.322   3.112   2.312  0.0801  0.3508  0.4893
 1396SOL    HW115650   4.383   3.179   2.282  0.2312  0.0014  0.0304
 1396SOL    HW215651   4.350   3.034   2.265 -0.2697 -0.5978  1.8663
 1397SOL     OW15652   1.909   4.612   2.566  0.3968 -0.5300 -0.7067
 1397SOL    HW115653   1.838   4.671   2.538  0.6697  0.1393  0.0211
 1397SOL    HW215654   1.978   4.651   2.512 -0.7616  1.1257 -1.0063
 1398SOL     OW15655   3.012   3.527   3.498  0.0033  0.2237  0.3719
 1398SOL    HW115656   2.980   3.564   3.416  0.2572 -0.2006  0.0800
 1398SOL    HW215657   3.057   3.447   3.472 -0.1571  0.3524 -0.2894
 1399SOL     OW15658   2.353   2.293   4.984  0.1041  0.4150 -0.0808
 1399SOL    HW115659   2.398   2.218   5.023 -0.6855  0.7722  1.5058
 1399SOL    HW215660   2.421   2.361   4.988  0.3178  0.3052 -1.9472
 1400SOL     OW15661   0.792   4.159  11.380 -0.2760 -0.0407  0.4263
 1400SOL    HW115662   0.722   4.209  11.421 -2.9938 -2.9456 -0.6303
 1400SOL    HW215663   0.752   4.132  11.297  3.6239 -0.5543 -1.2733
 1401SOL     OW15664   1.598   1.704   2.713 -0.7530  0.2910  0.3076
 1401SOL    HW115665   1.674   1.692   2.771  0.3612 -1.6365 -1.5311
 1401SOL    HW215666   1.640   1.759   2.648 -0.1429  0.5463  0.9120
 1402SOL     OW15667   0.691   2.964   5.529 -0.1561 -0.7451 -0.2071
 1402SOL    HW115668   0.724   2.974   5.618 -3.4402 -0.4148  0.9805
 1402SOL    HW215669   0.777   2.956   5.488  0.2732 -3.3286  1.1715
 1403SOL     OW15670   2.206   0.126   8.980 -0.3585  0.5139  0.6740
 1403SOL    HW115671   2.229   0.121   9.073 -0.8334  0.4107  0.7842
 1403SOL    HW215672   2.166   0.041   8.960  0.8777  0.0263  0.2473
 1404SOL     OW15673   1.265   3.317   4.692 -0.3802  0.1237  0.3038
 1404SOL    HW115674   1.266   3.350   4.782  3.1820  0.8815 -0.0255
 1404SOL    HW215675   1.219   3.388   4.647 -0.6848 -1.6918 -2.1944
 1405SOL     OW15676   3.208   0.009   2.198 -0.0950  0.0304  0.2618
 1405SOL    HW115677   3.247   0.019   2.111 -0.0771  0.2463  0.2948
 1405SOL    HW215678   3.128   0.056   2.174  0.7603  1.1284 -0.4525
 1406SOL     OW15679   4.511   1.019   2.349 -0.4639  0.4022  0.0439
 1406SOL    HW115680   4.438   0.984   2.299 -1.0266  2.8857 -0.8966
 1406SOL    HW215681   4.465   1.042   2.430 -2.0021 -0.8984 -0.4671
 1407SOL     OW15682   4.159   4.715   4.503  0.3329  0.0025  0.8473
 1407SOL    HW115683   4.084   4.718   4.444  1.7923  2.0391 -0.8959
 1407SOL    HW215684   4.175   4.621   4.506  1.4039  0.1273 -0.9554
 1408SOL     OW15685   3.511   3.404   3.916  0.7460  0.2696 -0.2549
 1408SOL    HW115686   3.569   3.477   3.894  3.2660 -1.5473  0.4512
 1408SOL    HW215687   3.579   3.337   3.925  1.5417  0.9379 -1.2339
 1409SOL     OW15688   4.546   4.720   5.427 -0.0092 -0.1262  0.5712
 1409SOL    HW115689   4.481   0.042   5.481 -2.7696 -2.2723 -0.9105
 1409SOL    HW215690   4.496   4.638   5.430  2.0630 -1.3630  1.4775
 1410SOL     OW15691   0.436   3.867   8.849  0.1002 -0.1547 -0.5422
 1410SOL    HW115692   0.371   3.797   8.857  0.4466 -0.4038  0.0968
 1410SOL    HW215693   0.413   3.891   8.759  1.2017  1.9713 -0.2547
 1411SOL     OW15694   4.239   4.551   5.946  0.4646 -0.3579  0.3779
 1411SOL    HW115695   4.308   4.553   6.011 -1.1188 -1.9885  2.1066
 1411SOL    HW215696   4.256   4.465   5.906  1.4568  0.0156 -0.0038
 1412SOL     OW15697   2.615   3.736  12.265  0.5089 -0.4841 -0.2354
 1412SOL    HW115698   2.639   3.775  12.181  2.0715  0.8683  0.8413
 1412SOL    HW215699   2.536   3.788  12.283  0.1372 -1.1060 -0.0761
 1413SOL     OW15700   1.519   1.222  13.577 -0.3759  0.0558  0.1500
 1413SOL    HW115701   1.532   1.191  13.487 -2.1579  0.7389 -0.3395
 1413SOL    HW215702   1.593   1.281  13.593 -0.1064 -1.2013  3.3877
 1414SOL     OW15703   3.417   1.484  13.783  0.3112 -0.4604 -0.2852
 1414SOL    HW115704   3.377   1.484  13.870  1.4042  0.1148  0.2161
 1414SOL    HW215705   3.468   1.403  13.785  1.1477  0.1200  1.5795
 1415SOL     OW15706   1.007   0.449   7.440  0.0870 -0.3650 -0.4410
 1415SOL    HW115707   0.937   0.502   7.478 -0.3751 -0.5679 -0.9999
 1415SOL    HW215708   1.063   0.514   7.398 -0.8412  0.9595  0.3789
 1416SOL     OW15709   4.514   1.127   8.592  0.1134 -0.1158  0.2769
 1416SOL    HW115710   4.489   1.051   8.539  0.2717 -1.1559  1.7115
 1416SOL    HW215711   4.533   1.190   8.523 -0.7488 -0.4141 -0.2457
 1417SOL     OW15712   3.142   2.286   6.483 -0.9360  0.0404  0.1229
 1417SOL    HW115713   3.060   2.269   6.529 -1.5050  0.0630 -0.8874
 1417SOL    HW215714   3.187   2.205   6.507 -0.0926 -0.5464 -3.4291
 1418SOL     OW15715   4.613   2.781   5.519  0.0018 -0.2906  0.0053
 1418SOL    HW115716   4.641   2.868   5.490 -2.7927  0.3850 -0.6506
 1418SOL    HW215717   4.695   2.733   5.509  0.1180 -0.3842  1.3605
 1419SOL     OW15718   0.536   3.943   2.773  0.5775  0.0414 -0.2218
 1419SOL    HW115719   0.503   3.885   2.705 -0.7936  0.3451  0.1834
 1419SOL    HW215720   0.506   4.030   2.747  0.1369  0.4491  1.6580
 1420SOL     OW15721   2.823   4.575   4.787  0.5288 -0.1076 -0.1904
 1420SOL    HW115722   2.887   4.644   4.769  0.4516  0.0642  0.1984
 1420SOL    HW215723   2.804   4.602   4.877 -0.0487  0.3356 -0.4507
 1421SOL     OW15724   3.719   1.660   5.315  0.1399 -0.5874 -0.3640
 1421SOL    HW115725   3.757   1.599   5.378  2.4341  1.2066 -0.0102
 1421SOL    HW215726   3.803   1.679   5.273 -0.9865 -0.2939 -2.4745
 1422SOL     OW15727   1.828   1.218   8.119  0.7972 -0.2955 -0.4878
 1422SOL    HW115728   1.742   1.193   8.153 -0.3808  0.5946 -2.8256
 1422SOL    HW215729   1.859   1.262   8.198 -1.5857  0.6305 -0.0648
 1423SOL     OW15730   2.050   3.445   6.688  0.2634  0.0948 -0.0006
 1423SOL    HW115731   1.960   3.473   6.671  0.3431  0.9939  1.0453
 1423SOL    HW215732   2.072   3.510   6.756  2.3119 -1.0364  0.4218
 1424SOL     OW15733   2.268   1.614   2.246  0.4780 -0.0229  0.0598
 1424SOL    HW115734   2.232   1.622   2.158 -1.2418  1.1265  0.8556
 1424SOL    HW215735   2.254   1.520   2.253  3.5209 -0.5240 -0.8045
 1425SOL     OW15736   1.602   0.187   8.683  0.0589 -0.2000 -0.2543
 1425SOL    HW115737   1.554   0.132   8.621 -1.6797 -0.4338  1.2831
 1425SOL    HW215738   1.675   0.128   8.700  0.7722 -0.0652 -2.8305
 1426SOL     OW15739   2.114   0.731  15.457 -0.5501 -0.0320 -0.2905
 1426SOL    HW115740   2.104   0.687  15.541 -2.4125  0.1603 -0.4040
 1426SOL    HW215741   2.194   0.690  15.424 -0.8666 -1.1725  0.3731
 1427SOL     OW15742   0.688   0.123   1.322 -0.0474 -0.2867  0.5627
 1427SOL    HW115743   0.680   0.195   1.384  1.0859 -0.4435  0.8959
 1427SOL    HW215744   0.683   0.047   1.380  1.6914 -0.4100  0.5642
 1428SOL     OW15745   4.711   2.693   4.898  0.0726  0.1675  0.3509
 1428SOL    HW115746   0.069   2.689   4.848  1.0229  0.1016  1.9045
 1428SOL    HW215747   4.674   2.780   4.888  0.7646  0.3188 -0.9268
 1429SOL     OW15748   1.002   1.816   6.160 -0.3355 -0.4045  0.1571
 1429SOL    HW115749   0.929   1.760   6.134 -1.9807  2.0892 -0.7031
 1429SOL    HW215750   0.951   1.896   6.144 -0.7274 -0.7881 -0.5102
 1430SOL     OW15751   3.395   2.320   4.280 -0.8738 -0.0356  0.2654
 1430SOL    HW115752   3.448   2.240   4.272  0.7378  1.2231 -1.5127
 1430SOL    HW215753   3.461   2.389   4.275 -1.6085  0.6038 -0.5617
 1431SOL     OW15754   0.837   2.839  10.275 -0.1451 -0.8401  0.0380
 1431SOL    HW115755   0.828   2.934  10.271  1.4375 -0.6786  0.0558
 1431SOL    HW215756   0.920   2.826  10.229  0.2759  3.9845 -0.6154
 1432SOL     OW15757   1.379   0.293   2.797  0.0641  0.0158  0.3981
 1432SOL    HW115758   1.292   0.328   2.818  0.3457  2.2662 -2.2343
 1432SOL    HW215759   1.378   0.320   2.705  0.6187 -0.1226  0.3528
 1433SOL     OW15760   2.013   2.978   6.226 -0.5357 -0.3650  0.5615
 1433SOL    HW115761   1.985   2.887   6.214  0.4459 -0.2727 -2.2250
 1433SOL    HW215762   2.024   2.978   6.321 -2.9620  0.3290  0.8544
 1434SOL     OW15763   2.227   3.934  12.602 -0.2421 -0.2723 -0.4536
 1434SOL    HW115764   2.197   3.926  12.512  0.0136  0.3108 -0.5948
 1434SOL    HW215765   2.253   4.027  12.605 -3.5013  0.6804 -1.6851
 1435SOL     OW15766   1.367   2.816  12.611  0.3012  0.4492 -0.4840
 1435SOL    HW115767   1.313   2.889  12.643 -0.0873  0.1625 -0.4923
 1435SOL    HW215768   1.302   2.760  12.569 -1.3469  1.7139  0.3633
 1436SOL     OW15769   3.157   1.278   0.755 -0.0148 -0.2886  0.0264
 1436SOL    HW115770   3.220   1.334   0.709 -0.3815  0.1202  0.0168
 1436SOL    HW215771   3.165   1.204   0.695 -0.7445  0.4325 -0.9579
 1437SOL     OW15772   0.338   3.293   3.237 -0.0446  0.1165 -0.0998
 1437SOL    HW115773   0.327   3.210   3.190 -0.1841  0.3183 -0.4225
 1437SOL    HW215774   0.428   3.315   3.215 -0.2589 -1.5119 -2.6512
 1438SOL     OW15775   3.941   1.225  10.528 -0.6191 -0.0107 -0.1704
 1438SOL    HW115776   3.930   1.132  10.509 -0.1973  0.4548 -2.7919
 1438SOL    HW215777   3.957   1.211  10.621 -0.8671 -1.5201 -0.3609
 1439SOL     OW15778   1.804   1.544   2.948  0.3225 -0.0174 -0.0702
 1439SOL    HW115779   1.899   1.546   2.939  0.3563 -2.9376 -0.4102
 1439SOL    HW215780   1.790   1.638   2.961 -2.0904 -0.0393 -2.3193
 1440SOL     OW15781   0.011   3.104  10.598 -0.1112  0.1481 -0.2928
 1440SOL    HW115782   0.003   3.012  10.572  2.5680 -0.1454 -0.1165
 1440SOL    HW215783   0.075   3.085  10.667  2.2777  0.0486 -2.5566
 1441SOL     OW15784   2.977   4.527  12.949  0.2009  0.0573 -0.1156
 1441SOL    HW115785   2.882   4.531  12.937  0.2598  0.4665 -0.4384
 1441SOL    HW215786   2.976   4.605  13.004 -3.1182  0.5061 -0.8199
 1442SOL     OW15787   4.617   2.401   7.394  0.8268  0.1572  0.5224
 1442SOL    HW115788   4.685   2.441   7.339 -0.6997  2.1632  0.1075
 1442SOL    HW215789   4.551   2.467   7.372  0.7598 -0.0718  0.0452
 1443SOL     OW15790   3.879   2.099   3.425 -0.2428  0.3079  0.2028
 1443SOL    HW115791   3.894   2.111   3.332  0.2513  1.1841  0.3947
 1443SOL    HW215792   3.809   2.033   3.431 -0.9071  0.7576 -2.8219
 1444SOL     OW15793   2.293   4.654   8.048 -0.1444  0.0145  0.4195
 1444SOL    HW115794   2.284   4.624   7.958  0.9234 -2.8166  1.2246
 1444SOL    HW215795   2.353   4.586   8.079 -0.3265  0.0696  0.9017
 1445SOL     OW15796   4.458   0.084   2.712  0.1608 -0.5801  0.5108
 1445SOL    HW115797   4.526   0.119   2.655 -0.7794  0.5324  0.0748
 1445SOL    HW215798   4.381   0.129   2.679  1.2969  1.1147  0.2154
 1446SOL     OW15799   4.217   2.071   5.845 -0.4350  0.4870  0.2791
 1446SOL    HW115800   4.295   2.119   5.818  0.4391 -0.3514  1.3058
 1446SOL    HW215801   4.250   1.981   5.837 -0.9295  0.4340 -1.3288
 1447SOL     OW15802   3.841   4.671   0.081  0.4094 -0.2399  0.2643
 1447SOL    HW115803   3.848   0.041   0.099  0.0270  0.0963 -1.3923
 1447SOL    HW215804   3.753   4.652   0.048  0.5935  0.7807 -0.8172
 1448SOL     OW15805   3.701   1.450   2.927 -0.2290 -0.0999 -0.6649
 1448SOL    HW115806   3.708   1.525   2.868  0.5176 -0.3435 -0.8895
 1448SOL    HW215807   3.630   1.474   2.986 -0.1384 -1.0276 -0.1719
 1449SOL     OW15808   2.222   4.241   5.085 -0.5510  1.1241 -0.3947
 1449SOL    HW115809   2.166   4.200   5.150 -2.9582  1.2315 -2.3961
 1449SOL    HW215810   2.223   4.174   5.016  1.7501  1.6889 -0.8914
 1450SOL     OW15811   3.886   1.947   8.367 -0.6418  0.6363 -0.0238
 1450SOL    HW115812   3.836   1.944   8.448  0.4049 -0.0175  0.6098
 1450SOL    HW215813   3.946   1.872   8.376 -0.6631  0.6779  0.4581
 1451SOL     OW15814   1.044   3.839   7.684 -0.2309 -0.0713 -0.2168
 1451SOL    HW115815   1.103   3.788   7.629 -1.1839  1.4842 -2.6504
 1451SOL    HW215816   1.101   3.839   7.762 -0.9400 -2.3724  0.3002
 1452SOL     OW15817   3.502   1.860  12.814  0.5878 -0.2977 -0.5006
 1452SOL    HW115818   3.535   1.780  12.856 -0.3908  0.1811  1.1537
 1452SOL    HW215819   3.513   1.928  12.880  1.3528 -0.4714 -0.4441
 1453SOL     OW15820   3.967   2.119  12.360  0.2396  0.0739  0.3880
 1453SOL    HW115821   4.028   2.184  12.396  1.2281  0.2658 -1.6437
 1453SOL    HW215822   3.917   2.176  12.302 -0.9571 -0.5394  0.8122
 1454SOL     OW15823   2.889   3.534   7.429  0.0492 -0.3302 -0.2335
 1454SOL    HW115824   2.892   3.554   7.336 -2.4405  0.1471 -0.2320
 1454SOL    HW215825   2.837   3.454   7.421 -1.4357  0.7019 -0.8565
 1455SOL     OW15826   4.085   1.764   7.693  0.1434  0.0712  0.2046
 1455SOL    HW115827   4.108   1.679   7.654 -0.3647 -0.7231  1.6697
 1455SOL    HW215828   4.006   1.744   7.743  0.1778 -0.0668  0.2038
 1456SOL     OW15829   1.984   1.739   4.265 -0.0829  0.5200 -0.1028
 1456SOL    HW115830   1.910   1.796   4.245 -1.7472 -0.7810  2.4600
 1456SOL    HW215831   2.049   1.802   4.297 -1.3836  1.0306  1.5354
 1457SOL     OW15832   1.850   0.851  16.139  0.3631 -1.0457 -0.0998
 1457SOL    HW115833   1.856   0.897  16.222  1.2549 -0.5404 -0.4371
 1457SOL    HW215834   1.796   0.775  16.160 -1.4061 -0.1888 -1.5755
 1458SOL     OW15835   3.848   2.391   8.257  0.4373  0.3000  0.4194
 1458SOL    HW115836   3.896   2.351   8.329 -0.2892 -1.6868 -0.2088
 1458SOL    HW215837   3.915   2.451   8.224  2.8385 -1.3581  2.3104
 1459SOL     OW15838   2.859   4.367   2.257 -0.2427  0.5980 -0.0713
 1459SOL    HW115839   2.941   4.416   2.247  0.5644 -1.2204 -2.5358
 1459SOL    HW215840   2.897   4.285   2.288  1.2536  0.6184 -1.8804
 1460SOL     OW15841   1.383   2.060   6.113 -0.3876 -0.4711 -0.1439
 1460SOL    HW115842   1.341   2.020   6.036 -0.3048  0.3224 -0.5937
 1460SOL    HW215843   1.368   2.003   6.189  0.8573 -1.3549 -0.5665
 1461SOL     OW15844   3.593   2.398   5.492  0.3967 -0.1218  0.0978
 1461SOL    HW115845   3.611   2.327   5.431 -1.3483  0.3951 -1.0203
 1461SOL    HW215846   3.635   2.360   5.569 -0.2143  3.2151  2.0612
 1462SOL     OW15847   3.681   0.503   9.734  0.0357  0.0581  0.0849
 1462SOL    HW115848   3.730   0.581   9.761 -0.0454  0.7370 -1.7322
 1462SOL    HW215849   3.651   0.470   9.819 -0.6118 -1.4221 -0.7259
 1463SOL     OW15850   2.212   0.852   1.186  0.2617 -0.4865 -0.8891
 1463SOL    HW115851   2.305   0.831   1.174 -0.0783 -1.6698 -1.5511
 1463SOL    HW215852   2.197   0.802   1.266 -3.4933  2.5186  0.2942
 1464SOL     OW15853   3.972   0.438   6.691  0.5776  0.1164  0.0756
 1464SOL    HW115854   3.930   0.400   6.614  0.4227 -0.4973  0.4603
 1464SOL    HW215855   3.994   0.364   6.748  0.7211 -0.7000 -1.0332
 1465SOL     OW15856   4.026   3.733  16.775 -0.1475 -0.1101 -0.1155
 1465SOL    HW115857   4.056   3.739  16.866  1.2342  1.5406 -0.6922
 1465SOL    HW215858   3.945   3.681  16.786  0.5665 -1.6322 -2.0634
 1466SOL     OW15859   1.333   2.164  12.910 -0.3431 -0.4383  0.2445
 1466SOL    HW115860   1.394   2.238  12.914  0.2484 -1.0141  1.9395
 1466SOL    HW215861   1.394   2.091  12.924  0.4315  0.2626  0.5320
 1467SOL     OW15862   2.898   2.372   3.400 -0.4465 -1.1921 -0.3521
 1467SOL    HW115863   2.964   2.425   3.445 -1.1470  0.8895 -1.7590
 1467SOL    HW215864   2.822   2.416   3.440  0.9670  2.0971 -1.2279
 1468SOL     OW15865   3.494   4.099   2.225 -0.3746 -0.0579 -0.3319
 1468SOL    HW115866   3.523   4.158   2.156  2.0676  0.8831  1.4929
 1468SOL    HW215867   3.540   4.132   2.302  0.7454 -2.2294 -0.0789
 1469SOL     OW15868   1.870   1.496   7.146  0.1982 -0.1600  0.3073
 1469SOL    HW115869   1.818   1.566   7.106  1.2066  0.1375 -0.4949
 1469SOL    HW215870   1.882   1.437   7.072  2.4061  1.1738 -0.3925
 1470SOL     OW15871   2.584   1.274  13.665  0.0133 -0.0326  0.1229
 1470SOL    HW115872   2.490   1.273  13.683 -0.2136 -0.3525 -1.1176
 1470SOL    HW215873   2.604   1.362  13.698 -1.8673 -0.6806  3.0588
 1471SOL     OW15874   3.512   2.179   7.229 -0.5676 -0.4826 -0.9783
 1471SOL    HW115875   3.478   2.103   7.275 -0.0739 -0.4567 -0.5701
 1471SOL    HW215876   3.477   2.183   7.140  0.4009  0.5943 -1.3094
 1472SOL     OW15877   3.272   3.393   5.950  0.4011 -0.3599  0.0118
 1472SOL    HW115878   3.199   3.452   5.970  1.4770  0.6420  0.9516
 1472SOL    HW215879   3.232   3.306   5.958 -1.2603  0.1751 -2.2422
 1473SOL     OW15880   1.974   4.429  13.830 -0.1366 -0.4806  0.1147
 1473SOL    HW115881   1.923   4.389  13.900 -0.5185 -1.7817 -0.9222
 1473SOL    HW215882   2.049   4.370  13.820  1.5245  1.4688  0.9305
 1474SOL     OW15883   2.221   4.620   2.588  0.0419 -0.3949 -0.2323
 1474SOL    HW115884   2.316   4.614   2.591 -0.0030 -1.6743 -1.2289
 1474SOL    HW215885   2.215   4.713   2.566 -0.2078 -0.6311 -1.1591
 1475SOL     OW15886   0.872   3.658   9.527  0.4648  0.0585 -0.4872
 1475SOL    HW115887   0.896   3.742   9.566 -1.0869  0.1744  0.2222
 1475SOL    HW215888   0.784   3.655   9.567  0.9863  1.0057  0.7521
 1476SOL     OW15889   2.578   3.539   4.733  1.0521  0.5104 -0.2849
 1476SOL    HW115890   2.518   3.523   4.661  0.4152 -2.2448  0.8574
 1476SOL    HW215891   2.573   3.634   4.743 -0.6333  0.0335  3.3346
 1477SOL     OW15892   4.469   3.303   3.170  0.9379 -0.2936 -0.5986
 1477SOL    HW115893   4.430   3.346   3.094  0.8234  1.8461  0.6911
 1477SOL    HW215894   4.544   3.361   3.180  0.0504  0.7636 -0.1350
 1478SOL     OW15895   1.187   0.241   8.445 -0.6781 -0.3299 -0.0196
 1478SOL    HW115896   1.194   0.150   8.417 -1.0547 -0.9544  1.8922
 1478SOL    HW215897   1.138   0.226   8.526 -1.5065  0.0020 -0.4464
 1479SOL     OW15898   0.885   2.345   6.704 -0.5930 -0.6887 -0.4813
 1479SOL    HW115899   0.971   2.306   6.689 -0.0873  0.7700 -1.3633
 1479SOL    HW215900   0.847   2.269   6.748  0.7430 -0.5344  0.9241
 1480SOL     OW15901   3.722   1.851   3.461 -0.3504 -0.2922 -0.2321
 1480SOL    HW115902   3.753   1.810   3.381 -0.6423 -0.7065 -0.1339
 1480SOL    HW215903   3.658   1.916   3.432  0.6367  1.8891  2.4470
 1481SOL     OW15904   1.600   3.870   6.576 -0.0931  0.0335  0.1251
 1481SOL    HW115905   1.557   3.795   6.616 -2.9039  2.3347  1.3664
 1481SOL    HW215906   1.525   3.927   6.560 -0.9726 -0.7870  1.3279
 1482SOL     OW15907   4.204   0.777  10.484  0.1433  0.0127  0.2503
 1482SOL    HW115908   4.253   0.747  10.560 -1.9450 -0.1857  1.5046
 1482SOL    HW215909   4.121   0.814  10.514 -0.2955 -0.3370 -0.5244
 1483SOL     OW15910   0.238   2.909   7.035  0.1682 -0.7089  0.3327
 1483SOL    HW115911   0.156   2.862   7.017  1.1654 -1.2032 -2.9734
 1483SOL    HW215912   0.221   2.998   7.004 -0.1682 -1.3290 -1.2836
 1484SOL     OW15913   4.680   0.480   3.344 -0.2399 -0.3728  0.2820
 1484SOL    HW115914   4.612   0.491   3.278  0.9052  2.0997 -0.5085
 1484SOL    HW215915   4.721   0.566   3.335  2.6518 -1.6572  1.1519
 1485SOL     OW15916   2.066   0.749   8.357 -0.0733  0.5057  0.0338
 1485SOL    HW115917   2.104   0.674   8.311  2.6103  1.7086  0.3027
 1485SOL    HW215918   1.990   0.776   8.304 -1.7081  0.3263  2.3076
 1486SOL     OW15919   3.276   1.535   4.052  0.3014 -0.0095 -0.2633
 1486SOL    HW115920   3.279   1.447   4.014  0.9815 -1.1624  2.3927
 1486SOL    HW215921   3.368   1.543   4.074  0.2621 -2.0497  0.6629
 1487SOL     OW15922   1.192   3.954  16.583 -0.5620 -0.0955  0.5222
 1487SOL    HW115923   1.098   3.939  16.593 -1.0111  0.7269 -2.5767
 1487SOL    HW215924   1.239   3.891  16.639 -1.8328  0.3476  2.1031
 1488SOL     OW15925   1.703   3.534   2.706 -0.0491  0.1462 -0.4988
 1488SOL    HW115926   1.729   3.460   2.760  0.0957  0.6332  0.1020
 1488SOL    HW215927   1.781   3.550   2.654  0.3246  1.5148  0.4816
 1489SOL     OW15928   0.057   2.236   3.493  0.1837 -0.3429  0.2787
 1489SOL    HW115929   0.046   2.252   3.399 -1.0038  3.9245  1.1434
 1489SOL    HW215930   0.045   2.141   3.498  1.0615 -0.5656 -1.6255
 1490SOL     OW15931   1.010   1.576   5.835 -0.1653  0.9439 -0.2274
 1490SOL    HW115932   1.052   1.525   5.766  1.4403 -0.1043  1.5034
 1490SOL    HW215933   0.990   1.499   5.890 -2.5894 -0.0736 -2.4853
 1491SOL     OW15934   2.758   1.481  15.604 -0.3028 -0.7765  0.5448
 1491SOL    HW115935   2.744   1.386  15.595  2.6105 -1.1550 -0.1864
 1491SOL    HW215936   2.810   1.486  15.685 -2.0663  0.0999  1.6026
 1492SOL     OW15937   2.403   2.002  15.749 -0.4972  0.0633 -0.3603
 1492SOL    HW115938   2.446   1.919  15.770 -0.3558 -0.2718 -1.9443
 1492SOL    HW215939   2.340   2.001  15.821 -1.3408  3.0561 -1.0430
 1493SOL     OW15940   0.033   1.134  15.929 -0.4059 -0.4200 -0.5891
 1493SOL    HW115941   0.008   1.081  15.854 -1.6881  0.0082 -0.4583
 1493SOL    HW215942   0.121   1.106  15.954 -0.5733  0.5909  1.1756
 1494SOL     OW15943   0.237   4.016   7.770 -0.0069  0.2735  0.0625
 1494SOL    HW115944   0.197   4.045   7.688  1.3074  1.1838 -0.2609
 1494SOL    HW215945   0.304   3.958   7.732 -0.1436  0.1313  0.0370
 1495SOL     OW15946   0.220   0.356   3.289  0.2711 -0.3810  0.0597
 1495SOL    HW115947   0.232   0.450   3.301 -0.1494 -0.4026  0.6602
 1495SOL    HW215948   0.127   0.346   3.311  0.3788 -2.8097 -0.5847
 1496SOL     OW15949   0.622   1.934   5.259 -0.9967 -0.2824 -0.0704
 1496SOL    HW115950   0.669   1.940   5.176 -1.5535  0.9026 -0.3034
 1496SOL    HW215951   0.688   1.965   5.321 -0.4102 -1.0821 -0.3025
 1497SOL     OW15952   0.379   1.629  15.375 -0.0696 -0.9689  0.1557
 1497SOL    HW115953   0.286   1.623  15.395  0.0482 -0.6911  0.7811
 1497SOL    HW215954   0.375   1.565  15.304 -0.6357  0.9230 -1.5614
 1498SOL     OW15955   0.348   0.374   6.114 -0.3072 -0.1704  0.6811
 1498SOL    HW115956   0.395   0.299   6.150 -0.2025 -0.0539  0.7832
 1498SOL    HW215957   0.337   0.342   6.024 -1.1863  3.4775 -0.5126
 1499SOL     OW15958   1.597   0.877  13.609  0.2229  0.7361 -0.5894
 1499SOL    HW115959   1.534   0.927  13.556 -0.3199  2.0295  1.2829
 1499SOL    HW215960   1.536   0.863  13.681 -1.4857  0.4081 -2.0958
 1500SOL     OW15961   3.113   1.787   2.924 -0.1386 -0.3221 -0.3866
 1500SOL    HW115962   3.043   1.733   2.886  0.9793 -0.8397 -1.7296
 1500SOL    HW215963   3.193   1.738   2.902  1.1951  1.1678  1.1479
 1501SOL     OW15964   0.013   3.501   8.993  0.0090 -0.1375  0.6039
 1501SOL    HW115965   4.688   3.422   9.017  2.5068 -1.6990  0.5200
 1501SOL    HW215966   4.666   3.542   8.945  0.4173 -0.4088 -0.2301
 1502SOL     OW15967   4.570   0.437  17.216  0.1504 -0.3552 -0.4568
 1502SOL    HW115968   4.504   0.482  17.268  1.2644  0.6076  0.1147
 1502SOL    HW215969   4.541   0.346  17.225 -1.2473  0.3277  2.0302
 1503SOL     OW15970   3.352   1.635   2.827  0.4978 -0.2824  0.1551
 1503SOL    HW115971   3.392   1.655   2.742  1.0263  1.3164  0.7759
 1503SOL    HW215972   3.407   1.564   2.860  2.4849  1.4657  0.6517
 1504SOL     OW15973   4.215   2.644  11.503  0.9182  0.5636  0.4011
 1504SOL    HW115974   4.133   2.678  11.467  2.4457  2.3788 -1.3294
 1504SOL    HW215975   4.269   2.718  11.475 -0.0102  1.4116  0.8352
 1505SOL     OW15976   3.247   1.050   2.019  0.3291  0.3544  0.4406
 1505SOL    HW115977   3.219   1.141   2.011 -1.7437 -0.3637 -0.6872
 1505SOL    HW215978   3.337   1.064   2.049  0.6970 -2.9915  0.8373
 1506SOL     OW15979   2.601   4.506  16.453  0.3069  0.0005  0.7215
 1506SOL    HW115980   2.558   4.588  16.428 -0.0621 -0.1229  0.9405
 1506SOL    HW215981   2.615   4.535  16.543 -0.0231  2.0318  0.1277
 1507SOL     OW15982   0.810   1.760  15.989 -0.0186 -0.8496 -0.4453
 1507SOL    HW115983   0.726   1.797  16.015  0.5033 -0.7409  1.0885
 1507SOL    HW215984   0.787   1.704  15.915  0.9322 -1.2206 -0.4619
 1508SOL     OW15985   0.291   1.778   6.914  0.1647  0.0751 -1.0537
 1508SOL    HW115986   0.326   1.688   6.915 -0.6108 -0.2132 -0.0430
 1508SOL    HW215987   0.284   1.793   7.008 -1.5611  0.3310 -1.2359
 1509SOL     OW15988   3.105   1.289   8.778 -0.0020  0.8196 -0.2601
 1509SOL    HW115989   3.064   1.374   8.764 -0.8347  0.4029 -0.3727
 1509SOL    HW215990   3.159   1.298   8.856 -0.0674 -1.8966  0.1090
 1510SOL     OW15991   0.465   3.971   6.404  0.1950 -0.0319  0.1134
 1510SOL    HW115992   0.499   4.053   6.369  0.0009 -0.0360 -0.0820
 1510SOL    HW215993   0.508   3.906   6.348  1.5454  2.3578 -1.6253
 1511SOL     OW15994   1.658   1.313  17.333  0.5356 -0.1187 -0.1691
 1511SOL    HW115995   1.673   1.272  17.419  0.4305  0.6295  0.2069
 1511SOL    HW215996   1.587   1.256  17.303  1.0597 -0.5583 -0.5667
 1512SOL     OW15997   0.041   3.870   4.412  0.1132 -0.7243 -0.4156
 1512SOL    HW115998   0.025   3.777   4.427  0.4107 -0.9949 -1.8459
 1512SOL    HW215999   0.126   3.860   4.369 -0.1086 -0.8011 -0.8333
 1513SOL     OW16000   1.767   1.364  15.971 -0.7320 -0.5527 -0.3434
 1513SOL    HW116001   1.736   1.381  15.882  0.0527 -0.8247 -0.6716
 1513SOL    HW216002   1.765   1.268  15.967  1.0594 -0.7080  2.7472
 1514SOL     OW16003   2.226   3.774  11.170  0.7409 -0.1091  0.0891
 1514SOL    HW116004   2.230   3.850  11.228 -2.6107 -0.3439  0.6124
 1514SOL    HW216005   2.316   3.743  11.165  0.6383 -0.4095  0.0796
 1515SOL     OW16006   3.474   3.776   3.783  0.6853  0.6286  0.6004
 1515SOL    HW116007   3.416   3.716   3.736 -0.4866  1.8386  0.4985
 1515SOL    HW216008   3.453   3.853   3.731  0.7952  1.3774  1.6578
 1516SOL     OW16009   0.706   4.056   4.048  0.5701  0.6595 -0.1140
 1516SOL    HW116010   0.736   3.992   3.983 -0.6224  0.3052 -0.3107
 1516SOL    HW216011   0.786   4.072   4.098  0.4455  0.1660  0.2466
 1517SOL     OW16012   4.379   0.204   7.758  0.5137  0.8039 -0.0384
 1517SOL    HW116013   4.384   0.267   7.830 -0.1959  1.8464 -0.9137
 1517SOL    HW216014   4.360   0.123   7.807 -3.9527  1.4734 -0.6198
 1518SOL     OW16015   1.418   1.727  16.697 -0.1200 -0.6818  1.0830
 1518SOL    HW116016   1.446   1.813  16.667  3.3047 -1.0248  3.2832
 1518SOL    HW216017   1.355   1.705  16.628  1.2657 -1.6667  0.1188
 1519SOL     OW16018   1.387   0.563   6.365  0.1405 -0.1924 -0.3382
 1519SOL    HW116019   1.456   0.608   6.317 -0.4170  1.0199  0.0101
 1519SOL    HW216020   1.334   0.532   6.291  1.6177 -0.8070 -1.1566
 1520SOL     OW16021   4.301   1.763   3.873 -0.7340 -0.0795 -0.3482
 1520SOL    HW116022   4.388   1.800   3.859 -0.5310 -0.0481  1.0320
 1520SOL    HW216023   4.309   1.733   3.964 -1.7691 -2.3599 -1.0008
 1521SOL     OW16024   2.032   2.910   6.472  0.2884 -0.0498  0.6865
 1521SOL    HW116025   1.950   2.909   6.522  1.0250  0.5472  1.9003
 1521SOL    HW216026   2.062   2.822   6.494 -0.6119 -0.6878 -0.5821
 1522SOL     OW16027   3.169   1.066   7.139  0.5053  0.4034 -0.1211
 1522SOL    HW116028   3.134   1.113   7.064 -0.9086 -1.5015 -0.6825
 1522SOL    HW216029   3.215   0.997   7.090 -0.8726  1.4611 -2.9008
 1523SOL     OW16030   3.766   2.083   5.865  0.1627  0.0207 -0.0797
 1523SOL    HW116031   3.748   2.076   5.771 -0.3904  2.1858 -0.1284
 1523SOL    HW216032   3.811   2.167   5.874 -0.9409  0.5576  0.3569
 1524SOL     OW16033   1.862   0.544   4.028  0.2408 -0.5671  0.2177
 1524SOL    HW116034   1.904   0.463   4.057 -0.8867 -1.1933  0.0744
 1524SOL    HW216035   1.781   0.509   3.993 -0.6156  0.5458  1.0685
 1525SOL     OW16036   3.297   2.590   8.136 -0.2200  0.2634 -0.1930
 1525SOL    HW116037   3.304   2.495   8.140  0.9370  0.3008 -1.4684
 1525SOL    HW216038   3.258   2.595   8.224  1.1670 -1.8156  0.5356
 1526SOL     OW16039   1.882   0.107   8.024 -0.2965 -0.0357  0.0137
 1526SOL    HW116040   1.967   0.123   7.982 -0.1179  0.0733  0.4126
 1526SOL    HW216041   1.902   0.016   8.045  1.6343 -0.1624 -2.2960
 1527SOL     OW16042   1.382   4.438   9.872  0.1297  0.2325  0.1567
 1527SOL    HW116043   1.286   4.429   9.877  0.3279 -1.8967  0.1114
 1527SOL    HW216044   1.394   4.486   9.954 -0.4959  1.4807 -0.4896
 1528SOL     OW16045   3.338   4.306  11.208  0.0964  0.0991  0.4399
 1528SOL    HW116046   3.395   4.320  11.284 -1.4177  2.4834  1.1276
 1528SOL    HW216047   3.387   4.333  11.130  2.4672 -1.6011  1.3455
 1529SOL     OW16048   1.721   1.307  14.075  0.1343  0.1666 -0.0458
 1529SOL    HW116049   1.748   1.335  14.162 -0.0043  0.5263 -0.1181
 1529SOL    HW216050   1.713   1.394  14.034  3.3449 -0.2472 -1.5129
 1530SOL     OW16051   0.323   0.619   8.837  0.2853 -0.0541  0.0313
 1530SOL    HW116052   0.410   0.659   8.841  0.3118  0.0741 -1.8962
 1530SOL    HW216053   0.354   0.544   8.889 -0.3054 -1.4937 -1.7178
 1531SOL     OW16054   4.369   3.783  17.283  0.2449 -0.1211 -0.1808
 1531SOL    HW116055   4.449   3.797  17.233  0.1867  2.7309  0.5265
 1531SOL    HW216056   4.354   3.691  17.259 -1.3381 -0.0651  0.5954
 1532SOL     OW16057   2.732   1.399  11.730 -0.0198 -0.4767  0.3509
 1532SOL    HW116058   2.674   1.326  11.710  1.0463 -1.3579  0.4433
 1532SOL    HW216059   2.675   1.475  11.715  0.3969 -0.0488  0.9161
 1533SOL     OW16060   3.091   2.661  10.634 -0.3233  0.1760  0.3503
 1533SOL    HW116061   3.064   2.702  10.552  2.5040 -2.3353 -1.8014
 1533SOL    HW216062   3.172   2.709  10.652 -0.9418  1.4935 -0.3298
 1534SOL     OW16063   0.519   1.745  16.253  0.0049 -0.2316  0.0873
 1534SOL    HW116064   0.536   1.792  16.172  0.0735  0.0683  0.2744
 1534SOL    HW216065   0.598   1.767  16.303  0.8835 -2.5209 -0.2983
 1535SOL     OW16066   2.148   4.394  11.139 -0.2138  0.0192  0.2585
 1535SOL    HW116067   2.215   4.453  11.103 -0.6276  0.8850  0.9294
 1535SOL    HW216068   2.068   4.446  11.133  0.6110  1.4975  1.8283
 1536SOL     OW16069   2.630   0.177   9.690  0.2603  0.5038 -0.4301
 1536SOL    HW116070   2.593   0.176   9.779  1.3230  2.5924  0.0319
 1536SOL    HW216071   2.556   0.217   9.644 -0.7903 -1.9073 -0.8587
 1537SOL     OW16072   0.659   0.364   2.963  0.6189 -0.7313 -0.2731
 1537SOL    HW116073   0.568   0.334   2.963 -0.4129  2.4016  0.0066
 1537SOL    HW216074   0.649   0.457   2.941  1.4589 -0.1885  1.6221
 1538SOL     OW16075   0.281   3.340   7.102 -0.0631 -0.1177 -0.3422
 1538SOL    HW116076   0.198   3.345   7.151  0.1123  0.6053 -0.1128
 1538SOL    HW216077   0.257   3.281   7.031  1.9332 -0.0384 -1.0538
 1539SOL     OW16078   4.566   4.210   2.423  0.0470 -0.2106 -0.3828
 1539SOL    HW116079   4.495   4.167   2.471 -1.3045  1.3389 -1.0204
 1539SOL    HW216080   4.514   4.231   2.346 -1.4773  0.0186  0.6971
 1540SOL     OW16081   2.351   0.876  15.810  0.3798 -0.4113 -0.2652
 1540SOL    HW116082   2.289   0.924  15.866 -0.8757 -0.5332 -1.5574
 1540SOL    HW216083   2.411   0.950  15.796 -0.7245  0.8770  1.8581
 1541SOL     OW16084   1.871   1.325   6.184 -0.2190 -0.5624  0.3073
 1541SOL    HW116085   1.807   1.376   6.136 -2.4539 -2.7568  0.9298
 1541SOL    HW216086   1.830   1.242   6.160 -0.8775 -0.2586  0.3864
 1542SOL     OW16087   1.690   2.371   5.879 -0.0989 -0.3367 -0.0356
 1542SOL    HW116088   1.717   2.325   5.800  0.6927 -0.8822  0.5604
 1542SOL    HW216089   1.595   2.379   5.866 -0.0766 -0.1876 -0.1072
 1543SOL     OW16090   3.078   0.710   4.549 -0.6348 -0.0248 -0.3621
 1543SOL    HW116091   3.010   0.651   4.514  0.2612 -0.4233 -1.4249
 1543SOL    HW216092   3.042   0.795   4.525 -0.4842 -0.0721 -0.7559
 1544SOL     OW16093   1.166   2.715   3.207 -0.2173 -0.3120 -0.8369
 1544SOL    HW116094   1.108   2.675   3.143  0.3095 -4.2109  1.1270
 1544SOL    HW216095   1.133   2.671   3.286 -2.1726  1.3361 -0.7348
 1545SOL     OW16096   4.067   1.625   8.234 -0.7788 -0.3564 -0.0795
 1545SOL    HW116097   4.104   1.689   8.294  0.3124 -1.2764  0.2301
 1545SOL    HW216098   4.099   1.542   8.270  0.2038 -0.2009 -0.5768
 1546SOL     OW16099   2.547   0.284   1.324 -0.4032  0.3761  0.0800
 1546SOL    HW116100   2.476   0.220   1.322  0.4107 -0.4953 -0.5338
 1546SOL    HW216101   2.598   0.234   1.387  0.3068 -0.2837 -1.0298
 1547SOL     OW16102   2.569   1.509  14.610 -0.6789 -0.4309  0.7470
 1547SOL    HW116103   2.594   1.593  14.573  2.2775 -1.4221  0.5263
 1547SOL    HW216104   2.507   1.549  14.671 -1.5885  0.4789 -0.7644
 1548SOL     OW16105   2.034   1.837  14.444  0.2297 -0.0617  0.0726
 1548SOL    HW116106   2.075   1.900  14.385 -0.1261  2.3557  2.4228
 1548SOL    HW216107   2.098   1.770  14.469  2.4818  1.9152 -0.3434
 1549SOL     OW16108   2.149   4.526   2.147  0.2475 -0.1209 -0.2663
 1549SOL    HW116109   2.123   4.496   2.235  1.4612  1.6869  0.6977
 1549SOL    HW216110   2.165   4.440   2.108 -1.3090  0.7855 -2.8640
 1550SOL     OW16111   0.964   4.524   9.733  0.3845  0.6048  0.3488
 1550SOL    HW116112   1.019   4.493   9.805  0.8957  0.1744 -0.2301
 1550SOL    HW216113   0.955   4.457   9.666  0.5610 -0.0302  0.9651
 1551SOL     OW16114   2.596   1.835   9.207  0.0402  0.6574  0.2906
 1551SOL    HW116115   2.557   1.821   9.293 -0.8000  0.8759 -0.0510
 1551SOL    HW216116   2.686   1.805   9.219  0.3634  1.4248 -0.2359
 1552SOL     OW16117   1.885   3.928   6.138 -0.1534 -0.5437 -0.3311
 1552SOL    HW116118   1.879   3.860   6.205  1.3520 -2.8696 -2.5416
 1552SOL    HW216119   1.978   3.916   6.119 -0.6295  1.8349 -4.0981
 1553SOL     OW16120   1.913   1.475   7.898 -0.0877 -0.0135 -0.2513
 1553SOL    HW116121   1.945   1.513   7.980 -0.8547  0.1782 -0.0437
 1553SOL    HW216122   1.980   1.413   7.870 -0.1300 -0.2726  0.2148
 1554SOL     OW16123   3.581   1.874   5.270  0.0239  0.0643 -0.0346
 1554SOL    HW116124   3.632   1.947   5.235 -1.4789  1.8955  1.6298
 1554SOL    HW216125   3.643   1.810   5.305  1.0389  0.1776 -1.6314
 1555SOL     OW16126   3.603   0.718   1.183  0.4519  0.1920  0.2071
 1555SOL    HW116127   3.695   0.743   1.186  0.8239 -1.1076 -0.4654
 1555SOL    HW216128   3.597   0.677   1.097 -0.9200  2.1179 -0.6107
 1556SOL     OW16129   0.952   3.875   4.642 -0.3140  0.5799  0.2796
 1556SOL    HW116130   1.024   3.924   4.603  0.8888 -0.1372  1.5565
 1556SOL    HW216131   0.980   3.892   4.732 -0.7813  0.2783  0.4795
 1557SOL     OW16132   2.493   2.564   6.675  0.2748  0.0173 -0.4931
 1557SOL    HW116133   2.430   2.520   6.731 -1.0104 -1.5641 -3.1761
 1557SOL    HW216134   2.432   2.562   6.601 -0.6273  0.5434  0.2343
 1558SOL     OW16135   3.940   1.752   5.175  0.4603 -0.0131 -0.3694
 1558SOL    HW116136   4.004   1.792   5.116  0.8988 -0.3396 -0.1187
 1558SOL    HW216137   3.992   1.753   5.256 -0.4731 -0.6766  0.2379
 1559SOL     OW16138   0.395   2.265   6.072 -0.8646  0.1813 -0.7227
 1559SOL    HW116139   0.399   2.324   5.996  0.5032  0.0795 -0.7331
 1559SOL    HW216140   0.387   2.179   6.029 -1.0152  0.3547 -1.0451
 1560SOL     OW16141   2.120   1.484  13.083 -0.2107 -0.3433  0.0861
 1560SOL    HW116142   2.208   1.462  13.050 -0.1200 -0.1025  0.1673
 1560SOL    HW216143   2.081   1.399  13.064  0.8171 -0.7858 -0.0637
 1561SOL     OW16144   1.230   2.609   1.686  0.0005 -0.0937 -0.0919
 1561SOL    HW116145   1.212   2.527   1.640 -2.0767  1.1289 -1.4595
 1561SOL    HW216146   1.194   2.593   1.773  0.4732 -0.9711 -0.0532
 1562SOL     OW16147   2.078   2.396   3.740  0.1082  0.5428  0.0137
 1562SOL    HW116148   2.059   2.481   3.779 -1.3862 -0.0821  0.6284
 1562SOL    HW216149   2.166   2.373   3.771  1.1974 -0.7790 -3.9483
 1563SOL     OW16150   1.198   1.252   5.200  0.0568  0.0949  0.6923
 1563SOL    HW116151   1.202   1.262   5.105  0.1052  1.0400  0.8031
 1563SOL    HW216152   1.292   1.238   5.216 -0.1493 -0.2641  1.6131
 1564SOL     OW16153   4.038   0.264   3.555 -0.5309 -0.1674 -0.4790
 1564SOL    HW116154   3.969   0.270   3.621 -1.4039  2.1724 -1.6084
 1564SOL    HW216155   4.095   0.339   3.575 -0.1763 -1.1874  2.2775
 1565SOL     OW16156   2.311   0.400  16.191 -0.4297  0.1502  0.3642
 1565SOL    HW116157   2.259   0.471  16.153 -0.0790  1.0582  1.5573
 1565SOL    HW216158   2.357   0.449  16.261  0.0324  0.5196 -0.1948
 1566SOL     OW16159   3.214   4.462  14.171  0.0825 -0.2049  0.4081
 1566SOL    HW116160   3.280   4.395  14.152 -0.0436  0.2229 -1.5302
 1566SOL    HW216161   3.211   4.457  14.266 -0.6067 -1.2616  0.3332
 1567SOL     OW16162   1.288   0.806  10.348  0.1398  0.5560  0.0350
 1567SOL    HW116163   1.226   0.875  10.374 -0.2549  0.5618 -0.9225
 1567SOL    HW216164   1.323   0.840  10.266  1.1792 -0.4001  0.0850
 1568SOL     OW16165   1.651   1.598   0.798  0.2883  0.3420 -0.1759
 1568SOL    HW116166   1.688   1.575   0.883  1.5836  0.0845 -0.8101
 1568SOL    HW216167   1.732   1.597   0.748  0.4275  2.5406 -0.0049
 1569SOL     OW16168   1.088   0.686   5.700  1.0649  0.2610 -0.4712
 1569SOL    HW116169   1.173   0.660   5.664  1.5908 -2.3639  2.5936
 1569SOL    HW216170   1.043   0.704   5.618  1.7655  0.3691 -0.8347
 1570SOL     OW16171   0.836   1.307   7.183  0.2930  0.4654  0.0323
 1570SOL    HW116172   0.774   1.258   7.237 -0.7017  0.1662 -1.3732
 1570SOL    HW216173   0.796   1.312   7.096 -3.1679  1.7486  1.6841
 1571SOL     OW16174   0.046   3.381  13.235  0.6077  0.1321  0.1688
 1571SOL    HW116175   0.053   3.375  13.331 -1.5397 -1.9574  0.2112
 1571SOL    HW216176   4.704   3.450  13.224 -0.5613 -0.9599  0.2895
 1572SOL     OW16177   2.723   4.556   7.831  0.4377 -0.0882  0.8904
 1572SOL    HW116178   2.727   4.604   7.749 -0.9354 -2.0791 -0.3349
 1572SOL    HW216179   2.816   4.552   7.856  0.8307 -2.3598 -0.8366
 1573SOL     OW16180   3.929   2.901   8.579  0.2834 -0.2304 -0.4742
 1573SOL    HW116181   3.873   2.858   8.514  2.2416 -1.4767 -1.3290
 1573SOL    HW216182   3.966   2.977   8.537  0.8930 -0.2220  0.0824
 1574SOL     OW16183   3.131   2.990   8.779 -0.5606 -0.0070 -0.1792
 1574SOL    HW116184   3.145   3.083   8.795 -1.5001  0.1709 -0.4047
 1574SOL    HW216185   3.060   2.969   8.840 -1.4760  0.3711 -1.1088
 1575SOL     OW16186   1.365   3.063  10.637 -0.5675 -0.3249  0.0803
 1575SOL    HW116187   1.397   3.037  10.551  1.6417 -0.4040  0.9309
 1575SOL    HW216188   1.450   3.077  10.678 -0.4687 -0.5705 -0.0485
 1576SOL     OW16189   1.899   4.268   2.134 -1.2367 -0.4940  0.3779
 1576SOL    HW116190   1.990   4.250   2.111 -1.2567 -0.7998  0.5337
 1576SOL    HW216191   1.874   4.322   2.059  0.2924 -0.2753  0.0268
 1577SOL     OW16192   3.139   0.576   3.056  0.1815  0.1314 -0.4981
 1577SOL    HW116193   3.183   0.501   3.016 -1.0430 -1.2711  0.7814
 1577SOL    HW216194   3.115   0.624   2.977 -1.3126 -0.1058 -0.1887
 1578SOL     OW16195   4.653   1.006   5.273  0.3939 -0.0267 -0.2780
 1578SOL    HW116196   0.006   1.015   5.329  0.9408  1.1060 -1.2168
 1578SOL    HW216197   4.608   1.089   5.286  1.8706  0.7814 -0.3533
 1579SOL     OW16198   3.474   4.634   9.645  1.3082 -0.1483 -0.4724
 1579SOL    HW116199   3.480   4.693   9.571  1.7582  0.6521  0.1988
 1579SOL    HW216200   3.565   4.607   9.661  1.2729 -0.4470 -0.7817
 1580SOL     OW16201   2.152   3.808   6.132  0.0453 -0.6347 -0.0952
 1580SOL    HW116202   2.143   3.719   6.096 -1.5963  0.8722 -3.4104
 1580SOL    HW216203   2.227   3.809   6.190 -0.7721  2.3693  0.8815
 1581SOL     OW16204   4.588   2.147   7.539  0.1642 -0.5818 -0.3147
 1581SOL    HW116205   4.646   2.190   7.602 -0.6756  1.0662 -0.6808
 1581SOL    HW216206   4.587   2.206   7.464 -0.5113  0.4439  0.4989
 1582SOL     OW16207   0.174   2.038   5.647 -0.0932 -0.4866  0.4191
 1582SOL    HW116208   0.199   2.084   5.567  2.7215 -2.0335  0.4305
 1582SOL    HW216209   0.185   2.108   5.711  1.5134 -2.5669  2.4593
 1583SOL     OW16210   1.255   4.548   3.570  0.1134 -0.0710  0.2039
 1583SOL    HW116211   1.187   4.615   3.564  1.1253  1.1039  2.1522
 1583SOL    HW216212   1.301   4.562   3.488 -0.9241 -0.6609 -0.4857
 1584SOL     OW16213   4.414   1.693  13.618 -0.1182  0.2572 -0.2130
 1584SOL    HW116214   4.407   1.761  13.684 -0.6380 -0.2237  0.2188
 1584SOL    HW216215   4.432   1.616  13.671 -0.1126  0.8710  0.6657
 1585SOL     OW16216   2.390   3.426   0.681  0.2239  0.1283  0.2668
 1585SOL    HW116217   2.347   3.365   0.740 -0.0474 -1.7481 -1.8793
 1585SOL    HW216218   2.306   3.459   0.649 -0.3011  0.1801  1.7035
 1586SOL     OW16219   4.256   3.430   7.646 -0.3265 -0.8613 -0.0932
 1586SOL    HW116220   4.260   3.430   7.550  3.7517  0.4472  0.0636
 1586SOL    HW216221   4.227   3.520   7.663 -1.7687 -1.3022 -0.2096
 1587SOL     OW16222   1.254   1.809   4.754  0.5671  0.2538  0.4911
 1587SOL    HW116223   1.177   1.752   4.749  2.4040 -2.0616 -1.2403
 1587SOL    HW216224   1.221   1.881   4.807 -1.4636 -0.2206 -0.0965
 1588SOL     OW16225   2.033   1.180  16.210  0.2211  0.5454  0.0696
 1588SOL    HW116226   1.990   1.218  16.132 -0.8973  0.2610  0.5495
 1588SOL    HW216227   1.969   1.186  16.281  1.3523  1.4371  1.0136
 1589SOL     OW16228   0.592   2.735   8.464  0.2313 -0.3930 -0.3602
 1589SOL    HW116229   0.615   2.659   8.517  1.6309 -0.1237 -0.5964
 1589SOL    HW216230   0.497   2.748   8.466  0.3111 -0.0705  1.7142
 1590SOL     OW16231   4.495   1.967   7.801  0.1989  0.9108 -0.1046
 1590SOL    HW116232   4.432   1.991   7.868 -0.4778  1.7268 -1.0314
 1590SOL    HW216233   4.470   1.883   7.761 -0.0912  1.0394 -0.1945
 1591SOL     OW16234   4.340   1.483  17.547 -0.1052 -0.0324  0.4881
 1591SOL    HW116235   4.381   1.399  17.530  0.1628 -0.1074  1.5631
 1591SOL    HW216236   4.372   1.538  17.475  1.1197 -1.8507 -0.3547
 1592SOL     OW16237   1.736   1.104   9.910 -0.2747 -0.6785  0.8501
 1592SOL    HW116238   1.822   1.080   9.876 -1.3438  0.5176 -2.7169
 1592SOL    HW216239   1.764   1.192   9.933  0.6985 -0.8702  0.3885
 1593SOL     OW16240   4.099   0.367   0.688 -0.1875  0.4998  0.5791
 1593SOL    HW116241   4.058   0.283   0.707  2.3871 -0.6010  1.2386
 1593SOL    HW216242   4.150   0.386   0.766  2.6953  1.5046 -1.5461
 1594SOL     OW16243   2.711   4.094   2.814 -0.1020 -0.5217 -0.7714
 1594SOL    HW116244   2.720   4.006   2.777 -0.6273 -1.0116  0.2830
 1594SOL    HW216245   2.740   4.078   2.904 -1.9242 -0.7047 -0.2266
 1595SOL     OW16246   3.465   1.877   5.767 -0.3991  0.6127  0.1994
 1595SOL    HW116247   3.471   1.972   5.775 -0.3068  0.6009  0.2730
 1595SOL    HW216248   3.387   1.846   5.814 -0.0451 -1.1530 -0.3812
 1596SOL     OW16249   4.651   1.237  16.170  0.0414 -1.1449  0.3517
 1596SOL    HW116250   4.585   1.176  16.204 -1.7262 -0.2943 -1.6013
 1596SOL    HW216251   4.683   1.192  16.092 -1.5500 -0.8318 -0.4932
 1597SOL     OW16252   0.442   1.307   6.206  0.8742  0.0615 -0.1136
 1597SOL    HW116253   0.438   1.252   6.128 -1.2842  2.1519 -1.5015
 1597SOL    HW216254   0.420   1.247   6.277 -0.2927  2.5568  1.6688
 1598SOL     OW16255   3.429   1.320   0.544  0.2771 -0.2489 -0.2948
 1598SOL    HW116256   3.451   1.337   0.452  1.7608 -3.1835 -0.4722
 1598SOL    HW216257   3.486   1.248   0.571 -1.0178 -1.4567 -0.8145
 1599SOL     OW16258   2.179   3.504   3.140 -0.0041  0.3275  0.3026
 1599SOL    HW116259   2.177   3.567   3.068  0.6787 -1.7502 -1.5359
 1599SOL    HW216260   2.099   3.459   3.111 -0.7521  0.5638  2.0476
 1600SOL     OW16261   0.636   3.221   3.371 -0.1182 -0.1967 -0.2818
 1600SOL    HW116262   0.593   3.142   3.338 -1.1705  0.8289 -1.3946
 1600SOL    HW216263   0.712   3.175   3.406 -0.3158 -0.5187 -0.2839
 1601SOL     OW16264   2.116   2.404   5.804 -0.0505  0.1042  0.3870
 1601SOL    HW116265   2.209   2.380   5.811  0.1348  0.9334  0.7220
 1601SOL    HW216266   2.080   2.317   5.793  2.1476 -1.1828  3.3416
 1602SOL     OW16267   1.079   1.289   8.402  0.3356 -0.0355  0.1967
 1602SOL    HW116268   1.110   1.346   8.330 -0.0605  2.0441  1.6830
 1602SOL    HW216269   1.010   1.241   8.357  0.4448 -1.3271  1.4232
 1603SOL     OW16270   0.271   2.987   8.195  0.1540 -0.1736 -0.2391
 1603SOL    HW116271   0.222   3.041   8.132  0.3534 -0.3106 -0.5120
 1603SOL    HW216272   0.289   2.914   8.136  1.2867  0.4173 -0.6359
 1604SOL     OW16273   1.246   0.672   8.459  0.3606 -0.5448 -0.1564
 1604SOL    HW116274   1.233   0.715   8.375  0.3361 -0.1858  0.0310
 1604SOL    HW216275   1.268   0.753   8.504 -0.0095 -0.1807 -0.6383
 1605SOL     OW16276   1.291   4.653  12.534  0.3439  0.1340 -0.0033
 1605SOL    HW116277   1.314   4.573  12.582  1.7130 -0.2827 -1.3533
 1605SOL    HW216278   1.329   4.634  12.448  0.0524 -2.2179  0.3783
 1606SOL     OW16279   4.379   0.857  17.300  0.2915  0.1971  0.4725
 1606SOL    HW116280   4.466   0.897  17.296 -0.0155  0.7973 -0.1514
 1606SOL    HW216281   4.355   0.879  17.210 -1.9824 -0.6316  0.8701
 1607SOL     OW16282   3.728   0.803   5.146 -0.0300 -0.7417 -0.1282
 1607SOL    HW116283   3.808   0.750   5.141 -0.3239 -1.2656  0.8766
 1607SOL    HW216284   3.763   0.893   5.143 -1.1305 -0.3448 -1.0095
 1608SOL     OW16285   1.894   4.105   3.853 -0.6157 -0.2440  0.4162
 1608SOL    HW116286   1.933   4.118   3.766 -2.4427  4.9045  0.3508
 1608SOL    HW216287   1.970   4.140   3.900 -1.3140 -1.4964  2.4787
 1609SOL     OW16288   3.341   1.668   1.771  0.0847  0.6681  0.5340
 1609SOL    HW116289   3.400   1.729   1.725  1.9112 -1.0452  0.5891
 1609SOL    HW216290   3.263   1.693   1.722 -0.5477  1.6422  2.0518
 1610SOL     OW16291   0.604   0.826   5.833  0.1881  0.1224  0.4641
 1610SOL    HW116292   0.554   0.898   5.797 -0.5072 -1.2765 -1.3781
 1610SOL    HW216293   0.674   0.828   5.768  0.4039 -0.8662  0.6532
 1611SOL     OW16294   3.666   2.873   7.469 -0.3648  0.2571 -0.2751
 1611SOL    HW116295   3.749   2.825   7.468 -0.9737 -0.8350  0.8389
 1611SOL    HW216296   3.690   2.950   7.520  1.1810 -0.0974 -0.4668
 1612SOL     OW16297   3.400   1.362   2.847 -0.0184 -0.1001 -0.3497
 1612SOL    HW116298   3.418   1.274   2.814  0.4151  0.4883 -1.6833
 1612SOL    HW216299   3.316   1.356   2.893  0.7799 -0.4988  1.0506
 1613SOL     OW16300   4.507   0.479   3.131 -0.2379 -0.0465  0.7848
 1613SOL    HW116301   4.509   0.559   3.078  0.9968  0.0206  0.9427
 1613SOL    HW216302   4.500   0.415   3.060  0.8951  0.4777  0.1975
 1614SOL     OW16303   1.701   4.424  15.591  0.3831  0.1437  0.2921
 1614SOL    HW116304   1.676   4.517  15.600 -0.7891 -0.0340 -1.1365
 1614SOL    HW216305   1.778   4.414  15.647 -0.3185 -0.4303  1.1387
 1615SOL     OW16306   1.716   1.378  16.567 -0.0535 -0.2502  0.1798
 1615SOL    HW116307   1.622   1.376  16.553  0.2041 -0.7656 -1.4163
 1615SOL    HW216308   1.720   1.396  16.661 -2.7086  0.2812  0.1872
 1616SOL     OW16309   0.554   2.655   6.536  0.1758  0.2877  0.4049
 1616SOL    HW116310   0.557   2.668   6.441 -0.3356 -0.4105  0.2928
 1616SOL    HW216311   0.469   2.690   6.564 -0.1927 -0.9034  0.7543
 1617SOL     OW16312   4.309   3.859   9.572  0.7534 -0.2043 -0.1663
 1617SOL    HW116313   4.274   3.917   9.640  0.2911 -2.0023  1.1172
 1617SOL    HW216314   4.349   3.786   9.618  0.8777 -1.3567 -2.0859
 1618SOL     OW16315   0.907   3.067   8.868  0.3814 -0.3920  0.0971
 1618SOL    HW116316   0.996   3.055   8.833  1.0959  1.4519  1.2526
 1618SOL    HW216317   0.865   3.064   8.782  0.5926  1.0240 -0.0586
 1619SOL     OW16318   0.988   2.639   9.396  0.1910 -0.3645  0.4512
 1619SOL    HW116319   0.989   2.699   9.322 -0.3283  2.4064  2.6626
 1619SOL    HW216320   0.966   2.552   9.365  0.4474  0.1774 -1.2502
 1620SOL     OW16321   4.688   4.176   3.662 -0.1882 -0.3817 -0.0108
 1620SOL    HW116322   4.707   4.136   3.747  0.9936  1.0266  0.3893
 1620SOL    HW216323   4.713   4.106   3.601  2.3653  0.7088 -0.2075
 1621SOL     OW16324   0.891   1.938   5.787  0.6393  0.0222 -0.6895
 1621SOL    HW116325   0.836   1.865   5.761 -0.0394 -0.2885  1.6696
 1621SOL    HW216326   0.826   2.001   5.815  2.0936  0.7750  0.9904
 1622SOL     OW16327   3.087   0.793  11.357  0.5302  0.1064 -0.1931
 1622SOL    HW116328   3.010   0.846  11.335 -0.1953  0.1349  2.3911
 1622SOL    HW216329   3.053   0.746  11.433  0.6808  0.8128  0.3073
 1623SOL     OW16330   3.843   0.350   3.722 -0.6541  0.3246 -0.6237
 1623SOL    HW116331   3.849   0.289   3.795 -4.4239 -0.7369 -1.2025
 1623SOL    HW216332   3.873   0.434   3.756 -2.5531  1.0170 -0.6439
 1624SOL     OW16333   1.635   1.733  11.254  0.0002  0.5969  0.3061
 1624SOL    HW116334   1.664   1.756  11.342  1.0430 -0.5708  0.2685
 1624SOL    HW216335   1.716   1.736  11.204  0.3917 -1.8014  0.7815
 1625SOL     OW16336   2.902   2.192   5.289 -0.2631 -0.2881 -0.1454
 1625SOL    HW116337   2.966   2.124   5.312  2.7271  1.8571 -2.0044
 1625SOL    HW216338   2.833   2.172   5.352  1.2476 -2.3866  0.8455
 1626SOL     OW16339   2.367   0.579   9.213 -0.0563 -0.2406 -0.7693
 1626SOL    HW116340   2.394   0.488   9.229 -2.2521 -0.5864  1.0515
 1626SOL    HW216341   2.349   0.619   9.298  1.5712  1.3314 -1.1531
 1627SOL     OW16342   0.095   2.999   3.323 -0.3499  0.0190 -0.3501
 1627SOL    HW116343   0.022   3.010   3.383 -0.6860 -1.4977 -0.4705
 1627SOL    HW216344   0.170   3.005   3.382 -1.0056  0.1935  0.4638
 1628SOL     OW16345   1.171   2.500   6.263  0.5311 -0.0144 -0.3446
 1628SOL    HW116346   1.216   2.452   6.194 -0.2644 -0.4554 -0.5512
 1628SOL    HW216347   1.106   2.438   6.296  1.5965 -0.2132  1.4066
 1629SOL     OW16348   0.662   4.401   6.801  0.6699 -1.0637  0.5939
 1629SOL    HW116349   0.591   4.354   6.758  1.5424 -1.1834 -0.7202
 1629SOL    HW216350   0.704   4.441   6.725 -0.9256 -0.6602 -0.0835
 1630SOL     OW16351   0.824   4.277   9.683 -0.1833  0.0827  0.0725
 1630SOL    HW116352   0.816   4.192   9.727  0.6443 -0.5274 -0.9519
 1630SOL    HW216353   0.741   4.317   9.707 -0.3294  0.1689 -0.5811
 1631SOL     OW16354   1.384   3.144   1.407  0.2740  0.1308 -0.4655
 1631SOL    HW116355   1.333   3.075   1.448  0.3479  0.0766 -0.4640
 1631SOL    HW216356   1.389   3.111   1.318  3.0173  1.8711 -0.9750
 1632SOL     OW16357   1.348   2.724   3.685 -1.0475 -0.3202 -0.2829
 1632SOL    HW116358   1.371   2.805   3.640  0.0974 -0.1584  0.6178
 1632SOL    HW216359   1.310   2.674   3.612  0.7473 -0.3910 -1.1534
 1633SOL     OW16360   1.320   3.284  10.340  0.1118  0.2794 -0.2917
 1633SOL    HW116361   1.362   3.334  10.269  0.6779  2.8521  1.8555
 1633SOL    HW216362   1.387   3.287  10.408 -0.7616  1.5927  0.4891
 1634SOL     OW16363   3.316   1.248   8.595 -0.5502  0.6366  0.1531
 1634SOL    HW116364   3.241   1.253   8.653 -2.8514 -1.9673 -2.5932
 1634SOL    HW216365   3.276   1.214   8.515 -0.5239 -0.6728  0.6954
 1635SOL     OW16366   0.988   1.983  14.105 -0.6749 -0.1435 -0.0723
 1635SOL    HW116367   0.941   2.052  14.058  0.2476  1.1646  0.9104
 1635SOL    HW216368   0.919   1.942  14.157 -0.2941 -2.0185 -1.0772
 1636SOL     OW16369   0.689   2.434  13.301  0.1878 -0.6634  0.0408
 1636SOL    HW116370   0.627   2.364  13.281 -1.9640  1.2385  0.0283
 1636SOL    HW216371   0.628   2.491  13.348 -0.2856 -0.6205 -0.6217
 1637SOL     OW16372   3.087   0.776   2.830  0.2782  0.4302 -0.3105
 1637SOL    HW116373   3.051   0.833   2.762  2.6774  1.6298 -0.5546
 1637SOL    HW216374   3.157   0.728   2.787  0.8944  0.8998  0.1712
 1638SOL     OW16375   4.277   3.829   8.554 -0.2189  0.0284 -0.2335
 1638SOL    HW116376   4.289   3.740   8.587  0.7667  1.0797  2.2849
 1638SOL    HW216377   4.354   3.846   8.499 -0.4702  1.3774 -0.1760
 1639SOL     OW16378   4.407   0.645   9.227 -0.1479  0.1821 -0.2609
 1639SOL    HW116379   4.404   0.740   9.232 -4.3556  0.0514 -0.2170
 1639SOL    HW216380   4.452   0.626   9.144 -0.8972 -2.8284  0.0079
 1640SOL     OW16381   3.573   4.210   8.023  0.0323  0.1601  0.0161
 1640SOL    HW116382   3.568   4.117   8.002 -1.2805  0.1817  0.2206
 1640SOL    HW216383   3.647   4.219   8.083 -0.5317 -2.2012  1.0727
 1641SOL     OW16384   3.134   3.878  16.035 -0.0578 -0.0816  0.1001
 1641SOL    HW116385   3.139   3.923  16.120 -0.3287  0.3893 -0.1323
 1641SOL    HW216386   3.193   3.804  16.048 -0.3225 -0.3269 -0.1318
 1642SOL     OW16387   2.290   4.488   4.742  0.2565  0.2138 -0.1601
 1642SOL    HW116388   2.375   4.462   4.777  0.8595  2.6482  0.1803
 1642SOL    HW216389   2.319   4.572   4.707  2.7462 -0.7861 -0.4898
 1643SOL     OW16390   2.590   2.292   3.088  0.4770 -0.8312  0.1326
 1643SOL    HW116391   2.552   2.371   3.128  0.7588 -0.1775 -0.8979
 1643SOL    HW216392   2.611   2.320   2.999  0.6270 -0.6217  0.2321
 1644SOL     OW16393   1.355   0.997  13.582  0.3103 -0.1346 -0.1924
 1644SOL    HW116394   1.273   1.008  13.631  0.5317 -0.8504  0.3377
 1644SOL    HW216395   1.392   1.085  13.589 -1.2073  0.7650 -3.1675
 1645SOL     OW16396   1.403   1.070  15.394  0.5272  0.4417 -0.2937
 1645SOL    HW116397   1.398   1.164  15.410  0.1938  0.6391 -1.5567
 1645SOL    HW216398   1.312   1.044  15.401  0.3232  0.8382 -1.4161
 1646SOL     OW16399   3.993   2.544   3.438  0.1867  0.3706 -0.2656
 1646SOL    HW116400   4.040   2.478   3.388  0.0102 -1.3613  1.8525
 1646SOL    HW216401   3.924   2.557   3.373 -0.0344  1.9579  0.2905
 1647SOL     OW16402   1.238   2.506   2.716 -0.5699  0.1209  0.3040
 1647SOL    HW116403   1.212   2.520   2.625 -1.1905 -0.6975  0.3538
 1647SOL    HW216404   1.320   2.554   2.727 -1.0655  1.1872 -0.5897
 1648SOL     OW16405   0.479   2.752   9.431 -0.5050  0.1915  0.5516
 1648SOL    HW116406   0.574   2.737   9.434 -0.6574 -0.7233  0.7458
 1648SOL    HW216407   0.486   2.821   9.365  1.0203  0.5568  1.0991
 1649SOL     OW16408   2.706   1.289   4.274 -0.4984 -0.2405 -0.0976
 1649SOL    HW116409   2.735   1.201   4.296 -0.2499 -0.6355 -2.0225
 1649SOL    HW216410   2.763   1.347   4.326 -0.7500  0.8538 -1.0408
 1650SOL     OW16411   4.661   4.561   9.203  0.3036  0.1467 -0.2230
 1650SOL    HW116412   4.577   4.575   9.247  0.7558  0.0363  0.6758
 1650SOL    HW216413   4.674   4.646   9.160  1.0300  0.1358 -0.0281
 1651SOL     OW16414   2.042   1.427   3.276 -0.6802  0.6618 -0.2453
 1651SOL    HW116415   2.134   1.424   3.304 -1.0924  1.2308  1.1556
 1651SOL    HW216416   2.003   1.413   3.362  0.1361  2.4634  0.4144
 1652SOL     OW16417   1.466   4.636   6.255  0.3692 -0.4521  0.1008
 1652SOL    HW116418   1.494   4.717   6.297 -1.3797  1.8605 -3.1950
 1652SOL    HW216419   1.472   4.665   6.164 -1.7736  0.2506  0.1922
 1653SOL     OW16420   3.981   2.887   2.227  0.4548 -0.0772  0.3317
 1653SOL    HW116421   4.011   2.873   2.317 -1.0618  0.4390  0.9269
 1653SOL    HW216422   4.032   2.820   2.182  1.3780 -0.4057  1.8638
 1654SOL     OW16423   1.035   0.815   8.703 -0.4595 -0.1503  0.2700
 1654SOL    HW116424   1.086   0.794   8.781 -0.2010  1.0855  0.4483
 1654SOL    HW216425   1.108   0.848   8.650 -1.5534  0.6334 -0.7670
 1655SOL     OW16426   2.054   2.318   7.779  0.0980  0.1745 -0.7634
 1655SOL    HW116427   2.008   2.401   7.771 -0.9610 -0.4469 -1.0084
 1655SOL    HW216428   2.145   2.346   7.795  0.8309 -2.0504 -1.0186
 1656SOL     OW16429   2.033   0.164   2.552  0.3605  0.0727 -0.6642
 1656SOL    HW116430   2.003   0.195   2.638  0.4775  0.5466 -0.7926
 1656SOL    HW216431   1.969   0.200   2.489  0.6791  1.0176 -0.4498
 1657SOL     OW16432   3.811   1.292   0.766 -0.6303 -0.4691 -0.5417
 1657SOL    HW116433   3.770   1.269   0.683 -1.3868 -1.1037  0.0047
 1657SOL    HW216434   3.900   1.266   0.741 -0.5218 -0.0473 -0.5962
 1658SOL     OW16435   2.114   4.169   2.731  0.2532 -0.1286  0.7285
 1658SOL    HW116436   2.049   4.196   2.666  1.4561 -0.6187 -0.6767
 1658SOL    HW216437   2.135   4.254   2.769  0.1249 -0.6176  1.9159
 1659SOL     OW16438   1.079   0.886   1.627 -0.3122 -0.2432 -0.3650
 1659SOL    HW116439   0.991   0.864   1.595  0.0538 -1.3872 -0.5863
 1659SOL    HW216440   1.060   0.940   1.703 -0.3444  1.1072 -1.3278
 1660SOL     OW16441   0.606   1.916   2.262  0.1920  0.7947 -0.0559
 1660SOL    HW116442   0.558   1.960   2.331 -0.3672 -1.5449  1.0532
 1660SOL    HW216443   0.543   1.851   2.229 -0.0007 -0.0701  2.0525
 1661SOL     OW16444   2.662   3.206   2.431  0.1667  0.1019  0.1447
 1661SOL    HW116445   2.685   3.271   2.364  2.3678 -0.3504  0.4749
 1661SOL    HW216446   2.712   3.130   2.402 -0.0894  0.5680 -1.5510
 1662SOL     OW16447   3.004   4.438   1.812  0.3821 -0.8033  0.1680
 1662SOL    HW116448   2.950   4.451   1.890  1.4107  0.9085  0.6130
 1662SOL    HW216449   3.093   4.448   1.847  0.2124  1.2707  0.0316
 1663SOL     OW16450   3.512   0.033   4.689 -0.0236  0.1875  0.4382
 1663SOL    HW116451   3.599   0.058   4.658  0.2747 -0.3854  0.8046
 1663SOL    HW216452   3.501   4.685   4.627 -2.0454  0.0665  0.9600
 1664SOL     OW16453   1.721   2.003   5.484  0.0656 -0.3918 -0.1256
 1664SOL    HW116454   1.773   1.972   5.410  0.9976  0.0002  0.3634
 1664SOL    HW216455   1.734   1.934   5.549  1.2223 -0.4403 -0.4136
 1665SOL     OW16456   0.239   1.823   4.242  0.2535  0.1474 -0.0465
 1665SOL    HW116457   0.148   1.853   4.247  0.2855  0.8002 -3.0799
 1665SOL    HW216458   0.244   1.753   4.307 -1.3750 -1.5436 -1.7563
 1666SOL     OW16459   1.154   2.511   2.441  0.7101 -0.7059  0.4708
 1666SOL    HW116460   1.093   2.507   2.367 -1.0467  1.3584  1.8160
 1666SOL    HW216461   1.222   2.452   2.409 -1.2730 -0.9462 -3.3619
 1667SOL     OW16462   1.518   2.739   0.385  0.2648  0.9464  0.1508
 1667SOL    HW116463   1.585   2.797   0.349 -1.5178  2.2352 -1.0925
 1667SOL    HW216464   1.460   2.800   0.430  0.2446  0.9545  0.1137
 1668SOL     OW16465   4.067   2.881   4.266 -0.5197  0.0683 -0.8436
 1668SOL    HW116466   4.016   2.872   4.347  0.4637  1.1705 -0.1153
 1668SOL    HW216467   4.150   2.850   4.303 -1.6603 -1.4848  0.4474
 1669SOL     OW16468   1.156   0.203  13.122 -0.1588 -0.2044 -0.1159
 1669SOL    HW116469   1.223   0.137  13.103  0.2506  0.6732 -1.6718
 1669SOL    HW216470   1.122   0.216  13.034  1.4202  0.0250 -0.6997
 1670SOL     OW16471   2.122   0.849   4.604 -0.0331  0.2084  0.3097
 1670SOL    HW116472   2.170   0.864   4.686 -1.1740 -1.1998  1.2229
 1670SOL    HW216473   2.141   0.930   4.556  0.1937 -1.3196 -2.1421
 1671SOL     OW16474   2.788   3.490  15.587  0.0635 -0.2267 -0.2631
 1671SOL    HW116475   2.808   3.397  15.589  1.4317  0.0643 -0.2509
 1671SOL    HW216476   2.822   3.511  15.500 -0.5107 -1.7474 -0.8449
 1672SOL     OW16477   1.379   3.873   8.993 -0.0255 -0.5164 -0.0960
 1672SOL    HW116478   1.431   3.933   9.045  2.2035 -1.0280 -1.7581
 1672SOL    HW216479   1.301   3.929   8.985  1.5768  1.5363 -1.4402
 1673SOL     OW16480   2.514   0.082   3.212  0.3120 -0.1431 -0.2525
 1673SOL    HW116481   2.596   0.113   3.173  0.4573  0.0668  0.2197
 1673SOL    HW216482   2.501   0.141   3.286 -1.6813 -2.3476  1.1325
 1674SOL     OW16483   1.738   1.272   2.190  0.0314 -0.4985 -0.3154
 1674SOL    HW116484   1.771   1.182   2.189  2.3932  0.3184  2.7492
 1674SOL    HW216485   1.662   1.262   2.247  0.5226 -1.2297  0.2066
 1675SOL     OW16486   3.082   0.333   5.497  0.3554 -0.1672 -0.3976
 1675SOL    HW116487   2.990   0.316   5.479  0.3091 -0.3902  0.0381
 1675SOL    HW216488   3.069   0.418   5.538  0.8426 -1.0887  1.7247
 1676SOL     OW16489   3.953   2.384   6.739  0.0236 -0.1037 -0.0230
 1676SOL    HW116490   4.034   2.434   6.754  0.7219 -1.4069  0.5585
 1676SOL    HW216491   3.889   2.444   6.776  0.0293 -0.0089 -0.1657
 1677SOL     OW16492   3.754   4.681  12.752  0.1930  0.6540 -0.8113
 1677SOL    HW116493   3.678   4.679  12.811 -0.8510  0.0454 -2.1874
 1677SOL    HW216494   3.792   4.594  12.763 -2.4740 -0.5145 -0.6459
 1678SOL     OW16495   1.538   0.275   4.237 -0.0656 -0.2255  0.4479
 1678SOL    HW116496   1.558   0.190   4.198 -0.7429  0.6118 -1.7367
 1678SOL    HW216497   1.446   0.291   4.214  0.1814 -1.1381 -1.1297
 1679SOL     OW16498   2.276   0.536   1.083  0.1747  0.1416 -0.1121
 1679SOL    HW116499   2.224   0.615   1.093  0.7877  0.7602 -1.9665
 1679SOL    HW216500   2.333   0.534   1.160  0.3929 -1.9301 -0.3063
 1680SOL     OW16501   3.545   3.422   5.765 -0.9424 -0.1066 -0.2908
 1680SOL    HW116502   3.573   3.513   5.757 -3.1528  0.3386 -2.8409
 1680SOL    HW216503   3.453   3.422   5.794 -1.1242 -0.1005 -0.8784
 1681SOL     OW16504   1.556   4.472   2.600 -0.0556  0.2990  0.1716
 1681SOL    HW116505   1.527   4.445   2.512 -0.7169  0.5242  0.3200
 1681SOL    HW216506   1.616   4.400   2.618  0.5739  1.2103  1.6822
 1682SOL     OW16507   3.529   3.514   5.248 -0.0620 -0.4517  0.3925
 1682SOL    HW116508   3.516   3.594   5.298 -0.3849 -1.5277  2.0489
 1682SOL    HW216509   3.544   3.546   5.160 -0.6785  0.3111  0.5619
 1683SOL     OW16510   4.324   2.318   1.320 -0.1422 -0.4502 -0.0042
 1683SOL    HW116511   4.239   2.339   1.283  0.7319  1.8200 -0.7212
 1683SOL    HW216512   4.318   2.223   1.325 -0.8889 -0.2771  1.9959
 1684SOL     OW16513   2.657   1.568   5.014 -0.1115 -0.1358 -0.2908
 1684SOL    HW116514   2.684   1.659   5.000  0.2439 -0.4501 -1.6652
 1684SOL    HW216515   2.682   1.552   5.105 -0.6393 -1.6658 -0.4257
 1685SOL     OW16516   2.468   2.713  14.212  0.1265  0.5034 -0.1614
 1685SOL    HW116517   2.514   2.786  14.253 -0.5776  2.1425 -2.2552
 1685SOL    HW216518   2.431   2.751  14.132 -0.1425 -0.9582 -0.7294
 1686SOL     OW16519   4.631   3.648   1.147 -0.3209 -0.2586 -0.5523
 1686SOL    HW116520   4.651   3.595   1.223  0.1606  1.3406  0.4288
 1686SOL    HW216521   4.614   3.577   1.085  1.7406 -1.0347 -0.2268
 1687SOL     OW16522   3.723   1.999   8.611 -0.5713 -0.3719 -0.6242
 1687SOL    HW116523   3.746   2.085   8.646 -2.5313 -0.6980  1.5041
 1687SOL    HW216524   3.713   1.955   8.696  1.3417 -0.8597 -0.6536
 1688SOL     OW16525   0.791   4.415   3.967  0.3478  0.0000 -0.5120
 1688SOL    HW116526   0.788   4.498   4.015  1.0546 -0.3920  0.1994
 1688SOL    HW216527   0.872   4.374   3.997 -0.7606 -0.2753  2.1831
 1689SOL     OW16528   3.567   4.350   7.607 -0.7847 -0.9014 -0.1309
 1689SOL    HW116529   3.601   4.261   7.599  0.8227  0.0457 -3.6974
 1689SOL    HW216530   3.474   4.342   7.589 -0.5336 -0.9066 -1.4232
 1690SOL     OW16531   0.750   2.560   2.226  0.2542  1.3417  0.5885
 1690SOL    HW116532   0.800   2.507   2.164 -2.6602 -0.6812 -0.0350
 1690SOL    HW216533   0.721   2.486   2.281  1.0423  0.0177 -0.7940
 1691SOL     OW16534   4.337   2.048   5.522  0.1482 -0.2350 -0.8613
 1691SOL    HW116535   4.418   1.997   5.527 -0.2351 -0.7273  0.1729
 1691SOL    HW216536   4.357   2.132   5.562 -0.1167 -0.8975  0.6795
 1692SOL     OW16537   3.751   4.136   6.805  0.2234  0.3647 -0.5949
 1692SOL    HW116538   3.663   4.127   6.840 -0.0344 -2.2834 -1.9217
 1692SOL    HW216539   3.751   4.079   6.728  0.4243  2.2684 -2.0090
 1693SOL     OW16540   2.634   0.281   8.003 -0.2450  0.4408 -0.4200
 1693SOL    HW116541   2.704   0.307   7.943  1.4137  0.9240  1.7204
 1693SOL    HW216542   2.616   0.197   7.962  0.0095 -0.0401  0.4438
 1694SOL     OW16543   2.765   2.584   5.538 -0.4539  0.2915  0.2149
 1694SOL    HW116544   2.852   2.570   5.500  0.7073  0.6191  2.6963
 1694SOL    HW216545   2.736   2.668   5.504 -0.5651  0.0496 -0.2810
 1695SOL     OW16546   4.038   1.269   4.117 -0.1824  0.1675 -0.2060
 1695SOL    HW116547   4.126   1.274   4.079  0.3085 -1.6464  0.7328
 1695SOL    HW216548   4.005   1.205   4.054  1.4300 -2.7609  1.9527
 1696SOL     OW16549   4.025   0.703   8.757 -0.3474  0.0133  0.1193
 1696SOL    HW116550   4.098   0.642   8.748 -0.1606  0.2174  0.2498
 1696SOL    HW216551   3.965   0.663   8.820 -1.6215 -0.9584 -1.7077
 1697SOL     OW16552   1.623   1.410  15.760  0.4933 -0.2935  0.3657
 1697SOL    HW116553   1.672   1.476  15.711 -1.0143  0.0001 -0.7697
 1697SOL    HW216554   1.535   1.444  15.742  0.1453  0.0990  2.8453
 1698SOL     OW16555   3.034   1.052   7.474  0.4598 -0.2541  0.0990
 1698SOL    HW116556   3.040   1.137   7.516  0.9391  0.4529 -1.4165
 1698SOL    HW216557   2.944   1.035   7.501  0.2321 -1.4294 -1.4097
 1699SOL     OW16558   1.472   3.004   9.506  0.0919  0.3213  0.3036
 1699SOL    HW116559   1.546   3.064   9.504  0.9359 -0.6630  2.8873
 1699SOL    HW216560   1.522   2.939   9.555 -1.4574 -2.8631 -2.3361
 1700SOL     OW16561   1.858   1.091   9.013  0.3743  0.2616  0.0490
 1700SOL    HW116562   1.913   1.123   8.941 -0.8166  3.5555  0.6162
 1700SOL    HW216563   1.931   1.070   9.071  0.9797 -0.7163 -1.0800
 1701SOL     OW16564   0.691   2.621   4.006 -0.1621  0.1601  0.2706
 1701SOL    HW116565   0.654   2.709   4.011 -2.3115 -0.8084  1.2965
 1701SOL    HW216566   0.717   2.623   3.914 -1.8147  0.0949 -0.2025
 1702SOL     OW16567   0.688   3.385   6.047 -0.7050 -0.0698  0.2194
 1702SOL    HW116568   0.783   3.392   6.055 -0.5688 -1.3939 -0.2161
 1702SOL    HW216569   0.676   3.478   6.028  0.5144  0.0403 -0.0143
 1703SOL     OW16570   1.924   1.330   9.865 -0.4801  0.3710 -0.4126
 1703SOL    HW116571   1.893   1.408   9.911 -1.0099  0.4433 -0.8913
 1703SOL    HW216572   1.883   1.351   9.781 -0.8501 -1.8404 -0.7874
 1704SOL     OW16573   2.846   0.858   4.436 -0.5264  0.0542  0.2024
 1704SOL    HW116574   2.805   0.882   4.353  2.2258  0.2921 -1.0801
 1704SOL    HW216575   2.857   0.946   4.473 -0.2100  0.3026 -0.4997
 1705SOL     OW16576   2.268   0.031   9.247 -0.5946 -0.2664  0.0271
 1705SOL    HW116577   2.204   0.100   9.265 -1.9077 -1.6427  0.5812
 1705SOL    HW216578   2.277   4.712   9.332 -0.0642 -1.7514 -0.7734
 1706SOL     OW16579   0.656   4.498  15.892  0.5412  0.1481 -0.1340
 1706SOL    HW116580   0.671   4.497  15.986 -1.7233  0.4942  0.2359
 1706SOL    HW216581   0.675   4.405  15.877 -0.1483 -0.3812  2.2903
 1707SOL     OW16582   2.144   0.358  12.743  0.1101  0.2970 -0.3010
 1707SOL    HW116583   2.142   0.329  12.835  0.3472  0.0628 -0.3703
 1707SOL    HW216584   2.050   0.342  12.731  0.3171  0.3622 -1.9225
 1708SOL     OW16585   0.808   0.653   2.378  0.4863 -0.4134  0.5429
 1708SOL    HW116586   0.715   0.668   2.362  0.0872 -0.1062  3.1528
 1708SOL    HW216587   0.838   0.638   2.289 -0.0712 -1.3375  0.5148
 1709SOL     OW16588   2.232   3.273   0.865 -0.1476 -0.2849 -0.0300
 1709SOL    HW116589   2.222   3.212   0.938  1.7838  0.4921  0.8850
 1709SOL    HW216590   2.160   3.332   0.886  0.3127  0.3274 -0.1708
 1710SOL     OW16591   1.007   1.349   0.673 -0.4270  0.0172  0.2867
 1710SOL    HW116592   0.913   1.347   0.655 -0.4845 -2.7834  0.9031
 1710SOL    HW216593   1.020   1.409   0.747  0.8302 -0.7597  0.7026
 1711SOL     OW16594   0.406   2.040   8.727 -0.3245  0.2808 -0.4192
 1711SOL    HW116595   0.380   1.957   8.767  0.8399 -0.8753 -2.0853
 1711SOL    HW216596   0.326   2.060   8.679 -0.4792  1.2455  0.2453
 1712SOL     OW16597   0.283   0.589  10.944  0.3272 -0.5065  0.3818
 1712SOL    HW116598   0.227   0.613  11.018  1.0537 -0.5584  0.9435
 1712SOL    HW216599   0.228   0.575  10.867  0.7652 -0.0496 -0.0084
 1713SOL     OW16600   3.423   3.285   8.218  0.2313  0.0744  0.5285
 1713SOL    HW116601   3.366   3.329   8.281  1.6319  3.0316 -0.2638
 1713SOL    HW216602   3.474   3.355   8.177 -0.0297 -0.5294 -0.8218
 1714SOL     OW16603   1.742   0.985   3.180 -0.1597 -0.6474  0.3956
 1714SOL    HW116604   1.688   1.030   3.245  1.3141  0.0887  1.1184
 1714SOL    HW216605   1.776   1.063   3.136 -0.4525 -0.5248  0.3897
 1715SOL     OW16606   2.940   1.603   7.461  0.0005 -0.3085  0.6749
 1715SOL    HW116607   3.010   1.609   7.526  1.3388  0.5435 -0.8622
 1715SOL    HW216608   2.962   1.675   7.402 -0.8389  0.3818  1.1845
 1716SOL     OW16609   1.346   0.250   5.046 -0.1320  0.2949 -0.3722
 1716SOL    HW116610   1.303   0.180   5.095 -0.0168  1.1987  1.0371
 1716SOL    HW216611   1.288   0.267   4.972  0.9599  2.2304 -0.7833
 1717SOL     OW16612   3.042   1.026   9.557  0.1846  0.1220 -0.6747
 1717SOL    HW116613   3.103   0.974   9.610 -0.3635 -1.1268 -1.2774
 1717SOL    HW216614   2.973   0.962   9.540  2.1386 -1.8336 -1.2213
 1718SOL     OW16615   2.878   3.265   6.916  0.5410 -0.4810 -0.1937
 1718SOL    HW116616   2.861   3.340   6.859  0.5509 -0.5749 -0.3179
 1718SOL    HW216617   2.848   3.188   6.868 -1.1235 -0.8121  1.3399
 1719SOL     OW16618   2.277   4.120   0.903 -0.0410 -0.8973 -0.1674
 1719SOL    HW116619   2.246   4.072   0.826  0.0143  0.6494 -1.1588
 1719SOL    HW216620   2.289   4.041   0.954 -1.0119 -0.7959  0.2171
 1720SOL     OW16621   3.229   2.383   8.595 -0.3034 -0.2648 -0.0309
 1720SOL    HW116622   3.264   2.380   8.684 -2.9412  0.3991  1.0401
 1720SOL    HW216623   3.303   2.346   8.547  0.8360 -0.3389  1.8083
 1721SOL     OW16624   0.932   2.409  13.408  0.3191  0.0964  0.0136
 1721SOL    HW116625   0.972   2.476  13.351 -0.4595  0.7413  0.2266
 1721SOL    HW216626   0.841   2.423  13.380 -0.1103  1.9401  2.3692
 1722SOL     OW16627   3.962   2.990   6.444  0.1875 -0.3276 -0.0161
 1722SOL    HW116628   3.884   3.043   6.426 -0.8261 -1.5605  0.7684
 1722SOL    HW216629   3.989   2.969   6.355  3.4685 -0.3126  1.0036
 1723SOL     OW16630   1.563   3.069   8.663 -0.5187 -0.0210 -0.0296
 1723SOL    HW116631   1.508   3.118   8.724  2.3749  0.8000  1.9345
 1723SOL    HW216632   1.544   3.126   8.588 -1.4274 -0.1706  0.0908
 1724SOL     OW16633   1.942   2.597   8.186  0.0983  0.3732  0.1588
 1724SOL    HW116634   2.011   2.533   8.170 -1.4266 -1.6357  1.7071
 1724SOL    HW216635   1.883   2.544   8.241 -2.3656  1.1108 -1.7538
 1725SOL     OW16636   1.843   1.812   7.221  0.4417 -0.3882  0.3100
 1725SOL    HW116637   1.925   1.851   7.252  0.1509 -1.1330  2.0415
 1725SOL    HW216638   1.793   1.787   7.299 -2.5987  2.4644 -0.7565
 1726SOL     OW16639   1.381   0.943   0.026 -0.3155  0.1425 -0.1536
 1726SOL    HW116640   1.390   0.897   0.110 -2.0751 -1.5332 -0.9202
 1726SOL    HW216641   1.340   0.874  17.673  1.1027 -0.3154 -0.6960
 1727SOL     OW16642   3.067   0.721   6.980 -0.1657  0.0892  0.2534
 1727SOL    HW116643   3.059   0.763   6.894 -1.5012  1.9921  1.3019
 1727SOL    HW216644   3.082   0.633   6.948  0.0785  1.5304 -3.6122
 1728SOL     OW16645   0.936   3.397   3.402 -0.5276  0.9856 -0.3907
 1728SOL    HW116646   0.948   3.336   3.475  1.3926 -0.2164 -1.6841
 1728SOL    HW216647   0.996   3.350   3.343  0.9210  2.7099 -0.2829
 1729SOL     OW16648   1.723   4.613  10.871 -0.0238 -0.3206  0.7127
 1729SOL    HW116649   1.808   4.595  10.912 -0.2978 -1.1503  0.9107
 1729SOL    HW216650   1.722   4.708  10.859 -0.5759 -0.5474 -0.9534
 1730SOL     OW16651   2.046   3.927   1.710  0.3485  0.1899  0.5038
 1730SOL    HW116652   2.133   3.954   1.739 -0.7294  2.2041  1.8332
 1730SOL    HW216653   2.053   3.836   1.739 -1.1734 -0.2983 -0.6169
 1731SOL     OW16654   4.665   1.862   4.249 -0.3010  0.1840  0.6394
 1731SOL    HW116655   4.628   1.922   4.313  0.3615 -0.6387  1.8068
 1731SOL    HW216656   4.661   1.929   4.181 -0.8952 -1.6298 -1.1145
 1732SOL     OW16657   1.528   3.369  13.084 -0.2744  0.1932 -0.0026
 1732SOL    HW116658   1.481   3.300  13.037  0.2645  0.6002 -1.1544
 1732SOL    HW216659   1.462   3.410  13.139 -0.9756  0.3211 -0.9402
 1733SOL     OW16660   0.028   4.644   3.566  0.0746  0.2077 -0.4681
 1733SOL    HW116661   0.068   4.594   3.637  1.4865 -0.6241 -1.8492
 1733SOL    HW216662   0.031   4.572   3.504 -2.2823 -0.3490  0.0563
 1734SOL     OW16663   4.125   0.959   9.044  0.1311 -0.1135  0.4240
 1734SOL    HW116664   4.091   1.038   9.085 -2.0210 -1.1125  0.5775
 1734SOL    HW216665   4.115   1.000   8.958  2.8523 -0.2184  0.0433
 1735SOL     OW16666   2.635   2.386   2.830  0.1958  0.0526 -0.3069
 1735SOL    HW116667   2.687   2.431   2.763  0.5513  1.1281  0.6921
 1735SOL    HW216668   2.543   2.401   2.809  0.3365  2.7068  0.9577
 1736SOL     OW16669   1.625   4.541   2.919  0.0458  0.2164 -0.1144
 1736SOL    HW116670   1.596   4.515   2.831  0.4489  1.9676 -0.7638
 1736SOL    HW216671   1.579   4.624   2.930  0.3227  0.5838 -1.7282
 1737SOL     OW16672   3.287   0.865  16.725  0.3670 -0.1257  0.1233
 1737SOL    HW116673   3.287   0.960  16.735 -0.7156 -0.3352  2.0372
 1737SOL    HW216674   3.334   0.844  16.644  1.7688 -0.7968  1.1004
 1738SOL     OW16675   4.508   2.900  10.988  0.9412 -0.2894 -0.0441
 1738SOL    HW116676   4.438   2.912  11.052  2.0122  3.0359  0.5019
 1738SOL    HW216677   4.522   2.807  11.004  1.4843 -0.2075 -0.0301
 1739SOL     OW16678   1.061   2.844   4.074  0.2634  0.9046 -0.4397
 1739SOL    HW116679   1.122   2.913   4.102  1.8791 -0.8527  0.3338
 1739SOL    HW216680   0.994   2.901   4.037  0.0359  1.3341  0.6441
 1740SOL     OW16681   4.060   0.652   6.828  0.7508 -0.3319 -0.3295
 1740SOL    HW116682   4.095   0.710   6.761 -0.5668  0.7600 -0.0722
 1740SOL    HW216683   4.036   0.578   6.771 -1.1113 -0.2774  0.3685
 1741SOL     OW16684   0.914   3.927   3.518  0.4006 -0.3571  0.8173
 1741SOL    HW116685   0.918   4.006   3.572 -2.6242 -0.2776  0.9258
 1741SOL    HW216686   0.840   3.936   3.458  1.4087 -0.2237 -0.4097
 1742SOL     OW16687   0.424   1.627   0.584 -0.4105 -0.2887  0.4290
 1742SOL    HW116688   0.481   1.617   0.508 -1.6557  1.6627 -0.7784
 1742SOL    HW216689   0.422   1.723   0.577  0.3967 -0.3515 -0.6646
 1743SOL     OW16690   3.814   2.624   4.700 -0.5410  0.6362 -0.4369
 1743SOL    HW116691   3.847   2.615   4.611  1.5058 -2.3106  0.6262
 1743SOL    HW216692   3.743   2.685   4.680  0.2133  1.0233 -1.9141
 1744SOL     OW16693   3.793   0.546   3.392 -0.1766 -0.7058 -0.1061
 1744SOL    HW116694   3.847   0.551   3.471  0.2955  0.2771 -0.4978
 1744SOL    HW216695   3.773   0.636   3.368 -0.4159  0.2735  3.7086
 1745SOL     OW16696   4.523   3.424   7.193  0.1127  0.1373 -0.2213
 1745SOL    HW116697   4.557   3.410   7.105  0.2095 -1.5278  0.0723
 1745SOL    HW216698   4.507   3.330   7.204  1.4710 -0.0868 -0.1198
 1746SOL     OW16699   2.833   2.444   4.751  0.2260 -0.0557 -0.2266
 1746SOL    HW116700   2.872   2.370   4.706  0.0505 -0.4390  0.2541
 1746SOL    HW216701   2.740   2.424   4.736  0.1618  1.1537 -1.4239
 1747SOL     OW16702   2.166   2.129   8.225  0.0451 -0.5774  0.6103
 1747SOL    HW116703   2.144   2.134   8.318  1.0732  0.0792  0.8125
 1747SOL    HW216704   2.115   2.058   8.185  1.1947 -2.1049  1.8512
 1748SOL     OW16705   3.744   3.580   1.944  0.6252  0.5648  0.2333
 1748SOL    HW116706   3.681   3.507   1.942 -0.3628  1.3940  0.9280
 1748SOL    HW216707   3.688   3.644   1.900 -0.0584 -1.3581 -1.7312
 1749SOL     OW16708   2.853   1.285   9.677  0.2528  0.2291  0.3001
 1749SOL    HW116709   2.890   1.372   9.693 -0.1641  0.2823  0.9879
 1749SOL    HW216710   2.827   1.273   9.768  1.3136 -0.6443  0.4861
 1750SOL     OW16711   2.340   4.534   1.925 -0.2860 -0.3056  0.1496
 1750SOL    HW116712   2.256   4.529   1.880 -0.5973 -1.9563  0.8877
 1750SOL    HW216713   2.334   4.610   1.983  1.4628 -2.3532  3.0272
 1751SOL     OW16714   1.301   4.457   0.634  0.0838 -0.0953  0.6650
 1751SOL    HW116715   1.249   4.536   0.616  0.8466  0.0614 -0.8903
 1751SOL    HW216716   1.241   4.416   0.696 -0.0957  0.0593  0.5960
 1752SOL     OW16717   2.735   3.723   6.260 -0.5897  0.3832 -0.0123
 1752SOL    HW116718   2.671   3.662   6.223 -3.1192  1.0360  3.2905
 1752SOL    HW216719   2.799   3.657   6.289 -0.4940  1.2025  1.6197
 1753SOL     OW16720   0.612   0.897   4.384  0.4170 -0.2938  0.1632
 1753SOL    HW116721   0.696   0.860   4.358  1.8470  1.7882  1.8094
 1753SOL    HW216722   0.558   0.847   4.323  0.9448  0.5607 -1.0045
 1754SOL     OW16723   1.198   1.253  13.412  0.2514 -0.3654 -0.1567
 1754SOL    HW116724   1.103   1.257  13.417  0.2000 -0.6906 -0.9540
 1754SOL    HW216725   1.218   1.306  13.489 -0.3589 -1.0301  0.4651
 1755SOL     OW16726   4.108   3.681   7.731 -0.2342 -0.2447  0.6209
 1755SOL    HW116727   4.039   3.721   7.783  0.8480  1.7884  0.4852
 1755SOL    HW216728   4.153   3.759   7.699  0.1952 -0.7637 -0.0356
 1756SOL     OW16729   1.663   4.444   9.051 -0.4201 -0.6623  0.5671
 1756SOL    HW116730   1.631   4.378   8.990  0.7971 -0.3463 -0.4052
 1756SOL    HW216731   1.641   4.413   9.139 -0.4525 -0.8822  0.4800
 1757SOL     OW16732   2.050   2.968   2.366  0.1329 -0.0666  0.1417
 1757SOL    HW116733   2.022   2.989   2.277  1.0227  1.5423  0.2375
 1757SOL    HW216734   2.076   2.876   2.355  2.8632  0.8842 -1.3425
 1758SOL     OW16735   1.873   0.163   2.086  0.1770 -0.4359 -0.1196
 1758SOL    HW116736   1.786   0.147   2.121 -0.3716  0.4123 -1.0781
 1758SOL    HW216737   1.845   0.159   1.995  0.4748  2.1252 -0.3392
 1759SOL     OW16738   3.101   3.439   4.231  0.2624  0.0513  0.1714
 1759SOL    HW116739   3.015   3.396   4.237  0.3357 -0.1696 -0.3848
 1759SOL    HW216740   3.112   3.461   4.139  2.0815  0.3987  0.4800
 1760SOL     OW16741   1.645   1.607  15.205  0.0676 -0.0567 -0.4889
 1760SOL    HW116742   1.691   1.688  15.180  0.4009  0.4197  1.6710
 1760SOL    HW216743   1.714   1.542  15.200 -0.4220 -0.4312 -2.5690
 1761SOL     OW16744   0.600   2.435   3.046 -0.0351  0.3024 -0.1666
 1761SOL    HW116745   0.522   2.492   3.044 -0.0434  0.2888 -0.2256
 1761SOL    HW216746   0.619   2.427   2.953  1.6060 -3.8035  0.5433
 1762SOL     OW16747   0.590   1.390   1.561 -0.2524 -0.5545 -0.4268
 1762SOL    HW116748   0.497   1.406   1.545 -0.5587 -1.6734  0.2277
 1762SOL    HW216749   0.608   1.395   1.655 -1.0037  0.2258 -0.3259
 1763SOL     OW16750   4.452   3.295   4.472  0.2992 -0.3637 -0.4849
 1763SOL    HW116751   4.378   3.234   4.475  1.1229 -1.3414  0.1190
 1763SOL    HW216752   4.512   3.241   4.421  2.1176  0.5554  0.6723
 1764SOL     OW16753   3.959   2.656   7.843 -0.3287  0.1021 -0.3166
 1764SOL    HW116754   3.912   2.739   7.843  1.4549  1.0997 -2.0518
 1764SOL    HW216755   3.906   2.613   7.775  1.3406 -1.2079 -0.8019
 1765SOL     OW16756   3.351   2.007  15.086 -0.4186 -0.3739 -0.8384
 1765SOL    HW116757   3.275   2.033  15.034 -0.7718  1.7673  0.7333
 1765SOL    HW216758   3.334   1.914  15.099 -0.5743 -0.1378  0.6803
 1766SOL     OW16759   4.072   0.256   7.913 -0.1625 -0.4518  0.6336
 1766SOL    HW116760   4.106   0.223   7.996  0.0046  1.4484  1.3220
 1766SOL    HW216761   4.031   0.179   7.875 -1.4087 -0.7169  2.5345
 1767SOL     OW16762   2.769   1.950   3.931 -0.5799  0.5410 -0.4194
 1767SOL    HW116763   2.778   2.035   3.888 -0.1000  2.1507  2.8489
 1767SOL    HW216764   2.775   1.967   4.025  0.5686 -0.7466 -0.2582
 1768SOL     OW16765   1.402   1.224  12.605  0.0795  0.2881  0.3167
 1768SOL    HW116766   1.481   1.252  12.559  0.0275 -0.6179 -0.3178
 1768SOL    HW216767   1.437   1.141  12.639 -1.0089 -0.9390 -1.5682
 1769SOL     OW16768   2.518   0.029  12.440  0.3910 -0.9405 -0.2752
 1769SOL    HW116769   2.580   4.681  12.454  0.6393 -0.6585  0.0708
 1769SOL    HW216770   2.577   0.075  12.380 -0.3652  1.0330  0.5143
 1770SOL     OW16771   1.913   2.805  17.063  0.2313 -0.5896  0.8775
 1770SOL    HW116772   1.941   2.823  17.153  0.2470  0.9577  0.5627
 1770SOL    HW216773   1.838   2.865  17.057  1.0979  0.3980 -0.1074
 1771SOL     OW16774   1.750   2.508  13.926  0.9885 -0.3218  0.2968
 1771SOL    HW116775   1.701   2.533  13.848 -0.6448  1.1000  1.7846
 1771SOL    HW216776   1.689   2.475  13.992  1.8541 -4.8973 -1.1824
 1772SOL     OW16777   4.495   3.638  14.949  0.2709 -0.5036  0.3155
 1772SOL    HW116778   4.563   3.653  15.015 -1.4438  0.3095  1.9012
 1772SOL    HW216779   4.535   3.565  14.901 -1.2927 -1.1394 -0.0331
 1773SOL     OW16780   3.365   2.388   1.488  1.1026 -0.0840  0.4663
 1773SOL    HW116781   3.417   2.431   1.556  0.2360 -0.7159  1.5279
 1773SOL    HW216782   3.359   2.304   1.533 -0.4240 -0.8342 -1.1378
 1774SOL     OW16783   1.630   4.035   8.831  0.1581  0.1759 -0.5982
 1774SOL    HW116784   1.677   4.044   8.914 -0.8579 -0.8179  0.0861
 1774SOL    HW216785   1.691   4.078   8.772 -0.3626  1.2891 -0.3123
 1775SOL     OW16786   1.244   3.598   8.452 -0.5618  0.1785  0.0406
 1775SOL    HW116787   1.176   3.558   8.397  0.4096  1.6451 -2.2427
 1775SOL    HW216788   1.239   3.550   8.534 -1.8354  0.1202 -0.0720
 1776SOL     OW16789   3.971   3.669   1.102  0.2714 -0.0902  0.0585
 1776SOL    HW116790   4.027   3.742   1.129  0.0464 -0.5555  1.8488
 1776SOL    HW216791   3.999   3.648   1.013  1.7775 -0.6507  0.6524
 1777SOL     OW16792   4.345   0.932   4.004  0.3035  0.6261  0.1275
 1777SOL    HW116793   4.373   0.937   4.095  0.2809 -1.0227  0.2085
 1777SOL    HW216794   4.354   0.840   3.981  0.3216  0.4994  0.6399
 1778SOL     OW16795   0.853   2.041   4.591 -0.3293 -0.3138 -0.0802
 1778SOL    HW116796   0.846   1.958   4.543 -0.7953 -0.5308  0.3635
 1778SOL    HW216797   0.918   2.084   4.535  0.4678  0.2233  1.2472
 1779SOL     OW16798   1.954   0.324   9.160 -0.1226  0.5266  0.3902
 1779SOL    HW116799   1.924   0.303   9.071  0.2253  2.5228 -0.2172
 1779SOL    HW216800   2.003   0.406   9.149 -1.5837  1.2094 -1.2414
 1780SOL     OW16801   4.534   1.362   2.570  0.0616 -0.0043 -0.1526
 1780SOL    HW116802   4.467   1.356   2.638  0.0138 -1.9654 -0.3671
 1780SOL    HW216803   4.474   1.374   2.496 -1.2159  0.2398  0.9231
 1781SOL     OW16804   1.846   2.719   3.703  0.4305  0.3677 -0.2980
 1781SOL    HW116805   1.795   2.775   3.644 -2.6784 -0.1352  1.9340
 1781SOL    HW216806   1.929   2.766   3.695  0.8349 -0.6958 -2.3877
 1782SOL     OW16807   4.390   0.714  11.009  0.5095 -1.0851 -0.3820
 1782SOL    HW116808   4.375   0.642  11.070 -0.3679 -1.2214 -0.7536
 1782SOL    HW216809   4.485   0.720  11.008  0.4952 -0.7396  1.1172
 1783SOL     OW16810   0.325   1.893   8.009 -0.1699 -0.4431 -0.0935
 1783SOL    HW116811   0.350   1.852   8.092  1.7493  2.1045  0.5800
 1783SOL    HW216812   0.237   1.926   8.029  0.3572 -0.6386  2.5421
 1784SOL     OW16813   3.914   3.492   6.333 -0.5417 -0.8300  0.1438
 1784SOL    HW116814   3.988   3.449   6.376 -0.1928 -0.0733  0.3001
 1784SOL    HW216815   3.919   3.473   6.240 -0.4651 -0.6830  0.1177
 1785SOL     OW16816   3.866   0.124   9.501  0.7846  0.0729 -0.3862
 1785SOL    HW116817   3.944   0.139   9.555 -0.0818  1.5627  0.4518
 1785SOL    HW216818   3.815   0.205   9.508 -0.1848 -0.4324 -1.6817
 1786SOL     OW16819   3.601   2.949  13.614 -0.1873  0.1596  0.4260
 1786SOL    HW116820   3.529   2.996  13.573 -0.8048 -0.6670  0.5577
 1786SOL    HW216821   3.592   2.984  13.703 -1.3049 -1.2847  0.8967
 1787SOL     OW16822   2.258   4.155   2.308 -0.2932  0.0684 -0.1450
 1787SOL    HW116823   2.244   4.103   2.229  1.3074 -0.9562  0.2372
 1787SOL    HW216824   2.298   4.088   2.363 -0.8103 -0.0148  0.1242
 1788SOL     OW16825   2.612   1.556  16.831 -0.0942  0.5114 -0.3698
 1788SOL    HW116826   2.540   1.602  16.787 -0.4370 -0.2705 -0.6510
 1788SOL    HW216827   2.556   1.482  16.858 -0.1183 -0.4584 -3.0223
 1789SOL     OW16828   3.384   1.096  15.454 -0.0940 -0.1223  0.6073
 1789SOL    HW116829   3.420   1.172  15.407  1.1503 -1.0899 -0.0111
 1789SOL    HW216830   3.309   1.073  15.400  0.5571 -1.1363  0.1376
 1790SOL     OW16831   2.972   4.448   0.711  0.1385 -0.2501  0.0229
 1790SOL    HW116832   3.055   4.424   0.670 -1.3546 -1.2682 -2.4357
 1790SOL    HW216833   2.997   4.454   0.803  0.8028 -0.7552 -0.1238
 1791SOL     OW16834   0.809   2.351   3.845  0.1086  0.0136  0.5914
 1791SOL    HW116835   0.902   2.329   3.840  0.2876  0.4627  1.7638
 1791SOL    HW216836   0.785   2.403   3.768 -0.0640  0.3515  0.8692
 1792SOL     OW16837   3.505   2.790   5.327 -0.1870 -0.2856 -0.0288
 1792SOL    HW116838   3.506   2.761   5.418  3.9447  0.2194  0.0602
 1792SOL    HW216839   3.587   2.765   5.284 -0.0664  0.9834 -0.5491
 1793SOL     OW16840   2.551   2.872  15.515  0.1414 -0.1704 -0.2676
 1793SOL    HW116841   2.518   2.785  15.491 -2.6268  1.0653 -0.8174
 1793SOL    HW216842   2.575   2.906  15.429  2.1642 -2.9893 -0.8381
 1794SOL     OW16843   2.839   1.106  11.994 -0.8051 -0.6682  1.0458
 1794SOL    HW116844   2.923   1.106  12.039  0.3608 -0.1675 -1.1376
 1794SOL    HW216845   2.849   1.021  11.951 -2.3282  0.4773 -1.5856
 1795SOL     OW16846   0.469   4.262   8.580  0.1689 -0.0672  0.5697
 1795SOL    HW116847   0.450   4.329   8.515 -1.1596  0.6702  1.7138
 1795SOL    HW216848   0.388   4.212   8.579 -2.6041  4.4595 -0.2136
 1796SOL     OW16849   2.439   2.292   1.585 -0.3572  0.3585 -0.5967
 1796SOL    HW116850   2.351   2.318   1.559 -1.4991 -0.5907  2.2707
 1796SOL    HW216851   2.495   2.320   1.514  1.3561 -0.1740  0.5484
 1797SOL     OW16852   0.890   3.327   8.474 -0.0050  0.0867  0.5068
 1797SOL    HW116853   0.825   3.396   8.463  1.0532  1.1343  0.8080
 1797SOL    HW216854   0.923   3.344   8.562  0.2639  1.9431  0.0559
 1798SOL     OW16855   0.512   2.021   7.304  0.6633 -0.0920 -0.0829
 1798SOL    HW116856   0.582   1.974   7.349  0.7573  0.4719  0.3515
 1798SOL    HW216857   0.469   2.062   7.379  0.1780  1.8347 -1.4028
 1799SOL     OW16858   4.607   3.592  13.202  0.4216  0.8128  0.1329
 1799SOL    HW116859   4.653   3.673  13.183  1.2856  0.6938  1.6824
 1799SOL    HW216860   4.517   3.616  13.180  1.4217  3.5506 -0.9391
 1800SOL     OW16861   1.653   0.894   6.979 -0.1919 -0.5294  0.2547
 1800SOL    HW116862   1.665   0.831   7.050  0.2129 -2.2644 -1.3395
 1800SOL    HW216863   1.625   0.838   6.906 -1.1767 -1.1991  1.1377
 1801SOL     OW16864   2.852   4.468   2.501 -0.5546  0.8344 -0.3622
 1801SOL    HW116865   2.789   4.418   2.554  0.7344 -1.9230 -1.4171
 1801SOL    HW216866   2.839   4.423   2.417 -3.0291 -1.0759  1.0385
 1802SOL     OW16867   0.125   2.335   5.535 -0.5953 -0.4397  0.1363
 1802SOL    HW116868   0.168   2.289   5.463 -1.5456 -0.9912 -0.0775
 1802SOL    HW216869   0.196   2.391   5.565 -1.0447  0.4514 -0.4672
 1803SOL     OW16870   0.714   1.377   6.967  0.9053 -0.0376 -0.3434
 1803SOL    HW116871   0.713   1.469   6.943  2.8149 -0.1235 -0.7313
 1803SOL    HW216872   0.731   1.339   6.881 -1.0864  2.8860 -2.0215
 1804SOL     OW16873   0.247   2.104   2.318  0.3795 -0.0737  0.1925
 1804SOL    HW116874   0.214   2.015   2.329 -0.2133  0.0371 -0.7520
 1804SOL    HW216875   0.338   2.088   2.344  0.8022  0.2986 -1.0521
 1805SOL     OW16876   2.636   2.734   7.101 -0.1307 -0.1231  0.3765
 1805SOL    HW116877   2.674   2.678   7.033 -0.8202  0.2718 -0.3416
 1805SOL    HW216878   2.707   2.796   7.114  1.2840 -2.1807  2.3115
 1806SOL     OW16879   3.297   0.793  11.134 -0.5685  0.7749  0.2780
 1806SOL    HW116880   3.235   0.772  11.203  0.4181 -0.3914  0.7980
 1806SOL    HW216881   3.247   0.866  11.097 -1.4387 -1.0584 -2.1607
 1807SOL     OW16882   2.106   2.605   4.015  0.0432 -0.1249 -0.2456
 1807SOL    HW116883   2.062   2.689   4.008  1.5670  0.6425 -0.5302
 1807SOL    HW216884   2.030   2.550   4.033  0.0067  0.2166  0.6341
 1808SOL     OW16885   0.503   4.008   7.925 -0.3615 -0.4105  0.4592
 1808SOL    HW116886   0.483   3.952   7.850 -0.9703 -0.2181  0.4800
 1808SOL    HW216887   0.530   4.090   7.882  0.2042  0.1477  1.8624
 1809SOL     OW16888   0.689   4.536  14.333 -0.0621  0.1123 -0.5690
 1809SOL    HW116889   0.596   4.537  14.312 -0.8242  1.3407  2.8991
 1809SOL    HW216890   0.688   4.479  14.410 -0.3554  2.0573  0.8454
 1810SOL     OW16891   3.345   3.146  14.052  0.1339 -0.2588 -0.1045
 1810SOL    HW116892   3.338   3.079  13.983 -0.9864  0.4340 -0.6533
 1810SOL    HW216893   3.298   3.218  14.011  4.0571  1.7472 -1.0856
 1811SOL     OW16894   4.526   2.459   1.522  0.5354 -0.2327  0.5907
 1811SOL    HW116895   4.561   2.545   1.544  2.5966 -0.7669 -0.6370
 1811SOL    HW216896   4.578   2.390   1.564 -1.6657 -0.9722  2.0832
 1812SOL     OW16897   1.440   4.358   6.868 -0.2147 -0.3560  0.1618
 1812SOL    HW116898   1.488   4.439   6.882  0.6788 -0.8508 -0.0400
 1812SOL    HW216899   1.503   4.288   6.851 -2.0009 -1.9857  0.1874
 1813SOL     OW16900   3.726   2.754   2.037 -0.1401  0.1465  0.5020
 1813SOL    HW116901   3.774   2.801   2.105  1.8994  0.1059 -0.9125
 1813SOL    HW216902   3.674   2.816   1.985 -0.2794  1.7793  2.6046
 1814SOL     OW16903   3.795   2.336  11.474  0.5879 -0.0156 -0.8125
 1814SOL    HW116904   3.715   2.285  11.481  1.6293 -1.6699 -0.8298
 1814SOL    HW216905   3.798   2.349  11.379  1.2888 -0.2877 -0.8289
 1815SOL     OW16906   0.189   3.478   4.689 -0.3717 -0.5359 -0.0277
 1815SOL    HW116907   0.222   3.531   4.761 -0.9027 -0.2085 -0.0329
 1815SOL    HW216908   0.255   3.503   4.624 -1.4363  1.2876 -0.3910
 1816SOL     OW16909   1.814   3.922   2.545 -0.4410 -0.5417  0.1702
 1816SOL    HW116910   1.728   3.883   2.534 -1.6545  2.4209 -0.7822
 1816SOL    HW216911   1.822   3.983   2.471  0.9229  0.2153  0.9385
 1817SOL     OW16912   2.886   0.679   9.022 -0.0443  0.0219  0.1019
 1817SOL    HW116913   2.909   0.699   9.113 -0.4607 -3.0708  0.8952
 1817SOL    HW216914   2.830   0.754   9.001 -1.7635 -1.4122 -0.4705
 1818SOL     OW16915   2.558   0.956   5.152  0.3915 -0.1875  0.3872
 1818SOL    HW116916   2.620   0.970   5.224  1.0450 -1.1801  0.0264
 1818SOL    HW216917   2.472   0.979   5.187  0.0030  0.3145 -0.9035
 1819SOL     OW16918   2.828   1.259   4.918  0.1019 -0.4764  0.0667
 1819SOL    HW116919   2.785   1.301   4.993 -1.7304 -2.2525 -0.0126
 1819SOL    HW216920   2.916   1.237   4.950 -0.6504 -2.5973  0.7096
 1820SOL     OW16921   1.789   1.467  14.276 -0.7327  0.1901  0.0857
 1820SOL    HW116922   1.748   1.508  14.352  2.2629  1.8212  0.7927
 1820SOL    HW216923   1.877   1.502  14.262 -1.3436  1.5834 -0.2898
 1821SOL     OW16924   1.740   3.698   9.168  0.2081 -0.0555 -0.4056
 1821SOL    HW116925   1.812   3.748   9.207  0.6567 -1.9365  1.2113
 1821SOL    HW216926   1.736   3.623   9.228 -0.6921  0.4543  0.1851
 1822SOL     OW16927   1.674   4.559  10.053 -0.4217 -0.7812 -0.0946
 1822SOL    HW116928   1.580   4.552  10.070 -0.1957 -0.8234  1.1923
 1822SOL    HW216929   1.710   4.486  10.104  0.0226  1.1105  2.3268
 1823SOL     OW16930   3.022   2.821   5.376  0.1003  0.1124 -0.0580
 1823SOL    HW116931   3.094   2.807   5.315 -1.2095  0.2527 -1.6288
 1823SOL    HW216932   3.019   2.733   5.414  1.2673 -0.5601 -1.4931
 1824SOL     OW16933   3.043   2.588   5.505 -0.1852 -0.8909  0.3291
 1824SOL    HW116934   3.071   2.505   5.468 -0.1243 -1.0668  0.7687
 1824SOL    HW216935   3.085   2.585   5.591  0.4023 -0.8187  0.0475
 1825SOL     OW16936   2.086   1.214   5.112  0.2996 -0.1339  0.2765
 1825SOL    HW116937   2.123   1.139   5.064  1.7513 -0.0264  1.2526
 1825SOL    HW216938   2.156   1.279   5.109 -0.3624  0.4324 -2.8064
 1826SOL     OW16939   0.492   3.696   8.282 -0.5997  0.0562  0.3129
 1826SOL    HW116940   0.441   3.695   8.363 -1.7276 -0.9384 -0.4105
 1826SOL    HW216941   0.534   3.780   8.296  0.0728 -0.1666 -0.3619
 1827SOL     OW16942   2.981   0.719  15.380  0.8505  0.2394  0.0775
 1827SOL    HW116943   2.929   0.759  15.311 -0.7512 -0.8392  0.6479
 1827SOL    HW216944   3.047   0.689  15.317 -0.7808 -2.3199 -0.4240
 1828SOL     OW16945   0.626   3.418   8.812 -0.2443  0.2775 -0.0874
 1828SOL    HW116946   0.687   3.490   8.827  0.1455  0.0801 -0.6955
 1828SOL    HW216947   0.547   3.460   8.845  1.2370  3.5870 -0.8241
 1829SOL     OW16948   0.809   0.608  11.398  0.3501 -0.2973  0.1186
 1829SOL    HW116949   0.839   0.519  11.379  2.4909  0.6897 -1.1031
 1829SOL    HW216950   0.803   0.595  11.493 -1.6089  1.4849  0.2649
 1830SOL     OW16951   3.486   0.339   1.000 -0.5080  0.1095  0.7678
 1830SOL    HW116952   3.416   0.338   1.064 -0.5910  1.3922  0.6936
 1830SOL    HW216953   3.440   0.330   0.916  0.6458  1.6485 -0.0246
 1831SOL     OW16954   0.693   2.120   5.839 -0.4345  0.0272  0.4120
 1831SOL    HW116955   0.607   2.136   5.801 -0.6738  0.3125  1.0676
 1831SOL    HW216956   0.722   2.211   5.833 -2.5036  0.5330 -1.6149
 1832SOL     OW16957   2.818   4.154   6.034  0.2986 -0.1438 -0.0513
 1832SOL    HW116958   2.794   4.065   6.061 -3.3321  0.6871 -0.5315
 1832SOL    HW216959   2.747   4.182   5.977 -1.2200  0.4908  2.1364
 1833SOL     OW16960   1.313   0.755   7.145  0.4182 -0.1243 -0.7701
 1833SOL    HW116961   1.380   0.782   7.207  0.3664 -0.2332 -0.6657
 1833SOL    HW216962   1.307   0.833   7.089  0.4518  1.1823  1.0687
 1834SOL     OW16963   4.067   0.245   8.941 -0.2258  0.1733  0.0142
 1834SOL    HW116964   4.038   0.335   8.934 -3.4268 -0.6750  2.4076
 1834SOL    HW216965   4.015   0.213   9.014  1.5804 -0.8136  0.8709
 1835SOL     OW16966   2.617   1.887   9.860  0.1253  0.5820 -0.1311
 1835SOL    HW116967   2.556   1.916   9.928 -0.0858 -0.0923 -0.0312
 1835SOL    HW216968   2.552   1.862   9.794  1.1326  0.7590 -1.1964
 1836SOL     OW16969   2.022   3.933   8.040  0.3411 -0.1174  0.7098
 1836SOL    HW116970   1.928   3.948   8.031  0.3794 -1.1772 -1.3462
 1836SOL    HW216971   2.038   3.991   8.114 -0.7163  1.4144 -0.2460
 1837SOL     OW16972   0.848   0.136   3.901  0.0947 -0.5728 -0.2088
 1837SOL    HW116973   0.853   0.207   3.836 -0.9968  0.4120  0.7903
 1837SOL    HW216974   0.767   0.092   3.876 -0.6531 -0.0226  1.2263
 1838SOL     OW16975   2.853   0.174   0.533 -0.1496 -0.8449 -0.1485
 1838SOL    HW116976   2.877   0.120   0.608  0.6913 -0.3501 -0.0578
 1838SOL    HW216977   2.801   0.118   0.475  0.2822 -2.1189  0.6922
 1839SOL     OW16978   3.724   4.705   7.243  0.3793  0.2247  0.7431
 1839SOL    HW116979   3.763   4.670   7.163 -1.4322  0.1699 -0.1281
 1839SOL    HW216980   3.734   4.632   7.305  0.3509  1.8269  2.6571
 1840SOL     OW16981   3.771   3.923   2.817  0.1732 -0.2765 -0.2119
 1840SOL    HW116982   3.705   3.969   2.766  1.2722  3.3805  1.7051
 1840SOL    HW216983   3.741   3.832   2.813  0.0872 -0.3892  2.4792
 1841SOL     OW16984   1.796   0.450   1.626  0.4711  0.0370  0.5737
 1841SOL    HW116985   1.738   0.512   1.669 -2.0012 -1.7427 -0.1796
 1841SOL    HW216986   1.882   0.490   1.639  0.3103  1.0213 -1.4505
 1842SOL     OW16987   3.950   1.699   1.864 -0.5741  0.2216 -0.1378
 1842SOL    HW116988   3.992   1.729   1.945 -1.2405 -1.2439  0.7676
 1842SOL    HW216989   3.905   1.619   1.893 -1.5237  0.5996 -0.5818
 1843SOL     OW16990   0.782   0.960  11.534 -0.7250 -0.5600 -0.5797
 1843SOL    HW116991   0.750   1.048  11.514 -2.1860 -0.4720  2.1799
 1843SOL    HW216992   0.786   0.950  11.629 -0.4364 -0.7971 -0.6152
 1844SOL     OW16993   3.529   4.474   4.458  0.0270  0.0426  0.1096
 1844SOL    HW116994   3.562   4.433   4.537 -0.1846 -3.0468 -1.4192
 1844SOL    HW216995   3.434   4.481   4.465 -0.0636  0.6109 -1.5316
 1845SOL     OW16996   3.271   1.738  14.231 -0.5769 -0.1302 -0.1030
 1845SOL    HW116997   3.360   1.763  14.254 -1.0125  1.6785 -0.3549
 1845SOL    HW216998   3.233   1.777  14.309 -0.5186  0.0614 -0.1697
 1846SOL     OW16999   4.522   0.716  13.444 -0.1045 -0.2444 -0.5818
 1846SOL    HW117000   4.432   0.690  13.463  0.5631 -1.0124  1.4154
 1846SOL    HW217001   4.564   0.710  13.529 -1.0484  1.6003  0.0183
 1847SOL     OW17002   0.510   3.221   6.487 -0.4122  0.0245 -0.5989
 1847SOL    HW117003   0.525   3.186   6.399 -0.6874 -4.2486  1.0718
 1847SOL    HW217004   0.601   3.235   6.514  0.4638 -2.8918 -2.0940
 1848SOL     OW17005   1.085   3.347   2.861  0.2712  0.0163 -0.0155
 1848SOL    HW117006   1.002   3.301   2.848  1.6780 -2.6188  0.3017
 1848SOL    HW217007   1.115   3.319   2.774  0.3899 -0.4201  0.1667
 1849SOL     OW17008   1.022   1.151   4.352  0.2599  0.5387 -0.3728
 1849SOL    HW117009   1.052   1.064   4.377 -1.3449  0.1220  0.0603
 1849SOL    HW217010   1.025   1.149   4.256  0.8265  1.3672 -0.3752
 1850SOL     OW17011   4.579   2.407   2.104 -0.5526 -0.4478 -0.3680
 1850SOL    HW117012   4.509   2.350   2.073 -0.9519  0.4861 -1.1848
 1850SOL    HW217013   4.562   2.475   2.040 -0.6346  0.0708  0.2014
 1851SOL     OW17014   2.946   0.220   9.255  0.2797 -0.0576  0.5169
 1851SOL    HW117015   3.014   0.262   9.202  0.1556 -1.0911 -0.4507
 1851SOL    HW217016   2.871   0.223   9.196  1.0256 -1.2478 -0.4751
 1852SOL     OW17017   1.749   0.712   4.514 -0.1181  0.6050  0.3430
 1852SOL    HW117018   1.698   0.645   4.560 -1.6167  3.4684  2.8325
 1852SOL    HW217019   1.726   0.677   4.428  0.1913 -2.6543  1.5962
 1853SOL     OW17020   2.794   0.765   6.627 -0.1786  0.5739  0.3596
 1853SOL    HW117021   2.786   0.792   6.536  0.4943 -1.4335 -0.3075
 1853SOL    HW217022   2.705   0.787   6.656 -0.8892 -1.9360  0.0962
 1854SOL     OW17023   1.704   0.065   6.790  0.1874  0.1544  0.0132
 1854SOL    HW117024   1.700   0.129   6.861 -0.6360  0.3437 -0.2067
 1854SOL    HW217025   1.746   0.119   6.723  2.9113  0.4763  1.9958
 1855SOL     OW17026   2.514   1.516   7.783  0.0361  1.2842 -0.2417
 1855SOL    HW117027   2.582   1.486   7.722 -1.4429 -1.1136 -0.7342
 1855SOL    HW217028   2.558   1.524   7.867 -0.2734 -1.2328  0.1671
 1856SOL     OW17029   0.396   1.807   4.634 -0.0068 -0.3728  0.2178
 1856SOL    HW117030   0.303   1.812   4.611 -0.6421 -3.0201  2.3031
 1856SOL    HW217031   0.406   1.712   4.625  1.3592 -0.0010 -2.3169
 1857SOL     OW17032   2.952   1.343   6.613 -0.0783  0.1879 -0.4565
 1857SOL    HW117033   2.878   1.283   6.608  0.0675  0.1727 -2.2128
 1857SOL    HW217034   3.016   1.286   6.571  0.3474 -0.3776  0.9652
 1858SOL     OW17035   1.318   2.808   8.805  0.0879 -0.2631 -0.0484
 1858SOL    HW117036   1.224   2.797   8.795 -0.2666  1.2617  1.5301
 1858SOL    HW217037   1.346   2.717   8.795 -0.8419 -0.6482  0.8358
 1859SOL     OW17038   2.596   3.668   1.009  0.2377  0.2171  0.6824
 1859SOL    HW117039   2.575   3.695   1.098 -2.4986  1.5230 -0.3768
 1859SOL    HW217040   2.688   3.646   1.023  0.5962  0.5533 -1.2094
 1860SOL     OW17041   2.704   2.009   2.276 -0.6768  0.2268  0.3480
 1860SOL    HW117042   2.748   2.007   2.191  2.2560 -3.2896  1.9498
 1860SOL    HW217043   2.615   2.026   2.247 -0.1957  0.5070 -0.9771
 1861SOL     OW17044   1.657   3.106   2.874 -0.0316 -0.8025  0.6880
 1861SOL    HW117045   1.699   3.024   2.849 -0.4049 -0.6141 -0.5405
 1861SOL    HW217046   1.582   3.071   2.923  0.0810 -3.7379 -1.2684
 1862SOL     OW17047   2.147   4.545  13.498  0.0619 -0.2140 -0.1093
 1862SOL    HW117048   2.213   4.613  13.485  0.1300 -0.2595  0.0026
 1862SOL    HW217049   2.203   4.469  13.511  0.8551  0.1138 -1.4848
 1863SOL     OW17050   3.639   0.127   8.753 -0.1997  0.0703  0.4149
 1863SOL    HW117051   3.591   0.137   8.835 -1.0642  0.3599 -0.1257
 1863SOL    HW217052   3.686   0.210   8.757 -0.8499  0.4776 -0.3065
 1864SOL     OW17053   4.196   3.410   5.242 -0.3235 -0.0125 -0.6497
 1864SOL    HW117054   4.161   3.448   5.161  0.1296  0.7679 -0.4779
 1864SOL    HW217055   4.240   3.485   5.282  0.3986 -0.0351 -1.4059
 1865SOL     OW17056   4.522   0.284   6.457  0.6504  0.5712 -0.2839
 1865SOL    HW117057   4.555   0.231   6.529 -1.4861  1.0780  1.0644
 1865SOL    HW217058   4.428   0.278   6.474  0.4539  0.5882 -1.3911
 1866SOL     OW17059   3.910   1.015   9.663  0.1252 -0.5666 -0.3582
 1866SOL    HW117060   3.829   1.012   9.613  1.1059  4.2022 -2.2012
 1866SOL    HW217061   3.907   1.104   9.699 -0.1398 -0.0653 -1.6478
 1867SOL     OW17062   1.108   3.178   5.578 -0.0427 -0.3395 -0.5913
 1867SOL    HW117063   1.162   3.101   5.595 -1.1085 -0.5003  2.2480
 1867SOL    HW217064   1.127   3.231   5.656 -1.3338  1.5816 -1.5659
 1868SOL     OW17065   4.241   2.514   6.065 -0.4665  0.0262 -0.7280
 1868SOL    HW117066   4.229   2.605   6.094  0.0911 -0.2482  0.3496
 1868SOL    HW217067   4.283   2.481   6.144  3.7335 -0.0715 -2.9461
 1869SOL     OW17068   3.708   0.017   0.700 -0.3555 -0.1031 -0.7293
 1869SOL    HW117069   3.747   4.656   0.718  1.3928  0.9999  0.7866
 1869SOL    HW217070   3.615   4.723   0.717 -0.7623  3.8466  1.2141
 1870SOL     OW17071   1.405   1.085  12.979 -0.1690  0.3725 -0.5142
 1870SOL    HW117072   1.334   1.148  12.978  0.0961  0.6910  1.0131
 1870SOL    HW217073   1.370   0.996  12.968  2.7241 -0.6536 -1.4753
 1871SOL     OW17074   4.325   0.426   5.451 -0.0978  0.2798  0.0157
 1871SOL    HW117075   4.237   0.447   5.482  0.3284  0.2887  1.2587
 1871SOL    HW217076   4.357   0.364   5.517  0.8818  1.8477  1.0460
 1872SOL     OW17077   0.741   4.466  17.026 -0.5960 -0.0909  0.0052
 1872SOL    HW117078   0.836   4.453  17.024 -0.5322  0.5133 -1.4621
 1872SOL    HW217079   0.724   4.548  16.978 -2.6820 -1.5933 -1.8144
 1873SOL     OW17080   1.391   4.310   3.393 -0.3401 -0.0194 -0.0356
 1873SOL    HW117081   1.366   4.249   3.325 -0.0020 -1.5906  1.2479
 1873SOL    HW217082   1.334   4.384   3.375  0.6965  1.0128  0.9017
 1874SOL     OW17083   2.843   0.399   9.017  0.1197 -0.4692 -0.6138
 1874SOL    HW117084   2.827   0.370   8.927 -1.5283  0.0746 -0.4800
 1874SOL    HW217085   2.843   0.494   9.005  2.4970 -0.6385 -1.9948
 1875SOL     OW17086   1.110   2.582   4.711 -0.1827  0.2529 -0.3953
 1875SOL    HW117087   1.025   2.561   4.672  0.7652  0.2263 -2.4050
 1875SOL    HW217088   1.142   2.641   4.643 -0.2988  0.2505 -0.4526
 1876SOL     OW17089   3.184   1.311   3.021  0.1618  0.6569  0.1870
 1876SOL    HW117090   3.125   1.312   3.096 -0.3415  0.0368 -0.2044
 1876SOL    HW217091   3.122   1.331   2.951 -1.0262 -2.7412  0.2883
 1877SOL     OW17092   4.504   1.011   1.348  0.7893 -0.0469  0.0784
 1877SOL    HW117093   4.530   0.987   1.437  1.4103 -1.7832 -0.5765
 1877SOL    HW217094   4.584   1.051   1.314  1.5276 -2.1395 -0.6430
 1878SOL     OW17095   4.343   3.108   3.873  0.2728 -0.9565 -0.2012
 1878SOL    HW117096   4.287   3.101   3.796  0.8855  1.1739 -0.8334
 1878SOL    HW217097   4.276   3.118   3.941  1.0169 -0.6459  0.4920
 1879SOL     OW17098   0.149   3.594  12.709  0.1469  0.5606 -0.2071
 1879SOL    HW117099   0.068   3.645  12.716  0.6261  1.1350  1.1607
 1879SOL    HW217100   0.198   3.629  12.783  1.7251 -0.0618 -0.9725
 1880SOL     OW17101   3.458   3.757  13.031 -0.3654  0.1089 -0.0969
 1880SOL    HW117102   3.485   3.841  12.992 -0.1757 -0.1252 -0.4655
 1880SOL    HW217103   3.365   3.759  13.007 -0.0581 -1.4070 -1.4331
 1881SOL     OW17104   1.916   2.340   3.520 -0.2114  0.2696  0.0082
 1881SOL    HW117105   1.983   2.351   3.587 -0.7588 -0.9196  0.7378
 1881SOL    HW217106   1.846   2.393   3.558 -1.0711 -0.8191 -0.0421
 1882SOL     OW17107   4.114   2.541   7.384  0.0984  0.1947 -0.6104
 1882SOL    HW117108   4.118   2.521   7.477 -0.1713  0.0610 -0.6264
 1882SOL    HW217109   4.055   2.471   7.355  0.7372 -1.5108  2.2431
 1883SOL     OW17110   3.859   4.124   1.349 -0.0516  0.2867  0.7720
 1883SOL    HW117111   3.863   4.052   1.286 -1.5169  0.1032  0.9021
 1883SOL    HW217112   3.830   4.191   1.288 -0.1910 -1.7189 -1.3697
 1884SOL     OW17113   4.683   0.372  10.153  0.1057 -0.4923  0.2196
 1884SOL    HW117114   4.705   0.322  10.231  0.0290 -1.0665 -0.1261
 1884SOL    HW217115   0.025   0.441  10.143  1.6667 -1.8523  1.1573
 1885SOL     OW17116   1.981   2.523  15.900 -0.3314 -0.0668  0.1156
 1885SOL    HW117117   2.053   2.552  15.845 -2.7013  2.0607 -1.8273
 1885SOL    HW217118   1.998   2.429  15.908  2.4399  0.3326 -1.1806
 1886SOL     OW17119   0.566   1.806  14.957 -0.0987 -0.8876  0.0758
 1886SOL    HW117120   0.481   1.776  14.992  1.0386 -0.8388  2.8822
 1886SOL    HW217121   0.543   1.808  14.864  0.4503 -0.4635 -0.0500
 1887SOL     OW17122   2.459   3.950  12.365 -0.2779 -0.5617  0.3056
 1887SOL    HW117123   2.514   4.024  12.339 -1.1345 -0.0373 -0.0295
 1887SOL    HW217124   2.379   3.951  12.312  0.9322 -0.6155 -1.5147
 1888SOL     OW17125   0.301   3.015   3.478 -0.1443 -0.4571  0.5390
 1888SOL    HW117126   0.386   3.003   3.437 -1.0881 -1.9698 -0.9362
 1888SOL    HW217127   0.326   3.060   3.559 -1.1102 -0.9138  1.0964
 1889SOL     OW17128   4.387   4.688   9.230  0.0573 -0.3832  0.6035
 1889SOL    HW117129   4.380   4.692   9.135 -0.0900 -3.8282  0.4814
 1889SOL    HW217130   4.308   0.009   9.259 -0.9720 -1.2434 -0.9367
 1890SOL     OW17131   2.174   4.397  16.413 -0.3163  1.0207 -0.1547
 1890SOL    HW117132   2.198   4.475  16.462  0.3516 -0.0614  1.2488
 1890SOL    HW217133   2.192   4.329  16.479 -0.4211  2.6001  1.4910
 1891SOL     OW17134   0.832   2.118   6.318 -0.5441 -0.3260 -0.4279
 1891SOL    HW117135   0.824   2.087   6.228  3.4531  2.0188 -1.6237
 1891SOL    HW217136   0.770   2.191   6.308 -1.1677 -0.7444  0.4184
 1892SOL     OW17137   4.655   3.155  11.170 -0.1628 -0.1375 -0.1593
 1892SOL    HW117138   4.564   3.182  11.182 -0.3102 -0.5098 -0.4408
 1892SOL    HW217139   4.701   3.235  11.194  1.2283 -0.9603 -0.1275
 1893SOL     OW17140   1.751   0.709  13.417 -0.0611 -0.4597  0.3806
 1893SOL    HW117141   1.658   0.721  13.434  0.0699  0.6874  0.3087
 1893SOL    HW217142   1.779   0.652  13.488  1.7925  0.4014  0.3617
 1894SOL     OW17143   0.046   3.954   8.253  0.0414  0.2676 -0.6106
 1894SOL    HW117144   0.090   3.926   8.173  1.9154 -0.0278  0.5285
 1894SOL    HW217145   4.716   3.880   8.279  1.2717 -0.3268  0.2466
 1895SOL     OW17146   3.208   3.347   4.847 -0.2112  0.0174  0.3249
 1895SOL    HW117147   3.226   3.259   4.814  1.2135 -0.5550  2.5447
 1895SOL    HW217148   3.230   3.340   4.940  3.1106  2.1059 -0.2864
 1896SOL     OW17149   2.441   1.312   1.296  0.0700  0.1732 -0.1936
 1896SOL    HW117150   2.420   1.221   1.317 -1.0662  0.8827  1.7947
 1896SOL    HW217151   2.525   1.296   1.254 -0.2895  1.0609 -1.2745
 1897SOL     OW17152   2.139   1.716   5.085  0.4081  0.0544 -0.2832
 1897SOL    HW117153   2.122   1.626   5.057 -0.7202  0.4942 -0.9942
 1897SOL    HW217154   2.230   1.720   5.054  0.3859 -2.8718 -0.7587
 1898SOL     OW17155   3.623   1.084  15.605  0.1224  0.0058 -0.4736
 1898SOL    HW117156   3.534   1.089  15.569  0.1249 -1.7238 -0.7196
 1898SOL    HW217157   3.684   1.143  15.561  0.7740 -0.2211  0.1259
 1899SOL     OW17158   3.163   2.754   2.303 -0.3812 -0.4343  0.5674
 1899SOL    HW117159   3.097   2.745   2.235  0.1132  1.0826 -0.0999
 1899SOL    HW217160   3.241   2.784   2.256 -0.9342 -0.3688 -0.2887
 1900SOL     OW17161   4.148   1.191   7.708 -0.1598  0.5202  0.1846
 1900SOL    HW117162   4.157   1.163   7.799 -0.6936 -0.6077 -0.1133
 1900SOL    HW217163   4.204   1.126   7.665 -0.6941 -0.1673  0.5236
 1901SOL     OW17164   2.727   1.884   3.114  0.0352  0.8029  0.1554
 1901SOL    HW117165   2.678   1.811   3.153 -0.6432  0.7731 -0.7732
 1901SOL    HW217166   2.657   1.949   3.113 -0.0512  0.7040 -0.0859
 1902SOL     OW17167   1.863   1.193   8.571 -0.2867  0.3723 -0.5579
 1902SOL    HW117168   1.870   1.099   8.558 -3.4308 -0.2230  1.9747
 1902SOL    HW217169   1.884   1.234   8.487  2.3938  0.9606  0.3950
 1903SOL     OW17170   0.163   4.279   9.958  0.1389 -0.1900 -0.2547
 1903SOL    HW117171   0.080   4.295   9.913  0.7629  0.5226 -1.1484
 1903SOL    HW217172   0.125   4.228  10.030 -1.3105 -2.3708 -2.5805
 1904SOL     OW17173   2.153   3.836   9.972 -0.1027  0.2400  0.2710
 1904SOL    HW117174   2.125   3.824  10.063  4.5072 -0.6907  1.5999
 1904SOL    HW217175   2.245   3.861   9.984 -0.3872  1.1524  0.5648
 1905SOL     OW17176   2.332   1.026   9.035 -1.0047 -0.0678  0.1248
 1905SOL    HW117177   2.418   1.001   9.069 -1.7497  0.2780  2.2749
 1905SOL    HW217178   2.346   0.985   8.950 -0.8706  0.2220  0.0063
 1906SOL     OW17179   1.514   2.569   7.441  0.6682  0.2944  0.2377
 1906SOL    HW117180   1.600   2.536   7.465  0.1895  0.5205  2.2463
 1906SOL    HW217181   1.543   2.642   7.387  1.9186 -1.3254 -1.2994
 1907SOL     OW17182   3.275   2.973  14.735 -0.3629 -0.1103  0.0766
 1907SOL    HW117183   3.282   3.030  14.812  0.0344  1.6840 -1.2877
 1907SOL    HW217184   3.208   2.908  14.758 -0.5442 -1.2937 -3.7414
 1908SOL     OW17185   4.591   2.052   2.228 -0.4322 -0.3901  0.6288
 1908SOL    HW117186   4.509   2.053   2.178  0.0539  1.0361 -0.1412
 1908SOL    HW217187   4.652   2.038   2.156 -2.3765 -0.5528 -0.9920
 1909SOL     OW17188   3.142   4.610   3.592  0.3969  0.0439 -0.3820
 1909SOL    HW117189   3.174   4.577   3.508  2.1121  2.3676 -0.6392
 1909SOL    HW217190   3.080   4.672   3.554 -0.1557  0.0726  0.5436
 1910SOL     OW17191   0.565   3.966   9.802 -0.2305  0.5086 -0.5336
 1910SOL    HW117192   0.546   4.017   9.723 -1.0446 -0.4999 -0.9877
 1910SOL    HW217193   0.485   3.976   9.854  0.4993  0.6645  0.5572
 1911SOL     OW17194   2.177   2.927  10.496  0.0441  0.2979 -0.0239
 1911SOL    HW117195   2.132   3.008  10.473 -0.4037 -0.0595 -0.4024
 1911SOL    HW217196   2.147   2.869  10.426  0.1031 -1.6541  1.5605
 1912SOL     OW17197   4.553   1.219   8.941  0.1661  0.1121 -0.6325
 1912SOL    HW117198   4.478   1.270   8.912 -0.5947 -0.8522 -0.3306
 1912SOL    HW217199   4.629   1.270   8.911  0.0276  0.6578 -0.0577
 1913SOL     OW17200   0.407   2.622   3.629  0.1929  0.2749  0.2536
 1913SOL    HW117201   0.455   2.561   3.573  0.1955  1.2322 -0.7760
 1913SOL    HW217202   0.332   2.566   3.649  0.2730  1.0714  2.7427
 1914SOL     OW17203   2.498   4.292   6.198 -0.5083  0.4827 -0.3586
 1914SOL    HW117204   2.512   4.313   6.106 -0.7915 -1.7472 -0.9087
 1914SOL    HW217205   2.456   4.208   6.183  2.4636 -1.0335 -0.1239
 1915SOL     OW17206   1.368   1.641  12.518 -1.0675 -1.0776 -0.0374
 1915SOL    HW117207   1.454   1.605  12.496 -0.4112  0.5660 -0.1240
 1915SOL    HW217208   1.377   1.665  12.610 -1.0076  0.9107 -0.5701
 1916SOL     OW17209   1.418   3.803  12.077 -0.5462 -0.0141 -0.2422
 1916SOL    HW117210   1.327   3.812  12.050 -0.0502 -0.0828 -1.9572
 1916SOL    HW217211   1.421   3.720  12.125 -1.0358  0.7752  1.1394
 1917SOL     OW17212   0.686   4.390   3.730  0.5435  0.0826 -0.1192
 1917SOL    HW117213   0.723   4.420   3.813 -0.5729 -1.9011  1.0943
 1917SOL    HW217214   0.657   4.299   3.743 -1.1000  0.8503  1.6554
 1918SOL     OW17215   3.973   2.925  12.906  0.4327  0.2947  0.0384
 1918SOL    HW117216   3.911   2.931  12.979 -1.8050 -0.5497 -1.7609
 1918SOL    HW217217   4.016   3.010  12.908 -1.6950  1.3823 -0.0699
 1919SOL     OW17218   1.272   3.072   4.119  0.2166  0.2809  0.2208
 1919SOL    HW117219   1.347   3.039   4.168  0.8726 -0.4397 -1.2972
 1919SOL    HW217220   1.306   3.082   4.030 -1.5349  0.8076 -0.3958
 1920SOL     OW17221   4.137   3.020   3.102  0.9064  0.3063 -0.1646
 1920SOL    HW117222   4.066   2.956   3.091  0.5740  0.6875 -0.2461
 1920SOL    HW217223   4.172   3.027   3.013 -0.0554 -1.4106 -0.6835
 1921SOL     OW17224   3.719   1.183   7.848 -0.5735  0.6865 -0.0501
 1921SOL    HW117225   3.680   1.248   7.906 -0.7402 -0.8256  1.5105
 1921SOL    HW217226   3.769   1.245   7.795  0.3709 -0.3285 -0.3374
 1922SOL     OW17227   4.183   0.620   9.370 -0.3813  0.5045 -0.0945
 1922SOL    HW117228   4.219   0.617   9.459 -1.2953 -0.2616  0.2443
 1922SOL    HW217229   4.268   0.622   9.326 -0.2412  0.8645  0.1948
 1923SOL     OW17230   3.777   1.364  15.523 -0.4852  0.0101  0.1337
 1923SOL    HW117231   3.857   1.415  15.538  0.1079 -0.1032 -2.7055
 1923SOL    HW217232   3.741   1.382  15.610  1.1025  0.9007  0.6153
 1924SOL     OW17233   1.069   0.440   4.938 -0.0096 -0.1371  0.2116
 1924SOL    HW117234   1.043   0.465   4.849 -3.5973 -3.8113  0.2285
 1924SOL    HW217235   0.987   0.477   4.970  0.0568 -0.6997  1.0182
 1925SOL     OW17236   3.046   2.960   3.510  0.1296  0.3451 -0.1135
 1925SOL    HW117237   2.965   2.962   3.561  1.2497 -1.0189  1.7503
 1925SOL    HW217238   3.046   2.875   3.465  0.5556  0.2087  0.1403
 1926SOL     OW17239   1.291   1.390   7.058 -0.6232  0.4214  0.2482
 1926SOL    HW117240   1.272   1.300   7.031  0.8104 -0.2101  1.3251
 1926SOL    HW217241   1.209   1.436   7.044 -1.3829 -0.7276  0.9106
 1927SOL     OW17242   3.480   2.517   4.750 -0.3440 -0.4004  0.5841
 1927SOL    HW117243   3.388   2.537   4.738  0.1191  0.7223 -1.0540
 1927SOL    HW217244   3.514   2.586   4.808  0.3730 -1.5622  1.5525
 1928SOL     OW17245   1.032   1.499   1.642 -0.2078  0.5647  0.7057
 1928SOL    HW117246   0.975   1.472   1.715 -2.3145 -0.1326 -1.2072
 1928SOL    HW217247   0.976   1.487   1.565 -0.3404  0.1239  0.8668
 1929SOL     OW17248   1.353   1.760   6.505  0.0544 -0.2912  0.5324
 1929SOL    HW117249   1.315   1.776   6.591 -0.5264  0.0919  0.1982
 1929SOL    HW217250   1.427   1.819   6.519 -0.0652  0.0585 -0.3744
 1930SOL     OW17251   2.503   3.718   4.050 -0.1558  0.6585 -0.2074
 1930SOL    HW117252   2.433   3.718   3.984  2.0855 -0.6546 -2.5440
 1930SOL    HW217253   2.482   3.644   4.107 -5.3063  0.3457 -2.4386
 1931SOL     OW17254   1.639   1.895  16.361  0.9517  0.1639 -0.0481
 1931SOL    HW117255   1.666   1.961  16.297  1.4500  1.8604  1.9426
 1931SOL    HW217256   1.625   1.823  16.298  0.6029 -0.8278  1.1624
 1932SOL     OW17257   0.380   3.945   4.040 -0.3112  0.2914 -0.2529
 1932SOL    HW117258   0.399   4.038   4.048 -1.0637  0.5353 -1.2915
 1932SOL    HW217259   0.359   3.946   3.947 -0.7730 -3.1054 -0.2084
 1933SOL     OW17260   1.472   0.515   2.947  0.1398  0.2809  0.6558
 1933SOL    HW117261   1.503   0.512   2.857 -0.2423 -2.0453  0.5842
 1933SOL    HW217262   1.485   0.422   2.967  1.3228 -0.2434 -2.5764
 1934SOL     OW17263   0.801   3.362   4.847  0.2084 -0.2185  0.2224
 1934SOL    HW117264   0.727   3.410   4.811  0.3414  0.7273  1.2156
 1934SOL    HW217265   0.872   3.424   4.831 -0.3768  0.0449 -1.2797
 1935SOL     OW17266   3.762   1.133   4.881 -0.9676  0.4626  0.1885
 1935SOL    HW117267   3.684   1.088   4.913 -1.2436  1.6873  1.2000
 1935SOL    HW217268   3.764   1.104   4.789  0.1447 -1.6735  0.8930
 1936SOL     OW17269   0.222   1.720   3.237 -0.8551 -0.1362 -0.4775
 1936SOL    HW117270   0.203   1.756   3.150  1.4678  0.8655 -0.5659
 1936SOL    HW217271   0.316   1.701   3.237 -1.0090 -0.9304  0.8694
 1937SOL     OW17272   3.550   2.346  13.187 -0.0873 -0.2407  0.2727
 1937SOL    HW117273   3.638   2.334  13.150 -0.6395 -1.6373 -0.5841
 1937SOL    HW217274   3.546   2.262  13.232  2.5783 -1.2294 -1.3108
 1938SOL     OW17275   2.439   1.504   0.937  0.2161  0.4454  0.2180
 1938SOL    HW117276   2.369   1.568   0.952 -1.0627 -0.5934 -1.3051
 1938SOL    HW217277   2.422   1.496   0.843 -2.2351 -1.2658  0.7839
 1939SOL     OW17278   4.468   0.174   8.812 -0.3696 -0.0321 -0.1277
 1939SOL    HW117279   4.543   0.225   8.842  0.5387 -1.3173 -0.2077
 1939SOL    HW217280   4.510   0.089   8.800  3.2474  1.8205 -0.7134
 1940SOL     OW17281   4.092   0.951  11.774  0.2457 -0.4282 -0.0652
 1940SOL    HW117282   4.036   0.902  11.714 -1.4349  1.5649 -0.1245
 1940SOL    HW217283   4.068   1.043  11.761  2.2743 -0.1393 -1.8017
 1941SOL     OW17284   0.903   2.188   8.566  0.3707 -0.4927  0.1405
 1941SOL    HW117285   0.915   2.096   8.591 -0.7625 -1.1490 -1.7285
 1941SOL    HW217286   0.813   2.193   8.598  0.5939  1.4300  0.4451
 1942SOL     OW17287   2.452   2.646   7.805 -0.7114 -0.1530 -0.1739
 1942SOL    HW117288   2.391   2.616   7.873  1.6781 -1.0389  1.5464
 1942SOL    HW217289   2.409   2.607   7.729  0.0174  1.7827 -1.5873
 1943SOL     OW17290   4.320   4.505  12.170 -0.1170  0.0490 -1.1370
 1943SOL    HW117291   4.244   4.486  12.226  0.4771  1.7572  0.2527
 1943SOL    HW217292   4.343   4.592  12.201 -3.8619  1.2959 -1.9227
 1944SOL     OW17293   3.808   3.979  11.280 -0.2268 -0.4079 -0.3040
 1944SOL    HW117294   3.892   3.959  11.239 -0.4066  0.9704 -1.3691
 1944SOL    HW217295   3.744   3.941  11.220 -0.6542 -0.8624  0.4356
 1945SOL     OW17296   2.631   1.687   5.909 -0.0997  0.2171  0.3304
 1945SOL    HW117297   2.575   1.616   5.876  2.1560 -2.1965  1.6493
 1945SOL    HW217298   2.628   1.664   6.002 -1.7836 -1.9593 -0.2572
 1946SOL     OW17299   4.601   4.701   0.557  0.1141  0.1320 -0.0405
 1946SOL    HW117300   4.600   0.069   0.532  1.5219  0.2976  0.5078
 1946SOL    HW217301   4.691   4.673   0.573  0.9333  2.6510 -0.4289
 1947SOL     OW17302   0.828   0.384   7.785 -0.2000 -0.0276 -1.0146
 1947SOL    HW117303   0.874   0.364   7.867 -1.2074 -3.6586 -1.3336
 1947SOL    HW217304   0.861   0.311   7.732  1.3954  1.6363 -2.3082
 1948SOL     OW17305   0.885   0.938   1.340  0.3834 -0.1181  0.7865
 1948SOL    HW117306   0.893   1.032   1.322  1.5577  0.2009  2.9686
 1948SOL    HW217307   0.813   0.946   1.403  0.7495  0.5311  1.1285
 1949SOL     OW17308   4.673   2.295  12.191  0.1473  0.0004  0.1440
 1949SOL    HW117309   4.641   2.206  12.174 -0.2592 -0.0361  1.1335
 1949SOL    HW217310   4.667   2.323  12.099 -0.3070  2.4466  0.9396
 1950SOL     OW17311   1.019   3.727   8.680 -0.6636 -0.0859  0.2114
 1950SOL    HW117312   0.974   3.811   8.676  1.9260  1.4170  2.5240
 1950SOL    HW217313   1.058   3.727   8.768 -3.5397 -0.2809  1.4794
 1951SOL     OW17314   0.172   1.923   3.613 -0.3568  0.0877 -0.8734
 1951SOL    HW117315   0.109   1.894   3.680  0.0732 -0.2924 -0.6296
 1951SOL    HW217316   0.243   1.956   3.669  0.3501 -4.9668  1.2214
 1952SOL     OW17317   0.444   4.442   3.861  0.4083 -0.4705  0.0228
 1952SOL    HW117318   0.532   4.440   3.823 -0.3945 -2.9170 -1.7318
 1952SOL    HW217319   0.393   4.460   3.782  0.3642 -1.0626 -0.0855
 1953SOL     OW17320   0.236   0.196  10.887  0.1348  0.6327 -0.7238
 1953SOL    HW117321   0.324   0.208  10.921  1.1118 -0.6227 -2.7890
 1953SOL    HW217322   0.244   0.102  10.873  1.8090  0.8028 -0.8996
 1954SOL     OW17323   2.357   0.057  16.760  0.1313 -0.1603  0.2591
 1954SOL    HW117324   2.442   0.028  16.728  0.0777  1.0207 -0.9164
 1954SOL    HW217325   2.375   0.029  16.850  1.6842 -2.0232 -0.6331
 1955SOL     OW17326   3.161   1.165   3.967 -0.5932  0.1154  0.1272
 1955SOL    HW117327   3.082   1.199   3.927 -2.9602 -3.0337  2.1333
 1955SOL    HW217328   3.224   1.204   3.907 -0.8182 -0.1000 -0.2509
 1956SOL     OW17329   3.428   3.486  13.065  0.3797 -0.2215  0.3459
 1956SOL    HW117330   3.464   3.574  13.078  3.0300 -1.2689  0.2628
 1956SOL    HW217331   3.466   3.459  12.981 -4.1033  0.2583 -1.8206
 1957SOL     OW17332   3.570   4.696  13.636  0.1867 -0.3746  0.1256
 1957SOL    HW117333   3.619   4.619  13.606 -0.8017 -1.0215  0.1734
 1957SOL    HW217334   3.538   4.665  13.721 -0.9394 -2.3689 -1.0137
 1958SOL     OW17335   2.544   3.915   6.374 -1.1322 -0.2294  0.5988
 1958SOL    HW117336   2.612   3.874   6.321 -1.6057  0.7336 -0.7404
 1958SOL    HW217337   2.583   3.903   6.461 -2.8090 -1.0734  1.2282
 1959SOL     OW17338   2.495   0.203   0.820  0.4331  0.5127  0.3912
 1959SOL    HW117339   2.452   0.288   0.809 -0.4563  0.0305  0.1495
 1959SOL    HW217340   2.584   0.236   0.832  0.5642 -0.1149  1.1322
 1960SOL     OW17341   3.001   3.975   8.624 -0.0564 -0.1116  0.3205
 1960SOL    HW117342   3.044   3.962   8.708 -0.7460  0.3604  0.7446
 1960SOL    HW217343   3.079   3.954   8.572 -1.2661 -0.0923 -1.5143
 1961SOL     OW17344   0.179   2.419   1.269  0.3113 -0.0878  0.1977
 1961SOL    HW117345   0.253   2.410   1.330  1.3702  2.5355 -0.6798
 1961SOL    HW217346   0.168   2.514   1.267 -1.7330 -0.2828  1.7285
 1962SOL     OW17347   2.077   4.302   2.979 -0.4168 -0.2528 -0.2356
 1962SOL    HW117348   2.096   4.352   3.059  1.1076  0.1076 -0.8343
 1962SOL    HW217349   2.049   4.379   2.929 -1.8505 -0.3702  0.3783
 1963SOL     OW17350   3.842   3.284   8.434 -0.4081 -0.0527 -0.3521
 1963SOL    HW117351   3.905   3.212   8.440  1.2021  1.5594  2.1569
 1963SOL    HW217352   3.848   3.318   8.345 -0.2988 -2.6933 -1.3683
 1964SOL     OW17353   1.141   3.382   8.059  0.3505  0.1663  0.8145
 1964SOL    HW117354   1.158   3.450   7.994  0.3740 -1.3191 -0.7392
 1964SOL    HW217355   1.123   3.298   8.017  1.1744  1.2462 -1.7072
 1965SOL     OW17356   2.077   3.832   4.028  0.1428  0.4506  0.2096
 1965SOL    HW117357   2.170   3.847   4.013  0.5384 -0.1911  2.0745
 1965SOL    HW217358   2.065   3.886   4.106 -1.8842  0.3577 -0.0312
 1966SOL     OW17359   2.568   1.818   9.479 -0.3331 -0.4359 -0.3516
 1966SOL    HW117360   2.503   1.786   9.541 -1.3498  1.2126 -0.5788
 1966SOL    HW217361   2.646   1.783   9.524 -0.1022 -1.4185 -1.5159
 1967SOL     OW17362   4.696   0.637  17.037 -0.2398  0.6302  0.4760
 1967SOL    HW117363   0.063   0.634  17.006  0.5765  2.6811  2.6973
 1967SOL    HW217364   4.677   0.544  17.051 -0.4764  0.5228 -0.5773
 1968SOL     OW17365   0.061   2.759   9.880  0.1397  0.3497  0.2212
 1968SOL    HW117366   0.134   2.807   9.843  1.6581 -1.6488  0.6192
 1968SOL    HW217367   0.097   2.752   9.969 -3.9058  1.8356  2.0045
 1969SOL     OW17368   2.974   1.785   0.952  0.1034  0.2497  0.0457
 1969SOL    HW117369   3.055   1.797   0.903 -0.1195  1.3605 -0.0527
 1969SOL    HW217370   2.965   1.690   0.962  0.0451  0.2257 -0.2254
 1970SOL     OW17371   3.851   4.618   7.001 -0.1087 -0.1779  0.2302
 1970SOL    HW117372   3.830   4.546   6.941  0.1570  0.2011 -0.3175
 1970SOL    HW217373   3.946   4.611   6.997 -0.2581 -0.8705 -1.9427
 1971SOL     OW17374   2.265   4.005   5.905  0.1809 -0.9461  0.3974
 1971SOL    HW117375   2.179   4.032   5.937  1.4314  1.1242  2.0397
 1971SOL    HW217376   2.308   3.965   5.981  2.6104 -1.8110 -1.4176
 1972SOL     OW17377   2.033   1.442   8.711 -0.7697  0.6070  0.7755
 1972SOL    HW117378   2.079   1.473   8.789  1.5609  0.2997 -0.4739
 1972SOL    HW217379   1.941   1.435   8.734 -1.0582  1.7773 -0.0011
 1973SOL     OW17380   4.317   3.763   2.703 -0.4249  0.2071 -0.5206
 1973SOL    HW117381   4.330   3.702   2.776  0.6886  1.0153 -0.0496
 1973SOL    HW217382   4.355   3.847   2.728 -0.7006  0.0899  0.2950
 1974SOL     OW17383   2.992   3.537   5.060 -0.5396 -0.1403 -0.1217
 1974SOL    HW117384   2.987   3.459   5.005 -2.9089  0.1038 -0.2428
 1974SOL    HW217385   2.909   3.580   5.041 -0.7262 -0.3326  0.2752
 1975SOL     OW17386   3.826   2.002   7.803  0.0289 -0.2616 -0.7495
 1975SOL    HW117387   3.753   1.977   7.747  0.0757 -0.7303 -0.5931
 1975SOL    HW217388   3.851   1.917   7.838  3.2017  1.0439  0.2043
 1976SOL     OW17389   4.562   4.065   4.318 -0.2341 -0.0982 -0.9759
 1976SOL    HW117390   4.501   4.046   4.246 -0.7992 -3.0484  0.2815
 1976SOL    HW217391   4.622   3.990   4.322 -0.7323 -0.4410  0.0131
 1977SOL     OW17392   4.172   4.581   4.088 -0.1114  0.3842  0.4676
 1977SOL    HW117393   4.156   4.570   3.995  0.8492  0.3543  0.3016
 1977SOL    HW217394   4.108   4.517   4.119  1.7912 -2.1508 -0.8243
 1978SOL     OW17395   2.141   0.468  11.014 -0.0828 -0.3719 -0.6290
 1978SOL    HW117396   2.197   0.428  10.947  1.1356  2.5572 -1.3775
 1978SOL    HW217397   2.202   0.519  11.067 -2.7793  0.1715  1.8943
 1979SOL     OW17398   0.298   4.164   2.191  0.3328  0.4586 -0.2379
 1979SOL    HW117399   0.345   4.081   2.192  1.5882  1.1823  0.7151
 1979SOL    HW217400   0.242   4.164   2.269  1.7785 -1.2225  0.8042
 1980SOL     OW17401   0.788   0.277   5.411  0.2966 -0.4544  0.1806
 1980SOL    HW117402   0.742   0.218   5.470 -1.2260  1.5376  0.9755
 1980SOL    HW217403   0.828   0.344   5.467  0.2714 -0.8812  0.7070
 1981SOL     OW17404   3.163   1.132   9.811  0.5443  0.1307  0.2173
 1981SOL    HW117405   3.255   1.146   9.833  0.2840  1.9825  0.1788
 1981SOL    HW217406   3.148   1.179   9.729  0.0440  0.2379  0.3678
 1982SOL     OW17407   0.194   1.755  12.558 -0.2280 -0.1137  0.1163
 1982SOL    HW117408   0.218   1.808  12.482 -0.2123 -0.1180  0.1185
 1982SOL    HW217409   0.202   1.665  12.525 -1.5775  0.3348 -1.4696
 1983SOL     OW17410   1.994   2.844  10.027  0.4768  0.2051 -0.4368
 1983SOL    HW117411   2.075   2.864   9.980  0.7260 -0.3091 -0.2189
 1983SOL    HW217412   2.027   2.802  10.106  0.9060 -1.2948 -1.4249
 1984SOL     OW17413   1.081   0.012  12.668 -0.6301 -0.0221  0.7590
 1984SOL    HW117414   1.141   4.722  12.595 -0.4354  0.4368  0.8338
 1984SOL    HW217415   1.079   4.650  12.713  0.9915 -0.2161  0.4606
 1985SOL     OW17416   2.297   1.676   7.811 -0.1300 -0.7396 -0.5701
 1985SOL    HW117417   2.262   1.702   7.726  0.2262  1.9442  0.1051
 1985SOL    HW217418   2.373   1.625   7.783  0.2901 -0.1364 -0.5348
 1986SOL     OW17419   3.449   1.066   6.943 -0.6620  0.0594 -1.1096
 1986SOL    HW117420   3.496   1.137   6.987 -0.5263  0.3081 -1.6602
 1986SOL    HW217421   3.499   0.993   6.979 -1.6173 -0.3525 -0.6227
 1987SOL     OW17422   1.441   4.174   2.174 -0.8718  0.7825 -0.1556
 1987SOL    HW117423   1.482   4.132   2.099 -1.5818  0.1186 -0.1702
 1987SOL    HW217424   1.350   4.152   2.155 -0.6252  0.2669 -0.7395
 1988SOL     OW17425   1.890   3.557  14.056  0.1978 -0.8303 -0.3908
 1988SOL    HW117426   1.953   3.491  14.087  1.8908  1.0748  0.2448
 1988SOL    HW217427   1.905   3.638  14.105 -1.2477 -1.1698  0.6047
 1989SOL     OW17428   4.133   0.110   4.774 -0.0344 -0.2931  0.0316
 1989SOL    HW117429   4.067   0.146   4.715  1.4827  4.3783  1.1916
 1989SOL    HW217430   4.187   0.064   4.710 -0.8203 -1.7822  0.4399
 1990SOL     OW17431   1.217   0.034  10.235  0.1960  0.0828 -0.1522
 1990SOL    HW117432   1.179   4.704  10.304  2.2670  0.1677  1.0595
 1990SOL    HW217433   1.151   0.099  10.213 -1.6333 -0.8773  2.5778
 1991SOL     OW17434   1.858   4.516   0.729  0.1977  0.2508 -0.1026
 1991SOL    HW117435   1.799   4.461   0.781  0.6516  1.0145  1.2113
 1991SOL    HW217436   1.929   4.531   0.792  1.5868  0.3932 -1.6905
 1992SOL     OW17437   3.527   3.577   3.494 -0.3389 -0.1844  0.0617
 1992SOL    HW117438   3.567   3.515   3.434  0.7392  1.1944 -0.6205
 1992SOL    HW217439   3.602   3.633   3.509 -1.5042  1.5093 -0.4591
 1993SOL     OW17440   3.001   1.186   1.672  0.0354  0.1061 -0.7135
 1993SOL    HW117441   2.971   1.144   1.591 -0.9535 -0.9759  0.2193
 1993SOL    HW217442   3.094   1.160   1.667 -0.1669 -0.6947 -0.3831
 1994SOL     OW17443   2.856   3.871   9.699 -0.5827 -0.6003  0.0654
 1994SOL    HW117444   2.800   3.857   9.622 -1.8891 -0.6213  1.0130
 1994SOL    HW217445   2.939   3.899   9.661  0.4794 -2.5254  1.0066
 1995SOL     OW17446   1.619   1.854  12.628  0.1758  0.4867  0.1039
 1995SOL    HW117447   1.700   1.814  12.599  0.3450  0.2840  0.8595
 1995SOL    HW217448   1.580   1.780  12.675 -0.1421  0.6240  0.0549
 1996SOL     OW17449   3.994   4.553  11.915  0.1380 -0.0622  0.2893
 1996SOL    HW117450   4.089   4.563  11.905 -0.0645  1.2977 -0.2697
 1996SOL    HW217451   3.967   4.580  11.827 -1.7139 -2.3362  0.1596
 1997SOL     OW17452   4.635   1.680   2.401  0.3671  0.4304  0.1527
 1997SOL    HW117453   4.629   1.649   2.491  1.8340 -2.0511 -0.5904
 1997SOL    HW217454   4.623   1.597   2.355 -1.7159  0.5773  0.4173
 1998SOL     OW17455   1.276   2.450   9.017  0.2773 -0.3402  0.3798
 1998SOL    HW117456   1.336   2.490   8.954  1.0247 -0.0926  1.2559
 1998SOL    HW217457   1.196   2.502   9.022  1.0397  0.7986  0.8943
 1999SOL     OW17458   1.749   3.740   0.729  0.0165 -0.4885 -1.0224
 1999SOL    HW117459   1.662   3.778   0.744  0.4366 -0.3581  1.1524
 1999SOL    HW217460   1.731   3.652   0.696  1.5625 -1.0285 -0.4016
 2000SOL     OW17461   1.207   0.754   0.415  0.0775  0.1700 -0.5969
 2000SOL    HW117462   1.123   0.775   0.457  0.2476 -1.1053  0.3736
 2000SOL    HW217463   1.263   0.803   0.475 -1.2093  0.9162 -0.0015
 2001SOL     OW17464   1.705   3.882   9.669 -0.4330 -0.2142  0.2425
 2001SOL    HW117465   1.749   3.938   9.605  0.6930 -0.8985  0.4127
 2001SOL    HW217466   1.652   3.945   9.718 -0.7694 -0.6719  0.4717
 2002SOL     OW17467   1.847   4.376  15.364 -0.0199 -0.1600  0.7188
 2002SOL    HW117468   1.789   4.383  15.288  1.8022  0.0937 -0.6262
 2002SOL    HW217469   1.872   4.465  15.389 -1.3844  0.9235 -1.7627
 2003SOL     OW17470   0.283   1.081  17.564  0.8272  0.3441 -0.0302
 2003SOL    HW117471   0.217   1.064  17.497  1.1915 -0.7095 -0.1137
 2003SOL    HW217472   0.235   1.126  17.634 -1.5912  2.4015 -3.0131
 2004SOL     OW17473   3.359   2.790   8.523  0.1040 -0.4580 -0.3062
 2004SOL    HW117474   3.377   2.846   8.599 -1.7419  0.2837 -0.4245
 2004SOL    HW217475   3.424   2.720   8.530  1.5299  0.8197 -0.6000
 2005SOL     OW17476   2.786   4.560  15.874  0.2693  0.3257  0.2764
 2005SOL    HW117477   2.828   4.535  15.955  1.2224 -1.2746 -0.7205
 2005SOL    HW217478   2.838   4.633  15.841  0.4809  0.5251  1.0649
 2006SOL     OW17479   0.771   1.150   0.567 -0.1798  0.7107 -0.2896
 2006SOL    HW117480   0.796   1.065   0.603 -1.9034  0.3979  0.1828
 2006SOL    HW217481   0.794   1.201   0.645  0.9397 -1.7945  1.0233
 2007SOL     OW17482   3.950   2.783  10.093 -0.4206  0.6476 -0.3187
 2007SOL    HW117483   3.883   2.847  10.068  1.0538  2.0061 -0.7479
 2007SOL    HW217484   3.955   2.738  10.009  0.4722 -1.5341  0.8891
 2008SOL     OW17485   3.516   0.603   7.186 -0.5214  0.3194 -0.6219
 2008SOL    HW117486   3.489   0.570   7.101 -1.1439  0.5564 -0.5190
 2008SOL    HW217487   3.474   0.689   7.182  0.8001  0.9701 -0.3220
 2009SOL     OW17488   4.188   2.646  11.089 -0.3286 -0.2139  0.1595
 2009SOL    HW117489   4.210   2.732  11.126 -3.1823  0.4491  0.3584
 2009SOL    HW217490   4.281   2.625  11.085 -0.8299 -1.8222 -3.1052
 2010SOL     OW17491   2.438   2.193   7.470 -0.0031  0.3026  0.0731
 2010SOL    HW117492   2.468   2.243   7.546 -1.1450 -1.1097  1.4697
 2010SOL    HW217493   2.349   2.229   7.468 -0.5520 -0.8823  3.7367
 2011SOL     OW17494   4.069   4.177   5.165  0.4276  0.2270 -0.1997
 2011SOL    HW117495   4.061   4.085   5.140  2.4406 -0.2833  1.0317
 2011SOL    HW217496   4.073   4.217   5.078  0.9842  1.8153  0.5555
 2012SOL     OW17497   3.188   1.847   6.886 -0.0691  0.4833  0.1944
 2012SOL    HW117498   3.105   1.831   6.843 -1.0255  2.2524  1.3763
 2012SOL    HW217499   3.244   1.882   6.817  1.1233 -0.9431  0.4362
 2013SOL     OW17500   1.186   2.009   4.415  0.2173 -0.0385  0.0800
 2013SOL    HW117501   1.158   2.094   4.449  1.3826  0.2439  0.3247
 2013SOL    HW217502   1.280   2.019   4.402 -0.0089  0.7310 -0.9937
 2014SOL     OW17503   4.464   2.410  15.127  0.2878 -0.1500  0.1210
 2014SOL    HW117504   4.416   2.423  15.208  0.4026  0.4708  0.0856
 2014SOL    HW217505   4.535   2.354  15.158  0.4818  0.4291  0.7226
 2015SOL     OW17506   4.122   2.855  11.753  0.0380  0.3055 -0.5616
 2015SOL    HW117507   4.217   2.858  11.765  0.1891 -0.7982 -1.5686
 2015SOL    HW217508   4.102   2.770  11.790 -1.8112  0.9867 -0.0150
 2016SOL     OW17509   1.234   4.242   9.592 -0.1986  0.0712 -0.1473
 2016SOL    HW117510   1.174   4.202   9.654  0.0576  1.2729  0.8626
 2016SOL    HW217511   1.242   4.325   9.638 -0.8849 -0.4458  0.8934
 2017SOL     OW17512   0.215   4.559   6.871  0.3227 -0.1879  0.6085
 2017SOL    HW117513   0.245   4.468   6.867 -0.9101 -0.6123  1.1107
 2017SOL    HW217514   0.220   4.582   6.964 -1.9398  2.8005 -0.0332
 2018SOL     OW17515   0.373   1.746   2.176 -0.0408 -0.2605  0.1746
 2018SOL    HW117516   0.402   1.727   2.266 -1.7603 -0.2043  0.7317
 2018SOL    HW217517   0.337   1.663   2.146 -3.2325  1.2402 -0.0711
 2019SOL     OW17518   4.504   2.891   1.115 -0.2356 -0.5000  0.1229
 2019SOL    HW117519   4.420   2.884   1.071 -1.0339  2.7369  1.1148
 2019SOL    HW217520   4.480   2.911   1.206 -1.5165  2.3649 -0.8550
 2020SOL     OW17521   1.838   0.409   5.403 -0.0010  0.1519  0.3321
 2020SOL    HW117522   1.801   0.456   5.328  0.8799  0.6223  0.1950
 2020SOL    HW217523   1.803   0.322   5.384 -1.3049  1.2856 -2.4403
 2021SOL     OW17524   2.359   3.288   1.435  0.0355  0.2046 -0.2291
 2021SOL    HW117525   2.428   3.350   1.459 -0.4431  0.5235  0.3349
 2021SOL    HW217526   2.401   3.204   1.453 -1.4067 -0.3042  0.7291
 2022SOL     OW17527   0.477   0.814   6.986  0.0358 -0.2642  0.1673
 2022SOL    HW117528   0.536   0.803   6.911 -0.0415  0.2430  0.0344
 2022SOL    HW217529   0.395   0.789   6.944 -1.0570  0.4168  1.8810
 2023SOL     OW17530   3.101   0.902   9.981 -0.2364 -0.2381 -0.5635
 2023SOL    HW117531   3.101   0.959   9.905  2.3918  1.5230  0.7533
 2023SOL    HW217532   3.187   0.926  10.015 -0.9501  1.1913  0.2310
 2024SOL     OW17533   1.356   2.615   5.735 -0.4968  0.7017 -0.3194
 2024SOL    HW117534   1.310   2.673   5.796 -2.8485 -0.9365 -0.5446
 2024SOL    HW217535   1.440   2.660   5.741 -0.6210  1.0247 -1.0622
 2025SOL     OW17536   2.231   2.999   4.162 -0.8243 -0.8173 -0.5735
 2025SOL    HW117537   2.156   2.952   4.127 -0.9437 -1.1232  0.0833
 2025SOL    HW217538   2.280   3.015   4.081  0.1098 -0.1797  0.1135
 2026SOL     OW17539   3.322   1.928   8.799  0.2776 -0.2030 -0.1288
 2026SOL    HW117540   3.386   2.000   8.794 -3.0707  2.7957  0.7022
 2026SOL    HW217541   3.242   1.971   8.829  1.3062  2.8913 -1.7948
 2027SOL     OW17542   4.679   0.611   1.611  0.6780 -0.2440 -0.2240
 2027SOL    HW117543   4.655   0.643   1.698  1.8629  2.4585 -0.8948
 2027SOL    HW217544   4.596   0.582   1.573 -0.1681 -0.3852  1.7397
 2028SOL     OW17545   2.130   3.372   5.037 -0.1914 -0.4638  0.4305
 2028SOL    HW117546   2.036   3.376   5.022 -0.2616  1.1796  1.4007
 2028SOL    HW217547   2.153   3.285   5.003 -1.1641 -0.6101  0.1436
 2029SOL     OW17548   3.573   1.605   4.624 -0.2657  0.0192 -0.7149
 2029SOL    HW117549   3.548   1.632   4.712  0.1998 -0.6851 -0.3662
 2029SOL    HW217550   3.653   1.557   4.643  0.9701  2.3011 -0.1722
 2030SOL     OW17551   1.917   3.776  17.351  0.3214 -0.3263  0.8686
 2030SOL    HW117552   1.914   3.871  17.363 -0.4214 -0.3303  0.6569
 2030SOL    HW217553   1.884   3.741  17.434 -1.3002  1.1471  0.8368
 2031SOL     OW17554   2.972   4.635   7.068 -0.2714  0.2692 -0.1813
 2031SOL    HW117555   3.008   4.692   7.000 -1.5047 -0.2179 -1.2359
 2031SOL    HW217556   3.039   4.567   7.064 -0.4390  0.1656 -1.3703
 2032SOL     OW17557   1.212   4.528   1.947  0.0982 -0.3061 -1.2535
 2032SOL    HW117558   1.272   4.528   2.022  0.5803  0.5692 -1.6308
 2032SOL    HW217559   1.195   4.623   1.953 -1.1751 -0.6289  0.4639
 2033SOL     OW17560   3.017   4.543   8.445  0.1216 -0.4132  0.1136
 2033SOL    HW117561   3.099   4.588   8.421  1.0274 -2.3953 -0.4842
 2033SOL    HW217562   3.067   4.469   8.478 -0.9553 -0.9696  0.4722
 2034SOL     OW17563   0.987   0.739  15.020 -0.6302 -0.1556  0.2830
 2034SOL    HW117564   0.918   0.684  15.058 -0.7365 -0.1602  0.0846
 2034SOL    HW217565   1.071   0.703  15.046 -0.1407  0.1652 -0.8544
 2035SOL     OW17566   3.078   0.316   9.795  0.9033 -0.0706  0.1822
 2035SOL    HW117567   3.018   0.256   9.840 -0.1341  1.0249  0.2615
 2035SOL    HW217568   3.108   0.389   9.849 -1.6424  0.4847  0.8754
 2036SOL     OW17569   1.624   2.122   6.436 -0.2430  0.3009  0.4268
 2036SOL    HW117570   1.545   2.088   6.478 -0.3746  1.2958  0.9908
 2036SOL    HW217571   1.650   2.040   6.394  1.8941  0.1285  2.0778
 2037SOL     OW17572   2.952   1.214   4.163  0.7440  0.2114 -0.4844
 2037SOL    HW117573   3.027   1.173   4.206  0.2911 -1.3958 -1.2348
 2037SOL    HW217574   2.928   1.281   4.227 -1.1061 -1.5731  0.7037
 2038SOL     OW17575   1.267   2.109   6.971  0.3903 -0.1345 -0.0295
 2038SOL    HW117576   1.286   2.077   7.059  1.2660 -0.0213 -0.1760
 2038SOL    HW217577   1.171   2.104   6.977  0.2933 -1.6906 -2.7584
 2039SOL     OW17578   3.351   0.986  11.498  0.4222  0.1360  0.3087
 2039SOL    HW117579   3.308   1.052  11.551  0.0801  2.3843 -2.7548
 2039SOL    HW217580   3.273   0.955  11.451  0.7876  1.9462 -1.5134
 2040SOL     OW17581   4.085   2.729   5.696 -0.0605  0.1163  0.0742
 2040SOL    HW117582   4.165   2.725   5.644 -1.9577  0.9888 -2.9093
 2040SOL    HW217583   4.014   2.721   5.632  0.5720 -2.1535 -0.3231
 2041SOL     OW17584   2.973   1.699   5.153 -0.0859 -0.6781 -0.1923
 2041SOL    HW117585   2.944   1.626   5.207 -0.3358 -0.9214 -0.6544
 2041SOL    HW217586   2.895   1.724   5.103 -0.9140 -2.8679  0.0147
 2042SOL     OW17587   3.974   1.063   1.132  0.0910 -0.4285  0.2504
 2042SOL    HW117588   4.068   1.051   1.119  0.7226  2.8175  1.7157
 2042SOL    HW217589   3.971   1.146   1.180  1.1048 -1.1707  1.5743
 2043SOL     OW17590   2.135   4.400   2.382 -0.0819  0.1040 -0.5248
 2043SOL    HW117591   2.190   4.325   2.358 -0.4296 -0.4257  0.3187
 2043SOL    HW217592   2.189   4.454   2.439 -1.9863  2.3237 -0.8091
 2044SOL     OW17593   2.611   0.509  15.329 -0.1580  0.1917  0.0045
 2044SOL    HW117594   2.568   0.428  15.357  2.6180 -1.6133 -0.9903
 2044SOL    HW217595   2.637   0.557  15.407 -3.0463 -0.5254  1.4059
 2045SOL     OW17596   3.954   0.068  11.195 -0.2689 -0.2518 -0.3203
 2045SOL    HW117597   3.946   0.144  11.138  0.2196 -0.2229 -0.3535
 2045SOL    HW217598   3.923   0.002  11.134 -1.1698  1.1158 -1.3143
 2046SOL     OW17599   0.539   1.893   6.080  0.3254 -0.0099 -0.0825
 2046SOL    HW117600   0.454   1.852   6.098  0.4453  0.2350  1.0174
 2046SOL    HW217601   0.519   1.975   6.035 -0.6059  0.4295  1.1337
 2047SOL     OW17602   4.686   3.382   2.406 -0.7287 -0.0090  0.1246
 2047SOL    HW117603   4.620   3.437   2.448 -1.6826 -0.5300 -0.6920
 2047SOL    HW217604   4.627   3.339   2.344 -2.7151 -1.8049  3.2667
 2048SOL     OW17605   2.728   2.292   7.112 -0.0904  0.2255 -0.1389
 2048SOL    HW117606   2.753   2.315   7.201  0.0506  1.5649 -0.5176
 2048SOL    HW217607   2.798   2.230   7.093 -0.0930  0.6263 -1.4712
 2049SOL     OW17608   3.486   0.227   8.099 -0.4104 -0.1492  0.1719
 2049SOL    HW117609   3.456   0.298   8.043  1.9677 -0.4605 -1.4753
 2049SOL    HW217610   3.501   0.163   8.029  1.0001  0.7570 -0.3442
 2050SOL     OW17611   3.766   1.101  12.252 -0.5442  0.2285  0.3582
 2050SOL    HW117612   3.793   1.048  12.177  0.0459 -0.4215  1.0324
 2050SOL    HW217613   3.698   1.045  12.289 -1.9154  1.0806 -0.8586
 2051SOL     OW17614   4.547   0.183   1.721  0.8403 -0.1168  0.1579
 2051SOL    HW117615   4.491   0.112   1.754  0.4698 -0.3308 -0.9210
 2051SOL    HW217616   4.488   0.222   1.657 -1.4114 -1.8033  1.1774
 2052SOL     OW17617   2.290   3.800   4.548 -0.5863 -0.3129 -0.4336
 2052SOL    HW117618   2.293   3.827   4.456 -0.6277 -0.0836 -0.3660
 2052SOL    HW217619   2.198   3.822   4.561 -1.1597 -1.2748 -2.8416
 2053SOL     OW17620   1.363   1.989   8.978 -0.2427 -1.1190  0.3753
 2053SOL    HW117621   1.318   2.063   9.019 -0.6738 -1.3125  0.2496
 2053SOL    HW217622   1.447   1.996   9.025  1.2690 -0.6583 -2.3870
 2054SOL     OW17623   0.714   3.975   4.870  0.2685  0.1707 -0.0466
 2054SOL    HW117624   0.749   4.059   4.901  0.9624 -0.7027  1.5444
 2054SOL    HW217625   0.630   3.974   4.917 -0.1506  2.0405 -0.7517
 2055SOL     OW17626   2.478   0.696   4.478  0.0422 -0.0655 -0.4807
 2055SOL    HW117627   2.494   0.781   4.519 -1.0602 -0.2825  0.4115
 2055SOL    HW217628   2.397   0.714   4.430 -0.1257 -0.0133 -0.1825
 2056SOL     OW17629   1.761   1.570   1.475 -0.1966 -0.3575 -0.6490
 2056SOL    HW117630   1.688   1.608   1.523 -0.4035 -0.8023 -0.6080
 2056SOL    HW217631   1.833   1.617   1.517  0.4640 -2.2988  0.4056
 2057SOL     OW17632   2.574   0.164   3.470 -0.0685  0.1162  0.5572
 2057SOL    HW117633   2.526   0.084   3.492 -1.0495  0.6850  0.5082
 2057SOL    HW217634   2.636   0.168   3.542  0.8931  2.9418 -0.4342
 2058SOL     OW17635   1.942   2.792   7.186 -0.4931  0.0053  0.0369
 2058SOL    HW117636   1.933   2.777   7.092  1.9915 -0.3826 -0.1425
 2058SOL    HW217637   2.025   2.839   7.195 -0.7708  0.5807 -0.4002
 2059SOL     OW17638   3.016   1.019   8.847 -0.3462 -0.2760 -0.1458
 2059SOL    HW117639   2.933   1.064   8.833 -1.1909 -2.5785 -2.6156
 2059SOL    HW217640   3.075   1.095   8.840  0.9231 -1.2541 -0.0686
 2060SOL     OW17641   4.084   3.740   4.080 -0.0297  0.0150  0.5344
 2060SOL    HW117642   4.038   3.679   4.023 -1.1268  1.5260 -0.2013
 2060SOL    HW217643   4.173   3.713   4.057  0.1507  0.3233  0.8731
 2061SOL     OW17644   2.822   3.393   4.666 -0.4690 -0.4517 -0.1981
 2061SOL    HW117645   2.782   3.473   4.698  2.9224  1.0563  0.2074
 2061SOL    HW217646   2.833   3.417   4.573  0.8899 -1.7363 -0.3664
 2062SOL     OW17647   1.929   0.872   3.629 -0.1598 -0.2055  0.5668
 2062SOL    HW117648   1.945   0.816   3.705  0.7710  1.3262  1.4943
 2062SOL    HW217649   2.012   0.918   3.641  0.5482 -1.7871  1.8081
 2063SOL     OW17650   4.158   2.448  15.478  0.8535 -0.0500 -0.1420
 2063SOL    HW117651   4.224   2.469  15.412  1.2103  1.5826  0.7195
 2063SOL    HW217652   4.194   2.492  15.556  2.3430 -0.5839 -0.5423
 2064SOL     OW17653   0.007   3.357   3.123 -0.1176 -0.1541  0.1632
 2064SOL    HW117654   0.035   3.265   3.125  2.1819  0.4790 -1.9160
 2064SOL    HW217655   0.026   3.372   3.030 -0.0243  1.7119  0.4979
 2065SOL     OW17656   4.667   2.120  15.731 -0.0099 -0.7862  0.1373
 2065SOL    HW117657   4.720   2.044  15.754 -0.0978 -1.1565 -0.8885
 2065SOL    HW217658   4.668   2.121  15.636  2.2993 -1.5770  0.1564
 2066SOL     OW17659   1.179   1.161  12.761  0.1693 -0.1455  0.5137
 2066SOL    HW117660   1.151   1.084  12.711  0.6813 -0.0736  0.1200
 2066SOL    HW217661   1.236   1.195  12.693 -1.0334 -0.9434 -0.8896
 2067SOL     OW17662   3.427   0.173   3.737  0.1861 -0.6581 -0.4059
 2067SOL    HW117663   3.347   0.216   3.708  0.9125  1.1016  0.2004
 2067SOL    HW217664   3.400   0.081   3.735 -0.5941 -0.4067 -1.4223
 2068SOL     OW17665   1.703   3.942  17.658  0.0916  0.0996  0.5957
 2068SOL    HW117666   1.723   4.020  17.607 -0.7375  0.1758  0.3859
 2068SOL    HW217667   1.626   3.954   0.016 -0.0134  1.5371  0.1292
 2069SOL     OW17668   2.870   0.572   2.089 -0.5446  0.2909  0.4932
 2069SOL    HW117669   2.785   0.595   2.053 -1.2452 -1.2119  1.1783
 2069SOL    HW217670   2.932   0.634   2.051 -0.0756  0.1698  1.0548
 2070SOL     OW17671   3.474   4.574   9.304 -0.0553  0.6833  0.2208
 2070SOL    HW117672   3.391   4.595   9.346  0.1096 -1.8111  1.7675
 2070SOL    HW217673   3.534   4.636   9.346 -0.5401  1.5065 -0.3139
 2071SOL     OW17674   4.172   1.045  17.375  0.0503 -0.1845  0.1407
 2071SOL    HW117675   4.206   0.972  17.324  1.8717  1.0151 -0.3724
 2071SOL    HW217676   4.131   1.100  17.309  2.1080  0.5023 -0.5896
 2072SOL     OW17677   3.570   3.147   7.783 -0.0470 -0.1361  0.6294
 2072SOL    HW117678   3.579   3.242   7.789  0.2377 -0.0679 -0.7731
 2072SOL    HW217679   3.569   3.122   7.875  2.2239 -0.2703  0.6078
 2073SOL     OW17680   1.935   3.125  10.087  0.4746  0.0884 -0.4483
 2073SOL    HW117681   2.017   3.175  10.082  1.0105 -0.7547 -0.0841
 2073SOL    HW217682   1.960   3.043  10.130  1.1556  0.8911  0.6920
 2074SOL     OW17683   2.193   1.283   3.472 -0.0904 -0.0715  0.1723
 2074SOL    HW117684   2.253   1.215   3.503  2.8856  0.9851 -3.3319
 2074SOL    HW217685   2.152   1.233   3.401 -1.0981  2.8141 -1.2981
 2075SOL     OW17686   1.355   0.406   3.926 -0.0482 -0.1865  0.4187
 2075SOL    HW117687   1.365   0.311   3.936  0.8775 -0.3365 -2.0016
 2075SOL    HW217688   1.381   0.418   3.835  1.1029  0.3878  0.8202
 2076SOL     OW17689   1.294   1.863   7.170  0.0644  0.2098 -0.0505
 2076SOL    HW117690   1.284   1.892   7.261 -0.5657  0.2056 -0.1168
 2076SOL    HW217691   1.389   1.857   7.168  0.2294  2.7830  1.0619
 2077SOL     OW17692   2.137   1.960   7.555 -0.2306 -0.0289 -0.7076
 2077SOL    HW117693   2.150   1.868   7.576 -0.0479  0.2992  0.6044
 2077SOL    HW217694   2.189   2.003   7.622 -0.3596  0.7862 -1.1289
 2078SOL     OW17695   1.862   1.973   2.743  0.1798 -0.1567  0.2953
 2078SOL    HW117696   1.915   2.020   2.679 -1.6940  2.1514  0.4341
 2078SOL    HW217697   1.781   2.021   2.726 -0.1339 -0.6669  0.3332
 2079SOL     OW17698   4.519   4.465   8.340  0.3534  0.0232  0.1625
 2079SOL    HW117699   4.453   4.506   8.395 -1.0914 -3.2546  0.8257
 2079SOL    HW217700   4.476   4.380   8.343  0.7227 -0.2073 -1.0490
 2080SOL     OW17701   3.734   0.912   3.557  0.1369  0.3104  0.3542
 2080SOL    HW117702   3.796   0.926   3.485 -1.7606 -1.5891 -1.6513
 2080SOL    HW217703   3.674   0.853   3.511  1.1198 -0.2052 -0.2813
 2081SOL     OW17704   1.994   0.369   2.319 -0.2666  0.0334  0.0241
 2081SOL    HW117705   1.954   0.292   2.279  0.7860 -0.6807  0.3434
 2081SOL    HW217706   1.964   0.437   2.259 -0.1155  0.2085  0.1484
 2082SOL     OW17707   1.639   4.301   6.352 -0.0255 -0.1310 -1.0699
 2082SOL    HW117708   1.639   4.209   6.324 -3.9380  0.1955 -2.1050
 2082SOL    HW217709   1.734   4.309   6.356 -0.1175  0.9017 -0.9221
 2083SOL     OW17710   4.257   1.987  11.766  0.3833 -0.1255  0.3388
 2083SOL    HW117711   4.330   1.956  11.713 -0.8519 -1.4249 -0.6288
 2083SOL    HW217712   4.224   1.903  11.799 -2.8341  0.5047 -1.2997
 2084SOL     OW17713   2.954   1.090   2.875 -0.2860 -0.6003  0.0309
 2084SOL    HW117714   2.940   1.045   2.792  3.7867 -1.0707 -0.3629
 2084SOL    HW217715   2.922   1.023   2.936 -2.9763  2.0933  1.6209
 2085SOL     OW17716   2.647   3.812   5.260  0.1325  0.0407 -0.5327
 2085SOL    HW117717   2.576   3.758   5.226  0.7787 -2.2964  1.8589
 2085SOL    HW217718   2.614   3.901   5.271 -1.9654 -0.7824 -0.3285
 2086SOL     OW17719   3.462   2.309   8.451 -0.3386 -0.1092  0.1835
 2086SOL    HW117720   3.472   2.277   8.361  1.2690 -0.4955  0.4933
 2086SOL    HW217721   3.554   2.320   8.474 -0.1465  0.0374 -0.6458
 2087SOL     OW17722   2.873   3.671   1.074  0.1464 -0.0933 -0.2107
 2087SOL    HW117723   2.924   3.694   1.152  0.8970 -1.0489 -0.4240
 2087SOL    HW217724   2.907   3.735   1.012 -3.1450 -0.7962 -2.7523
 2088SOL     OW17725   3.458   4.091   6.097  0.4055  0.6296 -0.3968
 2088SOL    HW117726   3.481   4.108   6.006 -0.6093  0.2022 -0.7317
 2088SOL    HW217727   3.428   4.002   6.078 -1.1479  1.6241 -2.6048
 2089SOL     OW17728   1.903   0.239  12.782  0.0784 -0.3949 -0.0686
 2089SOL    HW117729   1.849   0.197  12.715 -0.2391 -1.9125  1.1309
 2089SOL    HW217730   1.831   0.289  12.821 -1.6745 -2.2757 -0.8835
 2090SOL     OW17731   4.673   0.348   1.143 -0.4184  0.2199 -0.1435
 2090SOL    HW117732   0.032   0.306   1.168  0.4897  1.5786 -0.8346
 2090SOL    HW217733   4.642   0.279   1.084 -0.1793 -0.0462  0.0458
 2091SOL     OW17734   0.689   1.279  14.184  0.8002 -0.2866  0.2133
 2091SOL    HW117735   0.651   1.207  14.133 -1.5359  0.7970  0.4049
 2091SOL    HW217736   0.732   1.232  14.255 -1.8951  0.0457  2.0536
 2092SOL     OW17737   3.584   2.008   6.987 -0.1229  0.2761 -0.5073
 2092SOL    HW117738   3.671   2.046   7.001  0.8871 -1.6323 -1.6230
 2092SOL    HW217739   3.530   2.073   6.942 -0.0571  1.5404  1.2410
 2093SOL     OW17740   0.079   0.151   8.533  0.6431  0.1747 -0.2656
 2093SOL    HW117741   0.083   0.209   8.609  0.6766 -0.9237  0.5619
 2093SOL    HW217742   0.172   0.133   8.519  1.5505  0.8550  5.0991
 2094SOL     OW17743   3.784   1.746   3.222  0.1138 -0.8605  0.2133
 2094SOL    HW117744   3.772   1.769   3.130  1.7880 -0.0248  0.2068
 2094SOL    HW217745   3.793   1.651   3.210  2.4621 -0.2726 -2.5795
 2095SOL     OW17746   1.392   1.149   0.886 -0.4176 -0.5066  0.6881
 2095SOL    HW117747   1.376   1.194   0.969 -0.8939 -0.7459  0.7239
 2095SOL    HW217748   1.312   1.167   0.836 -0.3502 -1.8316  0.1191
 2096SOL     OW17749   3.821   1.922  12.482  1.0884 -0.6366  0.3451
 2096SOL    HW117750   3.890   1.983  12.457  0.3962 -0.3477 -0.8829
 2096SOL    HW217751   3.752   1.941  12.418  1.6177 -0.0206 -0.0394
 2097SOL     OW17752   0.027   3.903   8.826  0.4738  0.2316 -0.7288
 2097SOL    HW117753   0.119   3.927   8.837  0.6606 -0.7507 -0.1165
 2097SOL    HW217754   4.713   3.955   8.896 -2.0282 -1.0964 -1.0989
 2098SOL     OW17755   2.710   1.727  12.090  0.2729 -0.5864 -0.3642
 2098SOL    HW117756   2.725   1.773  12.007  0.7299 -0.1635 -0.0491
 2098SOL    HW217757   2.722   1.635  12.066 -1.6525 -0.7116 -0.8975
 2099SOL     OW17758   1.134   3.513   3.972  0.5358  0.6299 -0.1797
 2099SOL    HW117759   1.127   3.436   4.028 -0.3924  2.7309  2.5987
 2099SOL    HW217760   1.220   3.490   3.938  0.1210 -1.0498 -0.1141
 2100SOL     OW17761   2.280   0.764   4.322  0.4129  0.1926  0.3692
 2100SOL    HW117762   2.221   0.839   4.325  0.4221  0.2563 -1.0419
 2100SOL    HW217763   2.221   0.690   4.338  0.0798  0.2584 -0.5554
 2101SOL     OW17764   3.192   3.744   5.520  0.3723  0.7891  0.2709
 2101SOL    HW117765   3.143   3.671   5.556 -0.4234  1.6656  0.9601
 2101SOL    HW217766   3.121   3.788   5.472 -0.2708 -0.9063 -0.3420
 2102SOL     OW17767   4.036   1.841   3.820 -0.1077  0.0556 -0.1290
 2102SOL    HW117768   4.131   1.831   3.813  0.0672 -0.1477  2.4678
 2102SOL    HW217769   4.029   1.933   3.794 -0.2005 -0.3273 -1.4832
 2103SOL     OW17770   3.518   2.641   7.354 -0.0773  0.6978  0.2393
 2103SOL    HW117771   3.541   2.571   7.415  1.2179 -0.6228 -1.7387
 2103SOL    HW217772   3.562   2.719   7.389  0.8451  0.5954 -0.6702
 2104SOL     OW17773   2.166   1.120   5.608 -0.4522 -0.5180  0.1977
 2104SOL    HW117774   2.168   1.209   5.574  1.5863 -0.4899  0.3705
 2104SOL    HW217775   2.252   1.099   5.572 -0.3887  2.7553 -1.5556
 2105SOL     OW17776   3.526   3.028  12.733  0.6658 -0.0610 -0.0345
 2105SOL    HW117777   3.486   2.972  12.801 -0.3684 -0.8969 -1.3157
 2105SOL    HW217778   3.453   3.064  12.683  1.8142  0.7319 -1.1107
 2106SOL     OW17779   2.581   3.796  14.835 -0.0016  0.0068  0.2003
 2106SOL    HW117780   2.659   3.741  14.827 -1.6819 -2.2435 -0.9003
 2106SOL    HW217781   2.613   3.875  14.878  0.0733 -1.8190  3.5006
 2107SOL     OW17782   2.843   4.481   6.361  0.4756  0.3790  0.1805
 2107SOL    HW117783   2.893   4.460   6.440 -1.5673 -1.0627  1.1000
 2107SOL    HW217784   2.876   4.570   6.351  0.4406  0.4535  0.7052
 2108SOL     OW17785   0.240   2.037   0.899  0.5804 -0.0955  0.6732
 2108SOL    HW117786   0.191   2.096   0.956  0.9590 -2.1783  3.1403
 2108SOL    HW217787   0.300   1.997   0.962  4.0159  1.6316 -1.4853
 2109SOL     OW17788   0.621   0.085   8.814  0.6692  0.1946 -0.3713
 2109SOL    HW117789   0.529   0.086   8.839  0.7494 -2.0045  0.0640
 2109SOL    HW217790   0.663   0.091   8.900  0.4637  3.5731 -0.4938
 2110SOL     OW17791   2.026   3.624  16.050 -0.1469 -0.5220 -0.0085
 2110SOL    HW117792   2.103   3.592  16.098 -0.0957 -0.1271  0.1690
 2110SOL    HW217793   1.978   3.673  16.116  0.1981  0.4013 -0.4484
 2111SOL     OW17794   0.364   3.059   3.072  0.0270 -0.2732  0.2548
 2111SOL    HW117795   0.286   3.071   3.017  0.5259 -1.2604 -0.6760
 2111SOL    HW217796   0.434   3.065   3.006 -0.9516 -0.2823 -0.7871
 2112SOL     OW17797   3.242   3.846   4.143  0.3009  0.1311  0.5712
 2112SOL    HW117798   3.220   3.801   4.225  0.4123 -0.4002  0.3070
 2112SOL    HW217799   3.183   3.803   4.081 -0.0013 -1.6062  2.0584
 2113SOL     OW17800   4.473   4.371   5.288 -0.4005 -0.4570  0.1281
 2113SOL    HW117801   4.409   4.312   5.248  0.2625 -1.2568  0.2402
 2113SOL    HW217802   4.487   4.327   5.372  1.4983 -0.7822 -0.3597
 2114SOL     OW17803   0.399   4.454   2.825 -0.3104  0.4744  0.3309
 2114SOL    HW117804   0.345   4.505   2.764 -1.2768 -0.2324  0.5937
 2114SOL    HW217805   0.346   4.375   2.836  1.7411 -0.6029  2.4210
 2115SOL     OW17806   2.170   1.463   9.802  0.4202  0.1519  0.0190
 2115SOL    HW117807   2.213   1.405   9.865 -0.4308 -0.7606 -0.2297
 2115SOL    HW217808   2.080   1.441   9.829  0.7135  0.3621  1.1551
 2116SOL     OW17809   1.052   2.301   5.216 -0.3857 -0.5122  0.5096
 2116SOL    HW117810   1.100   2.337   5.142  0.3885 -1.8014  0.3973
 2116SOL    HW217811   0.964   2.281   5.186  0.0240  0.1003 -1.0646
 2117SOL     OW17812   0.128   1.027  15.238  0.2122  0.5192  0.3588
 2117SOL    HW117813   0.205   1.069  15.276  1.1772 -0.5036 -0.4749
 2117SOL    HW217814   0.085   1.110  15.219  0.0066  0.7411  1.7492
 2118SOL     OW17815   1.799   1.481   6.629 -0.0402 -0.1461  0.0594
 2118SOL    HW117816   1.866   1.465   6.696  2.0409 -0.6818 -2.1378
 2118SOL    HW217817   1.743   1.545   6.673 -1.1664 -1.0885 -0.0110
 2119SOL     OW17818   3.525   0.009   7.921  0.1091  0.7420 -0.4666
 2119SOL    HW117819   3.543   4.664   7.985  0.2738  1.7291  0.5609
 2119SOL    HW217820   3.537   4.687   7.839 -0.2565  0.6134 -0.4488
 2120SOL     OW17821   2.276   0.576   6.508 -0.5956  0.2112  0.4087
 2120SOL    HW117822   2.278   0.628   6.589  1.1503 -0.0469  0.5363
 2120SOL    HW217823   2.185   0.592   6.485  0.0453 -0.0888 -2.2942
 2121SOL     OW17824   0.221   0.023   5.088  0.3676 -0.3577  0.1561
 2121SOL    HW117825   0.143   4.719   5.137 -0.0885  0.3056 -0.1974
 2121SOL    HW217826   0.194   0.093   5.028  1.3364 -1.8923 -2.0917
 2122SOL     OW17827   1.651   0.761   2.687 -0.0036  0.1016  0.0690
 2122SOL    HW117828   1.704   0.773   2.766 -0.4511  3.8104 -0.2105
 2122SOL    HW217829   1.637   0.851   2.659  0.8378  0.3420  0.4002
 2123SOL     OW17830   4.720   4.393   2.142 -0.2407  0.2466 -0.7099
 2123SOL    HW117831   0.016   4.476   2.100  0.7305 -0.1821 -1.0995
 2123SOL    HW217832   4.666   4.429   2.212 -0.3411 -0.9631 -0.1702
 2124SOL     OW17833   0.332   2.021   5.946 -0.0041 -0.2077  0.9271
 2124SOL    HW117834   0.323   1.928   5.923  0.1652  0.7676 -2.9081
 2124SOL    HW217835   0.296   2.068   5.871  0.8754 -0.6417  0.2423
 2125SOL     OW17836   2.700   0.909   3.699 -0.1889  0.2819  0.2965
 2125SOL    HW117837   2.668   0.998   3.715 -0.3888  0.3241 -0.3634
 2125SOL    HW217838   2.676   0.860   3.778 -3.5347  2.5027  0.6538
 2126SOL     OW17839   3.352   1.762   2.264 -0.2515  0.1729 -0.0181
 2126SOL    HW117840   3.265   1.750   2.302 -0.4206  1.6303  0.0449
 2126SOL    HW217841   3.356   1.691   2.199 -1.5022 -0.5366  0.6744
 2127SOL     OW17842   3.757   0.115   9.875  0.4503 -0.1356  0.1300
 2127SOL    HW117843   3.834   0.168   9.893 -0.3178  0.5867  1.2349
 2127SOL    HW217844   3.792   0.044   9.820 -0.8723  1.2287 -2.4559
 2128SOL     OW17845   3.899   4.700  10.347 -0.1881  0.1993 -0.2772
 2128SOL    HW117846   3.845   0.055  10.349  0.4132  0.5754  1.0680
 2128SOL    HW217847   3.916   4.683  10.440  1.2822  1.1838 -0.3792
 2129SOL     OW17848   1.081   4.545   4.976  0.0697  0.6702  0.6767
 2129SOL    HW117849   1.112   4.629   4.942  2.1408 -0.8517 -1.1998
 2129SOL    HW217850   1.130   4.529   5.057 -0.1398  1.7963  1.0302
 2130SOL     OW17851   3.070   2.034   5.440  0.5797 -0.4258 -0.5062
 2130SOL    HW117852   3.142   2.064   5.386  0.6294  1.0916  0.3955
 2130SOL    HW217853   3.086   1.945   5.408 -0.9589 -1.0041  0.3342
 2131SOL     OW17854   3.151   3.188   1.582 -0.1653  0.2080  0.2582
 2131SOL    HW117855   3.141   3.096   1.608  0.2329  0.5520  1.6350
 2131SOL    HW217856   3.150   3.233   1.667  1.6603 -1.6162  1.2591
 2132SOL     OW17857   4.666   0.105   6.284  0.0075  0.7825  0.3041
 2132SOL    HW117858   4.624   0.180   6.327 -0.1310  1.2630 -0.6479
 2132SOL    HW217859   4.654   0.042   6.354 -1.0541  1.9665  1.2010
 2133SOL     OW17860   0.944   1.576   6.394  0.1272 -0.6905 -0.0262
 2133SOL    HW117861   0.950   1.662   6.435  2.6680 -0.6785 -0.4192
 2133SOL    HW217862   0.851   1.553   6.393 -0.1265  0.2833  1.5040
 2134SOL     OW17863   1.054   4.351   1.781  0.0645  0.1435  0.4952
 2134SOL    HW117864   1.023   4.281   1.838  1.2545 -1.6719 -1.0642
 2134SOL    HW217865   1.076   4.406   1.857  2.2751  0.4881 -0.3894
 2135SOL     OW17866   0.635   4.334   4.704  0.6142  0.0009  0.4513
 2135SOL    HW117867   0.659   4.344   4.797  1.7654  1.8662 -0.0321
 2135SOL    HW217868   0.555   4.283   4.712  0.1332  0.7214  0.2312
 2136SOL     OW17869   2.158   4.276   2.012 -0.0863  0.2614  0.3956
 2136SOL    HW117870   2.254   4.283   2.013 -0.1286  0.7777  2.9888
 2136SOL    HW217871   2.150   4.182   2.027 -0.2058  0.6126  2.6583
 2137SOL     OW17872   4.578   3.153  12.190  0.4149 -0.2248  0.2532
 2137SOL    HW117873   4.663   3.179  12.227  0.6659 -1.5603  0.6065
 2137SOL    HW217874   4.521   3.166  12.266  1.4782 -1.1199  1.2019
 2138SOL     OW17875   4.297   4.546   8.464 -0.8700  0.8570  0.3478
 2138SOL    HW117876   4.298   4.554   8.559  0.1744  0.6304  0.3609
 2138SOL    HW217877   4.206   4.563   8.442 -1.7344 -2.8583  1.0683
 2139SOL     OW17878   2.315   0.506  12.591 -0.2560 -0.1475  0.2058
 2139SOL    HW117879   2.259   0.466  12.658 -0.4488  0.7483  0.5813
 2139SOL    HW217880   2.372   0.436  12.558  0.8233  0.8891 -0.1128
 2140SOL     OW17881   1.839   4.344  11.363  0.7125  0.4903 -0.1983
 2140SOL    HW117882   1.838   4.282  11.290 -0.1548 -0.6404  0.7812
 2140SOL    HW217883   1.919   4.323  11.410  0.8386  0.0668 -0.5983
 2141SOL     OW17884   1.321   1.330   7.352  0.1274  0.3225 -0.1602
 2141SOL    HW117885   1.240   1.279   7.343 -0.8833  1.8342  0.3270
 2141SOL    HW217886   1.310   1.378   7.269 -2.0650  1.5520  0.8238
 2142SOL     OW17887   2.571   2.267   3.723 -0.0568  0.3955 -0.3180
 2142SOL    HW117888   2.519   2.200   3.679  1.6481  0.3524 -2.2442
 2142SOL    HW217889   2.585   2.237   3.813 -1.2269 -0.8391 -0.5495
 2143SOL     OW17890   0.628   4.275  14.039  0.0667  0.7652 -0.2872
 2143SOL    HW117891   0.720   4.259  14.057 -0.3131 -0.7352  0.2619
 2143SOL    HW217892   0.602   4.289  14.130 -2.4810  0.4890 -0.9560
 2144SOL     OW17893   1.575   4.057  13.772  0.0228  0.0980  0.1717
 2144SOL    HW117894   1.645   4.119  13.791 -0.5242  0.3690  1.2789
 2144SOL    HW217895   1.495   4.098  13.806  0.1657  0.6269 -0.1404
 2145SOL     OW17896   3.805   2.729   3.177  0.2046  0.1339  0.5875
 2145SOL    HW117897   3.722   2.766   3.205 -0.2586 -1.8082  1.7431
 2145SOL    HW217898   3.790   2.636   3.193  1.2922 -0.1066  0.2384
 2146SOL     OW17899   1.680   1.731  16.914  0.5034 -0.1523  0.1651
 2146SOL    HW117900   1.637   1.769  16.991 -1.0693 -0.2280 -0.6873
 2146SOL    HW217901   1.617   1.763  16.850  1.6796 -0.1415 -0.9682
 2147SOL     OW17902   2.762   4.473   6.984  0.3915  0.0116 -0.5885
 2147SOL    HW117903   2.690   4.536   6.988  0.8305  0.4578  0.3517
 2147SOL    HW217904   2.844   4.519   7.000  0.1150  0.1989  0.2626
 2148SOL     OW17905   2.644   1.243   6.846 -0.0323 -0.1613 -0.2646
 2148SOL    HW117906   2.593   1.323   6.838 -0.5373 -0.5813 -1.3113
 2148SOL    HW217907   2.593   1.199   6.913 -0.3284  0.6191  0.0238
 2149SOL     OW17908   3.891   1.102  10.796 -0.5371 -0.7729  0.5768
 2149SOL    HW117909   3.935   1.146  10.869  2.4149 -1.6822 -0.6592
 2149SOL    HW217910   3.800   1.092  10.822  0.2907 -2.2346  2.8807
 2150SOL     OW17911   3.498   1.420  16.936 -0.3470 -0.4561 -0.5332
 2150SOL    HW117912   3.475   1.381  17.020 -3.3478  1.3680 -0.5185
 2150SOL    HW217913   3.415   1.453  16.903 -0.2479  0.3328  0.0163
 2151SOL     OW17914   0.839   1.359   4.448  0.5430 -0.4535  0.1858
 2151SOL    HW117915   0.884   1.405   4.518  0.9334 -0.4154 -0.0876
 2151SOL    HW217916   0.910   1.317   4.398  0.7897  0.7750 -0.4816
 2152SOL     OW17917   3.219   2.806   5.222 -0.3740 -0.0148  0.2805
 2152SOL    HW117918   3.233   2.841   5.134 -0.7478 -0.1317  0.1750
 2152SOL    HW217919   3.306   2.781   5.254  0.2947  2.8551  0.6983
 2153SOL     OW17920   3.998   0.156  12.771 -0.0832 -0.3835 -0.2835
 2153SOL    HW117921   3.996   0.187  12.681  0.1316  2.0095  0.5482
 2153SOL    HW217922   3.930   0.089  12.765  1.1747 -1.9176  2.4514
 2154SOL     OW17923   2.077   2.673   2.353  1.0023  0.4687 -0.5097
 2154SOL    HW117924   2.134   2.596   2.354  2.0547  1.2585  0.9828
 2154SOL    HW217925   2.070   2.684   2.448  1.1337  0.0116 -0.4480
 2155SOL     OW17926   2.059   3.251   1.780  0.5067 -0.2869  0.3910
 2155SOL    HW117927   1.991   3.311   1.810  1.0701  1.1386 -1.2392
 2155SOL    HW217928   2.140   3.286   1.817  0.7309 -1.7884  1.3386
 2156SOL     OW17929   4.392   2.289   5.675 -0.3694  0.0534 -0.5698
 2156SOL    HW117930   4.444   2.357   5.631 -1.1928  1.1525  0.1504
 2156SOL    HW217931   4.333   2.341   5.731  2.5306  2.2687  0.4414
 2157SOL     OW17932   0.869   2.219   7.266 -0.4002 -0.0692  0.3292
 2157SOL    HW117933   0.801   2.164   7.307  1.6630 -1.5846  1.7011
 2157SOL    HW217934   0.897   2.176   7.186  0.5428  1.1096  0.0209
 2158SOL     OW17935   4.405   3.223   6.703  0.1575  1.0587 -0.8292
 2158SOL    HW117936   4.368   3.310   6.693 -0.8639  0.5873 -1.0520
 2158SOL    HW217937   4.357   3.180   6.633  1.7940 -0.9970 -0.7022
 2159SOL     OW17938   1.348   3.789  12.416 -0.5016 -0.3214 -0.1036
 2159SOL    HW117939   1.377   3.848  12.346  0.7725 -0.0383  0.6495
 2159SOL    HW217940   1.375   3.708  12.372 -0.1462 -0.7470  0.8922
 2160SOL     OW17941   3.293   4.170   4.584 -0.5878 -0.3743 -0.2831
 2160SOL    HW117942   3.290   4.206   4.495 -2.6977  2.2545  0.8387
 2160SOL    HW217943   3.260   4.242   4.638 -1.0229  0.8036 -2.1404
 2161SOL     OW17944   1.994   0.533   4.656  0.4989  0.2509  0.2433
 2161SOL    HW117945   1.949   0.596   4.599 -1.2826 -0.6949  0.5787
 2161SOL    HW217946   1.958   0.454   4.615 -0.0827  1.2865 -1.2279
 2162SOL     OW17947   3.426   0.606   6.901 -0.3677 -0.2073 -0.5278
 2162SOL    HW117948   3.422   0.692   6.943  0.4732 -1.3046  1.7904
 2162SOL    HW217949   3.393   0.627   6.814  0.3049  1.1655 -0.4540
 2163SOL     OW17950   0.525   4.525   8.409 -0.0783  0.0623 -0.4103
 2163SOL    HW117951   0.613   4.558   8.429 -0.0542  1.2257 -2.4311
 2163SOL    HW217952   0.467   4.569   8.470  2.1505  1.4228  0.7506
 2164SOL     OW17953   4.716   4.516   7.074  1.1109  0.5400  0.7199
 2164SOL    HW117954   0.066   4.455   7.081  0.6795 -0.0867 -0.2467
 2164SOL    HW217955   4.644   4.456   7.055  2.6749 -0.8554 -0.8083
 2165SOL     OW17956   0.659   0.966   5.364 -0.4357  0.5364 -0.1285
 2165SOL    HW117957   0.723   0.990   5.296  0.0337 -0.1918  0.0609
 2165SOL    HW217958   0.619   1.051   5.379  0.3587  0.9650 -0.4350
 2166SOL     OW17959   4.035   2.880  14.657 -0.2703  0.0809  0.2300
 2166SOL    HW117960   4.058   2.912  14.570  1.4409  3.0115  1.7495
 2166SOL    HW217961   3.990   2.798  14.640  0.6872 -0.1908 -0.9613
 2167SOL     OW17962   0.537   1.079   6.643 -0.2331 -0.0776  0.4102
 2167SOL    HW117963   0.498   0.992   6.645  1.1052 -0.6625  0.3704
 2167SOL    HW217964   0.510   1.103   6.732 -2.1343  0.4008 -0.2869
 2168SOL     OW17965   2.078   3.113   8.072  0.3079 -0.5385 -0.7019
 2168SOL    HW117966   2.118   3.176   8.132  1.0741 -1.4673 -0.2255
 2168SOL    HW217967   2.081   3.032   8.124 -2.6228  0.6310  1.2566
 2169SOL     OW17968   1.116   4.170   3.897 -0.3432  0.1084  0.2593
 2169SOL    HW117969   1.069   4.227   3.958 -1.5728  0.9726 -1.4920
 2169SOL    HW217970   1.182   4.229   3.860  0.9963 -1.4069  0.2594
 2170SOL     OW17971   0.874   1.606  12.814 -0.2606  0.4119 -0.8763
 2170SOL    HW117972   0.812   1.619  12.742 -0.7067 -1.5100 -0.8393
 2170SOL    HW217973   0.854   1.688  12.859 -0.3718 -0.2754  0.3120
 2171SOL     OW17974   3.775   2.523   7.667  0.2160  0.1851 -0.4342
 2171SOL    HW117975   3.700   2.469   7.688  0.4374 -0.3942 -1.1391
 2171SOL    HW217976   3.801   2.488   7.582  1.3602  1.9630 -0.8243
 2172SOL     OW17977   0.080   0.724  13.039  0.0005 -0.5172  0.5071
 2172SOL    HW117978   0.074   0.814  13.007  0.1058 -0.3493  0.9558
 2172SOL    HW217979   0.077   0.739  13.133 -0.9956  0.2197  0.3481
 2173SOL     OW17980   4.484   2.622   6.316 -0.2554 -0.4967 -0.1992
 2173SOL    HW117981   4.527   2.629   6.231 -0.4530 -1.0338 -0.3392
 2173SOL    HW217982   4.467   2.713   6.342 -0.1391 -1.0156  1.7108
 2174SOL     OW17983   1.306   2.304   4.667  0.2550  0.3369 -0.1531
 2174SOL    HW117984   1.376   2.292   4.603 -0.1788 -3.9469  0.1715
 2174SOL    HW217985   1.351   2.369   4.720  0.4085 -1.0586  1.4127
 2175SOL     OW17986   2.355   2.342  11.275 -0.1052 -0.2882  0.1015
 2175SOL    HW117987   2.331   2.249  11.274 -1.6471  0.1291 -1.3213
 2175SOL    HW217988   2.276   2.387  11.246  1.3444  2.4532  0.4470
 2176SOL     OW17989   4.262   1.621   3.639 -0.2108  0.0890 -0.5641
 2176SOL    HW117990   4.341   1.651   3.595 -0.5249 -0.6124 -1.6114
 2176SOL    HW217991   4.276   1.655   3.727  0.9030 -3.1492  0.5291
 2177SOL     OW17992   0.856   2.450   4.675 -0.1051 -0.9042  0.1341
 2177SOL    HW117993   0.821   2.400   4.601  0.0615 -0.3603 -0.3149
 2177SOL    HW217994   0.838   2.379   4.736 -0.1938  0.4124  1.6587
 2178SOL     OW17995   0.290   1.589  13.042 -0.1915  0.0456 -0.1080
 2178SOL    HW117996   0.199   1.616  13.032  0.3612  2.0130  0.3801
 2178SOL    HW217997   0.319   1.620  12.956  0.6054 -0.9530 -0.2035
 2179SOL     OW17998   4.493   3.395   4.735  0.3701  0.0192 -0.1049
 2179SOL    HW117999   4.478   3.413   4.642 -1.2581 -4.0839 -0.6265
 2179SOL    HW218000   4.462   3.305   4.746  2.1657 -0.4658  0.8693
 2180SOL     OW18001   1.997   2.260  15.535 -0.3811 -0.2409  0.3013
 2180SOL    HW118002   2.044   2.340  15.559  0.6155 -1.1329  1.3444
 2180SOL    HW218003   2.067   2.194  15.528  0.2281  0.4677 -0.2449
 2181SOL     OW18004   4.183   0.293   5.787  0.4490 -0.1896 -0.0532
 2181SOL    HW118005   4.223   0.353   5.850  1.1901  0.9095 -1.5890
 2181SOL    HW218006   4.214   0.212   5.828  2.5874  1.3632  1.4289
 2182SOL     OW18007   3.466   1.501   4.389  0.1154  0.1138 -0.4779
 2182SOL    HW118008   3.502   1.521   4.476 -2.2360 -0.7473  0.7064
 2182SOL    HW218009   3.519   1.540   4.320  0.8188 -0.7862 -0.4418
 2183SOL     OW18010   2.707   0.039  10.503 -0.0726  0.5544 -0.3473
 2183SOL    HW118011   2.649   0.040  10.579  1.7788  2.5960  1.0716
 2183SOL    HW218012   2.691   4.680  10.458 -0.0315 -2.0827  4.4958
 2184SOL     OW18013   1.234   0.446   3.610  0.2805 -0.0164  0.6582
 2184SOL    HW118014   1.321   0.440   3.649  1.2817 -0.6600 -1.7412
 2184SOL    HW218015   1.185   0.507   3.666 -0.6235 -0.2430  0.1243
 2185SOL     OW18016   2.417   1.906   2.565 -0.8462 -0.1703  0.0608
 2185SOL    HW118017   2.488   1.843   2.557 -1.0161 -0.6391  2.1509
 2185SOL    HW218018   2.441   1.970   2.633  3.2040 -2.5177  0.8584
 2186SOL     OW18019   4.667   2.952   4.793 -0.4011 -0.1397  0.2940
 2186SOL    HW118020   4.693   2.937   4.702  0.8818  0.2079  0.5996
 2186SOL    HW218021   4.584   2.996   4.777 -0.9827 -1.1023  0.6598
 2187SOL     OW18022   2.551   1.986   7.973  0.1823  0.2558 -0.2915
 2187SOL    HW118023   2.557   2.039   7.893 -1.1280 -1.4885 -1.5548
 2187SOL    HW218024   2.635   1.940   7.968  0.2863  0.0515  3.3220
 2188SOL     OW18025   0.236   3.849  14.532 -0.0137  0.1945 -0.3370
 2188SOL    HW118026   0.310   3.871  14.475  1.2017  0.0370  1.1950
 2188SOL    HW218027   0.216   3.933  14.573  0.4642 -0.4849  1.2930
 2189SOL     OW18028   3.487   4.160  10.925 -0.4566  1.3101  0.0055
 2189SOL    HW118029   3.420   4.209  10.878 -1.1461 -0.8760 -1.3005
 2189SOL    HW218030   3.427   4.112  10.982 -1.3967  1.0715 -1.1928
 2190SOL     OW18031   4.092   0.269   3.881  0.0047 -0.3483  0.3601
 2190SOL    HW118032   4.017   0.304   3.930 -0.4407 -0.8074 -0.0032
 2190SOL    HW218033   4.158   0.336   3.896 -0.9213  1.4886 -3.7634
 2191SOL     OW18034   4.277   1.345   4.039 -0.2413  0.1233  0.2846
 2191SOL    HW118035   4.328   1.328   4.118  0.0996  1.3968  0.3400
 2191SOL    HW218036   4.305   1.433   4.016 -2.7645  0.1484 -2.6703
 2192SOL     OW18037   4.512   3.159   1.005 -0.1740  0.0052 -0.1177
 2192SOL    HW118038   4.494   3.066   1.017 -0.1500 -0.0953 -0.8204
 2192SOL    HW218039   4.439   3.169   0.944 -0.6269 -2.4404  0.0531
 2193SOL     OW18040   1.484   1.362   7.573  0.1861  0.2534  0.5883
 2193SOL    HW118041   1.475   1.457   7.566 -0.3716  0.1535 -0.1491
 2193SOL    HW218042   1.411   1.342   7.514  1.6492 -0.2932 -1.0431
 2194SOL     OW18043   3.558   3.588   7.319  0.3851  0.5058  0.7113
 2194SOL    HW118044   3.574   3.530   7.393  0.0658  1.4161  1.5084
 2194SOL    HW218045   3.492   3.640   7.366 -0.1674  1.9645 -1.6435
 2195SOL     OW18046   1.180   3.210   6.571 -0.3196  0.2072 -0.0068
 2195SOL    HW118047   1.231   3.142   6.526 -1.3174 -1.2693  1.1205
 2195SOL    HW218048   1.160   3.272   6.501  2.1263  0.0871 -0.8183
 2196SOL     OW18049   2.862   1.865   6.084  0.1197  0.4195 -0.5083
 2196SOL    HW118050   2.881   1.800   6.151  1.2196  1.5002  0.2293
 2196SOL    HW218051   2.865   1.941   6.142  2.6984  0.2220 -0.4007
 2197SOL     OW18052   2.958   2.932   7.526 -0.1825  0.5414 -0.0869
 2197SOL    HW118053   2.916   2.846   7.536  1.0412  0.1200  1.3882
 2197SOL    HW218054   2.877   2.978   7.503 -0.1380  0.4343 -0.4517
 2198SOL     OW18055   2.786   1.647   3.297 -0.2251  0.2754 -0.0002
 2198SOL    HW118056   2.870   1.637   3.342  0.7943 -0.0914 -1.9891
 2198SOL    HW218057   2.736   1.709   3.349  0.1088  0.7599 -0.2627
 2199SOL     OW18058   3.619   1.687   3.679  0.0140  0.2838  0.0633
 2199SOL    HW118059   3.676   1.734   3.618  0.0728 -2.6666 -2.1215
 2199SOL    HW218060   3.617   1.734   3.763  0.4082  0.2527  0.0919
 2200SOL     OW18061   0.315   1.176   6.422  0.0986 -0.2678 -0.3276
 2200SOL    HW118062   0.311   1.145   6.513 -2.1065 -2.1735 -1.0690
 2200SOL    HW218063   0.257   1.109   6.385 -1.0406  1.0026 -0.8183
 2201SOL     OW18064   1.320   4.117   0.012  0.2306  0.0741 -0.0145
 2201SOL    HW118065   1.389   4.072   0.061  0.2165 -1.2799 -1.2506
 2201SOL    HW218066   1.257   4.130   0.083 -0.0977 -1.0839 -0.0992
 2202SOL     OW18067   0.728   3.258   3.684  0.0174  0.1526 -0.4834
 2202SOL    HW118068   0.760   3.169   3.668  1.2808  0.3709  0.8320
 2202SOL    HW218069   0.696   3.241   3.772 -0.6335  0.5142 -0.6527
 2203SOL     OW18070   1.311   2.498   7.128  0.4532 -0.1273  0.0846
 2203SOL    HW118071   1.367   2.430   7.166  1.0960 -0.1065 -0.8223
 2203SOL    HW218072   1.353   2.539   7.053  0.8063  2.0737  1.4820
 2204SOL     OW18073   4.387   1.710   7.870 -0.3769  0.2427  0.1817
 2204SOL    HW118074   4.440   1.642   7.911  0.9236  0.4517 -1.1497
 2204SOL    HW218075   4.303   1.665   7.871 -2.5374  4.2616 -0.2709
 2205SOL     OW18076   2.077   1.541   3.026  0.2457  0.3158 -0.0513
 2205SOL    HW118077   2.086   1.495   3.109  1.7634  2.9439  1.2279
 2205SOL    HW218078   2.086   1.630   3.060 -3.0585  0.9473 -0.8306
 2206SOL     OW18079   0.504   1.519   9.009  0.0601  0.0975  0.1034
 2206SOL    HW118080   0.535   1.549   8.923 -0.8240  0.2860 -0.1463
 2206SOL    HW218081   0.557   1.439   9.018 -1.5069 -0.9024  0.4691
 2207SOL     OW18082   2.909   4.060   6.834 -0.1101  0.1229 -0.2648
 2207SOL    HW118083   2.829   4.059   6.782  0.5515 -0.8664 -1.2550
 2207SOL    HW218084   2.875   4.028   6.917  0.4619  1.3067  0.4295
 2208SOL     OW18085   3.631   1.127   5.277 -0.6703 -0.9690 -0.4808
 2208SOL    HW118086   3.639   1.204   5.222 -0.4754 -0.7978 -0.2156
 2208SOL    HW218087   3.709   1.130   5.334 -1.7030 -1.9913  0.9952
 2209SOL     OW18088   0.615   0.691   8.809 -0.1286  0.5561  0.5966
 2209SOL    HW118089   0.614   0.761   8.874 -0.1826  0.2865  0.8845
 2209SOL    HW218090   0.642   0.612   8.854  0.8069 -0.1702 -1.2599
 2210SOL     OW18091   4.034   4.220   4.327  0.1502  0.4065 -0.4208
 2210SOL    HW118092   4.123   4.185   4.320  0.1211  0.1478  0.6162
 2210SOL    HW218093   4.027   4.236   4.421  2.3171 -2.1743  0.1626
 2211SOL     OW18094   4.284   1.502  16.124 -0.6345  0.1547  0.8525
 2211SOL    HW118095   4.340   1.524  16.049 -0.0205  0.9053  1.5324
 2211SOL    HW218096   4.203   1.544  16.095 -1.4981 -2.5249 -0.5834
 2212SOL     OW18097   1.289   0.474  11.265 -0.5209  0.5428 -0.1739
 2212SOL    HW118098   1.221   0.468  11.198 -1.2449 -0.1495  0.6233
 2212SOL    HW218099   1.328   0.560  11.253 -0.4976  0.7864  1.7444
 2213SOL     OW18100   3.713   0.694   1.569 -0.6764  0.0824 -0.1933
 2213SOL    HW118101   3.788   0.708   1.511  0.3684 -0.6749  0.9468
 2213SOL    HW218102   3.714   0.780   1.609  1.8924  0.6816 -1.4973
 2214SOL     OW18103   2.383   2.441   0.521 -0.3059  0.1663 -1.0787
 2214SOL    HW118104   2.327   2.407   0.452 -0.7965 -0.0127 -0.5917
 2214SOL    HW218105   2.430   2.512   0.478 -0.0041  1.1852  0.9017
 2215SOL     OW18106   1.815   2.268   3.847  0.0038 -0.2715 -0.1948
 2215SOL    HW118107   1.821   2.253   3.942 -1.6265 -1.9378 -0.3774
 2215SOL    HW218108   1.904   2.298   3.825 -0.2199  0.4169 -0.1528
 2216SOL     OW18109   3.453   1.501   3.124  0.1992  0.0103 -0.3972
 2216SOL    HW118110   3.444   1.523   3.217 -0.3674 -0.2198 -0.3996
 2216SOL    HW218111   3.393   1.429   3.108  1.6818 -0.5141 -3.6315
 2217SOL     OW18112   2.797   3.220   0.405 -0.0571 -0.5053 -0.2584
 2217SOL    HW118113   2.856   3.295   0.406  0.8253 -1.2240  0.9520
 2217SOL    HW218114   2.713   3.263   0.421  0.3079 -0.2143  0.8631
 2218SOL     OW18115   0.894   2.991   3.946 -0.0515  0.5790 -0.1042
 2218SOL    HW118116   0.822   3.022   4.001 -0.7707 -2.5111  0.7401
 2218SOL    HW218117   0.844   2.984   3.865 -0.5144 -2.1630  0.4165
 2219SOL     OW18118   4.081   3.475   9.916 -0.7526  0.4013 -0.3512
 2219SOL    HW118119   4.051   3.499  10.004  3.5231  2.4104  0.5955
 2219SOL    HW218120   4.016   3.408   9.897 -1.4004  0.4244  1.7998
 2220SOL     OW18121   1.044   1.589  13.085  0.2323  0.1937  0.0188
 2220SOL    HW118122   1.002   1.570  13.001  0.4112 -1.9373  0.4127
 2220SOL    HW218123   1.054   1.502  13.126  0.1738 -1.0685 -2.6833
 2221SOL     OW18124   0.401   0.087   4.794  0.1488 -0.0411  0.5131
 2221SOL    HW118125   0.448   0.103   4.712  0.0562 -0.1384  0.4426
 2221SOL    HW218126   0.440   0.012   4.839  2.4043 -0.9268 -2.9050
 2222SOL     OW18127   3.496   3.902   8.747  0.1791  0.3123 -0.3061
 2222SOL    HW118128   3.508   3.996   8.736 -0.3000  0.3875 -0.1816
 2222SOL    HW218129   3.580   3.878   8.786 -0.8336 -0.4307  1.4447
 2223SOL     OW18130   2.153   0.099   5.754 -0.0808 -0.3029 -0.6744
 2223SOL    HW118131   2.177   0.132   5.668  1.8896  1.0992  0.4144
 2223SOL    HW218132   2.185   0.164   5.817  0.7952 -3.0832  1.7553
 2224SOL     OW18133   0.560   2.447   3.478 -0.1172 -0.0274  0.0294
 2224SOL    HW118134   0.643   2.406   3.502 -0.4838 -0.6079  0.2969
 2224SOL    HW218135   0.541   2.404   3.395  0.6841 -1.9432  0.8486
 2225SOL     OW18136   2.817   2.952  16.453 -0.1358 -0.3552  0.0151
 2225SOL    HW118137   2.826   2.880  16.391  1.0277 -1.1958  1.1599
 2225SOL    HW218138   2.884   2.940  16.521 -0.0092 -1.4543 -0.3091
 2226SOL     OW18139   1.514   4.655   5.584 -0.0798 -0.4761  0.4867
 2226SOL    HW118140   1.535   0.021   5.609 -2.0493  0.0951  0.0333
 2226SOL    HW218141   1.515   4.600   5.662 -1.7701 -0.5764  0.4308
 2227SOL     OW18142   2.425   3.174   6.887 -0.7004 -0.1611 -0.7066
 2227SOL    HW118143   2.357   3.224   6.934  1.3750 -0.4978  2.6260
 2227SOL    HW218144   2.504   3.187   6.938 -0.1738 -0.4939 -1.4416
 2228SOL     OW18145   2.664   1.561   1.078 -0.4706  0.0114  0.1093
 2228SOL    HW118146   2.714   1.600   1.006  0.2594 -2.0123 -0.4811
 2228SOL    HW218147   2.580   1.537   1.040 -0.6815  0.6581  0.1753
 2229SOL     OW18148   1.987   3.785  14.181 -0.2138 -0.5000 -0.1868
 2229SOL    HW118149   1.998   3.774  14.275  0.3778 -0.7722 -0.2844
 2229SOL    HW218150   1.991   3.881  14.178  2.5517 -0.5984 -0.1099
 2230SOL     OW18151   1.880   0.767  11.050 -0.6098 -0.1587 -0.1124
 2230SOL    HW118152   1.902   0.764  11.143 -2.7815  0.1328  0.4140
 2230SOL    HW218153   1.861   0.859  11.032 -2.2441 -0.2907  0.9915
 2231SOL     OW18154   2.590   1.779   8.927 -0.3166 -0.1528 -0.3364
 2231SOL    HW118155   2.496   1.769   8.909 -0.4824 -1.6434  1.3848
 2231SOL    HW218156   2.588   1.792   9.021  1.4146 -1.0356 -0.1799
 2232SOL     OW18157   0.095   4.138   2.419 -0.1947 -0.1015 -0.0206
 2232SOL    HW118158   0.083   4.044   2.406 -2.5424 -0.0607  1.8118
 2232SOL    HW218159   0.004   4.167   2.424 -0.8621 -2.2498  0.4486
 2233SOL     OW18160   0.051   0.848  14.506  0.0935 -0.7899 -0.4840
 2233SOL    HW118161   0.085   0.934  14.531 -1.0535 -0.8579  1.2759
 2233SOL    HW218162   0.048   0.863  14.411  1.5242 -0.0387 -0.4168
 2234SOL     OW18163   4.517   1.314   5.913  0.3315  0.5221 -0.2596
 2234SOL    HW118164   4.538   1.367   5.990  0.4277  0.5383 -0.2965
 2234SOL    HW218165   4.441   1.265   5.944 -1.2653  1.2579 -3.0711
 2235SOL     OW18166   3.502   2.575   6.357  0.3160 -0.2564 -0.4298
 2235SOL    HW118167   3.498   2.671   6.359 -0.7024 -0.3405  2.0397
 2235SOL    HW218168   3.555   2.552   6.433  1.8765 -0.7917 -1.6749
 2236SOL     OW18169   4.704   4.213   8.329  0.0897  0.5615  0.3050
 2236SOL    HW118170   0.016   4.129   8.301 -0.2864  0.3863  0.3437
 2236SOL    HW218171   4.674   4.234   8.240  0.8918  0.5831  0.0455
 2237SOL     OW18172   3.710   3.872   7.372  0.3479  0.4341 -0.1963
 2237SOL    HW118173   3.755   3.787   7.367 -0.7593 -0.3297  2.4485
 2237SOL    HW218174   3.662   3.872   7.289 -0.8575  0.2555  0.5097
 2238SOL     OW18175   4.610   4.508   2.367 -0.0158  0.4398 -0.2780
 2238SOL    HW118176   4.682   4.460   2.407  0.6185  0.7312 -1.0563
 2238SOL    HW218177   4.627   4.595   2.404  1.4574  0.6319 -1.3585
 2239SOL     OW18178   4.361   4.586   8.978 -0.2250 -0.1237  0.4908
 2239SOL    HW118179   4.318   4.506   9.008  0.1092  0.2085  1.8596
 2239SOL    HW218180   4.304   4.602   8.903  0.4773 -1.7730 -0.3877
 2240SOL     OW18181   2.647   4.120   2.364  0.1139  0.0381 -0.5616
 2240SOL    HW118182   2.603   4.204   2.355 -0.9740 -0.6466 -1.5874
 2240SOL    HW218183   2.738   4.147   2.355  0.8400 -1.5911  1.8241
 2241SOL     OW18184   4.148   2.160   6.163  0.9506  0.0016  0.4152
 2241SOL    HW118185   4.084   2.182   6.095 -0.1219  1.6179  1.9538
 2241SOL    HW218186   4.108   2.080   6.199  1.0685 -1.2509 -2.2699
 2242SOL     OW18187   1.201   3.641   4.598 -0.5473  0.5570  0.5531
 2242SOL    HW118188   1.126   3.691   4.630  2.3146  4.7439  0.6241
 2242SOL    HW218189   1.175   3.618   4.509  0.3708  1.5617  0.0207
 2243SOL     OW18190   0.414   4.267   5.366 -0.2951 -0.1529 -0.6012
 2243SOL    HW118191   0.322   4.252   5.345 -0.6275  2.0288 -0.6163
 2243SOL    HW218192   0.418   4.362   5.373 -3.6021  0.0242 -1.4262
 2244SOL     OW18193   3.847   3.650   8.989  0.4854 -0.3430  0.0221
 2244SOL    HW118194   3.762   3.636   9.031 -0.3811 -0.0002 -1.5985
 2244SOL    HW218195   3.904   3.634   9.064 -0.0562  1.7628  0.8691
 2245SOL     OW18196   2.664   1.758  14.531 -0.1543 -0.3604 -0.0496
 2245SOL    HW118197   2.720   1.822  14.487 -1.0697 -0.2155 -0.9945
 2245SOL    HW218198   2.699   1.769  14.620 -1.7071 -1.4859  0.6915
 2246SOL     OW18199   3.251   3.321  17.479 -0.3335  0.4776  0.0884
 2246SOL    HW118200   3.219   3.402  17.439  1.3317 -0.2685 -2.6605
 2246SOL    HW218201   3.187   3.312  17.550 -0.6111  3.9955  0.2867
 2247SOL     OW18202   1.154   4.020   4.829 -0.2277  0.5372  0.1772
 2247SOL    HW118203   1.078   4.077   4.826  0.8093  1.9931  1.1847
 2247SOL    HW218204   1.226   4.081   4.810  0.7452 -1.0192 -1.0858
 2248SOL     OW18205   2.885   3.970   3.725  0.0369 -0.3432 -0.5032
 2248SOL    HW118206   2.901   4.063   3.742  1.4631 -0.6372 -0.2924
 2248SOL    HW218207   2.808   3.980   3.668 -0.7499 -2.5301  0.1640
 2249SOL     OW18208   4.070   3.116   5.705 -0.3856  0.1283  0.1539
 2249SOL    HW118209   3.985   3.073   5.698  0.1036 -0.9572  0.9659
 2249SOL    HW218210   4.068   3.159   5.619  1.0560 -0.5876 -0.2507
 2250SOL     OW18211   0.502   1.025   2.609 -0.6191  0.4088 -0.9779
 2250SOL    HW118212   0.428   0.983   2.653 -1.0543  2.5191  0.2743
 2250SOL    HW218213   0.563   0.951   2.616 -0.9860  0.1070 -0.9317
 2251SOL     OW18214   1.589   3.910   5.265 -0.2442 -0.4902  0.3005
 2251SOL    HW118215   1.610   3.826   5.308  3.1924 -0.1890 -0.7971
 2251SOL    HW218216   1.677   3.916   5.227 -0.7468 -0.7174 -0.8825
 2252SOL     OW18217   3.308   1.435   9.950  0.4419  0.0168 -0.3007
 2252SOL    HW118218   3.351   1.428  10.035  0.0838 -0.5266 -0.1577
 2252SOL    HW218219   3.249   1.506   9.976  0.0038 -0.4219 -0.0821
 2253SOL     OW18220   4.090   2.599  11.877 -0.0749 -0.1112 -0.3267
 2253SOL    HW118221   4.037   2.529  11.838  0.1860 -0.1483 -0.6127
 2253SOL    HW218222   4.166   2.546  11.905 -0.9792 -1.2263  0.0351
 2254SOL     OW18223   3.823   0.058  13.819 -0.2873 -0.4910  0.0828
 2254SOL    HW118224   3.745   0.062  13.764  0.6898  0.0707 -1.2764
 2254SOL    HW218225   3.872   4.715  13.771  0.1166 -0.0712 -0.0890
 2255SOL     OW18226   1.713   1.997   3.608 -0.2206 -0.5225 -0.1029
 2255SOL    HW118227   1.783   2.036   3.556 -1.5114 -1.4630 -2.5462
 2255SOL    HW218228   1.758   1.945   3.675  2.9693  1.0149 -1.0599
 2256SOL     OW18229   1.564   3.314  10.456  0.3941  0.1491  0.1366
 2256SOL    HW118230   1.625   3.379  10.489 -1.3389  1.9142 -0.0821
 2256SOL    HW218231   1.585   3.235  10.506  0.7358 -0.8342 -1.5528
 2257SOL     OW18232   3.560   0.864  11.371 -0.0264 -0.4281 -0.1016
 2257SOL    HW118233   3.496   0.924  11.410 -1.1409 -0.0450 -2.4879
 2257SOL    HW218234   3.540   0.787  11.424  0.9228  0.7733  1.9955
 2258SOL     OW18235   4.437   2.227  16.251  0.2915 -0.6836  0.3171
 2258SOL    HW118236   4.471   2.249  16.165 -0.9720  0.5896  0.1386
 2258SOL    HW218237   4.514   2.216  16.307  1.9773 -1.3280 -2.1656
 2259SOL     OW18238   3.407   0.867  17.408  0.3771  0.0364  0.1038
 2259SOL    HW118239   3.455   0.790  17.439  0.4300 -1.0110 -2.5891
 2259SOL    HW218240   3.478   0.921  17.372 -1.0340  2.0481  0.3839
 2260SOL     OW18241   3.301   4.579   7.116 -0.4634 -0.4082 -0.5759
 2260SOL    HW118242   3.297   4.661   7.165  1.6910  0.1808 -1.3974
 2260SOL    HW218243   3.386   4.589   7.074 -1.5022 -0.6587 -2.7609
 2261SOL     OW18244   0.608   0.755   9.718  0.3850 -0.3651 -0.3217
 2261SOL    HW118245   0.667   0.818   9.759  2.0693 -1.5276 -0.9842
 2261SOL    HW218246   0.549   0.741   9.792  0.9193 -0.7664  0.0288
 2262SOL     OW18247   0.709   3.840   7.367 -0.0900  0.1850  0.1574
 2262SOL    HW118248   0.759   3.791   7.432 -0.0227  1.1301  0.8148
 2262SOL    HW218249   0.776   3.905   7.344 -0.4646  0.4534 -0.1694
 2263SOL     OW18250   3.804   1.017   4.258  0.0805 -0.1434  0.0278
 2263SOL    HW118251   3.719   0.981   4.283 -1.5944  3.4849 -0.3198
 2263SOL    HW218252   3.775   1.064   4.179  0.2852 -0.3698 -0.1801
 2264SOL     OW18253   3.824   1.663   8.526  0.8936 -0.6386 -0.0361
 2264SOL    HW118254   3.756   1.673   8.593  0.7971 -0.0266 -0.2271
 2264SOL    HW218255   3.783   1.617   8.452 -1.1987 -0.1393  0.8092
 2265SOL     OW18256   4.310   0.282   8.994 -0.4857 -0.3734 -0.5927
 2265SOL    HW118257   4.357   0.249   8.917  0.4123 -1.7721  0.5378
 2265SOL    HW218258   4.219   0.267   8.969 -0.6466 -0.3222 -0.0372
 2266SOL     OW18259   2.158   3.978  12.305  0.2116  0.2764  0.4220
 2266SOL    HW118260   2.114   3.894  12.293  0.8501 -0.3864  2.6813
 2266SOL    HW218261   2.221   3.978  12.233  1.3182 -0.8201  1.3846
 2267SOL     OW18262   2.808   1.448   1.291  0.1087  0.2441 -0.2532
 2267SOL    HW118263   2.812   1.357   1.262 -0.6155  0.0246  0.3398
 2267SOL    HW218264   2.755   1.484   1.220 -0.0357  4.0916  1.8231
 2268SOL     OW18265   0.914   0.585  15.878 -0.0428  0.3364  0.5817
 2268SOL    HW118266   0.970   0.557  15.805 -1.3918 -1.9639  0.4354
 2268SOL    HW218267   0.941   0.528  15.949 -1.1762  0.2388  0.9388
 2269SOL     OW18268   1.551   2.783   5.832  0.1071 -0.2819  0.1691
 2269SOL    HW118269   1.548   2.737   5.916  1.1910 -0.8307 -0.0889
 2269SOL    HW218270   1.528   2.870   5.864  0.8693 -0.1575  0.3865
 2270SOL     OW18271   0.917   1.562   1.382  0.2940  0.3061  0.2933
 2270SOL    HW118272   0.885   1.647   1.412  1.5946  1.3387 -1.2091
 2270SOL    HW218273   0.849   1.528   1.324  0.3756  2.9536 -1.3582
 2271SOL     OW18274   3.068   2.782   3.868  0.1407  0.2004 -0.3105
 2271SOL    HW118275   3.129   2.854   3.848 -1.0506  1.5661  0.9774
 2271SOL    HW218276   3.007   2.824   3.929  1.4200  0.8062  0.5527
 2272SOL     OW18277   3.515   1.028   4.774 -0.1026  0.1393  0.1831
 2272SOL    HW118278   3.455   1.070   4.836 -0.9699  0.9916 -1.2313
 2272SOL    HW218279   3.485   1.070   4.694 -0.0054 -1.2150 -0.5550
 2273SOL     OW18280   1.958   0.121   7.134  0.1452  0.5328 -0.2519
 2273SOL    HW118281   1.885   0.163   7.089  0.9749 -0.1738 -2.2633
 2273SOL    HW218282   1.923   0.046   7.182 -1.5374  2.1728  1.0466
 2274SOL     OW18283   3.433   1.858  11.512  0.0041 -0.1019  0.3492
 2274SOL    HW118284   3.450   1.776  11.466  1.5094 -0.7959  2.1285
 2274SOL    HW218285   3.412   1.924  11.445  1.4801  1.6392  1.6093
 2275SOL     OW18286   0.930   0.248   6.445  0.3049 -0.5494 -0.3046
 2275SOL    HW118287   0.929   0.316   6.378 -0.1264  2.6631  2.9753
 2275SOL    HW218288   1.021   0.256   6.475  0.3107  0.8252 -0.7282
 2276SOL     OW18289   1.433   0.429   8.939  0.1596 -0.1700 -0.1130
 2276SOL    HW118290   1.505   0.407   8.880 -0.3768  0.6547 -1.0773
 2276SOL    HW218291   1.387   0.346   8.928 -0.8609  0.3521  0.1897
 2277SOL     OW18292   0.098   1.354  15.227 -0.4195 -0.3918  0.9944
 2277SOL    HW118293   0.169   1.337  15.289 -0.1169 -0.8114  0.5313
 2277SOL    HW218294   0.147   1.388  15.151 -1.3121 -1.0697  0.1228
 2278SOL     OW18295   3.665   2.655   5.839  0.0328  0.1211 -0.6346
 2278SOL    HW118296   3.610   2.731   5.858 -0.3698 -0.3209 -0.0480
 2278SOL    HW218297   3.633   2.590   5.901 -0.9527  0.9305 -0.2980
 2279SOL     OW18298   0.752   1.823   3.306 -0.1864  0.6757  0.1478
 2279SOL    HW118299   0.819   1.781   3.251 -0.7600  0.3380 -0.2947
 2279SOL    HW218300   0.770   1.787   3.393  2.7910 -1.0243 -1.1724
 2280SOL     OW18301   1.218   0.925  13.342 -0.0575 -0.0189 -0.0516
 2280SOL    HW118302   1.234   0.906  13.435  0.8408 -1.9934 -0.6230
 2280SOL    HW218303   1.260   1.011  13.333 -0.2353  0.1608  0.7805
 2281SOL     OW18304   4.710   4.681   4.348  0.6362  0.1207  0.5778
 2281SOL    HW118305   0.010   4.599   4.391  0.4179 -0.4243 -0.3441
 2281SOL    HW218306   4.614   4.680   4.355  0.5894 -2.3312 -0.2605
 2282SOL     OW18307   3.032   0.649   6.694 -0.1935  0.2345 -0.4132
 2282SOL    HW118308   2.944   0.682   6.677 -1.0486 -0.3656  2.8888
 2282SOL    HW218309   3.092   0.711   6.651 -1.4306  1.3726 -0.5001
 2283SOL     OW18310   4.256   2.229   4.869  0.2710  0.1489  0.1982
 2283SOL    HW118311   4.308   2.222   4.949  1.0535 -1.5262 -0.4600
 2283SOL    HW218312   4.205   2.310   4.875 -0.6344 -0.3665 -0.5738
 2284SOL     OW18313   1.800   4.317  13.082  0.0464  0.2324 -0.1636
 2284SOL    HW118314   1.812   4.292  12.990  0.5767  0.5333 -0.1739
 2284SOL    HW218315   1.715   4.280  13.106 -0.7321  1.0974 -1.5481
 2285SOL     OW18316   0.317   3.679   6.731  0.8738  0.4384 -0.3187
 2285SOL    HW118317   0.307   3.712   6.642 -1.1514  2.6401  0.7224
 2285SOL    HW218318   0.224   3.676   6.755  1.0225 -0.4396  0.1493
 2286SOL     OW18319   0.013   0.377   3.604  0.7946 -0.2789 -0.1767
 2286SOL    HW118320   4.701   0.293   3.574  0.4449  0.7393 -2.5951
 2286SOL    HW218321   4.701   0.424   3.529  1.1312  0.3212  0.0412
 2287SOL     OW18322   0.634   1.765  12.190  0.1165  0.2176 -0.7025
 2287SOL    HW118323   0.538   1.765  12.196  0.1401 -0.4770 -0.2415
 2287SOL    HW218324   0.655   1.804  12.275 -1.8136 -2.2899  0.9444
 2288SOL     OW18325   2.577   4.123   0.658 -0.8278 -0.2431 -0.6569
 2288SOL    HW118326   2.540   4.211   0.665 -0.7903 -0.2959  0.1265
 2288SOL    HW218327   2.500   4.070   0.638 -0.4454 -1.4516  1.1080
 2289SOL     OW18328   0.999   2.319   2.183  0.1703  0.1569 -0.6518
 2289SOL    HW118329   0.918   2.297   2.137  1.3174  0.2238 -2.7247
 2289SOL    HW218330   1.007   2.235   2.227  3.0376  0.9720  0.3788
 2290SOL     OW18331   3.105   0.311   5.226 -0.6961  0.3216 -0.5754
 2290SOL    HW118332   3.196   0.284   5.214 -0.8962 -0.2176 -0.8741
 2290SOL    HW218333   3.095   0.307   5.321 -3.3800 -0.3034 -0.8591
 2291SOL     OW18334   4.349   3.847   6.970 -0.5719  0.1479  0.0717
 2291SOL    HW118335   4.388   3.793   7.039 -3.2517 -2.5956 -0.5942
 2291SOL    HW218336   4.265   3.803   6.959 -0.5254 -0.0440  0.4946
 2292SOL     OW18337   0.470   4.428   2.243  0.1342 -0.6714 -0.0177
 2292SOL    HW118338   0.500   4.500   2.187 -0.0074 -0.6487 -0.0658
 2292SOL    HW218339   0.375   4.429   2.227  0.6323 -0.4817 -2.9541
 2293SOL     OW18340   2.313   0.636   1.620 -0.0074 -0.2469 -0.4189
 2293SOL    HW118341   2.332   0.569   1.686  0.7521 -1.3759 -1.7886
 2293SOL    HW218342   2.392   0.625   1.567  0.2545 -0.3097 -0.0114
 2294SOL     OW18343   2.629   4.236   7.013 -0.2437 -0.0977 -0.4322
 2294SOL    HW118344   2.660   4.327   7.006  1.7927 -0.6043  2.4300
 2294SOL    HW218345   2.589   4.232   7.100 -0.5904 -0.4460 -0.6105
 2295SOL     OW18346   3.808   0.477  12.868  0.2904  0.0825  0.0432
 2295SOL    HW118347   3.890   0.470  12.819 -0.3507 -1.6892 -0.7453
 2295SOL    HW218348   3.805   0.394  12.915  0.6349  0.1247  0.1403
 2296SOL     OW18349   3.017   4.000   1.789  0.2346 -0.0470 -0.3795
 2296SOL    HW118350   3.103   4.036   1.810 -0.9423  1.3523  2.0285
 2296SOL    HW218351   2.989   4.000   1.880  2.3484 -2.0988  0.2510
 2297SOL     OW18352   4.268   1.116  17.630 -0.3489 -0.3683  0.2700
 2297SOL    HW118353   4.232   1.104  17.542  0.3075 -0.4659  0.0185
 2297SOL    HW218354   4.358   1.141  17.611 -0.6599 -0.3726 -1.2078
 2298SOL     OW18355   2.740   2.017  11.375 -0.2954  0.5650 -0.3335
 2298SOL    HW118356   2.728   1.986  11.465 -2.5125 -0.1485 -0.8775
 2298SOL    HW218357   2.661   2.069  11.362 -0.9993 -0.0683  1.3828
 2299SOL     OW18358   0.486   0.349   5.522 -0.1393  0.2879  0.0325
 2299SOL    HW118359   0.543   0.413   5.480  0.4444 -0.4930 -0.3588
 2299SOL    HW218360   0.552   0.313   5.581 -2.7170 -1.4396  1.8588
 2300SOL     OW18361   3.707   0.044   1.701 -0.3859 -0.6048 -0.0219
 2300SOL    HW118362   3.696   0.092   1.619 -1.0287 -0.2430  0.2857
 2300SOL    HW218363   3.676   4.679   1.683  1.5803 -1.5872  1.4279
 2301SOL     OW18364   0.988   2.140   2.631  0.0955 -0.4552 -0.1903
 2301SOL    HW118365   0.987   2.057   2.680  0.4518 -0.6704 -0.5460
 2301SOL    HW218366   1.042   2.181   2.700 -2.6180 -1.9827  2.8396
 2302SOL     OW18367   1.181   0.387   3.148  0.1142  0.2792 -0.1311
 2302SOL    HW118368   1.158   0.395   3.056 -2.1161 -0.3716  0.3858
 2302SOL    HW218369   1.151   0.466   3.193  0.2328  0.1407  0.1887
 2303SOL     OW18370   2.169   0.829  10.424  0.8545 -0.1139  0.1691
 2303SOL    HW118371   2.260   0.851  10.447  0.0510  3.4072 -0.0348
 2303SOL    HW218372   2.124   0.909  10.450  0.5099 -0.6817  1.3453
 2304SOL     OW18373   2.623   2.446   8.978  0.5945 -0.5236  0.1004
 2304SOL    HW118374   2.639   2.358   8.943  1.4126 -0.5942  0.6590
 2304SOL    HW218375   2.709   2.482   8.958  0.8478 -1.7244 -1.0413
 2305SOL     OW18376   4.397   1.856  14.205  0.4705  0.4494  0.3667
 2305SOL    HW118377   4.370   1.941  14.168 -0.2823  0.1263  0.1695
 2305SOL    HW218378   4.372   1.806  14.127 -0.4972  1.1605  0.2143
 2306SOL     OW18379   0.940   3.702   3.148  0.6786  0.2749  0.5627
 2306SOL    HW118380   0.945   3.675   3.056  3.5361 -0.4216  0.9271
 2306SOL    HW218381   0.874   3.770   3.158 -0.8221 -1.0848 -0.0463
 2307SOL     OW18382   2.167   0.602   0.578  0.3019 -0.2476  0.2396
 2307SOL    HW118383   2.122   0.666   0.522  0.6063 -0.2666 -0.0248
 2307SOL    HW218384   2.241   0.650   0.615 -0.3533  2.7362 -2.2844
 2308SOL     OW18385   0.503   0.480   3.182 -0.3133 -0.2961 -0.3799
 2308SOL    HW118386   0.584   0.431   3.173  0.1726  0.3912  0.2708
 2308SOL    HW218387   0.437   0.412   3.167 -2.7400  1.7922  0.7703
 2309SOL     OW18388   4.272   0.690   1.804 -0.1231 -0.4368 -0.4197
 2309SOL    HW118389   4.291   0.602   1.773  1.6075 -0.5215  0.8397
 2309SOL    HW218390   4.303   0.700   1.895 -0.0333  0.3379 -0.5277
 2310SOL     OW18391   2.290   3.293  11.018 -0.2768  0.0003  0.0743
 2310SOL    HW118392   2.318   3.207  11.050 -1.8930  0.0375  1.6331
 2310SOL    HW218393   2.360   3.318  10.959 -1.3149 -0.4438 -1.3562
 2311SOL     OW18394   3.050   0.491   8.251  0.0988 -0.4174 -0.3409
 2311SOL    HW118395   3.014   0.436   8.320  0.7730  2.6247  2.4289
 2311SOL    HW218396   2.981   0.555   8.235 -0.3684 -0.7390  0.4302
 2312SOL     OW18397   3.337   2.810   0.609  0.1439 -0.2472  0.3850
 2312SOL    HW118398   3.244   2.811   0.629 -0.0739  2.4976 -0.7301
 2312SOL    HW218399   3.340   2.737   0.547  0.0937 -1.3620  1.6866
 2313SOL     OW18400   4.353   3.922   7.952  0.1395 -0.0165 -0.3322
 2313SOL    HW118401   4.448   3.921   7.935  0.2835 -1.8277  0.5210
 2313SOL    HW218402   4.351   3.940   8.046 -1.6395  0.1847 -0.4117
 2314SOL     OW18403   4.586   4.044   7.865  0.0954  0.5145  0.3488
 2314SOL    HW118404   4.663   3.997   7.834  0.4669  1.9440 -0.8824
 2314SOL    HW218405   4.574   4.118   7.806 -2.1260  0.6131  0.9072
 2315SOL     OW18406   1.697   3.777   7.255 -0.6531  0.0503  0.2348
 2315SOL    HW118407   1.745   3.720   7.195 -0.3754  1.2757 -0.7201
 2315SOL    HW218408   1.713   3.860   7.211 -4.7274  1.0272  0.5979
 2316SOL     OW18409   2.406   3.732   9.109  0.5349  0.3429 -0.2999
 2316SOL    HW118410   2.398   3.729   9.204  0.3309  2.0863 -0.2631
 2316SOL    HW218411   2.314   3.737   9.083  0.4598 -2.2668 -0.4753
 2317SOL     OW18412   4.653   3.898  13.060 -0.1184  0.1128 -0.0241
 2317SOL    HW118413   4.663   3.836  12.988  1.6555 -0.5532  0.7773
 2317SOL    HW218414   0.021   3.913  13.080 -0.0100  0.0423 -0.4723
 2318SOL     OW18415   4.646   1.852   8.211 -0.1821  0.5651  0.4367
 2318SOL    HW118416   0.008   1.881   8.240  0.1871  1.1777 -1.2819
 2318SOL    HW218417   4.657   1.874   8.119 -0.2509  0.5884  0.4343
 2319SOL     OW18418   4.379   2.536   5.352  0.5999  0.0098  0.5653
 2319SOL    HW118419   4.324   2.570   5.282  1.3418  1.5501  0.7524
 2319SOL    HW218420   4.455   2.592   5.339  0.8820 -0.0378  2.0377
 2320SOL     OW18421   4.243   4.658  11.852 -0.1235  0.1447 -0.1570
 2320SOL    HW118422   4.242   4.683  11.760  0.5680 -0.4325 -0.3279
 2320SOL    HW218423   4.234   0.018  11.896 -1.1875 -0.3724  0.6212
 2321SOL     OW18424   1.877   2.594   5.870  0.3828 -0.1209  0.2715
 2321SOL    HW118425   1.944   2.536   5.834 -1.0376 -1.3445 -0.3924
 2321SOL    HW218426   1.798   2.550   5.841  1.5187 -1.1686 -1.1988
 2322SOL     OW18427   2.080   0.079   4.656 -0.3199 -0.3329 -0.0865
 2322SOL    HW118428   2.085   0.093   4.751 -0.4531 -2.8708  0.3157
 2322SOL    HW218429   2.132   0.153   4.626  1.8700 -1.5050  0.7778
 2323SOL     OW18430   3.288   3.964   4.764 -0.1401  0.2335  0.9566
 2323SOL    HW118431   3.277   4.039   4.706 -2.1552  0.6804  1.9059
 2323SOL    HW218432   3.383   3.959   4.774 -0.3313 -0.5473  2.4286
 2324SOL     OW18433   3.089   3.128  16.320 -0.4850 -0.1299 -0.3422
 2324SOL    HW118434   3.038   3.116  16.239  0.1985  3.2934 -1.2700
 2324SOL    HW218435   3.042   3.058  16.366 -1.1233  0.2186 -0.4562
 2325SOL     OW18436   2.463   4.199   5.205 -0.0083 -0.4127 -0.4049
 2325SOL    HW118437   2.506   4.285   5.207  0.1979 -0.4615 -3.1167
 2325SOL    HW218438   2.376   4.236   5.190  0.9513  1.9333 -0.0998
 2326SOL     OW18439   3.859   0.563  11.292  0.7258 -0.2656 -0.3786
 2326SOL    HW118440   3.849   0.575  11.387  0.8956  1.1507 -0.5478
 2326SOL    HW218441   3.950   0.572  11.266  1.4858 -1.8389  1.6591
 2327SOL     OW18442   4.404   4.687   4.799  0.2461  0.0119 -0.3697
 2327SOL    HW118443   4.468   4.722   4.737 -0.2261  1.3126 -0.1272
 2327SOL    HW218444   4.415   4.595   4.775  0.8799  0.2821 -1.1062
 2328SOL     OW18445   4.253   1.362  10.555 -0.3006 -0.4016  0.1681
 2328SOL    HW118446   4.333   1.344  10.603 -0.2307  0.1151  0.2465
 2328SOL    HW218447   4.193   1.293  10.583 -1.3420 -0.0695 -1.2044
 2329SOL     OW18448   0.542   1.691   5.014 -0.5918 -0.0884  0.5271
 2329SOL    HW118449   0.567   1.660   5.101  3.3522 -0.5498 -0.7664
 2329SOL    HW218450   0.496   1.771   5.039  3.1330  1.8243  1.1985
 2330SOL     OW18451   1.958   2.076   7.955  0.6273  0.1546 -0.2894
 2330SOL    HW118452   1.897   2.049   7.885  1.6390 -0.5158 -0.9098
 2330SOL    HW218453   1.996   2.152   7.911  0.8142  0.0315 -0.3413
 2331SOL     OW18454   3.879   3.119   7.964 -0.2402  0.1640 -0.1912
 2331SOL    HW118455   3.888   3.170   7.884  1.6292 -0.9053 -0.6523
 2331SOL    HW218456   3.865   3.037   7.917  1.4948 -1.6613  2.4143
 2332SOL     OW18457   0.305   3.281   6.655  0.1692 -0.6816  0.1209
 2332SOL    HW118458   0.292   3.367   6.615  0.5879 -0.1979  1.0399
 2332SOL    HW218459   0.396   3.266   6.629 -0.3527  0.8381 -2.5593
 2333SOL     OW18460   1.390   4.029   6.480 -0.4087  0.0039 -0.3598
 2333SOL    HW118461   1.382   4.107   6.426 -0.5336  0.6876  0.6307
 2333SOL    HW218462   1.302   3.994   6.467  0.3632 -1.9537 -0.1980
 2334SOL     OW18463   1.817   4.343  12.041 -0.4893  0.1024 -0.5714
 2334SOL    HW118464   1.814   4.365  11.948 -0.4280  2.1143 -0.0970
 2334SOL    HW218465   1.745   4.281  12.049  0.6166 -1.0707  0.2298
 2335SOL     OW18466   0.799   0.249   8.606  0.4096  0.3301 -0.1198
 2335SOL    HW118467   0.711   0.283   8.621  0.8523  1.1505  0.5851
 2335SOL    HW218468   0.853   0.289   8.674 -0.4810 -0.4564  1.0433
 2336SOL     OW18469   0.599   3.333  13.733 -0.2190  0.2102 -0.2762
 2336SOL    HW118470   0.540   3.308  13.663 -1.2169 -1.9107  1.3174
 2336SOL    HW218471   0.645   3.250  13.749  2.4762  1.7544  0.1013
 2337SOL     OW18472   1.430   3.753   6.864 -0.5755  0.4329  0.2128
 2337SOL    HW118473   1.394   3.841   6.855  0.7259  0.8789 -0.6505
 2337SOL    HW218474   1.524   3.761   6.845 -0.9527  0.0004 -1.8347
 2338SOL     OW18475   1.821   2.400  13.459 -0.2431  0.3381 -0.3757
 2338SOL    HW118476   1.894   2.418  13.399  1.7799 -1.8372  1.4677
 2338SOL    HW218477   1.746   2.444  13.418 -0.1725  1.9984  1.3137
 2339SOL     OW18478   1.249   4.305  14.426 -0.1474  0.5739  0.0967
 2339SOL    HW118479   1.322   4.245  14.412 -0.7771  0.0687 -0.9595
 2339SOL    HW218480   1.180   4.248  14.461 -1.5862  0.0508 -3.6532
 2340SOL     OW18481   3.680   3.988  10.930 -0.0783 -0.1671  0.0547
 2340SOL    HW118482   3.646   3.913  10.979  0.3889  1.1199  2.3365
 2340SOL    HW218483   3.611   4.053  10.942  0.0336 -0.1710  0.6894
 2341SOL     OW18484   4.393   0.882  12.192 -0.1105  0.0193 -0.5486
 2341SOL    HW118485   4.411   0.826  12.268 -2.7845 -0.6631 -0.4179
 2341SOL    HW218486   4.463   0.946  12.205 -0.5431  0.3372  0.2125
 2342SOL     OW18487   2.232   2.807   8.379 -0.1195 -0.1318  0.1028
 2342SOL    HW118488   2.194   2.755   8.450 -1.3936  1.4348  0.5647
 2342SOL    HW218489   2.147   2.834   8.343  0.0726 -1.4983 -1.3256
 2343SOL     OW18490   2.950   2.202   6.663 -0.8583  0.1246 -0.8691
 2343SOL    HW118491   2.975   2.219   6.754 -3.3703  0.4051 -0.2559
 2343SOL    HW218492   2.857   2.218   6.679 -0.2690 -0.5523  3.3418
 2344SOL     OW18493   3.807   3.390   2.131 -0.4518  0.3393  0.2499
 2344SOL    HW118494   3.745   3.329   2.092 -0.8582  1.4498 -0.8135
 2344SOL    HW218495   3.786   3.469   2.082 -0.9402 -0.3401 -0.6204
 2345SOL     OW18496   1.605   2.786  10.733 -0.2169 -0.4002  0.6571
 2345SOL    HW118497   1.677   2.760  10.676  0.9167  1.1636  1.3980
 2345SOL    HW218498   1.620   2.879  10.745  0.2169 -0.2946 -0.7668
 2346SOL     OW18499   0.757   0.095   6.092 -0.0414  0.2701  0.3035
 2346SOL    HW118500   0.848   0.070   6.112 -0.9891 -1.3964  2.4825
 2346SOL    HW218501   0.780   0.177   6.048  0.2429  0.5254  0.9370
 2347SOL     OW18502   2.688   0.700  12.197  0.4964  0.2939 -0.0585
 2347SOL    HW118503   2.607   0.751  12.203  0.8076  0.8057 -0.1714
 2347SOL    HW218504   2.677   0.665  12.285  0.0797 -1.5178 -0.8329
 2348SOL     OW18505   3.781   4.416   6.836  0.0244  0.0283  0.0971
 2348SOL    HW118506   3.776   4.321   6.825 -0.9735 -0.1763  2.1665
 2348SOL    HW218507   3.688   4.433   6.850  0.1455  1.4873 -0.8975
 2349SOL     OW18508   2.836   2.212   5.831 -0.3048 -0.3590 -0.5331
 2349SOL    HW118509   2.801   2.300   5.814 -0.5795 -0.2931  0.4044
 2349SOL    HW218510   2.909   2.204   5.769 -0.6488 -0.1549 -0.9665
 2350SOL     OW18511   3.963   2.871  11.217  0.4421  0.4263  0.5116
 2350SOL    HW118512   3.983   2.843  11.307  0.0271 -0.6620  0.2693
 2350SOL    HW218513   4.029   2.937  11.197 -0.1182  0.3859 -1.4450
 2351SOL     OW18514   4.544   4.252   0.760  0.2035 -0.0836 -0.1976
 2351SOL    HW118515   4.601   4.327   0.742  0.2540 -0.5638 -2.1561
 2351SOL    HW218516   4.457   4.290   0.758 -0.1193 -0.8413 -0.5480
 2352SOL     OW18517   2.657   0.383   1.831 -0.1768 -0.3474 -0.2552
 2352SOL    HW118518   2.680   0.290   1.828 -2.0738 -0.9177  1.9915
 2352SOL    HW218519   2.708   0.421   1.760  2.1828 -0.8179  1.1938
 2353SOL     OW18520   1.905   1.674  16.601 -0.5450 -0.3620 -0.1311
 2353SOL    HW118521   1.905   1.770  16.599  2.0639 -0.3835 -1.5591
 2353SOL    HW218522   1.848   1.652  16.674  0.5906  0.4266  1.0106
 2354SOL     OW18523   2.952   4.237   7.951 -0.3242 -0.1047  0.0517
 2354SOL    HW118524   2.943   4.165   7.889 -2.6604  0.3301 -0.1292
 2354SOL    HW218525   2.992   4.190   8.024  1.0414 -0.8576 -1.1969
 2355SOL     OW18526   0.809   3.632   8.019 -0.2182 -0.1360  0.6343
 2355SOL    HW118527   0.749   3.705   8.035  1.9750  1.7059  0.3653
 2355SOL    HW218528   0.823   3.603   8.109 -1.7776  0.5454  1.1129
 2356SOL     OW18529   0.784   2.419   9.191 -0.3720 -0.8514 -0.7107
 2356SOL    HW118530   0.863   2.387   9.234 -0.7692 -1.8330 -0.7100
 2356SOL    HW218531   0.716   2.374   9.241  0.8612 -1.0853  0.7512
 2357SOL     OW18532   3.077   0.453   4.751 -0.2617 -0.0836 -0.1740
 2357SOL    HW118533   3.038   0.396   4.684 -0.0516  2.9773 -2.8763
 2357SOL    HW218534   3.079   0.535   4.702  1.1723 -0.0838 -0.1226
 2358SOL     OW18535   4.503   4.309   4.137  0.8275  0.3809 -0.4262
 2358SOL    HW118536   4.435   4.247   4.110  0.5321  0.3659  0.3557
 2358SOL    HW218537   4.587   4.269   4.115 -0.1514 -0.4925 -2.5808
 2359SOL     OW18538   0.607   2.518   1.270  0.2920  0.3514  0.2315
 2359SOL    HW118539   0.625   2.608   1.298  1.5670 -0.2261  1.2484
 2359SOL    HW218540   0.682   2.481   1.223  0.5978 -1.4418  2.1098
 2360SOL     OW18541   2.155   0.046   9.971  0.4004 -0.3093 -0.1702
 2360SOL    HW118542   2.136   4.706   9.903  0.2751 -0.2340 -0.2049
 2360SOL    HW218543   2.127   0.133   9.942 -0.1201 -0.1078  0.9267
 2361SOL     OW18544   2.397   1.585   1.354  0.1445 -0.6485  0.9223
 2361SOL    HW118545   2.426   1.497   1.331  0.6395 -0.6041  1.3743
 2361SOL    HW218546   2.478   1.618   1.394 -1.1088  0.5610  2.4267
 2362SOL     OW18547   3.729   2.846   8.334 -0.3293  0.3827 -0.1904
 2362SOL    HW118548   3.690   2.929   8.361 -0.4395 -0.6969  2.9265
 2362SOL    HW218549   3.793   2.886   8.275 -0.7335  0.3522 -0.6514
 2363SOL     OW18550   3.647   1.167   1.833 -0.2269  0.1381 -0.0605
 2363SOL    HW118551   3.622   1.083   1.871  2.1288 -0.1662  0.7735
 2363SOL    HW218552   3.562   1.208   1.851 -0.0303  0.7070 -0.4086
 2364SOL     OW18553   3.522   3.484  16.016 -0.0487 -0.5300 -0.1160
 2364SOL    HW118554   3.555   3.403  15.978  0.4970  0.5371 -1.8970
 2364SOL    HW218555   3.548   3.471  16.108  2.9616 -3.3041 -1.3451
 2365SOL     OW18556   0.831   1.615   7.206  0.4552  0.5145 -0.2220
 2365SOL    HW118557   0.852   1.524   7.226  0.2603  0.7078  0.8446
 2365SOL    HW218558   0.742   1.605   7.240 -0.5131 -0.3665 -3.0057
 2366SOL     OW18559   2.473   2.732  12.387 -0.3733  0.3252  0.1812
 2366SOL    HW118560   2.439   2.704  12.472  0.9569 -1.0142  0.2696
 2366SOL    HW218561   2.558   2.689  12.380 -0.9425 -0.8863  0.7380
 2367SOL     OW18562   3.638   3.701   0.149  0.0514  0.0345 -0.1568
 2367SOL    HW118563   3.638   3.768   0.080 -1.5887  2.1137  1.8525
 2367SOL    HW218564   3.672   3.747   0.226 -0.1772 -0.5124  0.2719
 2368SOL     OW18565   1.760   3.485   1.161  0.0239 -0.3767 -0.2202
 2368SOL    HW118566   1.837   3.488   1.105  0.9937 -2.6952  0.9633
 2368SOL    HW218567   1.796   3.457   1.245 -0.5130 -1.0773 -0.2202
 2369SOL     OW18568   1.623   1.169   3.334  0.7440  0.8488 -0.1522
 2369SOL    HW118569   1.657   1.147   3.421  2.4241  2.4284 -0.3962
 2369SOL    HW218570   1.661   1.252   3.305  1.8905  0.2366 -0.4111
 2370SOL     OW18571   1.844   3.478   1.429 -0.3278 -0.0913 -0.0983
 2370SOL    HW118572   1.928   3.513   1.460 -1.2249  0.5755  1.5596
 2370SOL    HW218573   1.842   3.408   1.494 -1.1920 -1.7921 -1.9496
 2371SOL     OW18574   3.844   1.975   2.411 -0.1958  0.3150 -0.6235
 2371SOL    HW118575   3.859   1.977   2.505  0.6100 -1.7717 -0.7185
 2371SOL    HW218576   3.772   2.038   2.403 -0.1051  0.2948 -1.6975
 2372SOL     OW18577   2.562   4.344   8.759 -0.3631  0.4696  0.2409
 2372SOL    HW118578   2.633   4.407   8.743 -0.7461  0.7939 -0.1545
 2372SOL    HW218579   2.549   4.369   8.850 -0.6674  2.7381 -0.4350
 2373SOL     OW18580   2.211   2.329   7.407 -0.6097 -0.7458  0.0772
 2373SOL    HW118581   2.120   2.351   7.429 -0.9858 -1.8641 -0.3325
 2373SOL    HW218582   2.200   2.330   7.312  1.4314  1.3922 -0.1184
 2374SOL     OW18583   0.429   2.258   4.699 -0.2076  0.0692 -0.2524
 2374SOL    HW118584   0.438   2.183   4.758  1.3715  0.4154 -0.0492
 2374SOL    HW218585   0.430   2.212   4.615  0.8435 -1.5842  0.6752
 2375SOL     OW18586   3.831   1.261  12.607 -0.1794 -0.0698 -0.1231
 2375SOL    HW118587   3.866   1.278  12.520 -2.9297 -0.7349 -1.3800
 2375SOL    HW218588   3.797   1.173  12.591  1.6998 -1.1009  1.5853
 2376SOL     OW18589   0.907   0.075  11.903  0.1455  0.2371  0.1845
 2376SOL    HW118590   0.884   0.092  11.995  1.4278  0.5244  0.4456
 2376SOL    HW218591   0.967   0.001  11.901 -0.1016 -0.0128  2.0454
 2377SOL     OW18592   3.032   3.452   8.767 -0.2615 -0.2946 -0.6992
 2377SOL    HW118593   2.941   3.442   8.739  0.2535 -2.4171 -1.6202
 2377SOL    HW218594   3.072   3.504   8.697 -1.3905  2.0415  0.3889
 2378SOL     OW18595   0.121   3.428   5.447  0.6632 -0.3356  0.4749
 2378SOL    HW118596   0.046   3.460   5.398  0.1937 -2.1356  0.0101
 2378SOL    HW218597   0.082   3.424   5.534 -1.2022  1.3451 -0.2989
 2379SOL     OW18598   0.907   3.205  12.722  0.8010 -0.3705 -0.0632
 2379SOL    HW118599   0.856   3.174  12.797 -0.0416  1.9997  0.3633
 2379SOL    HW218600   0.839   3.203  12.655  1.0543 -1.0206 -0.3027
 2380SOL     OW18601   2.149   0.400   3.029  0.1138  0.4473 -0.0198
 2380SOL    HW118602   2.165   0.392   2.935 -0.2201 -1.0149  0.0580
 2380SOL    HW218603   2.219   0.460   3.056  2.1570 -1.2738 -1.4802
 2381SOL     OW18604   3.231   1.943   1.143 -0.1141 -0.4086 -0.0902
 2381SOL    HW118605   3.140   1.963   1.162 -0.7560 -1.4892 -2.0519
 2381SOL    HW218606   3.234   1.984   1.057 -0.9845  0.8209  0.4541
 2382SOL     OW18607   0.493   2.500  17.299 -0.1534  0.1198 -0.1297
 2382SOL    HW118608   0.570   2.557  17.299 -0.4612  0.5348  0.0721
 2382SOL    HW218609   0.518   2.442  17.227  0.7727  0.2159  0.1118
 2383SOL     OW18610   3.356   2.617   1.966 -0.0850  0.6852 -0.7885
 2383SOL    HW118611   3.262   2.622   1.954 -0.1168 -0.2079 -0.9169
 2383SOL    HW218612   3.397   2.630   1.881 -0.4718 -0.8044 -1.1993
 2384SOL     OW18613   3.198   2.828   1.081  0.5708 -0.2424  0.5797
 2384SOL    HW118614   3.138   2.896   1.049  1.2576  0.7192  1.3332
 2384SOL    HW218615   3.224   2.881   1.157  2.5003 -0.2309 -0.0967
 2385SOL     OW18616   4.127   3.030   3.686  0.4710 -0.2275 -0.0327
 2385SOL    HW118617   4.104   2.938   3.670  0.2423 -0.9096  4.1319
 2385SOL    HW218618   4.168   3.054   3.604 -0.7608 -2.3148 -1.2453
 2386SOL     OW18619   3.543   0.335   4.693  0.0494  0.2165 -0.2415
 2386SOL    HW118620   3.477   0.337   4.762 -0.9762  0.4380 -1.2185
 2386SOL    HW218621   3.594   0.414   4.710 -0.0633  0.4085 -0.8049
 2387SOL     OW18622   3.456   0.649  11.527 -0.3033 -0.4655 -0.4133
 2387SOL    HW118623   3.511   0.578  11.559 -0.2365 -0.6945 -1.0271
 2387SOL    HW218624   3.440   0.696  11.608 -0.6026 -1.5821  0.1785
 2388SOL     OW18625   1.690   0.784   5.146  0.3368 -0.1123 -0.6404
 2388SOL    HW118626   1.673   0.844   5.219 -1.0793 -1.3739  0.0445
 2388SOL    HW218627   1.691   0.851   5.077  0.9212  0.1611 -0.3712
 2389SOL     OW18628   3.947   1.526   2.264  0.3519  0.7299 -0.2930
 2389SOL    HW118629   3.859   1.494   2.242  1.1471  0.0422 -2.4626
 2389SOL    HW218630   3.966   1.455   2.326  2.7720 -0.2446 -2.1587
 2390SOL     OW18631   2.551   3.806   8.683 -0.5811  0.3490 -0.0496
 2390SOL    HW118632   2.639   3.832   8.657 -0.2959 -1.5530 -0.9377
 2390SOL    HW218633   2.520   3.896   8.678 -1.5206  0.0259  0.0489
 2391SOL     OW18634   2.477   2.617  15.405  0.2844  0.5289 -0.2801
 2391SOL    HW118635   2.489   2.526  15.431 -0.7356 -0.1040 -2.0404
 2391SOL    HW218636   2.393   2.615  15.359  0.4568  0.9543 -0.6117
 2392SOL     OW18637   0.949   1.377  12.597  0.2058  0.0459  0.2137
 2392SOL    HW118638   1.037   1.381  12.558 -0.0427 -1.7651 -0.5293
 2392SOL    HW218639   0.968   1.376  12.691 -2.4237  0.9494  0.7395
 2393SOL     OW18640   3.434   3.817   6.085 -0.0692 -0.4031  0.2139
 2393SOL    HW118641   3.381   3.793   6.009  1.5996  0.1005 -1.1086
 2393SOL    HW218642   3.495   3.745   6.106  2.4284  1.4810 -0.5273
 2394SOL     OW18643   2.671   2.899  15.848  0.3798 -0.4254 -0.0115
 2394SOL    HW118644   2.632   2.860  15.769  2.1475  1.6097 -1.8772
 2394SOL    HW218645   2.668   2.990  15.820  0.5691 -0.9769 -1.8381
 2395SOL     OW18646   3.448   4.076   1.738 -0.4765 -0.3607  0.8247
 2395SOL    HW118647   3.382   4.137   1.704  0.9474  0.0005 -1.2748
 2395SOL    HW218648   3.412   4.057   1.825 -1.6734 -0.7811  0.2391
 2396SOL     OW18649   4.036   3.817   6.208 -0.1471 -0.0402  0.2077
 2396SOL    HW118650   4.087   3.893   6.237 -0.9506  0.5337  0.1159
 2396SOL    HW218651   3.961   3.827   6.267 -0.7600  1.3040 -0.8037
 2397SOL     OW18652   4.186   3.965  17.084  0.2462 -0.0978 -0.0264
 2397SOL    HW118653   4.147   3.884  17.050 -1.5315  1.1119 -0.8292
 2397SOL    HW218654   4.261   3.916  17.118  1.4849  1.6326 -0.3122
 2398SOL     OW18655   0.297   0.923   5.525  0.5552 -0.2107  0.0007
 2398SOL    HW118656   0.255   0.923   5.611  2.6905 -2.0205  1.0559
 2398SOL    HW218657   0.352   0.844   5.532  0.6263 -0.3229 -1.9955
 2399SOL     OW18658   3.518   1.627   4.893 -0.0024  0.1861 -0.0743
 2399SOL    HW118659   3.512   1.616   4.988  0.0710  1.6316  0.1008
 2399SOL    HW218660   3.429   1.660   4.876 -0.5334 -0.0629  2.1554
 2400SOL     OW18661   1.989   3.125  12.876  0.0329  0.3316  0.4487
 2400SOL    HW118662   1.998   3.043  12.828 -2.5495  0.9162 -1.0221
 2400SOL    HW218663   1.913   3.151  12.824 -1.1722 -0.2750  1.9067
 2401SOL     OW18664   1.007   1.228   6.532 -0.3506  0.1990 -0.3003
 2401SOL    HW118665   1.096   1.221   6.568  0.6853  3.7342 -2.2073
 2401SOL    HW218666   1.027   1.248   6.441  0.7291 -1.1383 -0.3455
 2402SOL     OW18667   3.863   0.738   2.830 -0.6347 -0.7094  0.1748
 2402SOL    HW118668   3.847   0.652   2.792  1.2927 -1.5480  1.2542
 2402SOL    HW218669   3.944   0.724   2.879 -0.4985 -1.9757 -0.4105
 2403SOL     OW18670   1.834   2.383  11.066  0.1147  0.2213  0.2808
 2403SOL    HW118671   1.864   2.303  11.024  0.4671 -0.6127  2.1056
 2403SOL    HW218672   1.817   2.339  11.149  2.3454  2.5476  1.9822
 2404SOL     OW18673   3.765   3.984   1.976 -0.4306 -0.4703  0.3372
 2404SOL    HW118674   3.792   3.895   1.998  2.1380 -0.1634 -1.6525
 2404SOL    HW218675   3.669   3.979   1.974 -0.3838 -1.7592  1.0096
 2405SOL     OW18676   4.025   1.888   8.779 -0.4151  0.3508  0.0750
 2405SOL    HW118677   4.060   1.920   8.696 -0.4662 -0.8793 -0.4234
 2405SOL    HW218678   3.933   1.912   8.773 -0.6235  0.7115  4.5001
 2406SOL     OW18679   4.556   3.061   3.121  0.5160  0.5648  0.0723
 2406SOL    HW118680   4.532   3.015   3.201  1.3831  0.3854  0.2243
 2406SOL    HW218681   4.525   3.149   3.143  0.4486  0.8512 -1.1805
 2407SOL     OW18682   3.877   4.502   7.863 -0.5742 -0.2584 -0.2772
 2407SOL    HW118683   3.910   4.447   7.934  3.1888  1.4313 -0.7043
 2407SOL    HW218684   3.786   4.476   7.869 -0.3755 -0.2854  2.7432
 2408SOL     OW18685   3.236   3.244  14.787 -0.0514 -0.6372  0.1429
 2408SOL    HW118686   3.323   3.276  14.810  0.3836 -2.1354  0.5321
 2408SOL    HW218687   3.259   3.189  14.712 -0.4675  0.3592 -0.7238
 2409SOL     OW18688   4.443   3.659   5.251  1.0500  0.2259 -0.0195
 2409SOL    HW118689   4.402   3.625   5.172  0.1013  4.0846 -1.1619
 2409SOL    HW218690   4.410   3.749   5.247  0.1964 -0.0533  0.6620
 2410SOL     OW18691   1.401   4.658   3.169 -0.6693 -0.3042 -0.0460
 2410SOL    HW118692   1.399   4.672   3.074  0.8802 -0.8996 -0.1733
 2410SOL    HW218693   1.360   0.014   3.203 -0.7758 -0.2255 -0.3608
 2411SOL     OW18694   0.198   4.637   9.114  0.0865 -0.3976  0.5143
 2411SOL    HW118695   0.129   4.700   9.093  0.4424 -0.0702  0.3135
 2411SOL    HW218696   0.142   4.570   9.152  0.4790 -0.5238  0.8644
 2412SOL     OW18697   2.097   0.934  16.341  0.3901  0.6541  0.5979
 2412SOL    HW118698   2.012   0.936  16.386  0.4026  1.5600  0.5940
 2412SOL    HW218699   2.074   1.004  16.279  0.6903 -1.6956 -2.1200
 2413SOL     OW18700   3.580   1.141   3.546 -0.3497 -0.0275 -0.1028
 2413SOL    HW118701   3.606   1.145   3.453 -0.0278  2.1101  0.0771
 2413SOL    HW218702   3.626   1.059   3.561 -0.1358  0.1018 -0.0423
 2414SOL     OW18703   3.678   0.508  12.615  0.0296 -0.0454 -0.1300
 2414SOL    HW118704   3.731   0.453  12.557 -1.9423  0.4302 -2.3888
 2414SOL    HW218705   3.710   0.489  12.703 -0.8402 -0.5008  0.0934
 2415SOL     OW18706   3.807   4.262  12.576  0.3164 -0.4453 -0.7891
 2415SOL    HW118707   3.724   4.265  12.529 -0.3341  1.7315  0.5153
 2415SOL    HW218708   3.865   4.211  12.519  0.1338 -2.6722  1.0056
 2416SOL     OW18709   4.437   2.174  17.107 -0.3033  0.1760 -0.1102
 2416SOL    HW118710   4.370   2.205  17.046 -2.6720 -1.7190  1.4888
 2416SOL    HW218711   4.383   2.182  17.186 -1.6867 -0.6578 -0.9724
 2417SOL     OW18712   4.273   3.543  16.780  0.5779  0.5344 -0.6491
 2417SOL    HW118713   4.215   3.617  16.760 -0.6514 -0.2038  0.1867
 2417SOL    HW218714   4.245   3.519  16.868  1.7432  0.0858 -0.4028
 2418SOL     OW18715   0.147   3.698   9.113  0.0022 -0.2772 -0.0417
 2418SOL    HW118716   0.087   3.632   9.081  0.7471  0.0304 -2.0388
 2418SOL    HW218717   0.153   3.680   9.207  0.3244 -0.6860 -0.1434
 2419SOL     OW18718   2.185   4.021   6.414  0.3910 -0.0638 -0.2205
 2419SOL    HW118719   2.153   4.004   6.503  0.3033 -0.1448 -0.2684
 2419SOL    HW218720   2.124   4.083   6.374 -0.2437 -0.9565 -0.6100
 2420SOL     OW18721   3.885   3.784   3.683 -0.5613 -0.0531 -0.2358
 2420SOL    HW118722   3.970   3.746   3.658 -0.1772  1.2312 -0.9000
 2420SOL    HW218723   3.911   3.870   3.650 -0.5677  0.4883  1.1929
 2421SOL     OW18724   1.592   0.511   2.682  0.2835  0.0282  0.3742
 2421SOL    HW118725   1.599   0.606   2.676 -0.9530  0.2408  2.4779
 2421SOL    HW218726   1.550   0.484   2.600  1.9830  0.0074 -0.4888
 2422SOL     OW18727   2.755   2.174   2.654 -0.5002  0.2938  0.4802
 2422SOL    HW118728   2.804   2.197   2.733 -0.0397 -0.2754  0.3580
 2422SOL    HW218729   2.691   2.110   2.687  0.8322  0.5199  3.4573
 2423SOL     OW18730   1.187   1.009   6.136  0.1108  0.3431  0.1676
 2423SOL    HW118731   1.115   1.006   6.073  0.5556  2.2729 -0.4444
 2423SOL    HW218732   1.207   1.103   6.140 -0.1767  0.4204 -0.1873
 2424SOL     OW18733   3.312   3.281   4.039  1.0210  0.5694 -0.2061
 2424SOL    HW118734   3.339   3.360   3.992 -0.5677  0.9319 -0.5003
 2424SOL    HW218735   3.379   3.272   4.106 -0.2422 -1.4702  0.7788
 2425SOL     OW18736   2.782   0.923   5.641  0.1068 -0.0716 -0.7102
 2425SOL    HW118737   2.782   0.838   5.598 -1.9304  0.1160 -1.1120
 2425SOL    HW218738   2.871   0.955   5.626 -0.0063  1.7088  2.4196
 2426SOL     OW18739   2.150   0.742   7.976  0.3315 -0.3075  0.7369
 2426SOL    HW118740   2.179   0.718   7.888  1.6852 -0.3680  1.1921
 2426SOL    HW218741   2.131   0.835   7.965  1.1117 -0.4522 -1.8356
 2427SOL     OW18742   4.082   2.832   2.477  0.0760  0.1516 -0.3304
 2427SOL    HW118743   4.004   2.853   2.528 -0.0605 -0.1766 -0.4044
 2427SOL    HW218744   4.153   2.862   2.535 -0.6106  1.2321 -0.0486
 2428SOL     OW18745   3.139   1.458   6.999  0.2487 -0.0671  0.1001
 2428SOL    HW118746   3.056   1.449   6.953  0.2593  1.5543 -0.2286
 2428SOL    HW218747   3.196   1.488   6.929  0.3948 -0.4938  0.0341
 2429SOL     OW18748   0.437   1.329   7.058 -0.3306  0.2553 -0.5607
 2429SOL    HW118749   0.422   1.360   7.147  0.0388 -1.2144  0.0146
 2429SOL    HW218750   0.528   1.352   7.040 -0.2051 -0.2197 -0.5329
 2430SOL     OW18751   1.747   2.784   5.667  0.2182 -0.0925  0.1219
 2430SOL    HW118752   1.666   2.779   5.718  0.2634  0.5113  0.2539
 2430SOL    HW218753   1.801   2.810   5.742  1.1190  1.2129 -0.9819
 2431SOL     OW18754   2.803   0.108   1.825 -0.2349  0.0486  0.3698
 2431SOL    HW118755   2.846   0.031   1.787 -0.0685  0.2511  0.1451
 2431SOL    HW218756   2.789   0.100   1.919 -0.8103 -1.5097  0.1486
 2432SOL     OW18757   2.586   4.117   4.963 -0.2737 -0.1564 -0.1085
 2432SOL    HW118758   2.523   4.165   5.016  0.9051 -0.0001  1.1364
 2432SOL    HW218759   2.582   4.167   4.882 -1.7102 -1.3201 -0.7754
 2433SOL     OW18760   1.062   2.294   6.387  0.7447 -0.1884  0.6441
 2433SOL    HW118761   1.014   2.224   6.342  0.3697  0.6679 -0.2844
 2433SOL    HW218762   1.073   2.263   6.477 -0.7203 -0.0596  0.8653
 2434SOL     OW18763   0.846   0.457   5.781 -0.0109 -0.4776 -0.3637
 2434SOL    HW118764   0.809   0.533   5.827 -0.2533  0.0754 -1.4728
 2434SOL    HW218765   0.887   0.410   5.854  1.2690 -0.3151 -0.9816
 2435SOL     OW18766   0.687   2.773   2.795 -0.4000  0.0988 -0.1902
 2435SOL    HW118767   0.743   2.840   2.755  2.2764 -1.9387  0.1434
 2435SOL    HW218768   0.713   2.698   2.743  1.1241  0.7870 -0.4093
 2436SOL     OW18769   0.418   4.148   4.658  0.6941 -0.2696  0.4383
 2436SOL    HW118770   0.367   4.175   4.582  3.0589 -0.2347 -1.1642
 2436SOL    HW218771   0.416   4.053   4.654 -0.7577 -0.1497 -1.3307
 2437SOL     OW18772   4.717   4.025   6.672 -0.6082  0.0928  0.3200
 2437SOL    HW118773   4.666   4.057   6.747  0.0680 -1.2356  1.3280
 2437SOL    HW218774   4.691   4.084   6.601 -1.3213 -2.1947 -1.3081
 2438SOL     OW18775   2.217   2.538   4.257 -0.0633  0.1439 -0.3331
 2438SOL    HW118776   2.138   2.573   4.299  0.3287  0.2734  0.3112
 2438SOL    HW218777   2.197   2.557   4.166  0.0014  1.4661 -0.0792
 2439SOL     OW18778   4.159   4.184   7.880 -0.0069 -0.6868 -0.2961
 2439SOL    HW118779   4.197   4.102   7.909  0.4143 -0.3123  0.2164
 2439SOL    HW218780   4.067   4.164   7.861 -0.5896  1.8272 -0.1241
 2440SOL     OW18781   2.361   1.250   6.519  0.3170  0.0830 -0.6350
 2440SOL    HW118782   2.399   1.224   6.435  1.6292  0.4597 -0.1599
 2440SOL    HW218783   2.425   1.320   6.537  0.0611 -0.0705  0.8666
 2441SOL     OW18784   0.588   0.689   4.731  0.1087  0.2929  0.3840
 2441SOL    HW118785   0.495   0.683   4.710  0.1040  0.4219  0.3682
 2441SOL    HW218786   0.619   0.617   4.785  0.9570  0.4236  0.0819
 2442SOL     OW18787   4.218   1.633   1.784  0.1157 -0.7602  0.1368
 2442SOL    HW118788   4.132   1.605   1.816  0.6706 -1.4917  1.0026
 2442SOL    HW218789   4.276   1.621   1.859  0.4988 -1.2613 -0.2337
 2443SOL     OW18790   3.776   3.151  10.807 -0.0054 -0.9772 -0.1350
 2443SOL    HW118791   3.812   3.126  10.892 -1.4995 -2.2871  0.1083
 2443SOL    HW218792   3.693   3.103  10.812 -0.6431  0.0988 -0.4194
 2444SOL     OW18793   3.182   4.104   4.106  0.1002 -0.0890 -0.1792
 2444SOL    HW118794   3.211   4.014   4.120  0.7536  0.3042  0.9982
 2444SOL    HW218795   3.086   4.103   4.112  0.1097  2.6071  0.5869
 2445SOL     OW18796   3.775   2.471   3.242  0.4467  0.0374  0.0439
 2445SOL    HW118797   3.746   2.440   3.328 -0.4801  3.2286  0.8580
 2445SOL    HW218798   3.693   2.466   3.193  0.5466 -1.6728  0.0573
 2446SOL     OW18799   3.616   3.100  13.839  0.0820  0.1013  0.4539
 2446SOL    HW118800   3.551   3.044  13.882 -1.3927  0.9147 -0.7173
 2446SOL    HW218801   3.691   3.098  13.899  2.2806 -1.7131 -2.3436
 2447SOL     OW18802   3.158   3.604   1.731  0.1980 -0.5064 -0.2757
 2447SOL    HW118803   3.210   3.655   1.792 -0.0654 -0.0085 -0.4637
 2447SOL    HW218804   3.220   3.534   1.711  1.3877 -0.1237  2.1495
 2448SOL     OW18805   4.019   2.071   1.478  0.1057  0.1590  0.5168
 2448SOL    HW118806   4.031   2.024   1.560  2.6641  1.1000  0.6584
 2448SOL    HW218807   3.945   2.124   1.507 -0.4875 -0.3933  0.0269
 2449SOL     OW18808   0.585   4.607   7.026  0.2805  0.1287  0.2812
 2449SOL    HW118809   0.605   4.677   6.964 -2.4426 -0.0725 -0.8229
 2449SOL    HW218810   0.609   4.530   6.975  0.3004 -0.1221  0.6733
 2450SOL     OW18811   0.354   2.847   5.254  1.0228 -0.0808 -0.0033
 2450SOL    HW118812   0.422   2.890   5.202  1.0744 -0.9445 -0.6605
 2450SOL    HW218813   0.324   2.921   5.307 -0.1856  0.5553 -1.5553
 2451SOL     OW18814   3.225   4.356   4.781  0.4591 -0.2742  0.0922
 2451SOL    HW118815   3.203   4.343   4.873  0.2559 -1.3465 -0.1055
 2451SOL    HW218816   3.150   4.407   4.749  0.0919 -0.2827  0.9513
 2452SOL     OW18817   2.420   1.247   5.965 -0.2691 -0.2564  0.1361
 2452SOL    HW118818   2.331   1.212   5.969 -0.3489  0.0285  0.8509
 2452SOL    HW218819   2.456   1.200   6.041 -0.8881 -1.4985 -0.3328
 2453SOL     OW18820   1.044   3.944   1.168  0.6334  0.2569 -0.0470
 2453SOL    HW118821   1.067   4.019   1.223 -1.3183  0.1848  0.8610
 2453SOL    HW218822   1.021   3.870   1.224 -2.1863  0.8649 -0.4358
 2454SOL     OW18823   3.684   4.526   6.088  0.2524  0.0581 -0.2538
 2454SOL    HW118824   3.590   4.518   6.105  0.0381  0.3898 -1.2738
 2454SOL    HW218825   3.691   4.472   6.009 -3.0161 -0.4107 -0.2131
 2455SOL     OW18826   4.159   2.197  15.261 -0.2472  0.3353 -0.1505
 2455SOL    HW118827   4.074   2.237  15.243 -0.6182 -2.0931 -3.7057
 2455SOL    HW218828   4.156   2.185  15.356  1.2193 -1.2933 -0.3257
 2456SOL     OW18829   3.042   3.250  14.982 -0.3775 -0.1163 -0.1173
 2456SOL    HW118830   3.089   3.263  14.900  0.7547  2.4419  0.9201
 2456SOL    HW218831   2.988   3.181  14.945 -1.2038 -0.5285  1.8208
 2457SOL     OW18832   2.605   1.671   1.997  0.8229 -0.0434 -0.2541
 2457SOL    HW118833   2.660   1.593   1.992  1.5852  0.4856 -0.0909
 2457SOL    HW218834   2.525   1.632   1.962 -0.4838  0.9398  1.5901
 2458SOL     OW18835   0.823   3.897   9.904  0.8398 -0.4285 -0.5735
 2458SOL    HW118836   0.729   3.903   9.883  0.7486  0.9709  0.2087
 2458SOL    HW218837   0.820   3.944   9.987  3.0108 -2.4351  0.6106
 2459SOL     OW18838   3.585   2.145   2.320 -0.4734 -0.6127  0.2657
 2459SOL    HW118839   3.623   2.216   2.267 -3.4412 -0.4088 -1.5577
 2459SOL    HW218840   3.536   2.200   2.382 -0.8481 -1.9268  1.1275
 2460SOL     OW18841   3.835   3.431   1.688 -0.4169 -0.0122  0.3086
 2460SOL    HW118842   3.820   3.351   1.738 -0.0515  0.1839  0.7350
 2460SOL    HW218843   3.808   3.493   1.757  2.6432  0.0348  1.4847
 2461SOL     OW18844   0.992   4.374  16.998  0.4501 -0.1585 -0.3276
 2461SOL    HW118845   0.990   4.336  17.086  4.1431  2.1870  0.7689
 2461SOL    HW218846   1.003   4.302  16.936  2.0870 -1.2521  1.2250
 2462SOL     OW18847   1.390   4.504  17.359 -0.5374  0.0272  0.3452
 2462SOL    HW118848   1.331   4.528  17.287 -0.3221 -2.0138 -0.5307
 2462SOL    HW218849   1.328   4.510  17.431  0.6964 -0.4639  1.4429
 2463SOL     OW18850   0.667   1.565   6.457 -0.3804  0.3260  0.2595
 2463SOL    HW118851   0.596   1.500   6.457 -0.7236  0.7041 -1.3318
 2463SOL    HW218852   0.671   1.587   6.550 -0.5591  0.1618  0.3051
 2464SOL     OW18853   3.245   2.823  12.591 -0.3690 -0.4319 -0.0719
 2464SOL    HW118854   3.322   2.785  12.632 -1.2142 -1.9131  0.1239
 2464SOL    HW218855   3.273   2.876  12.516  0.1970 -1.4821 -0.5944
 2465SOL     OW18856   2.598   1.304   2.070  0.1603  0.3230  0.5377
 2465SOL    HW118857   2.617   1.345   2.154 -2.3549 -1.4472  1.9595
 2465SOL    HW218858   2.503   1.311   2.064  0.3072  0.5942 -1.6339
 2466SOL     OW18859   2.195   3.003   5.427 -0.3561 -0.0353  0.2771
 2466SOL    HW118860   2.181   2.964   5.341 -1.2141  0.6219  0.1179
 2466SOL    HW218861   2.268   2.947   5.455  0.0298  0.3533  0.0588
 2467SOL     OW18862   4.407   3.215   0.784 -0.3876 -0.0458 -0.5486
 2467SOL    HW118863   4.359   3.225   0.702 -0.9174 -0.1873 -0.2608
 2467SOL    HW218864   4.497   3.220   0.754  0.3904 -0.3247  1.7316
 2468SOL     OW18865   0.047   2.846   5.805  0.0225  0.0027  0.1998
 2468SOL    HW118866   4.691   2.873   5.761  0.8107  0.3028 -1.0558
 2468SOL    HW218867   0.043   2.898   5.885  1.6081  0.3760  0.0466
 2469SOL     OW18868   4.031   2.851   5.950 -0.3986  0.0292 -0.2989
 2469SOL    HW118869   3.946   2.890   5.932 -0.9230 -0.6398  0.7028
 2469SOL    HW218870   4.051   2.803   5.869 -0.2250 -0.4647  0.0313
 2470SOL     OW18871   0.619   4.658   5.072 -0.2560 -0.4716 -0.8747
 2470SOL    HW118872   0.531   4.625   5.053 -0.3357 -1.6406  1.5757
 2470SOL    HW218873   0.610   0.030   5.075 -2.5226 -0.7727  1.5357
 2471SOL     OW18874   2.695   1.099   4.621 -0.1549  0.5325  0.2466
 2471SOL    HW118875   2.714   1.081   4.713  1.3925 -1.8263 -0.5140
 2471SOL    HW218876   2.630   1.169   4.627 -1.6612 -0.9084  0.7217
 2472SOL     OW18877   4.636   3.478   7.756 -0.5522 -0.0270 -0.1400
 2472SOL    HW118878   4.612   3.513   7.842 -3.0855 -1.6480 -0.1666
 2472SOL    HW218879   4.564   3.415   7.755  0.2616 -0.9593  0.0363
 2473SOL     OW18880   2.337   3.375   9.607  0.3488 -0.0347  0.2560
 2473SOL    HW118881   2.382   3.443   9.657 -1.4923  0.0099  1.8677
 2473SOL    HW218882   2.418   3.325   9.600 -1.0354 -2.2234 -0.0837
 2474SOL     OW18883   2.658   3.815   8.981 -0.0742  0.4521 -0.2571
 2474SOL    HW118884   2.687   3.728   8.956  0.0740  0.4911 -0.2158
 2474SOL    HW218885   2.574   3.802   9.025 -0.3594  1.8181 -0.4042
 2475SOL     OW18886   2.653   0.623   3.004  0.4273  0.8955  0.7107
 2475SOL    HW118887   2.711   0.621   2.928 -0.6708 -0.0696 -0.0983
 2475SOL    HW218888   2.717   0.604   3.073  1.0090  1.6440  0.3807
 2476SOL     OW18889   0.245   4.034   6.971  0.2810  0.3466  0.7782
 2476SOL    HW118890   0.294   3.953   6.985  0.2141 -0.1915 -1.9976
 2476SOL    HW218891   0.154   4.018   6.994 -0.5387  1.2334 -1.7584
 2477SOL     OW18892   3.643   1.483   3.491 -0.3665 -0.5573 -0.2836
 2477SOL    HW118893   3.576   1.523   3.436 -0.2841 -0.0733 -0.0297
 2477SOL    HW218894   3.639   1.528   3.575  1.2509  1.9512 -1.5704
 2478SOL     OW18895   4.577   1.120   8.005  0.0595 -0.3353 -0.4073
 2478SOL    HW118896   4.652   1.064   7.985 -2.0812 -3.9957  1.7736
 2478SOL    HW218897   4.525   1.065   8.064 -1.0953  1.8885  0.6625
 2479SOL     OW18898   0.429   0.967  15.689 -0.3638 -0.2900 -0.4133
 2479SOL    HW118899   0.413   1.013  15.772  2.1955 -1.7142  0.8580
 2479SOL    HW218900   0.471   1.032  15.633  0.1307 -0.7936 -0.6259
 2480SOL     OW18901   3.341   3.565   6.894  0.3260 -0.2535  0.0794
 2480SOL    HW118902   3.292   3.497   6.939  0.2814  1.3271  2.4381
 2480SOL    HW218903   3.350   3.517   6.812 -0.6599 -1.8242  0.9040
 2481SOL     OW18904   1.174   3.834   6.301 -0.1550 -0.3815  0.3418
 2481SOL    HW118905   1.141   3.807   6.386  2.5648 -0.0273  1.4903
 2481SOL    HW218906   1.107   3.897   6.274 -0.3036 -0.8428 -0.3736
 2482SOL     OW18907   2.130   1.373   2.501 -0.0451  0.6439  0.3156
 2482SOL    HW118908   2.141   1.323   2.420 -0.4447  0.4959  0.3506
 2482SOL    HW218909   2.206   1.431   2.499  0.7026 -0.4417 -2.2567
 2483SOL     OW18910   4.660   2.578  10.783 -0.0097 -0.0908 -0.1112
 2483SOL    HW118911   4.639   2.493  10.744  0.4912 -0.0236 -0.5221
 2483SOL    HW218912   0.032   2.573  10.788  0.0248  0.1614 -0.5391
 2484SOL     OW18913   1.017   3.601   5.795  0.3829 -0.7661  0.0349
 2484SOL    HW118914   0.935   3.650   5.794  0.0269 -1.4184 -4.1868
 2484SOL    HW218915   0.999   3.558   5.879  1.2329 -0.0217  0.5902
 2485SOL     OW18916   1.520   1.870   4.187 -0.0421 -0.0963  0.0301
 2485SOL    HW118917   1.502   1.812   4.261 -2.4287 -0.3649 -0.7777
 2485SOL    HW218918   1.479   1.943   4.233 -0.5295 -1.1597  1.2832
 2486SOL     OW18919   4.359   3.843   3.764  0.6283  0.1858  0.1344
 2486SOL    HW118920   4.418   3.859   3.691  0.6812  2.4407  0.6820
 2486SOL    HW218921   4.397   3.769   3.812  1.7133 -0.3617 -1.5632
 2487SOL     OW18922   2.704   0.703   1.011  0.1189  0.0874  0.1203
 2487SOL    HW118923   2.778   0.764   1.009  0.5299 -0.3533  1.9132
 2487SOL    HW218924   2.672   0.709   0.921  0.8285  0.9483 -0.0749
 2488SOL     OW18925   2.950   4.501   7.984  0.0164  0.3334  0.2933
 2488SOL    HW118926   2.972   4.408   7.986 -0.6584  0.1493 -0.5569
 2488SOL    HW218927   3.030   4.532   8.026 -0.9672  0.8302  1.7814
 2489SOL     OW18928   1.595   3.919   4.752  0.3329 -1.0207 -0.5123
 2489SOL    HW118929   1.510   3.962   4.739  1.7759  1.6010 -1.3048
 2489SOL    HW218930   1.573   3.850   4.815  1.7065 -1.2727 -0.3040
 2490SOL     OW18931   3.350   1.781   0.915  0.2882 -0.1956 -0.4490
 2490SOL    HW118932   3.308   1.722   0.853 -0.8976 -1.8659  1.9358
 2490SOL    HW218933   3.308   1.862   0.888  0.2531  0.6930  2.2943
 2491SOL     OW18934   4.083   2.262   3.985 -0.7179 -0.7050  1.0282
 2491SOL    HW118935   4.069   2.180   4.032  0.7183 -0.3606  2.0755
 2491SOL    HW218936   4.005   2.257   3.930 -0.4374 -0.0281  0.5757
 2492SOL     OW18937   4.208   1.553   2.554 -0.7604  0.4407  0.2125
 2492SOL    HW118938   4.194   1.463   2.582 -3.3920  0.1144 -2.2012
 2492SOL    HW218939   4.284   1.582   2.605  0.8739 -1.9442 -0.8892
 2493SOL     OW18940   3.851   2.316  12.186 -0.7559 -0.0828 -0.4980
 2493SOL    HW118941   3.903   2.396  12.181  0.3535 -0.6032  2.6018
 2493SOL    HW218942   3.871   2.288  12.097  2.2998 -0.4029  0.2970
 2494SOL     OW18943   3.008   0.482   3.445 -0.0541  0.2052  0.0773
 2494SOL    HW118944   2.915   0.464   3.434 -0.0861 -0.0826  0.8219
 2494SOL    HW218945   3.011   0.574   3.418  0.2765 -0.3051 -1.5959
 2495SOL     OW18946   1.648   2.838   2.686 -0.6160  0.2243 -1.5844
 2495SOL    HW118947   1.696   2.787   2.751 -0.3215  0.6205 -1.4930
 2495SOL    HW218948   1.701   2.845   2.607  0.7729  0.6391 -0.6081
 2496SOL     OW18949   1.279   3.281   1.816 -0.7081 -0.4858  0.5739
 2496SOL    HW118950   1.236   3.314   1.895  2.0676  0.6823  1.5974
 2496SOL    HW218951   1.284   3.362   1.765 -3.0455  0.6902  2.1744
 2497SOL     OW18952   3.055   2.479   5.789 -0.5942  0.7515  0.1837
 2497SOL    HW118953   3.124   2.445   5.846 -0.5662  0.8931  0.2341
 2497SOL    HW218954   3.028   2.397   5.746  0.6893 -0.7789  2.2961
 2498SOL     OW18955   1.323   0.127   3.930 -0.1144 -0.3207  0.5348
 2498SOL    HW118956   1.239   0.161   3.961 -0.5098  0.4516 -1.4522
 2498SOL    HW218957   1.340   0.058   3.995 -1.6400 -1.7757 -0.5960
 2499SOL     OW18958   2.142   1.365   1.439  0.0557  0.9188  0.5138
 2499SOL    HW118959   2.067   1.319   1.402  1.5975 -1.7387  0.6438
 2499SOL    HW218960   2.185   1.406   1.364  1.7877 -1.9097 -0.0341
 2500SOL     OW18961   2.098   2.456  13.307  0.0386 -0.1030  0.5322
 2500SOL    HW118962   2.103   2.370  13.267  0.1531 -0.8810  2.1938
 2500SOL    HW218963   2.028   2.495  13.255  0.3074  0.0598  0.2939
 2501SOL     OW18964   0.662   3.418   0.471 -0.0133 -0.1036 -0.3867
 2501SOL    HW118965   0.683   3.415   0.564  1.4376 -0.5889 -0.7304
 2501SOL    HW218966   0.595   3.486   0.481  0.1551 -0.1273  0.9039
 2502SOL     OW18967   4.264   4.229   5.738  0.2864  0.2626  0.5369
 2502SOL    HW118968   4.234   4.250   5.826 -1.0327  3.5324 -0.6704
 2502SOL    HW218969   4.326   4.297   5.710  0.6270 -0.9830 -1.7372
 2503SOL     OW18970   3.729   3.406  16.686  0.2838 -0.4920  0.0820
 2503SOL    HW118971   3.755   3.367  16.770 -0.7992  0.7477  0.9883
 2503SOL    HW218972   3.702   3.488  16.726  2.4861 -0.6685  1.9304
 2504SOL     OW18973   1.920   4.012   6.849  0.4944  0.1752 -0.1061
 2504SOL    HW118974   1.910   4.023   6.944  2.3663 -0.2628  0.1446
 2504SOL    HW218975   1.858   3.943   6.828  0.0211  0.8194 -0.8159
 2505SOL     OW18976   3.965   1.327  15.171  0.8986 -0.1501  0.3395
 2505SOL    HW118977   3.955   1.242  15.212 -1.4214 -0.3880 -0.7199
 2505SOL    HW218978   3.899   1.369  15.227 -1.4646 -1.5200 -1.4440
 2506SOL     OW18979   0.870   1.122  12.492  0.5770 -0.3607 -0.1645
 2506SOL    HW118980   0.903   1.207  12.522  0.8351  0.2812 -2.2652
 2506SOL    HW218981   0.909   1.107  12.406  0.8912 -1.9875  0.2645
 2507SOL     OW18982   1.345   2.376   5.472 -0.0858  0.1073 -0.2386
 2507SOL    HW118983   1.387   2.432   5.406 -0.5825  0.0247 -0.6191
 2507SOL    HW218984   1.375   2.305   5.416  0.3936  1.1634 -1.3302
 2508SOL     OW18985   3.847   1.535   5.525  0.3655  0.6794  0.5702
 2508SOL    HW118986   3.932   1.573   5.502  0.0204  1.2418  0.2350
 2508SOL    HW218987   3.836   1.583   5.607  1.6619 -1.3145  1.9197
 2509SOL     OW18988   4.395   2.831  13.645  0.5713  0.4593  0.0404
 2509SOL    HW118989   4.463   2.765  13.661  1.1408  1.6589  2.6124
 2509SOL    HW218990   4.384   2.865  13.734 -2.4093 -1.0831  0.2846
 2510SOL     OW18991   3.871   2.071   1.823  0.2847  0.0413 -0.1543
 2510SOL    HW118992   3.798   2.012   1.844 -1.0688  0.9661 -2.3305
 2510SOL    HW218993   3.859   2.151   1.874 -1.9386  0.7903 -1.8666
 2511SOL     OW18994   2.260   0.606   0.264 -0.7772 -0.0270 -0.0337
 2511SOL    HW118995   2.226   0.694   0.245 -1.9134 -0.4212  0.1871
 2511SOL    HW218996   2.250   0.609   0.359  1.1212  0.0502  0.1545
 2512SOL     OW18997   2.205   3.445   2.265 -0.4041 -0.6385  0.0200
 2512SOL    HW118998   2.124   3.430   2.312 -0.3215 -3.5427 -0.7479
 2512SOL    HW218999   2.262   3.395   2.324 -1.0049 -1.1903  0.1281
 2513SOL     OW19000   1.062   2.224   4.510 -0.3423 -0.0704  0.6707
 2513SOL    HW119001   1.061   2.302   4.455 -1.1619 -0.1455  0.5814
 2513SOL    HW219002   1.118   2.262   4.578  2.3316 -2.1071 -0.3682
 2514SOL     OW19003   3.185   0.569   6.236  0.1737  0.3102  0.1322
 2514SOL    HW119004   3.121   0.573   6.165  1.4852 -2.4900 -1.1882
 2514SOL    HW219005   3.210   0.478   6.222 -2.2971 -0.4610  0.7153
 2515SOL     OW19006   1.281   3.378   3.753 -0.6029 -0.0852 -0.4552
 2515SOL    HW119007   1.279   3.282   3.755 -0.4720 -0.0436  1.3097
 2515SOL    HW219008   1.232   3.378   3.671  1.0608 -1.1301 -1.4421
 2516SOL     OW19009   0.157   4.290   3.449  1.0640 -0.4606  0.3605
 2516SOL    HW119010   0.206   4.220   3.405 -0.1094 -1.1925  0.2287
 2516SOL    HW219011   0.130   4.244   3.528  1.1758 -1.5559 -0.2383
 2517SOL     OW19012   2.671   3.699   7.244  0.1394 -0.4500 -0.0938
 2517SOL    HW119013   2.656   3.681   7.337  0.5358  2.1566  0.4741
 2517SOL    HW219014   2.763   3.680   7.225  0.0817 -0.2009 -0.6308
 2518SOL     OW19015   0.452   4.029   7.292  0.2634  0.1273  0.1685
 2518SOL    HW119016   0.499   4.085   7.355  1.0769 -1.8927  1.3647
 2518SOL    HW219017   0.480   4.074   7.212  0.5015  1.5997  1.0691
 2519SOL     OW19018   1.705   1.428   7.345  0.3546 -0.2080  0.2832
 2519SOL    HW119019   1.774   1.455   7.283 -0.4065  0.5325 -0.2446
 2519SOL    HW219020   1.648   1.386   7.281  0.5229 -2.4435  1.6234
 2520SOL     OW19021   2.968   0.979   6.842 -0.2785 -0.1211 -0.0149
 2520SOL    HW119022   2.923   0.937   6.915  0.1835 -2.5335 -1.1241
 2520SOL    HW219023   3.025   1.050   6.875 -1.7005 -0.0253  2.2567
 2521SOL     OW19024   0.115   2.118   7.838  0.1657  0.5855  0.5398
 2521SOL    HW119025   0.101   2.181   7.767  1.7139 -0.4561 -0.6888
 2521SOL    HW219026   0.111   2.176   7.914 -0.2221  1.0997  0.1228
 2522SOL     OW19027   1.313   2.811   7.424 -0.2146 -0.3892  1.1001
 2522SOL    HW119028   1.329   2.725   7.463  0.3345 -1.7020 -2.0170
 2522SOL    HW219029   1.365   2.860   7.487  1.7087 -0.1411 -0.7057
 2523SOL     OW19030   0.946   3.093   4.898  0.0857  0.4992  0.5690
 2523SOL    HW119031   0.890   3.170   4.911  0.1854  1.0350 -2.1142
 2523SOL    HW219032   0.914   3.055   4.816 -1.4000 -2.7238  2.6372
 2524SOL     OW19033   2.007   1.964   3.944  0.5389  0.1045  0.3139
 2524SOL    HW119034   1.996   2.043   3.997  2.0907  1.1851 -0.9698
 2524SOL    HW219035   1.938   1.902   3.968  0.6151  1.0173  2.9297
 2525SOL     OW19036   4.377   1.232   1.169  0.0542  0.1268  0.1469
 2525SOL    HW119037   4.414   1.320   1.180 -0.5325  0.4744 -0.6253
 2525SOL    HW219038   4.427   1.187   1.237  0.1439  1.6304  1.0731
 2526SOL     OW19039   1.333   2.787  10.644 -0.0263  0.2460  0.4761
 2526SOL    HW119040   1.414   2.754  10.684  0.4724  0.6356 -0.2130
 2526SOL    HW219041   1.338   2.880  10.667  0.1953  0.4800 -0.5346
 2527SOL     OW19042   4.514   0.490   6.242  0.1026  0.3597 -0.4454
 2527SOL    HW119043   4.531   0.433   6.318 -0.1726  1.2139  0.2604
 2527SOL    HW219044   4.583   0.462   6.182 -0.5783 -2.1549 -0.0706
 2528SOL     OW19045   2.457   4.704   2.720  0.1801  0.3330 -1.1369
 2528SOL    HW119046   2.498   4.654   2.649 -0.0924 -1.3407 -0.1307
 2528SOL    HW219047   2.515   4.683   2.793 -1.1439 -0.0475 -0.1884
 2529SOL     OW19048   4.480   0.334   8.016 -0.1398  0.2857  0.0497
 2529SOL    HW119049   4.424   0.372   8.083 -1.1437 -0.2280 -0.5043
 2529SOL    HW219050   4.561   0.381   8.038 -0.1669 -1.2220  3.3828
 2530SOL     OW19051   0.043   4.432  17.235 -0.6753  0.2489  0.2940
 2530SOL    HW119052   0.001   4.422  17.321  0.6513 -0.2217  0.8802
 2530SOL    HW219053   0.134   4.453  17.253 -0.4009  0.3915 -1.2605
 2531SOL     OW19054   3.506   0.717   3.488 -0.4243  0.0912 -0.1871
 2531SOL    HW119055   3.431   0.757   3.533 -1.7592 -0.3648 -1.9794
 2531SOL    HW219056   3.470   0.672   3.411  1.7292 -0.2536 -0.9757
 2532SOL     OW19057   2.484   4.379   0.658  0.2928  0.0677 -0.3202
 2532SOL    HW119058   2.423   4.452   0.663  0.3340 -0.0388  1.5503
 2532SOL    HW219059   2.556   4.425   0.701 -0.7507  3.2259 -1.9436
 2533SOL     OW19060   3.777   1.255  14.950  0.3350  0.2340 -0.1820
 2533SOL    HW119061   3.763   1.348  14.970 -0.4535  0.2284 -0.7156
 2533SOL    HW219062   3.834   1.222  15.019 -1.9853  1.3132  2.2065
 2534SOL     OW19063   3.774   2.537   6.481  0.3849  0.7540  0.2698
 2534SOL    HW119064   3.790   2.629   6.499 -1.4046  1.2440 -0.6614
 2534SOL    HW219065   3.850   2.520   6.426 -0.3033 -0.5269 -0.2841
 2535SOL     OW19066   4.098   4.244   4.884  0.0001  0.4100 -0.0948
 2535SOL    HW119067   4.193   4.233   4.887 -0.3388 -2.0511  1.7751
 2535SOL    HW219068   4.079   4.335   4.861  1.5550  0.6201 -0.5513
 2536SOL     OW19069   2.465   0.726   9.857  0.0556 -0.0774 -0.4763
 2536SOL    HW119070   2.468   0.822   9.854  2.2199 -0.1895 -1.9551
 2536SOL    HW219071   2.474   0.710   9.951  0.9955  0.1465 -0.5283
 2537SOL     OW19072   4.603   3.654   7.974  0.0343  0.0628 -0.2520
 2537SOL    HW119073   4.537   3.629   8.038  0.8645 -1.8769 -0.1522
 2537SOL    HW219074   4.640   3.732   8.015  0.4893 -0.9299  1.2205
 2538SOL     OW19075   1.379   3.134   0.768  0.1406  0.2254 -0.0282
 2538SOL    HW119076   1.465   3.115   0.730 -1.0906  2.4922 -3.9452
 2538SOL    HW219077   1.385   3.229   0.778 -1.9094  0.3564 -0.1077
 2539SOL     OW19078   1.057   0.719   1.359  0.2737  0.0439  0.5828
 2539SOL    HW119079   1.015   0.805   1.369 -1.1153 -0.4136 -1.5481
 2539SOL    HW219080   1.111   0.723   1.281 -1.7077  1.7921 -0.6953
 2540SOL     OW19081   1.354   2.779   6.678 -0.8251 -0.8259  0.2648
 2540SOL    HW119082   1.307   2.712   6.628 -1.0074 -2.3688  2.4989
 2540SOL    HW219083   1.294   2.795   6.751 -2.4030  1.3535 -1.5267
 2541SOL     OW19084   2.601   0.169   9.961  0.0880  0.2693  0.7493
 2541SOL    HW119085   2.625   0.262   9.959  3.1767 -0.5035  2.3233
 2541SOL    HW219086   2.557   0.155  10.045  0.4600 -4.7110  0.0993
 2542SOL     OW19087   0.049   1.177   3.595  0.2213  0.2518 -0.5079
 2542SOL    HW119088   0.051   1.264   3.555  1.8856  1.3403  1.9763
 2542SOL    HW219089   4.711   1.197   3.665 -0.4954  0.5799 -1.2387
 2543SOL     OW19090   1.279   0.085   6.081 -0.1712  0.5181 -0.1569
 2543SOL    HW119091   1.352   0.111   6.025 -0.1447 -2.2572 -1.4249
 2543SOL    HW219092   1.276   4.716   6.058 -2.7288  0.5797 -0.0693
 2544SOL     OW19093   4.589   2.447   5.605 -0.2147  0.4371  0.9389
 2544SOL    HW119094   4.623   2.498   5.531  1.8310 -1.9329  0.2494
 2544SOL    HW219095   4.663   2.389   5.623 -0.3155  0.6600  2.1150
 2545SOL     OW19096   1.939   1.590   2.494  0.1648  0.0369  0.5887
 2545SOL    HW119097   1.933   1.618   2.586  0.0609  0.7196  0.3701
 2545SOL    HW219098   2.008   1.524   2.494 -0.1056 -0.2625  3.7386
 2546SOL     OW19099   4.692   0.843   8.445 -0.7857 -0.8786  0.3613
 2546SOL    HW119100   0.005   0.814   8.362 -0.9919  1.3476 -0.5107
 2546SOL    HW219101   4.630   0.909   8.414 -0.3627  0.5378  2.5064
 2547SOL     OW19102   0.924   2.233  12.578  0.1821  1.3685  0.1475
 2547SOL    HW119103   0.849   2.292  12.568 -0.7337  0.1706 -0.0408
 2547SOL    HW219104   0.965   2.257  12.661 -0.7540  0.3337  0.9059
 2548SOL     OW19105   2.770   3.901   6.588  0.0606 -0.2381 -0.4535
 2548SOL    HW119106   2.827   3.914   6.512  2.2250  1.4219  1.4618
 2548SOL    HW219107   2.741   3.991   6.607 -1.1029 -0.5047 -0.9446
 2549SOL     OW19108   0.646   2.201   8.669 -0.0185 -0.5048 -0.1510
 2549SOL    HW119109   0.610   2.210   8.757  0.1694 -1.7609  0.0574
 2549SOL    HW219110   0.572   2.178   8.614  1.5563 -3.3408 -1.0708
 2550SOL     OW19111   1.428   1.461   8.126 -0.0750 -0.4889  0.5093
 2550SOL    HW119112   1.524   1.468   8.126  0.0981 -3.1170  0.2220
 2550SOL    HW219113   1.430   1.386   8.066  2.6459 -0.2985  0.3363
 2551SOL     OW19114   0.110   2.187  11.507  0.2548 -0.2978 -0.3851
 2551SOL    HW119115   0.072   2.141  11.582 -2.0658  2.9499  0.4078
 2551SOL    HW219116   0.054   2.147  11.441 -0.4820  2.2501 -1.3102
 2552SOL     OW19117   1.163   2.147   1.373  0.3691 -0.0789 -0.3133
 2552SOL    HW119118   1.224   2.183   1.309 -0.6248  2.8640  0.3864
 2552SOL    HW219119   1.179   2.056   1.347  0.7407 -0.2516  0.5046
 2553SOL     OW19120   0.433   1.460   1.188  0.2893 -0.7795  0.0813
 2553SOL    HW119121   0.528   1.458   1.181  0.3055 -1.7831  0.5930
 2553SOL    HW219122   0.415   1.554   1.180 -1.3987 -0.9344  2.1789
 2554SOL     OW19123   2.529   3.409   2.567 -0.4122  0.5515 -0.3089
 2554SOL    HW119124   2.447   3.409   2.518 -0.5771  0.5795 -0.0295
 2554SOL    HW219125   2.571   3.326   2.544  0.3165  1.2437 -1.4731
 2555SOL     OW19126   4.595   1.562  14.855  0.3240  0.2929  0.5557
 2555SOL    HW119127   4.607   1.501  14.782  0.1806 -2.7467  3.0535
 2555SOL    HW219128   4.520   1.609  14.820  0.0606 -1.7091 -1.5935
 2556SOL     OW19129   1.567   2.439   9.879 -0.2214 -0.0112  0.2721
 2556SOL    HW119130   1.656   2.425   9.844  0.0409  0.6353  0.6785
 2556SOL    HW219131   1.508   2.410   9.810 -1.6098  0.0157  1.4542
 2557SOL     OW19132   0.803   2.548   3.190  0.8583 -0.4629  0.3327
 2557SOL    HW119133   0.740   2.517   3.125  0.1810  1.1123  0.2400
 2557SOL    HW219134   0.850   2.466   3.207  0.9260 -0.5138 -0.0992
 2558SOL     OW19135   2.332   2.860   0.657 -0.1566 -0.1580 -0.3432
 2558SOL    HW119136   2.376   2.779   0.682  0.3995  0.4336  0.5659
 2558SOL    HW219137   2.257   2.827   0.606 -0.1631 -0.3138 -0.2343
 2559SOL     OW19138   2.313   1.586   6.397 -0.5373 -0.0592 -0.2185
 2559SOL    HW119139   2.250   1.526   6.356 -0.3122 -0.2187 -0.3278
 2559SOL    HW219140   2.324   1.543   6.482 -0.1379 -0.2114 -0.3521
 2560SOL     OW19141   2.742   2.542  12.345  0.2992  0.4392 -0.2000
 2560SOL    HW119142   2.668   2.534  12.284  2.2971  1.1706 -2.7544
 2560SOL    HW219143   2.744   2.637  12.357 -0.7221  0.6629 -1.7820
 2561SOL     OW19144   4.572   3.145   0.354  0.2167  0.4709  0.8365
 2561SOL    HW119145   4.604   3.158   0.443 -1.7592  0.5914  1.5254
 2561SOL    HW219146   4.593   3.053   0.339 -1.3681  0.0025  1.4377
 2562SOL     OW19147   2.607   4.060  14.929 -0.7837  0.1484 -0.1010
 2562SOL    HW119148   2.533   4.103  14.885  0.1155  0.0058 -1.7515
 2562SOL    HW219149   2.608   4.101  15.016 -1.8695 -0.5418  0.2341
 2563SOL     OW19150   3.547   1.258  13.830  0.3152 -1.0571  0.7845
 2563SOL    HW119151   3.582   1.245  13.918  0.7613  4.2089  1.3894
 2563SOL    HW219152   3.601   1.198  13.779  1.8506  0.4529  0.6104
 2564SOL     OW19153   3.292   2.878   2.512  0.9543  0.1172  0.4632
 2564SOL    HW119154   3.298   2.966   2.476 -0.9127  0.4606  0.9907
 2564SOL    HW219155   3.222   2.840   2.459 -2.1371 -0.0931  4.7055
 2565SOL     OW19156   3.277   0.437   4.041 -0.3432 -0.2280 -0.3817
 2565SOL    HW119157   3.269   0.355   4.090 -0.2264 -1.3268 -2.1563
 2565SOL    HW219158   3.210   0.427   3.973 -1.0424 -0.4284  0.3422
 2566SOL     OW19159   4.666   3.809   3.652  0.2869  0.3385 -0.2969
 2566SOL    HW119160   4.650   3.793   3.559  0.4203 -0.5188 -0.1726
 2566SOL    HW219161   0.012   3.748   3.673  0.5062  0.8567  0.4777
 2567SOL     OW19162   4.155   3.666  14.592  0.2879  0.2884  0.2239
 2567SOL    HW119163   4.245   3.657  14.625  0.6894 -2.0652 -1.4790
 2567SOL    HW219164   4.158   3.744  14.537 -0.0115 -0.8543 -1.4082
 2568SOL     OW19165   1.930   3.084   6.898  0.8172 -0.0100 -0.1082
 2568SOL    HW119166   2.025   3.071   6.901  0.8860  0.6443  0.5948
 2568SOL    HW219167   1.905   3.014   6.959  1.2238 -0.6615 -0.6940
 2569SOL     OW19168   3.276   1.776   1.429 -0.1885  0.7048 -0.0416
 2569SOL    HW119169   3.290   1.846   1.365 -1.6929  1.2272  0.1953
 2569SOL    HW219170   3.344   1.786   1.495  1.6533  0.4905 -1.9224
 2570SOL     OW19171   3.850   1.729   4.009 -0.0210 -0.1884 -0.0533
 2570SOL    HW119172   3.871   1.637   3.999  0.0624 -0.3589  1.7201
 2570SOL    HW219173   3.915   1.776   3.958  0.7168  2.6126  3.4513
 2571SOL     OW19174   2.696   4.264   6.383  0.0503 -0.0350 -1.1328
 2571SOL    HW119175   2.639   4.272   6.307 -0.5462 -0.4847 -0.7307
 2571SOL    HW219176   2.760   4.332   6.359  0.2443  0.6812  1.3413
 2572SOL     OW19177   3.380   3.572   8.346 -0.5178 -0.2516 -0.5387
 2572SOL    HW119178   3.440   3.639   8.378 -0.5325 -0.8130  0.6373
 2572SOL    HW219179   3.366   3.527   8.429 -1.8565  2.2150  0.5787
 2573SOL     OW19180   1.132   0.224   3.463  0.2346 -0.5216  0.5788
 2573SOL    HW119181   1.185   0.296   3.497  2.6201 -1.9479 -0.0726
 2573SOL    HW219182   1.048   0.269   3.458  0.6648  0.0973 -1.0038
 2574SOL     OW19183   0.835   4.208   4.947 -0.3914 -0.0129 -0.3654
 2574SOL    HW119184   0.837   4.217   5.043  0.5709 -0.3844 -0.3547
 2574SOL    HW219185   0.879   4.291   4.930 -0.1942  0.1237  0.7864
 2575SOL     OW19186   2.251   0.557   2.011  0.0490 -0.0002  0.2730
 2575SOL    HW119187   2.275   0.500   1.938  0.3539  0.2995  0.1378
 2575SOL    HW219188   2.338   0.551   2.052  0.2136 -3.0270 -0.5015
 2576SOL     OW19189   4.397   2.651   5.659  0.1560  0.4252 -0.1799
 2576SOL    HW119190   4.440   2.722   5.612  0.6807  0.1844 -0.0716
 2576SOL    HW219191   4.470   2.591   5.675 -0.3873  0.0068  0.7259
 2577SOL     OW19192   0.934   1.485   4.983 -0.0335  0.7303 -0.0907
 2577SOL    HW119193   0.880   1.563   4.994 -1.1813 -0.2130  0.8362
 2577SOL    HW219194   0.877   1.426   4.934  0.7405 -1.1281  1.2666
 2578SOL     OW19195   2.019   1.028   5.329 -1.0900  0.0065  0.1383
 2578SOL    HW119196   2.079   0.962   5.294 -1.2675  0.8297 -1.7473
 2578SOL    HW219197   2.018   1.094   5.259 -1.8426  0.5717  0.6840
 2579SOL     OW19198   2.655   2.983   7.824 -0.8790 -0.3538  0.3071
 2579SOL    HW119199   2.564   2.960   7.804 -0.9536 -0.4402  0.7575
 2579SOL    HW219200   2.695   2.909   7.868  0.4760  0.6253  0.7215
 2580SOL     OW19201   0.304   2.594   6.915 -0.7545 -0.8032 -0.6543
 2580SOL    HW119202   0.397   2.575   6.910 -0.0976  1.8465  1.4804
 2580SOL    HW219203   0.293   2.638   6.999  0.4040  1.7874 -1.8550
 2581SOL     OW19204   4.554   2.604   1.881  0.4550  0.3656  0.1389
 2581SOL    HW119205   4.620   2.557   1.829  0.0186 -0.8187  0.6777
 2581SOL    HW219206   4.485   2.594   1.815  2.2103  1.2502 -1.8567
 2582SOL     OW19207   0.696   1.688   7.991  0.4316  0.0859 -0.1836
 2582SOL    HW119208   0.673   1.683   8.084  2.5675 -0.5564  0.3065
 2582SOL    HW219209   0.769   1.750   7.995 -0.4559  1.1970 -1.3129
 2583SOL     OW19210   4.470   2.153   0.991  0.3495  0.2618 -0.2316
 2583SOL    HW119211   4.377   2.155   1.011  0.7344 -0.4331  1.6513
 2583SOL    HW219212   4.486   2.059   0.989  1.3705  0.4365 -0.4110
 2584SOL     OW19213   2.467   1.833   6.725 -0.8442 -0.3323 -0.8848
 2584SOL    HW119214   2.468   1.892   6.801 -0.5402 -0.6613 -0.6357
 2584SOL    HW219215   2.408   1.873   6.661 -0.5661  0.8488 -0.4153
 2585SOL     OW19216   4.219   0.121   6.307  0.5020 -0.0359  0.4683
 2585SOL    HW119217   4.227   0.053   6.374  3.5108 -0.6242 -0.5168
 2585SOL    HW219218   4.129   0.098   6.286  0.3370  1.4108 -0.4095
 2586SOL     OW19219   2.327   3.887   5.371 -0.3915  0.2593 -0.3565
 2586SOL    HW119220   2.293   3.811   5.418  0.8841 -1.2969 -1.9403
 2586SOL    HW219221   2.353   3.837   5.293 -1.4853 -1.5383  0.4387
 2587SOL     OW19222   3.740   2.605  14.216 -0.4520 -0.2799 -0.7004
 2587SOL    HW119223   3.748   2.518  14.256 -0.8444 -0.0289 -0.0912
 2587SOL    HW219224   3.734   2.583  14.123  0.7269 -1.7452 -0.4388
 2588SOL     OW19225   2.628   4.639  16.683  0.2900 -0.1075  0.4425
 2588SOL    HW119226   2.654   0.006  16.670  0.0515 -0.4213 -2.0873
 2588SOL    HW219227   2.689   4.603  16.748  1.2725 -1.3859 -1.2059
 2589SOL     OW19228   2.427   3.714  17.595 -0.0554  0.2792 -0.8051
 2589SOL    HW119229   2.360   3.650  17.617 -0.0768  1.1231  1.5737
 2589SOL    HW219230   2.443   3.682  17.506  1.4964  0.2429 -0.5121
 2590SOL     OW19231   3.880   3.104   3.813 -0.2621  0.7552 -0.1269
 2590SOL    HW119232   3.956   3.072   3.764 -1.0347 -0.4964 -0.4899
 2590SOL    HW219233   3.896   3.044   3.885 -0.6530  1.7166  0.7695
 2591SOL     OW19234   0.267   3.767   6.464  0.0589 -0.0555  0.3339
 2591SOL    HW119235   0.187   3.807   6.428 -1.2339 -1.8201  1.2256
 2591SOL    HW219236   0.317   3.826   6.408 -1.3700  0.2492 -0.6479
 2592SOL     OW19237   1.544   1.208   9.734 -0.0739 -0.2711  0.0576
 2592SOL    HW119238   1.590   1.262   9.670 -0.7606 -1.3030 -1.3214
 2592SOL    HW219239   1.617   1.158   9.772 -0.4956  0.2968  1.5953
 2593SOL     OW19240   1.958   4.168  12.323 -0.7412 -0.2487 -0.6554
 2593SOL    HW119241   1.978   4.247  12.273  0.9072  0.4031  1.0189
 2593SOL    HW219242   2.034   4.115  12.298 -0.8878  1.0651 -3.8818
 2594SOL     OW19243   4.365   4.342   8.002 -0.2440  0.1570  0.6986
 2594SOL    HW119244   4.298   4.378   8.061 -2.1299 -0.9171 -0.7797
 2594SOL    HW219245   4.303   4.286   7.956 -0.7169  2.7625 -1.8472
 2595SOL     OW19246   1.418   3.949  11.819 -0.0434  0.4983  0.3757
 2595SOL    HW119247   1.430   3.894  11.897  2.3965 -1.0394 -1.0962
 2595SOL    HW219248   1.490   3.908  11.771 -1.0745 -0.5188 -0.3074
 2596SOL     OW19249   1.329   4.224   9.342  0.2909 -0.1120 -0.1448
 2596SOL    HW119250   1.291   4.228   9.430  2.4039  3.0423  0.6495
 2596SOL    HW219251   1.245   4.232   9.296  0.0094 -1.8887  0.0662
 2597SOL     OW19252   4.276   2.554   3.804 -0.3396 -0.0931 -0.2710
 2597SOL    HW119253   4.184   2.538   3.787  0.1087 -1.8265 -1.0280
 2597SOL    HW219254   4.306   2.587   3.719 -4.3328 -1.2309 -2.1206
 2598SOL     OW19255   0.481   1.762   5.609  0.2638 -0.0065  0.3585
 2598SOL    HW119256   0.576   1.757   5.612  0.3542 -0.0299 -2.3547
 2598SOL    HW219257   0.465   1.833   5.546  1.0688  1.2558  1.5688
 2599SOL     OW19258   4.537   3.216  16.336 -0.4017 -0.2179 -0.1561
 2599SOL    HW119259   4.590   3.210  16.256 -0.8459 -0.3410 -0.4453
 2599SOL    HW219260   4.448   3.192  16.311 -0.6070  0.4396 -0.0495
 2600SOL     OW19261   0.221   4.541   3.067 -0.4231 -0.1388  0.3480
 2600SOL    HW119262   0.285   4.519   2.999 -0.8966 -2.2043  0.5561
 2600SOL    HW219263   0.178   4.620   3.034  1.5188  0.7038 -0.1467
 2601SOL     OW19264   1.921   1.311  10.550  0.2915  0.1184  0.2667
 2601SOL    HW119265   1.954   1.377  10.611  0.5465  1.3241 -1.1877
 2601SOL    HW219266   1.908   1.233  10.605  0.2455 -0.2604 -0.2768
 2602SOL     OW19267   3.350   1.287  10.886  0.4514 -0.4654  0.7868
 2602SOL    HW119268   3.420   1.308  10.948  1.0438  0.1812 -0.0889
 2602SOL    HW219269   3.294   1.365  10.887  0.9878 -0.0516 -0.9175
 2603SOL     OW19270   1.101   0.928  13.666 -0.0253  0.1850  0.2926
 2603SOL    HW119271   1.048   0.966  13.736  0.2205  0.6730  0.2169
 2603SOL    HW219272   1.128   0.849  13.712 -0.8736  0.2764  0.9575
 2604SOL     OW19273   3.490   0.556   2.342  0.6821  0.2176 -0.6552
 2604SOL    HW119274   3.491   0.599   2.427 -0.2484 -1.2462  0.0911
 2604SOL    HW219275   3.431   0.615   2.294  1.5615  0.9091 -0.8839
 2605SOL     OW19276   3.378   2.471   5.147 -0.5433  0.0533 -0.2706
 2605SOL    HW119277   3.296   2.447   5.104 -0.9358 -2.1966  1.7515
 2605SOL    HW219278   3.387   2.554   5.099  0.4946  0.8663  1.3363
 2606SOL     OW19279   4.251   0.282   6.520 -0.4500 -0.2167 -0.4766
 2606SOL    HW119280   4.224   0.225   6.449  1.0812  2.0461 -2.8578
 2606SOL    HW219281   4.210   0.244   6.598 -3.6910  0.7262 -1.7575
 2607SOL     OW19282   0.863   1.873   2.266 -0.2120 -0.2524  0.3847
 2607SOL    HW119283   0.861   1.779   2.283 -0.5882 -0.0520  1.4138
 2607SOL    HW219284   0.770   1.890   2.278 -0.1858 -0.3492  0.7222
 2608SOL     OW19285   2.223   4.593   3.743  0.0465  0.1025  0.3168
 2608SOL    HW119286   2.144   4.596   3.796 -0.2840  1.1640 -0.2423
 2608SOL    HW219287   2.267   4.660   3.795  0.8545 -1.4032  1.5787
 2609SOL     OW19288   1.764   2.846  12.595 -0.2523 -0.2701 -0.3959
 2609SOL    HW119289   1.838   2.885  12.640  0.1130 -0.9658 -0.4038
 2609SOL    HW219290   1.723   2.924  12.556 -0.6257  0.5273  1.5957
 2610SOL     OW19291   1.539   2.521   8.293  0.3549  0.1374  0.0962
 2610SOL    HW119292   1.627   2.485   8.300  0.4698  0.3270 -0.3499
 2610SOL    HW219293   1.548   2.605   8.249  1.3168 -0.5914 -1.1046
 2611SOL     OW19294   3.352   3.025  13.805  0.0156  0.0725  0.8122
 2611SOL    HW119295   3.352   3.062  13.717 -3.5894  1.4914  1.3988
 2611SOL    HW219296   3.292   2.951  13.799  0.9762 -0.3086 -3.9081
 2612SOL     OW19297   3.978   3.393   2.359 -0.0251  0.3106 -0.1584
 2612SOL    HW119298   3.984   3.299   2.374 -0.6057  0.2765 -0.1086
 2612SOL    HW219299   3.972   3.386   2.264  1.0702  0.6798 -0.2546
 2613SOL     OW19300   2.442   3.570   6.813  0.5993  0.0383 -0.2169
 2613SOL    HW119301   2.524   3.592   6.858  0.9522  0.1569 -0.9077
 2613SOL    HW219302   2.376   3.602   6.874  0.5859  1.8921 -1.1853
 2614SOL     OW19303   1.648   2.258   8.868  0.5744  0.2977 -0.3332
 2614SOL    HW119304   1.662   2.164   8.881 -1.0676  0.1533  0.3985
 2614SOL    HW219305   1.556   2.257   8.840  0.3093 -0.9358  0.5811
 2615SOL     OW19306   4.039   3.227   6.817  0.1406 -0.6733  0.1353
 2615SOL    HW119307   3.944   3.221   6.809  0.1248  0.3064 -0.5500
 2615SOL    HW219308   4.072   3.201   6.731  0.7749  0.0364  0.1588
 2616SOL     OW19309   4.512   4.503   7.845 -0.2746  0.3994 -0.0977
 2616SOL    HW119310   4.504   4.587   7.890 -0.2237  0.5077 -0.2868
 2616SOL    HW219311   4.479   4.440   7.909  1.9758  1.3905  1.9957
 2617SOL     OW19312   3.251   2.043   0.872  0.2096  0.0998 -0.1386
 2617SOL    HW119313   3.224   2.075   0.786  0.7766  0.0657 -0.3303
 2617SOL    HW219314   3.249   2.122   0.926 -0.9310 -0.7724  1.1044
 2618SOL     OW19315   1.148   0.555   6.662 -0.0565  0.4900 -0.6132
 2618SOL    HW119316   1.205   0.632   6.652  1.4578 -0.6756 -0.9740
 2618SOL    HW219317   1.083   0.569   6.593 -1.3775  1.6715  0.8795
 2619SOL     OW19318   3.465   0.194   8.989 -0.1200 -0.4572 -0.3509
 2619SOL    HW119319   3.410   0.166   9.062  1.9470 -3.9250 -0.1284
 2619SOL    HW219320   3.418   0.275   8.968  1.2995  0.5679  0.3874
 2620SOL     OW19321   2.970   3.269   8.460  0.7390 -0.6302 -0.1732
 2620SOL    HW119322   2.918   3.324   8.519 -0.5681 -1.7724 -0.2330
 2620SOL    HW219323   2.992   3.325   8.386  1.3948  0.6947  1.0318
 2621SOL     OW19324   2.757   1.542  10.636  0.3312  0.4490  0.3156
 2621SOL    HW119325   2.792   1.505  10.554 -1.6470  0.1167 -0.3776
 2621SOL    HW219326   2.772   1.467  10.693  1.3943  0.4337  0.0235
 2622SOL     OW19327   1.534   2.023   8.546  0.7971 -0.0533 -0.2300
 2622SOL    HW119328   1.498   2.080   8.478  0.9889  2.4836  1.7979
 2622SOL    HW219329   1.502   2.077   8.619 -0.8034 -1.4943  0.1396
 2623SOL     OW19330   0.997   2.112   2.351 -0.8257  0.3533  0.1559
 2623SOL    HW119331   0.952   2.028   2.344  1.6197 -1.1580  2.4559
 2623SOL    HW219332   1.020   2.116   2.444  1.2890  2.1962 -0.4301
 2624SOL     OW19333   0.384   2.670  13.359  0.4785  0.5737  0.2803
 2624SOL    HW119334   0.386   2.760  13.393  0.9614  0.2684  1.0466
 2624SOL    HW219335   0.429   2.612  13.420 -1.6399 -0.7690  0.5991
 2625SOL     OW19336   4.381   0.925   4.990 -0.1057 -0.3406  0.1324
 2625SOL    HW119337   4.374   0.879   4.906  2.2612 -0.4207 -0.0368
 2625SOL    HW219338   4.437   1.001   4.972  0.7805 -0.9423  0.3591
 2626SOL     OW19339   2.260   2.107   6.747  0.4599 -0.3789 -0.3676
 2626SOL    HW119340   2.314   2.052   6.804 -1.0172 -0.5737  0.8288
 2626SOL    HW219341   2.247   2.053   6.670  0.7638 -0.3946 -0.4102
 2627SOL     OW19342   0.813   3.616  17.538  0.1777  0.3362 -0.1030
 2627SOL    HW119343   0.755   3.588  17.467  0.2899  0.0312 -0.0782
 2627SOL    HW219344   0.889   3.558  17.526 -0.7149 -0.8634  0.0052
 2628SOL     OW19345   4.163   1.393   6.559 -0.5367 -0.1449  0.0893
 2628SOL    HW119346   4.188   1.357   6.644 -2.3897  0.1164  0.7375
 2628SOL    HW219347   4.156   1.313   6.506 -2.0928  0.4689 -0.6208
 2629SOL     OW19348   3.421   3.818   8.196 -0.2788 -0.5935 -0.3134
 2629SOL    HW119349   3.431   3.741   8.139 -1.0617 -0.8989 -0.0318
 2629SOL    HW219350   3.483   3.791   8.264 -0.7238 -1.8260 -0.3862
 2630SOL     OW19351   2.482   2.028   3.029  0.1790 -0.4385 -0.3321
 2630SOL    HW119352   2.511   2.117   3.045 -0.5273 -0.0387 -1.3152
 2630SOL    HW219353   2.391   2.047   3.053  0.3026  1.3608 -1.3057
 2631SOL     OW19354   1.990   1.508   4.500  0.0394 -0.6013  0.2488
 2631SOL    HW119355   1.919   1.498   4.564  0.0156 -1.1664  0.1312
 2631SOL    HW219356   1.967   1.574   4.434 -1.1523 -2.4314 -1.1402
 2632SOL     OW19357   2.532   2.142   6.135  0.1977  0.2394 -0.0067
 2632SOL    HW119358   2.620   2.179   6.143 -0.8001  3.0956 -2.2948
 2632SOL    HW219359   2.543   2.095   6.052 -0.0327 -0.2305  0.2248
 2633SOL     OW19360   0.646   2.026   2.864 -0.4569 -0.2461 -0.2240
 2633SOL    HW119361   0.734   1.991   2.851 -0.1363  0.7702 -0.8272
 2633SOL    HW219362   0.650   2.049   2.957 -0.9776  0.0686 -0.2784
 2634SOL     OW19363   0.919   2.383   5.449 -0.7898 -0.1751 -0.5821
 2634SOL    HW119364   0.997   2.403   5.502 -2.3433  0.2290  1.5389
 2634SOL    HW219365   0.965   2.329   5.385  1.3266  1.7466 -0.7178
 2635SOL     OW19366   2.920   2.141   3.506 -0.2558  0.3605 -0.4180
 2635SOL    HW119367   2.899   2.222   3.460  0.0358 -0.2553 -1.6558
 2635SOL    HW219368   2.975   2.099   3.439  1.8543 -2.3310  3.0412
 2636SOL     OW19369   3.979   2.215  13.910  0.2149 -0.2011 -0.4072
 2636SOL    HW119370   3.995   2.235  13.818  0.8322  2.2980  0.2490
 2636SOL    HW219371   3.898   2.164  13.901 -0.6884  1.2061 -0.2121
 2637SOL     OW19372   2.709   1.750   2.854  0.2391 -0.5658  0.6240
 2637SOL    HW119373   2.743   1.663   2.876 -1.0404 -1.7978 -2.2266
 2637SOL    HW219374   2.747   1.797   2.928 -0.4156  2.7677 -1.1337
 2638SOL     OW19375   1.743   1.247   4.312 -0.1994  0.6221  0.0761
 2638SOL    HW119376   1.723   1.235   4.220  0.4466 -1.4723  0.2081
 2638SOL    HW219377   1.772   1.158   4.332 -1.2549  0.3259  0.2774
 2639SOL     OW19378   0.064   0.653   7.450 -0.0741 -0.1016  0.6544
 2639SOL    HW119379   0.138   0.670   7.392 -1.8055  1.0417 -1.2365
 2639SOL    HW219380   0.073   0.558   7.454  0.4827 -0.1174 -0.7361
 2640SOL     OW19381   4.486   1.104  10.867 -0.0597  0.2610  0.5294
 2640SOL    HW119382   4.477   1.025  10.813 -1.7889 -0.0089  1.2202
 2640SOL    HW219383   4.458   1.171  10.805 -1.2229 -1.3581 -0.7153
 2641SOL     OW19384   4.287   4.594   7.145 -0.3536 -0.0637 -0.4911
 2641SOL    HW119385   4.253   4.582   7.233  2.2256  1.9088  0.7786
 2641SOL    HW219386   4.374   4.556   7.161 -0.3510  0.3350  0.3969
 2642SOL     OW19387   3.968   0.779   4.314 -0.3865  0.6996  0.5063
 2642SOL    HW119388   3.974   0.872   4.335 -1.1706  0.9482 -0.3782
 2642SOL    HW219389   3.874   0.775   4.294 -0.9595 -1.6706  3.7185
 2643SOL     OW19390   0.349   1.893   4.945  0.5933  0.0704  0.2371
 2643SOL    HW119391   0.275   1.858   4.995  0.6016  0.1876  0.3322
 2643SOL    HW219392   0.327   1.862   4.857 -0.1287  0.4888  0.2625
 2644SOL     OW19393   2.357   4.572  11.139 -0.7178  0.0054 -0.6807
 2644SOL    HW119394   2.384   4.623  11.215  2.0732 -0.9860 -0.9901
 2644SOL    HW219395   2.333   4.639  11.075  0.6496  1.7949  0.7012
 2645SOL     OW19396   0.180   1.268  16.986  0.0954 -0.1600 -0.5267
 2645SOL    HW119397   0.233   1.341  16.955 -0.5648 -0.4329 -2.3116
 2645SOL    HW219398   0.161   1.222  16.905 -2.0415 -0.1260 -0.0491
 2646SOL     OW19399   2.953   1.014  15.305 -0.3040 -0.4547  0.2841
 2646SOL    HW119400   2.907   1.098  15.298 -0.2725 -0.5470 -1.1727
 2646SOL    HW219401   2.910   0.958  15.241 -0.0060 -0.4672  0.0943
 2647SOL     OW19402   2.253   1.433   4.618 -0.0008 -0.3509  0.3073
 2647SOL    HW119403   2.225   1.365   4.679 -0.2830  0.3175  0.9199
 2647SOL    HW219404   2.169   1.463   4.584  0.1256  0.8080  0.9867
 2648SOL     OW19405   0.914   2.556  11.564 -0.0958 -0.0336  0.7161
 2648SOL    HW119406   0.975   2.541  11.492 -0.2695 -0.1846  0.5988
 2648SOL    HW219407   0.933   2.642  11.601  1.8768  0.9934 -2.7493
 2649SOL     OW19408   4.687   1.320  16.649  0.5082 -0.4678  0.7227
 2649SOL    HW119409   4.649   1.403  16.623  3.6531  0.2986 -1.4750
 2649SOL    HW219410   0.003   1.286  16.569 -0.0612  3.3346 -1.1604
 2650SOL     OW19411   2.696   0.862   8.962 -0.1028 -0.1817  0.4092
 2650SOL    HW119412   2.740   0.936   8.922  0.3292 -0.2013  0.8467
 2650SOL    HW219413   2.625   0.847   8.900  0.4630  1.1391 -0.5422
 2651SOL     OW19414   1.087   2.140  13.809  0.3908 -0.2365  0.6264
 2651SOL    HW119415   1.008   2.136  13.863  0.4602 -1.0517  0.6747
 2651SOL    HW219416   1.060   2.209  13.748 -2.3731 -0.8459  1.1694
 2652SOL     OW19417   4.650   0.398  12.234 -0.8613  0.0532 -0.5797
 2652SOL    HW119418   0.013   0.430  12.258 -1.3620 -1.6716  3.7329
 2652SOL    HW219419   4.669   0.311  12.198  1.1182  0.6666 -1.0123
 2653SOL     OW19420   3.438   3.287  13.482  0.1750  0.0321  0.0196
 2653SOL    HW119421   3.528   3.291  13.447  0.0509  1.7237 -0.0837
 2653SOL    HW219422   3.407   3.377  13.477  2.4723  0.8464  0.4146
 2654SOL     OW19423   4.542   1.092   3.810 -0.1936  0.5164  0.2477
 2654SOL    HW119424   4.533   1.073   3.903  2.0396  1.2838  0.6104
 2654SOL    HW219425   4.600   1.025   3.774 -0.8768 -0.4886  1.0009
 2655SOL     OW19426   4.112   0.721   2.586  0.0416  0.1001  0.5301
 2655SOL    HW119427   4.020   0.714   2.558  0.5866 -0.5129 -1.1052
 2655SOL    HW219428   4.121   0.643   2.640 -0.9199 -0.5434 -0.2354
 2656SOL     OW19429   2.845   2.854   9.165  0.3145 -0.2631 -0.8130
 2656SOL    HW119430   2.880   2.784   9.220  0.4622  0.2155 -0.2879
 2656SOL    HW219431   2.758   2.859   9.205  0.1819 -2.1808 -0.8919
 2657SOL     OW19432   1.895   2.620   5.535  0.0427  0.1843  0.3660
 2657SOL    HW119433   1.975   2.639   5.584  0.6210  0.0258 -0.5143
 2657SOL    HW219434   1.852   2.693   5.579  0.1570 -0.6402  1.8200
 2658SOL     OW19435   1.232   3.995   2.153 -0.5566  0.3855 -0.1616
 2658SOL    HW119436   1.160   3.968   2.097 -0.7406  1.0369 -0.2433
 2658SOL    HW219437   1.208   3.949   2.234 -0.3415 -1.6979 -1.2871
 2659SOL     OW19438   0.586   2.978   5.164 -0.2100  0.2613  0.4299
 2659SOL    HW119439   0.622   3.055   5.209 -1.1539  0.8930  0.0946
 2659SOL    HW219440   0.562   3.016   5.080  0.5814  0.4762  0.2989
 2660SOL     OW19441   0.518   2.985   3.288 -0.2937  0.0445  0.1619
 2660SOL    HW119442   0.555   2.899   3.272 -1.4723 -0.6868  1.3136
 2660SOL    HW219443   0.470   2.999   3.206 -1.5667  0.8829  1.0330
 2661SOL     OW19444   2.822   2.802   6.327  0.5117 -0.2501 -0.8749
 2661SOL    HW119445   2.824   2.720   6.376 -0.1200  0.0476 -0.3448
 2661SOL    HW219446   2.799   2.870   6.391  0.9750  0.9760 -2.0024
 2662SOL     OW19447   4.481   0.144   7.286 -0.1618  0.3585  0.1146
 2662SOL    HW119448   4.459   0.194   7.207  0.7536  2.5813  1.2526
 2662SOL    HW219449   4.572   0.117   7.278  0.0198  1.9018 -2.9265
 2663SOL     OW19450   4.135   3.497   4.965  0.7274 -0.1704 -0.4886
 2663SOL    HW119451   4.044   3.469   4.976  0.6041  0.2596 -0.4241
 2663SOL    HW219452   4.137   3.492   4.870 -2.5223  1.9408 -0.6670
 2664SOL     OW19453   0.610   4.576   3.480 -0.0147 -0.3622  0.2726
 2664SOL    HW119454   0.597   4.518   3.555  1.9848  0.4864  1.2785
 2664SOL    HW219455   0.641   4.654   3.524  0.1486  0.0919 -0.6363
 2665SOL     OW19456   1.729   0.239   6.995 -0.1396 -0.2924  0.1006
 2665SOL    HW119457   1.732   0.328   6.962 -0.3931  0.4869  2.2083
 2665SOL    HW219458   1.639   0.238   7.028  0.4596  2.9714  1.8446
 2666SOL     OW19459   2.208   2.323  14.767 -0.6778 -0.2068  0.1549
 2666SOL    HW119460   2.215   2.401  14.712 -2.2960 -1.8489 -2.3741
 2666SOL    HW219461   2.301   2.308  14.780 -0.4998 -2.1133 -3.6432
 2667SOL     OW19462   0.417   3.769   2.640  0.1129  0.2209 -0.0952
 2667SOL    HW119463   0.400   3.781   2.547  1.8226 -0.1941 -0.4517
 2667SOL    HW219464   0.441   3.676   2.643 -1.0242 -0.1454 -2.2115
 2668SOL     OW19465   3.184   0.022   9.001  0.1246  0.1574 -0.1101
 2668SOL    HW119466   3.153   4.661   9.034  2.1002 -0.0838  1.1157
 2668SOL    HW219467   3.220   0.064   9.079 -0.5859  1.2021 -0.3392
 2669SOL     OW19468   0.589   2.994   2.938 -0.0242  0.4522 -0.5039
 2669SOL    HW119469   0.623   2.911   2.905 -0.0425  0.0775  0.4386
 2669SOL    HW219470   0.666   3.025   2.986  0.5824  1.2673 -1.9821
 2670SOL     OW19471   4.228   1.787  11.082  0.3723  0.0607  0.5451
 2670SOL    HW119472   4.310   1.804  11.035  0.5945  0.0299  0.9233
 2670SOL    HW219473   4.180   1.729  11.023  0.0969  0.4995  0.3364
 2671SOL     OW19474   4.371   4.213   4.844 -0.8371 -0.4808  0.2243
 2671SOL    HW119475   4.459   4.231   4.876 -1.0881  2.1644 -0.5970
 2671SOL    HW219476   4.370   4.117   4.843  0.4565 -0.4903 -0.1123
 2672SOL     OW19477   1.548   3.975   9.871 -0.2750  0.0742 -0.0179
 2672SOL    HW119478   1.456   3.949   9.878 -0.2364 -0.4283 -1.3187
 2672SOL    HW219479   1.548   4.055   9.924  4.5492  0.0477  0.0040
 2673SOL     OW19480   2.246   1.023  12.774 -0.2374 -0.2998  0.3908
 2673SOL    HW119481   2.282   1.040  12.861  2.4388 -2.0619 -0.3783
 2673SOL    HW219482   2.295   0.940  12.770 -0.9450 -0.7727  1.3431
 2674SOL     OW19483   3.170   4.506   5.176 -0.2091 -0.2873  0.4800
 2674SOL    HW119484   3.126   4.439   5.123  1.6235 -1.2147  0.1207
 2674SOL    HW219485   3.215   4.557   5.108  0.2119 -2.3431 -0.7929
 2675SOL     OW19486   0.735   1.670   5.792  0.1622 -0.2624 -0.0570
 2675SOL    HW119487   0.687   1.711   5.864  2.5061  1.4434  0.5108
 2675SOL    HW219488   0.802   1.613   5.830 -2.7794 -1.7236  2.9671
 2676SOL     OW19489   1.775   1.894   7.834 -0.5760 -0.2784 -0.1213
 2676SOL    HW119490   1.716   1.922   7.764 -1.4267 -0.6612  0.4452
 2676SOL    HW219491   1.715   1.907   7.907 -0.7215  1.1282 -0.4999
 2677SOL     OW19492   4.671   2.040   4.490  0.1132  0.0519 -0.0232
 2677SOL    HW119493   4.686   2.104   4.420  0.1584 -0.8765 -0.8524
 2677SOL    HW219494   4.675   2.095   4.569  1.5355  0.1645 -0.1873
 2678SOL     OW19495   0.182   1.634   3.569 -0.7692  0.2498 -0.3087
 2678SOL    HW119496   0.151   1.640   3.659  0.3470  2.5168 -0.0712
 2678SOL    HW219497   0.163   1.723   3.538 -1.2462  1.0005  2.1838
 2679SOL     OW19498   2.920   4.048   7.241  0.4177  0.1354  0.2064
 2679SOL    HW119499   2.876   4.033   7.157 -1.3251 -0.0763  1.1658
 2679SOL    HW219500   2.844   4.077   7.291 -0.0039 -0.6104 -0.0124
 2680SOL     OW19501   3.944   1.280  12.358 -0.7676 -0.0712  0.3425
 2680SOL    HW119502   4.013   1.289  12.292 -0.5407  1.9167  0.8369
 2680SOL    HW219503   3.876   1.232  12.312 -1.9276  3.0979 -1.2310
 2681SOL     OW19504   1.719   0.873   8.915  0.1743  0.5012  0.4288
 2681SOL    HW119505   1.650   0.922   8.959  0.3456 -0.0678  1.3154
 2681SOL    HW219506   1.791   0.936   8.926  1.8826 -1.5086  0.7004
 2682SOL     OW19507   1.774   4.237   6.994  0.1147  0.2263  0.0265
 2682SOL    HW119508   1.766   4.196   6.908  2.0064 -0.8304  0.3577
 2682SOL    HW219509   1.752   4.325   6.962 -1.0486  0.6075  1.9165
 2683SOL     OW19510   4.398   0.449  15.949  0.2435 -0.3859  0.3869
 2683SOL    HW119511   4.485   0.454  15.987  1.3083 -0.7723 -2.0317
 2683SOL    HW219512   4.372   0.359  15.969 -1.8722 -0.3174 -2.0805
 2684SOL     OW19513   3.950   2.012   4.828 -0.2223  0.3229 -0.1311
 2684SOL    HW119514   3.865   2.052   4.844  0.5939  2.7915 -1.8158
 2684SOL    HW219515   4.000   2.021   4.909  0.7466  3.6495 -1.0907
 2685SOL     OW19516   1.000   2.348  13.660 -0.2734  0.1986 -0.4280
 2685SOL    HW119517   0.927   2.352  13.723 -1.1957 -0.7686 -1.4214
 2685SOL    HW219518   0.952   2.371  13.581  1.2328 -1.1496 -1.7162
 2686SOL     OW19519   3.543   0.356   1.373 -0.0844 -0.2819  0.1637
 2686SOL    HW119520   3.510   0.443   1.395 -3.5778 -1.1111 -1.8169
 2686SOL    HW219521   3.623   0.390   1.334 -0.1166 -0.8801 -0.4181
 2687SOL     OW19522   3.630   0.826   7.611  0.7984 -0.3081 -0.3526
 2687SOL    HW119523   3.631   0.794   7.701  1.1409 -1.1176 -0.6469
 2687SOL    HW219524   3.696   0.769   7.573  1.1431 -0.4330  0.4393
 2688SOL     OW19525   1.131   4.657   0.607 -0.3684  0.0789  0.2537
 2688SOL    HW119526   1.129   4.704   0.524 -0.0386 -0.0472  0.1721
 2688SOL    HW219527   1.037   4.662   0.624 -0.6641 -2.5843 -0.6998
 2689SOL     OW19528   3.056   2.138   1.611 -0.5470 -0.3630 -0.0342
 2689SOL    HW119529   3.094   2.205   1.668  1.7400 -1.4403 -0.3008
 2689SOL    HW219530   3.132   2.108   1.561 -0.1799 -0.8933  0.8513
 2690SOL     OW19531   1.894   1.949   1.299  0.3847  0.5607  0.2827
 2690SOL    HW119532   1.910   2.036   1.338 -1.0716 -1.1418  4.6761
 2690SOL    HW219533   1.823   1.955   1.234 -0.2895 -1.8988  0.8072
 2691SOL     OW19534   1.382   4.664   4.592  0.1131  0.3579 -0.1896
 2691SOL    HW119535   1.331   4.591   4.557 -0.3404  0.9330 -0.7158
 2691SOL    HW219536   1.449   4.617   4.641 -0.1070  1.8072  1.5137
 2692SOL     OW19537   0.486   1.956  11.793 -0.0622  0.5267  0.2437
 2692SOL    HW119538   0.516   1.976  11.705  1.9620 -1.3461  0.5033
 2692SOL    HW219539   0.564   1.959  11.849 -1.4609 -2.3432  2.3246
 2693SOL     OW19540   3.904   4.358   9.184 -0.1263 -0.1466  0.1369
 2693SOL    HW119541   3.984   4.399   9.215 -0.7647  1.6078 -0.5460
 2693SOL    HW219542   3.867   4.437   9.145  1.1261  0.1711 -0.4275
 2694SOL     OW19543   4.691   1.484  17.375  0.1427  0.2314 -0.2617
 2694SOL    HW119544   4.703   1.442  17.290  1.7609 -0.6781  0.4165
 2694SOL    HW219545   4.660   1.564  17.333 -0.8982  0.0305  0.1180
 2695SOL     OW19546   2.202   2.637   5.681 -0.2067  0.1110 -0.1238
 2695SOL    HW119547   2.171   2.547   5.691  0.5909 -0.1889 -0.3535
 2695SOL    HW219548   2.265   2.637   5.609 -1.0073 -2.5208 -0.8187
 2696SOL     OW19549   1.779   1.401   4.683  0.3422  0.3256  0.2363
 2696SOL    HW119550   1.809   1.311   4.672 -0.9904 -0.3561  2.0456
 2696SOL    HW219551   1.730   1.376   4.762  1.8917  0.1524  1.1350
 2697SOL     OW19552   3.017   0.364  13.120  0.4894  0.1658  0.1735
 2697SOL    HW119553   3.005   0.363  13.215 -0.4573  1.2822  0.0695
 2697SOL    HW219554   2.926   0.342  13.098  0.6726 -1.0764  0.6841
 2698SOL     OW19555   2.434   4.601  16.960  0.1174 -0.2102  0.0300
 2698SOL    HW119556   2.442   4.508  16.936 -2.2998 -0.9800  2.2004
 2698SOL    HW219557   2.525   4.620  16.984 -0.2557  1.9662 -0.2777
 2699SOL     OW19558   0.066   3.351  16.546 -0.5543 -0.2724 -0.0863
 2699SOL    HW119559   0.089   3.440  16.573  0.8442 -0.4429 -0.6920
 2699SOL    HW219560   0.139   3.301  16.581  1.3141 -0.1156 -3.7992
 2700SOL     OW19561   2.245   0.308   5.890  0.0935  0.4744  0.1206
 2700SOL    HW119562   2.175   0.360   5.931  1.3710  2.7903 -0.6399
 2700SOL    HW219563   2.327   0.354   5.908  0.4999 -0.8098  1.5808
 2701SOL     OW19564   1.475   0.036   2.874 -0.2975 -0.1348 -0.0719
 2701SOL    HW119565   1.454   0.130   2.876 -1.3956 -0.3868 -0.1552
 2701SOL    HW219566   1.495   0.024   2.782  0.5640  0.0261  0.0936
 2702SOL     OW19567   0.188   1.238   5.746 -0.0809  0.1953  0.7647
 2702SOL    HW119568   0.187   1.225   5.841 -2.0326  1.8697  0.9598
 2702SOL    HW219569   0.098   1.214   5.725 -0.6705  1.8437  1.4141
 2703SOL     OW19570   0.584   4.005   9.480  0.6512 -0.0680  0.1021
 2703SOL    HW119571   0.668   4.034   9.444  1.2332  1.3477  2.5358
 2703SOL    HW219572   0.522   4.079   9.478 -1.2612 -1.6672  0.0956
 2704SOL     OW19573   3.696   3.055   3.549 -0.5509  0.7620 -0.1229
 2704SOL    HW119574   3.748   3.134   3.566  0.4304  0.2465 -0.7022
 2704SOL    HW219575   3.700   3.006   3.630 -0.8946  0.8081 -0.0816
 2705SOL     OW19576   2.538   1.044   0.191 -0.3702 -0.0638  0.2560
 2705SOL    HW119577   2.618   1.008   0.151 -0.9127  0.2128 -1.0673
 2705SOL    HW219578   2.504   0.975   0.248 -3.3553  0.4507 -0.9437
 2706SOL     OW19579   2.477   2.726   3.401 -0.0022  0.4596  0.3113
 2706SOL    HW119580   2.535   2.690   3.467 -0.9631  0.9828  1.4383
 2706SOL    HW219581   2.522   2.803   3.365 -0.7291  0.8866  0.2999
 2707SOL     OW19582   3.899   1.728  16.875 -0.5542  0.3747 -0.0975
 2707SOL    HW119583   3.987   1.762  16.892  0.3469 -1.4788 -1.0576
 2707SOL    HW219584   3.879   1.792  16.807  0.5738 -0.4796 -1.2217
 2708SOL     OW19585   2.910   0.214   3.869  0.4609  0.3097 -0.5053
 2708SOL    HW119586   3.000   0.197   3.896  0.2615 -0.5744 -0.3804
 2708SOL    HW219587   2.869   0.249   3.948 -0.1884  1.1072 -1.1969
 2709SOL     OW19588   2.153   3.415   7.270  0.2165  0.6654  0.0465
 2709SOL    HW119589   2.096   3.379   7.338  0.4285  0.6497  0.2157
 2709SOL    HW219590   2.211   3.342   7.247  0.7614  0.6468  1.5085
 2710SOL     OW19591   3.685   2.847   3.803 -0.0180 -0.2434 -0.3254
 2710SOL    HW119592   3.686   2.755   3.777 -4.0845  0.0520 -1.5597
 2710SOL    HW219593   3.776   2.843   3.834  0.3981  0.2449 -1.5020
 2711SOL     OW19594   2.484   2.598   9.307  0.3205  0.2345 -0.6169
 2711SOL    HW119595   2.410   2.552   9.345 -0.8313  0.7120 -2.2721
 2711SOL    HW219596   2.443   2.661   9.248 -0.8372  1.5738  1.6715
 2712SOL     OW19597   0.500   1.314  11.685  0.2994  0.0643 -0.5238
 2712SOL    HW119598   0.467   1.359  11.763 -0.9774  0.1492 -1.1270
 2712SOL    HW219599   0.567   1.259  11.726  0.4004  0.4292 -0.1903
 2713SOL     OW19600   1.821   4.624   7.237 -0.1203 -0.0851 -0.2258
 2713SOL    HW119601   1.747   4.563   7.246 -0.4611  0.5811  1.4876
 2713SOL    HW219602   1.796   4.684   7.307 -0.4167 -0.7220  0.2164
 2714SOL     OW19603   2.300   4.094   4.443  0.1532 -0.9225  0.0815
 2714SOL    HW119604   2.372   4.113   4.382 -0.2265 -4.2376 -1.3847
 2714SOL    HW219605   2.256   4.027   4.390 -1.7528 -0.0287  0.5227
 2715SOL     OW19606   4.672   1.789  15.526 -0.4738  0.1985 -0.0927
 2715SOL    HW119607   0.002   1.711  15.513  0.5690  0.6213  1.7586
 2715SOL    HW219608   4.648   1.819  15.438  0.4976 -1.9353 -1.0827
 2716SOL     OW19609   2.450   2.896   6.013 -0.4483  0.2985  0.5073
 2716SOL    HW119610   2.534   2.942   6.021 -1.1008  1.5102  0.2737
 2716SOL    HW219611   2.459   2.813   6.060  0.8946 -0.6242 -1.3730
 2717SOL     OW19612   4.156   2.442   5.482 -0.2319 -0.0424  0.8984
 2717SOL    HW119613   4.153   2.400   5.569 -2.3535 -1.2456  0.2391
 2717SOL    HW219614   4.240   2.483   5.499 -0.5823  2.8076 -4.5547
 2718SOL     OW19615   3.183   3.780  13.009 -0.4137  0.2222 -0.3263
 2718SOL    HW119616   3.141   3.701  12.976 -0.9142 -0.1730  1.2667
 2718SOL    HW219617   3.124   3.853  12.988  0.9120  1.3643 -0.0804
 2719SOL     OW19618   0.122   4.412   9.346 -0.4437  0.6875  0.0034
 2719SOL    HW119619   0.077   4.483   9.299  1.5580  1.3292 -0.9694
 2719SOL    HW219620   0.049   4.355   9.368  1.6837 -1.7483  0.6852
 2720SOL     OW19621   2.513   3.071   9.194 -0.3193  0.8354  0.1251
 2720SOL    HW119622   2.551   3.011   9.259 -1.4549  0.4143  0.4079
 2720SOL    HW219623   2.561   3.149   9.222  1.2473 -0.4199  0.9962
 2721SOL     OW19624   3.497   0.615   1.430 -0.5633  0.2858 -0.1571
 2721SOL    HW119625   3.522   0.662   1.350 -0.7794  0.1364 -0.3128
 2721SOL    HW219626   3.554   0.657   1.494 -0.6362 -0.3314  0.3020
 2722SOL     OW19627   1.277   0.900   8.592  0.2033  0.4989  0.6804
 2722SOL    HW119628   1.361   0.909   8.638  0.8814 -2.4397 -0.0105
 2722SOL    HW219629   1.277   0.990   8.559 -0.3034  1.0113  2.0576
 2723SOL     OW19630   4.588   2.664   3.918 -0.2775  0.0072  0.4731
 2723SOL    HW119631   4.509   2.631   3.876 -1.2733  2.3969  0.4446
 2723SOL    HW219632   4.642   2.650   3.841  0.4838 -0.0078  1.0038
 2724SOL     OW19633   1.293   0.814  12.908 -0.2273 -0.3749 -0.3860
 2724SOL    HW119634   1.263   0.784  12.994  1.2304  1.7072  0.8519
 2724SOL    HW219635   1.384   0.785  12.904 -1.2124 -3.4117 -0.2793
 2725SOL     OW19636   2.237   4.022   4.931  0.4339  0.1622 -0.5164
 2725SOL    HW119637   2.177   4.036   4.857  0.1981 -1.3754 -0.6060
 2725SOL    HW219638   2.321   3.993   4.896 -0.3730 -3.0005  0.1863
 2726SOL     OW19639   0.311   0.110   0.543  0.0534 -0.2365  0.2293
 2726SOL    HW119640   0.286   0.163   0.467  0.7138 -0.1180  0.0974
 2726SOL    HW219641   0.304   0.175   0.613 -0.4996 -0.7246  0.6316
 2727SOL     OW19642   0.609   1.877   1.566 -0.4497  0.2582  0.0859
 2727SOL    HW119643   0.529   1.826   1.583 -0.8517  0.9308  0.2152
 2727SOL    HW219644   0.596   1.955   1.620  0.1206 -1.3204  2.5328
 2728SOL     OW19645   0.903   1.906  12.914  0.2072 -0.0975  0.5371
 2728SOL    HW119646   0.993   1.877  12.927  1.3266  1.6154 -3.5476
 2728SOL    HW219647   0.895   1.988  12.963  0.0874  0.3963 -0.3142
 2729SOL     OW19648   1.519   0.155   6.370 -0.2290 -0.2977 -0.1461
 2729SOL    HW119649   1.496   0.208   6.447 -0.3898  0.3765 -0.6557
 2729SOL    HW219650   1.501   0.218   6.300  0.9130  0.9349  0.6678
 2730SOL     OW19651   2.388   0.453  15.097 -0.1990  0.1266  0.0740
 2730SOL    HW119652   2.297   0.474  15.115  0.4889  1.6187  1.8274
 2730SOL    HW219653   2.405   0.374  15.149  0.0047 -0.1173 -0.3561
 2731SOL     OW19654   0.543   3.886  13.703 -0.2581  0.7034 -0.2659
 2731SOL    HW119655   0.497   3.959  13.662 -0.0508 -0.0213 -1.8081
 2731SOL    HW219656   0.513   3.906  13.792 -1.0237 -1.0096 -0.1214
 2732SOL     OW19657   2.472   0.337   9.252 -0.4231  0.5927  0.9501
 2732SOL    HW119658   2.441   0.340   9.342  0.5666 -1.6182  1.3786
 2732SOL    HW219659   2.542   0.272   9.262 -0.2512  0.6594  0.2025
 2733SOL     OW19660   2.259   1.893  16.561 -0.3567  0.1816  0.0194
 2733SOL    HW119661   2.190   1.953  16.590 -1.2878 -0.1041 -1.6315
 2733SOL    HW219662   2.220   1.807  16.575 -0.8155  0.5179  0.8195
 2734SOL     OW19663   1.982   2.574  13.648  0.3194 -0.6031 -0.2482
 2734SOL    HW119664   1.932   2.493  13.640  0.5936 -0.9096  0.9786
 2734SOL    HW219665   1.961   2.628  13.573 -0.8315  0.8163  1.0913
 2735SOL     OW19666   4.429   1.567  15.908  0.2737 -0.0918  0.0256
 2735SOL    HW119667   4.419   1.576  15.813 -2.0949  1.1865  0.3869
 2735SOL    HW219668   4.495   1.498  15.909  1.5897  1.1691 -0.5430
 2736SOL     OW19669   1.025   4.304   6.031 -0.4417  0.1816  0.4797
 2736SOL    HW119670   0.988   4.289   5.944 -0.0495 -0.3494  0.4101
 2736SOL    HW219671   1.116   4.283   6.013 -0.0242  0.9234  1.6585
 2737SOL     OW19672   2.023   1.687  10.620  0.0669  0.5487 -0.6446
 2737SOL    HW119673   2.022   1.678  10.525 -1.5654 -1.7638 -0.4051
 2737SOL    HW219674   2.013   1.782  10.624  2.4254  0.7049  1.6310
 2738SOL     OW19675   4.218   1.175   0.960 -0.4492  0.1436  0.3049
 2738SOL    HW119676   4.282   1.221   0.906 -2.5053  1.4782 -0.9700
 2738SOL    HW219677   4.261   1.186   1.045 -0.2707  1.5112  0.0509
 2739SOL     OW19678   3.309   2.220   9.330 -0.3094  0.3902  0.3353
 2739SOL    HW119679   3.373   2.194   9.264 -0.0175  1.8918  0.0384
 2739SOL    HW219680   3.289   2.134   9.368 -0.2392  0.8134  1.3460
 2740SOL     OW19681   2.471   1.425   8.932  0.0256  0.1058  0.0171
 2740SOL    HW119682   2.428   1.503   8.895  0.5826 -0.9729 -2.9456
 2740SOL    HW219683   2.497   1.459   9.017  0.2881  0.8923 -0.3753
 2741SOL     OW19684   2.182   2.839   5.887 -0.5623 -0.3798  0.1970
 2741SOL    HW119685   2.233   2.770   5.846 -1.8233  0.2092 -2.3746
 2741SOL    HW219686   2.105   2.794   5.922  0.0640 -0.7946  1.0342
 2742SOL     OW19687   4.402   2.431   5.086 -0.3254  0.2168 -0.1518
 2742SOL    HW119688   4.413   2.405   5.178  2.8014  2.9593  0.2384
 2742SOL    HW219689   4.495   2.417   5.071 -0.4572 -0.1478 -0.6314
 2743SOL     OW19690   3.559   0.808  14.768 -0.4813  0.5836  0.2466
 2743SOL    HW119691   3.610   0.885  14.745 -0.0596 -0.2220 -1.5237
 2743SOL    HW219692   3.531   0.764  14.688 -1.9459 -0.8365  1.5307
 2744SOL     OW19693   2.463   1.935   1.950 -0.2721 -0.0655  0.4023
 2744SOL    HW119694   2.511   1.963   1.871  3.0434 -1.6193  1.8421
 2744SOL    HW219695   2.501   1.849   1.968 -2.8246 -1.5200 -1.0740
 2745SOL     OW19696   2.470   3.859   1.177  0.2699  0.3671 -0.1996
 2745SOL    HW119697   2.448   3.890   1.265  3.8180  0.9313  0.4594
 2745SOL    HW219698   2.558   3.896   1.179  0.1227  0.6006  2.0408
 2746SOL     OW19699   4.246   0.587   5.205 -0.0954 -0.3059 -0.5166
 2746SOL    HW119700   4.306   0.567   5.276 -1.7590  1.7622  1.4402
 2746SOL    HW219701   4.175   0.522   5.209 -1.3037  1.0353 -0.0218
 2747SOL     OW19702   2.979   0.770   8.052 -0.6445 -0.4037  0.6237
 2747SOL    HW119703   3.043   0.702   8.031 -1.1473 -0.8850  0.6732
 2747SOL    HW219704   2.899   0.720   8.038 -3.2527  2.8960  4.0981
 2748SOL     OW19705   1.623   1.103  13.858 -0.2563 -0.1167 -0.6643
 2748SOL    HW119706   1.593   1.072  13.773  0.3768 -2.7633  0.0686
 2748SOL    HW219707   1.580   1.188  13.868 -1.3083 -0.8122  0.7578
 2749SOL     OW19708   2.699   3.212   1.283  0.6732  0.0921  0.0451
 2749SOL    HW119709   2.725   3.299   1.313  1.2546  0.0431 -0.3097
 2749SOL    HW219710   2.649   3.240   1.207  1.9213 -0.5904 -1.0357
 2750SOL     OW19711   1.416   2.171   5.670  0.5338 -0.0143  0.1922
 2750SOL    HW119712   1.412   2.243   5.607  1.6368  1.1992  1.5360
 2750SOL    HW219713   1.427   2.214   5.754 -0.0479 -0.8990  0.7289
 2751SOL     OW19714   4.546   2.445   4.223  0.1782  0.4687  0.7153
 2751SOL    HW119715   4.593   2.528   4.218  3.0270 -1.3111 -2.3417
 2751SOL    HW219716   4.472   2.454   4.162  0.1242 -0.7756  0.5833
 2752SOL     OW19717   4.298   0.570   8.165 -0.0804  0.6434 -0.3698
 2752SOL    HW119718   4.220   0.520   8.186 -0.0666 -0.0009 -1.8041
 2752SOL    HW219719   4.324   0.583   8.256  0.8743  0.8143 -0.6668
 2753SOL     OW19720   3.634   3.251   8.923  0.6224 -0.6242 -0.6927
 2753SOL    HW119721   3.588   3.211   8.849 -0.4061  0.6261 -0.7281
 2753SOL    HW219722   3.579   3.219   8.994 -0.6426 -1.0229 -1.8386
 2754SOL     OW19723   1.842   1.997  10.843 -0.6216  0.4820  0.5753
 2754SOL    HW119724   1.786   1.919  10.839 -0.9798  0.7408  0.5888
 2754SOL    HW219725   1.860   2.012  10.750  0.0916 -0.8634  0.4981
 2755SOL     OW19726   2.705   2.534   6.042  0.5153  0.4158  0.3565
 2755SOL    HW119727   2.770   2.601   6.021 -0.3705  1.3051  0.4452
 2755SOL    HW219728   2.694   2.485   5.960  0.3302  0.6656  0.2324
 2756SOL     OW19729   4.144   1.042   8.764  0.1937  0.4379 -0.0111
 2756SOL    HW119730   4.236   1.059   8.743 -0.0598 -0.8585 -2.2036
 2756SOL    HW219731   4.116   0.980   8.697  1.4259  0.9151 -0.9712
 2757SOL     OW19732   1.583   4.492   7.598 -0.1200  0.1533 -0.1779
 2757SOL    HW119733   1.547   4.427   7.659 -2.1852  0.7475 -0.7728
 2757SOL    HW219734   1.570   4.459   7.509  1.6721  1.1189 -0.7874
 2758SOL     OW19735   0.155   3.470   5.080 -0.0963  0.4066 -0.2056
 2758SOL    HW119736   0.222   3.502   5.019  1.0483  2.0847  1.9082
 2758SOL    HW219737   0.090   3.540   5.077 -0.5900 -0.0251  0.4783
 2759SOL     OW19738   2.435   2.889   5.488 -0.1760 -0.3937 -0.3030
 2759SOL    HW119739   2.530   2.883   5.481 -0.0419  1.6244 -0.1164
 2759SOL    HW219740   2.429   2.937   5.571 -0.8444  0.9336 -1.1396
 2760SOL     OW19741   4.469   0.925   5.865 -0.6499  0.1983  0.4826
 2760SOL    HW119742   4.402   0.935   5.933 -1.4251  0.5583 -0.3392
 2760SOL    HW219743   4.407   0.890   5.801 -0.2249  0.3224  0.0081
 2761SOL     OW19744   1.102   3.144   4.327 -0.4999 -0.7330  0.4146
 2761SOL    HW119745   1.170   3.192   4.375 -0.5634  0.2577 -0.4760
 2761SOL    HW219746   1.154   3.113   4.252 -1.4268  0.2635 -0.6467
 2762SOL     OW19747   3.725   0.737  11.883 -0.4004 -0.1383 -0.4546
 2762SOL    HW119748   3.757   0.755  11.795  1.2860 -1.0951 -0.0535
 2762SOL    HW219749   3.774   0.808  11.927 -0.7374  0.9190 -1.7909
 2763SOL     OW19750   1.727   0.003   3.439  0.2318 -0.0530  0.2469
 2763SOL    HW119751   1.735   0.000   3.344 -0.7527  0.4971  0.1445
 2763SOL    HW219752   1.657   4.665   3.456 -0.3688  0.3380 -0.8295
 2764SOL     OW19753   2.533   3.466   3.210 -0.3856 -0.6397  0.3666
 2764SOL    HW119754   2.532   3.371   3.196 -0.0551 -0.8768  1.9769
 2764SOL    HW219755   2.438   3.476   3.213 -0.4446 -0.7679 -0.8545
 2765SOL     OW19756   3.616   1.623   8.722  0.4793 -0.0177  0.2961
 2765SOL    HW119757   3.546   1.580   8.673  0.2190  2.8247 -1.7913
 2765SOL    HW219758   3.564   1.667   8.789 -0.1775  1.4535 -1.1697
 2766SOL     OW19759   1.053   1.717   2.947  0.2785 -0.2816 -0.9544
 2766SOL    HW119760   1.070   1.629   2.915  1.4510 -1.3884  2.7009
 2766SOL    HW219761   1.140   1.755   2.957  0.2895  0.2194 -2.9321
 2767SOL     OW19762   1.463   1.178   5.228 -0.4444 -0.1914  0.1999
 2767SOL    HW119763   1.507   1.097   5.254  0.7065 -0.4736 -2.5768
 2767SOL    HW219764   1.508   1.227   5.296 -2.4814  1.4243  0.3847
 2768SOL     OW19765   0.201   2.363   4.352 -0.0722  0.2571  0.2320
 2768SOL    HW119766   0.210   2.442   4.298 -1.5399 -0.2530 -0.7624
 2768SOL    HW219767   0.220   2.397   4.439 -0.4882  0.3289  0.2917
 2769SOL     OW19768   3.746   4.609   9.669  0.0331  0.1506 -0.3016
 2769SOL    HW119769   3.784   4.588   9.584 -0.1396  0.1131 -0.3708
 2769SOL    HW219770   3.808   4.560   9.723 -0.8275  1.2449  1.6935
 2770SOL     OW19771   1.907   3.179   4.811  0.0126  0.2752  0.5254
 2770SOL    HW119772   1.959   3.248   4.769  0.2382  0.7117  1.5276
 2770SOL    HW219773   1.913   3.114   4.740 -1.3159 -0.0486  0.7121
 2771SOL     OW19774   3.758   3.459   0.037 -0.4519  0.1054  0.5322
 2771SOL    HW119775   3.731   3.551   0.035  0.0258  0.2564  0.9050
 2771SOL    HW219776   3.687   3.429   0.094 -1.3924 -1.0626 -1.2585
 2772SOL     OW19777   3.399   1.463   0.779  0.4173 -0.1094  0.1319
 2772SOL    HW119778   3.321   1.517   0.769  0.0840 -0.6248 -0.0826
 2772SOL    HW219779   3.400   1.405   0.702  0.7306 -0.7577  0.6262
 2773SOL     OW19780   2.280   2.779  14.978  0.4349  0.3926 -1.2024
 2773SOL    HW119781   2.353   2.799  15.036 -1.5155 -1.8802  2.0665
 2773SOL    HW219782   2.303   2.688  14.957 -2.1544 -0.7291  0.8577
 2774SOL     OW19783   4.466   2.201   6.474  0.2315  0.1491 -0.7990
 2774SOL    HW119784   4.428   2.124   6.516 -0.9240  0.9406 -0.3999
 2774SOL    HW219785   4.510   2.240   6.550  0.2184  3.8169 -2.6831
 2775SOL     OW19786   3.900   4.031   8.245 -0.3575  0.1080  0.8031
 2775SOL    HW119787   3.891   3.935   8.245 -1.1058  0.1869 -1.7535
 2775SOL    HW219788   3.875   4.052   8.335 -2.0907 -1.3029  0.6669
 2776SOL     OW19789   3.621   2.818   3.373  0.1158  0.1895  0.2156
 2776SOL    HW119790   3.681   2.889   3.394  0.7993 -0.6676  1.1256
 2776SOL    HW219791   3.539   2.843   3.417 -0.3689 -0.2967 -0.4133
 2777SOL     OW19792   1.371   3.362   4.410 -0.3223 -0.1826  0.1140
 2777SOL    HW119793   1.452   3.375   4.460 -1.2399  2.4091  0.9328
 2777SOL    HW219794   1.309   3.408   4.468  0.6535  0.2735  0.8096
 2778SOL     OW19795   4.666   3.187  11.911  0.0828  0.9042  0.2578
 2778SOL    HW119796   4.605   3.177  11.983  0.2154  2.2294  0.5566
 2778SOL    HW219797   4.713   3.266  11.938 -1.9403  2.0044  0.5071
 2779SOL     OW19798   2.545   2.306   9.258 -0.0745 -0.5688  0.1863
 2779SOL    HW119799   2.540   2.397   9.230  1.6042 -1.3357 -2.6015
 2779SOL    HW219800   2.543   2.275   9.167  0.4623 -1.9218  0.6324
 2780SOL     OW19801   3.988   2.390  17.128 -0.2968 -0.2150 -0.3048
 2780SOL    HW119802   3.975   2.478  17.093  1.6438 -0.2422 -1.0635
 2780SOL    HW219803   4.043   2.414  17.202 -0.9315 -0.8679  0.3734
 2781SOL     OW19804   1.398   1.443   3.259  0.0425  0.1259 -0.5598
 2781SOL    HW119805   1.378   1.350   3.258  1.4467 -0.1624 -2.0410
 2781SOL    HW219806   1.494   1.444   3.259  0.0562 -1.7507 -1.0196
 2782SOL     OW19807   2.714   1.195  14.486 -0.0077  0.6832  0.2605
 2782SOL    HW119808   2.728   1.168  14.577  0.2522 -0.0793 -0.0023
 2782SOL    HW219809   2.681   1.121  14.434 -1.5336  0.3648  1.6752
 2783SOL     OW19810   2.561   0.842   3.148  0.2121 -0.4484 -0.6423
 2783SOL    HW119811   2.602   0.757   3.134 -2.0716 -2.0271  2.4001
 2783SOL    HW219812   2.544   0.856   3.055  2.2894  1.8361 -0.6987
 2784SOL     OW19813   2.251   4.271  10.491 -0.8740 -0.2737  0.0661
 2784SOL    HW119814   2.265   4.203  10.557 -0.5932 -0.1563  0.1303
 2784SOL    HW219815   2.274   4.354  10.534  0.5834 -0.0346 -1.1842
 2785SOL     OW19816   3.886   1.322   3.761 -0.0662  0.3118 -0.3126
 2785SOL    HW119817   3.945   1.271   3.706  0.1559  1.3694 -1.0723
 2785SOL    HW219818   3.927   1.405   3.736 -0.3467  0.4822 -0.2191
 2786SOL     OW19819   0.506   0.672   3.365  0.0866  0.3017 -0.5967
 2786SOL    HW119820   0.512   0.596   3.306  2.1760  0.8346 -1.0728
 2786SOL    HW219821   0.591   0.675   3.409  0.1268 -1.0014 -0.5617
 2787SOL     OW19822   0.085   1.586  10.007  0.2840  0.0914  0.0243
 2787SOL    HW119823   0.147   1.517  10.031  0.5806  0.3720  0.0617
 2787SOL    HW219824   0.112   1.628   9.925  0.2763 -0.1454 -0.0986
 2788SOL     OW19825   3.726   2.696   5.214 -0.0697 -0.4615 -0.2485
 2788SOL    HW119826   3.708   2.624   5.153  1.8066  1.2562 -2.7959
 2788SOL    HW219827   3.782   2.648   5.274  1.0595  2.1837  0.8177
 2789SOL     OW19828   2.187   0.948   3.642  0.1996 -0.1811  0.2809
 2789SOL    HW119829   2.252   0.953   3.572 -0.4490  2.0040 -0.1570
 2789SOL    HW219830   2.240   0.891   3.698  2.2631  2.6755  1.2828
 2790SOL     OW19831   1.139   3.345   2.110 -0.2754  0.3976 -0.1540
 2790SOL    HW119832   1.059   3.295   2.095  0.9343 -2.0645  1.4820
 2790SOL    HW219833   1.186   3.289   2.172  1.5428  2.7184  0.5344
 2791SOL     OW19834   0.508   3.465   6.268  0.2522  0.1440  0.4699
 2791SOL    HW119835   0.567   3.393   6.246  0.3459  1.4404 -3.4192
 2791SOL    HW219836   0.474   3.491   6.183  2.8003  1.9866 -0.0036
 2792SOL     OW19837   1.567   3.704  16.848 -0.1310 -0.3820  0.1919
 2792SOL    HW119838   1.503   3.717  16.918 -0.6638 -0.2763 -0.3134
 2792SOL    HW219839   1.641   3.673  16.900 -0.8338  0.1769  1.5195
 2793SOL     OW19840   2.211   0.013   4.177 -0.3613 -0.2514 -0.1471
 2793SOL    HW119841   2.172   4.650   4.180 -0.8140  0.0411  2.2032
 2793SOL    HW219842   2.137   0.073   4.182  0.4885  0.6467  1.5107
 2794SOL     OW19843   3.124   4.607   5.975 -1.0149 -0.5636  0.5527
 2794SOL    HW119844   3.167   4.526   5.947  0.2593  0.8292 -1.4366
 2794SOL    HW219845   3.058   4.621   5.907 -1.1026 -0.1293  0.7314
 2795SOL     OW19846   1.408   1.442  16.805 -0.1719 -0.0379 -0.2262
 2795SOL    HW119847   1.387   1.526  16.764 -2.6096 -0.7048 -0.3803
 2795SOL    HW219848   1.497   1.467  16.827 -0.1059  0.1751 -0.7281
 2796SOL     OW19849   1.085   2.191   5.817  0.6012  0.1188 -0.0055
 2796SOL    HW119850   1.108   2.261   5.756 -0.9530 -2.1916 -3.2396
 2796SOL    HW219851   1.006   2.160   5.773  1.1755  1.0311 -1.6850
 2797SOL     OW19852   3.194   2.240   3.757 -0.3452  0.8766  0.3701
 2797SOL    HW119853   3.117   2.292   3.733  0.2200  0.8040 -1.5935
 2797SOL    HW219854   3.211   2.265   3.848  2.8549 -1.6707  0.4649
 2798SOL     OW19855   3.781   1.489  16.813  0.5480 -0.0177 -0.1266
 2798SOL    HW119856   3.707   1.472  16.872 -0.7029 -0.9304 -1.9628
 2798SOL    HW219857   3.809   1.577  16.841  0.0955 -0.4405  1.6530
 2799SOL     OW19858   3.124   3.559  13.581 -0.2023 -0.2876  0.3764
 2799SOL    HW119859   3.159   3.566  13.670  1.4771 -2.2626 -0.1227
 2799SOL    HW219860   3.097   3.649  13.563  3.0526  0.8070  0.8874
 2800SOL     OW19861   1.097   2.095   5.385 -0.1758 -0.2619  0.4561
 2800SOL    HW119862   1.113   2.164   5.320  2.3089 -0.9552  0.3501
 2800SOL    HW219863   1.170   2.041   5.355 -0.5954 -0.0697 -0.9349
 2801SOL     OW19864   0.033   2.340   5.147 -0.4718  0.9810  0.4096
 2801SOL    HW119865   0.002   2.384   5.068  3.0242  2.8231  0.0414
 2801SOL    HW219866   0.121   2.324   5.112 -0.6038 -0.8887  0.9403
 2802SOL     OW19867   0.768   4.150  16.963  0.0822 -0.0041  1.1344
 2802SOL    HW119868   0.711   4.194  17.025  1.1548  1.9916  0.6849
 2802SOL    HW219869   0.838   4.110  17.014  1.2663 -0.5754 -0.9091
 2803SOL     OW19870   2.361   3.619  15.569  0.0575 -0.4277  0.0474
 2803SOL    HW119871   2.350   3.714  15.560 -0.4110 -0.5279 -0.4327
 2803SOL    HW219872   2.305   3.600  15.644 -1.1477  1.3840 -0.3735
 2804SOL     OW19873   1.721   0.998   6.472  0.0477  0.1255  0.2960
 2804SOL    HW119874   1.721   1.071   6.533 -0.5096 -0.2485  0.7414
 2804SOL    HW219875   1.792   1.026   6.414  0.7957 -0.3341  0.9843
 2805SOL     OW19876   3.541   2.966   0.794 -0.3268  0.9129 -0.3825
 2805SOL    HW119877   3.509   2.915   0.720  0.8409  1.1098 -1.0266
 2805SOL    HW219878   3.582   3.042   0.752 -0.3100  0.1922 -1.6820
 2806SOL     OW19879   2.354   3.123   3.480 -0.2808 -0.2322 -0.2808
 2806SOL    HW119880   2.308   3.192   3.433 -0.6977 -1.7739 -2.1575
 2806SOL    HW219881   2.446   3.150   3.475  0.3707 -2.2910  0.4645
 2807SOL     OW19882   1.498   4.039   9.171  0.0359  0.1863  0.5290
 2807SOL    HW119883   1.456   4.114   9.211  2.8917  0.5800  2.8131
 2807SOL    HW219884   1.573   4.078   9.126  1.2934 -0.8502  1.6971
 2808SOL     OW19885   2.699   2.329  10.728 -0.1996 -0.0641  0.1267
 2808SOL    HW119886   2.663   2.263  10.669 -0.6771  1.6551 -1.4596
 2808SOL    HW219887   2.654   2.312  10.811 -0.6473 -1.3582 -0.3824
 2809SOL     OW19888   1.253   0.544   5.894  0.3585  0.1734 -0.0519
 2809SOL    HW119889   1.183   0.576   5.837  2.3083  0.6792 -2.1676
 2809SOL    HW219890   1.308   0.621   5.910  1.1935 -1.3452  4.2958
 2810SOL     OW19891   4.500   0.651   3.868 -0.4194  1.2366 -0.0207
 2810SOL    HW119892   4.519   0.679   3.958  1.8091 -0.6397  0.0945
 2810SOL    HW219893   4.561   0.714   3.829  0.5792  0.6438  0.5677
 2811SOL     OW19894   3.822   1.506   0.313 -0.0222 -0.3507 -0.2031
 2811SOL    HW119895   3.870   1.572   0.363  1.8344 -3.1421  1.6734
 2811SOL    HW219896   3.873   1.427   0.326  2.5507  1.6729  1.9352
 2812SOL     OW19897   4.317   3.611   8.740 -0.3746 -0.3135  0.8094
 2812SOL    HW119898   4.368   3.676   8.789  0.8017 -0.7475  0.1812
 2812SOL    HW219899   4.325   3.532   8.793  1.2289 -0.7945 -0.1424
 2813SOL     OW19900   1.706   1.836   4.957 -0.5235 -0.3159 -0.3779
 2813SOL    HW119901   1.651   1.903   4.917  1.1049  0.9398 -0.5411
 2813SOL    HW219902   1.777   1.894   4.984 -0.4312  1.2243 -3.9231
 2814SOL     OW19903   1.477   4.215  11.981 -0.0542 -0.1967 -0.3078
 2814SOL    HW119904   1.495   4.268  11.902  0.6550 -0.7673 -0.5251
 2814SOL    HW219905   1.477   4.129  11.939 -1.8011 -0.4180  0.1544
 2815SOL     OW19906   4.276   0.441   1.578 -0.1926 -0.4173 -0.1951
 2815SOL    HW119907   4.353   0.406   1.534 -0.4508 -0.2230 -0.8029
 2815SOL    HW219908   4.241   0.370   1.631  1.0760  0.5997  1.9987
 2816SOL     OW19909   1.406   1.742   8.002  0.1660  0.1113 -0.2053
 2816SOL    HW119910   1.472   1.737   8.071 -3.0648 -1.1128  2.8113
 2816SOL    HW219911   1.377   1.652   7.986 -1.0535  0.8667 -2.1595
 2817SOL     OW19912   3.417   4.008  15.943 -0.3040 -0.1030 -0.0915
 2817SOL    HW119913   3.454   3.921  15.960  2.3778  1.4349  1.8050
 2817SOL    HW219914   3.499   4.053  15.960 -1.0659  1.3889 -0.4226
 2818SOL     OW19915   1.330   2.040  17.059 -0.1545 -0.6324  0.4133
 2818SOL    HW119916   1.338   2.087  17.142  0.3373  0.3503 -0.1999
 2818SOL    HW219917   1.238   2.014  17.059 -0.2492 -0.2972  0.3276
 2819SOL     OW19918   3.789   0.290   0.750  0.1227  0.0533 -0.2558
 2819SOL    HW119919   3.747   0.204   0.749  2.2536 -0.9953  0.2752
 2819SOL    HW219920   3.792   0.297   0.846  0.3036  0.6419 -0.3068
 2820SOL     OW19921   1.359   1.429   3.616 -0.0084  0.0931  0.0586
 2820SOL    HW119922   1.329   1.340   3.633 -1.4935  0.5882  0.0648
 2820SOL    HW219923   1.277   1.471   3.642  1.1566  1.7163  1.0789
 2821SOL     OW19924   0.235   2.675   9.528  0.1422  0.0123  0.2653
 2821SOL    HW119925   0.318   2.699   9.488  1.0332 -2.2668  0.7144
 2821SOL    HW219926   0.182   2.751   9.550 -1.1457 -1.6273  2.9505
 2822SOL     OW19927   1.482   4.290   5.638  0.3772 -0.3424 -0.1473
 2822SOL    HW119928   1.566   4.265   5.676  0.6814 -1.4948 -1.5987
 2822SOL    HW219929   1.481   4.382   5.666 -0.6629 -0.4424  0.1607
 2823SOL     OW19930   3.608   1.308  11.023  0.4573  0.4284 -0.4598
 2823SOL    HW119931   3.626   1.227  10.976 -1.6379 -0.9196  1.0875
 2823SOL    HW219932   3.664   1.292  11.099  3.2336  0.4040 -2.4757
 2824SOL     OW19933   3.381   0.528   7.665 -0.2068 -0.1469 -0.1581
 2824SOL    HW119934   3.290   0.545   7.689  0.7792  2.4559  1.7086
 2824SOL    HW219935   3.411   0.490   7.747  0.1172 -1.5672 -0.9309
 2825SOL     OW19936   0.371   0.901   3.443 -0.6469  0.0081 -0.7498
 2825SOL    HW119937   0.400   0.820   3.402  2.8173  0.9700 -0.1792
 2825SOL    HW219938   0.421   0.966   3.393  0.0071 -1.7235 -2.3540
 2826SOL     OW19939   1.451   3.619   6.581 -0.0587 -0.4680  0.3464
 2826SOL    HW119940   1.523   3.560   6.605  0.0004 -1.1098 -1.3856
 2826SOL    HW219941   1.386   3.581   6.639 -0.0254  0.4543  0.9885
 2827SOL     OW19942   1.143   2.472  12.725  0.3209 -0.5580 -0.2468
 2827SOL    HW119943   1.139   2.504  12.816 -1.2384  1.8473 -1.1494
 2827SOL    HW219944   1.213   2.407  12.720 -0.4740 -1.3252 -1.4306
 2828SOL     OW19945   2.789   1.002  11.520  0.0430  0.8298 -0.0712
 2828SOL    HW119946   2.752   0.925  11.562  1.4173 -0.5961 -1.4803
 2828SOL    HW219947   2.791   0.988  11.425  1.4875  0.4858  0.0007
 2829SOL     OW19948   0.294   1.918   8.489  0.0744  0.1223 -0.1874
 2829SOL    HW119949   0.238   1.890   8.562  2.2314 -3.0174  0.2868
 2829SOL    HW219950   0.330   1.839   8.449 -1.4786 -0.6349 -0.1050
 2830SOL     OW19951   4.018   1.372   1.368  0.0220 -0.2256 -0.1323
 2830SOL    HW119952   3.981   1.434   1.305 -0.7381  0.3451  0.8749
 2830SOL    HW219953   3.949   1.306   1.365 -0.8266  0.6522  0.2329
 2831SOL     OW19954   3.646   0.351   3.279  0.9397  0.1777 -0.2764
 2831SOL    HW119955   3.669   0.263   3.309 -0.2731  0.6263  1.9753
 2831SOL    HW219956   3.697   0.406   3.338 -0.1685  0.5463  0.3497
 2832SOL     OW19957   3.999   0.086   0.580  0.1088 -0.4321  0.1323
 2832SOL    HW119958   3.905   0.104   0.587 -0.0526 -1.8964  1.9504
 2832SOL    HW219959   4.012   0.079   0.485 -0.7526 -1.2829  0.0689
 2833SOL     OW19960   2.001   2.843  10.302 -0.1977  0.3840 -0.8693
 2833SOL    HW119961   1.931   2.902  10.330 -0.9913 -1.6913  1.5177
 2833SOL    HW219962   1.968   2.766  10.348  1.3980  0.7187  0.8496
 2834SOL     OW19963   4.495   0.045   7.979 -0.5401  0.3211 -0.3968
 2834SOL    HW119964   4.507   0.139   7.986 -2.0820  0.4151  0.7789
 2834SOL    HW219965   4.542   0.022   8.059 -0.3051 -0.6332 -0.7977
 2835SOL     OW19966   4.265   0.914  13.679 -0.2566  0.1521  0.1348
 2835SOL    HW119967   4.237   0.983  13.619 -2.8359 -0.9713  0.0263
 2835SOL    HW219968   4.328   0.943  13.745  1.1816  0.5830 -1.4290
 2836SOL     OW19969   4.418   0.558  12.321 -0.1342  0.1370  0.3847
 2836SOL    HW119970   4.486   0.512  12.272 -1.1070  0.9052 -1.6926
 2836SOL    HW219971   4.404   0.639  12.271  0.5650  0.2823  0.4256
 2837SOL     OW19972   1.921   3.802   8.365  0.5921  0.7713  0.4804
 2837SOL    HW119973   1.863   3.751   8.421  1.2923 -1.1750 -0.5850
 2837SOL    HW219974   2.004   3.783   8.408  0.5365  0.6880  0.5492
 2838SOL     OW19975   3.677   3.129   3.190  0.3971  0.1375 -0.6963
 2838SOL    HW119976   3.660   3.127   3.096  0.3827  0.1367 -0.6936
 2838SOL    HW219977   3.670   3.035   3.201  2.1075 -0.0655 -1.2723
 2839SOL     OW19978   4.663   3.981   5.789  0.1490 -0.0446 -0.1006
 2839SOL    HW119979   4.592   3.932   5.831 -1.1036  0.7802 -1.2799
 2839SOL    HW219980   4.640   4.069   5.818  0.0900 -0.4613  1.1272
 2840SOL     OW19981   4.003   4.496  10.919 -0.1595 -0.4006  0.0296
 2840SOL    HW119982   4.002   4.417  10.973  1.2355 -0.9686 -0.7829
 2840SOL    HW219983   3.914   4.488  10.885 -0.7154  1.8190  0.9495
 2841SOL     OW19984   2.176   3.102   3.113 -0.4557 -0.2422  0.2981
 2841SOL    HW119985   2.247   3.080   3.174  0.2914 -2.6264 -1.4433
 2841SOL    HW219986   2.107   3.046   3.148  1.1958 -1.5905  1.3705
 2842SOL     OW19987   2.541   0.733   4.986 -0.1905 -0.3706 -0.0800
 2842SOL    HW119988   2.554   0.780   5.068  0.1816  0.0188 -0.3646
 2842SOL    HW219989   2.507   0.653   5.028 -0.2206  0.8120  2.1452
 2843SOL     OW19990   1.266   0.514  17.120 -0.7321 -0.4443 -0.1185
 2843SOL    HW119991   1.184   0.487  17.079 -1.3435  0.1682  0.7093
 2843SOL    HW219992   1.320   0.507  17.042 -1.6291 -2.7196 -0.5309
 2844SOL     OW19993   0.822   1.884   6.422 -0.7488  0.2954 -0.4755
 2844SOL    HW119994   0.732   1.858   6.402 -1.1776  1.6368 -0.2532
 2844SOL    HW219995   0.834   1.971   6.384  1.3312  0.8412  1.4116
 2845SOL     OW19996   3.919   0.359   5.816 -0.2225 -0.5629 -0.6934
 2845SOL    HW119997   4.009   0.351   5.784  0.6111  0.6801  1.3263
 2845SOL    HW219998   3.891   0.425   5.753 -0.9768 -2.1413 -2.0181
 2846SOL     OW19999   0.585   3.402   5.626 -0.6189 -0.2771 -0.2900
 2846SOL    HW120000   0.673   3.381   5.594 -0.8219  0.6052 -1.4269
 2846SOL    HW220001   0.537   3.325   5.596 -1.6338  0.7316 -1.2205
 2847SOL     OW20002   1.752   3.526  10.464  0.1265  0.3809 -0.2722
 2847SOL    HW120003   1.707   3.515  10.381  0.7108 -1.4546 -0.3523
 2847SOL    HW220004   1.838   3.566  10.452 -0.5301  1.0754 -2.5409
 2848SOL     OW20005   3.738   0.597   7.400 -0.1608 -0.0026  0.0732
 2848SOL    HW120006   3.797   0.523   7.390  1.2522  1.0359  0.8228
 2848SOL    HW220007   3.775   0.640   7.324 -1.3949 -2.0908 -1.7236
 2849SOL     OW20008   0.983   3.976   2.552  0.3099  0.4041  0.0117
 2849SOL    HW120009   0.897   4.004   2.520  0.2987 -0.1424 -0.4329
 2849SOL    HW220010   1.006   4.051   2.606 -0.3253  0.8786 -0.3707
 2850SOL     OW20011   4.689   2.308   0.240 -0.3148 -0.6013  0.6797
 2850SOL    HW120012   4.621   2.295   0.306 -1.4456 -1.1131 -0.5841
 2850SOL    HW220013   0.016   2.227   0.249 -1.1187 -1.0718  1.0326
 2851SOL     OW20014   2.755   0.722  15.847  0.3907 -0.3692 -0.0126
 2851SOL    HW120015   2.771   0.816  15.857  0.6457 -0.7764  3.2504
 2851SOL    HW220016   2.668   0.702  15.883  0.0905 -1.2759 -1.2295
 2852SOL     OW20017   0.786   0.265  10.551  0.3169 -0.3369 -0.5631
 2852SOL    HW120018   0.830   0.197  10.602 -1.6007  0.7374  2.5303
 2852SOL    HW220019   0.737   0.213  10.487  0.1989 -0.2192 -0.5691
 2853SOL     OW20020   1.891   0.875  13.943 -0.0151  0.3631  0.3316
 2853SOL    HW120021   1.903   0.869  13.849 -1.1873  0.5380  0.1687
 2853SOL    HW220022   1.958   0.819  13.982  0.6587  0.6922 -0.3617
 2854SOL     OW20023   4.409   2.183  11.596 -0.1753 -0.1365  0.0789
 2854SOL    HW120024   4.405   2.211  11.505 -2.9795  1.2602  0.6190
 2854SOL    HW220025   4.483   2.228  11.637  0.7119 -1.6897  0.1614
 2855SOL     OW20026   0.875   3.953   8.676 -0.2357  0.0021  0.6415
 2855SOL    HW120027   0.922   4.017   8.622 -0.5718 -0.2520  0.0429
 2855SOL    HW220028   0.789   3.994   8.689 -0.2361 -0.0541  0.8173
 2856SOL     OW20029   3.617   4.612   8.334  0.0203 -0.1768 -0.6613
 2856SOL    HW120030   3.602   4.701   8.364 -0.7162 -0.9216  1.2498
 2856SOL    HW220031   3.677   4.629   8.262  1.6591 -1.5461  0.3807
 2857SOL     OW20032   2.448   4.292   2.003  0.0514  0.2461  0.3863
 2857SOL    HW120033   2.418   4.379   1.976 -0.9892 -0.8133 -1.9356
 2857SOL    HW220034   2.513   4.268   1.937  1.1108 -1.8093  2.1789
 2858SOL     OW20035   2.138   3.319   3.336  0.0701 -0.1946  0.0553
 2858SOL    HW120036   2.159   3.387   3.273 -3.6577 -0.5001 -1.4816
 2858SOL    HW220037   2.044   3.302   3.329  0.2011 -1.3232  1.0029
 2859SOL     OW20038   4.109   1.940  13.981  0.0208 -0.1195 -0.4071
 2859SOL    HW120039   4.045   1.915  13.914  0.9014 -0.6812 -1.0316
 2859SOL    HW220040   4.116   2.035  13.968 -1.8918  0.4454  2.6483
 2860SOL     OW20041   3.616   0.020   9.422  0.6722  0.0175 -0.2218
 2860SOL    HW120042   3.709   0.019   9.445  1.1660  0.7330 -2.1923
 2860SOL    HW220043   3.593   0.112   9.438  1.1793  0.2885 -1.0235
 2861SOL     OW20044   0.044   4.708   4.059 -0.3341  0.1956  0.3128
 2861SOL    HW120045   0.043   4.680   4.150  0.8652  0.3549  0.3784
 2861SOL    HW220046   4.674   4.724   4.049  0.1198  1.7512 -1.5419
 2862SOL     OW20047   4.614   0.904  17.046  0.3009  0.5526 -0.0847
 2862SOL    HW120048   4.606   0.810  17.033 -2.8097  0.7656  0.2872
 2862SOL    HW220049   4.693   0.914  16.992  0.7777 -0.6733  0.3686
 2863SOL     OW20050   4.323   2.343  12.363  0.5164 -0.5228  0.3481
 2863SOL    HW120051   4.263   2.329  12.435  0.4034  0.7216  0.4997
 2863SOL    HW220052   4.312   2.267  12.306 -0.5051  0.3914 -0.6777
 2864SOL     OW20053   3.651   4.112  16.018  0.2397 -0.3560  0.3052
 2864SOL    HW120054   3.686   4.197  15.994 -0.0095  0.3064  2.3020
 2864SOL    HW220055   3.735   4.073  16.043  1.2178  0.7071 -1.3599
 2865SOL     OW20056   1.183   0.513  14.742 -0.5686  0.7728 -0.7356
 2865SOL    HW120057   1.217   0.469  14.820 -1.0167  4.7345  1.6727
 2865SOL    HW220058   1.250   0.481  14.681  0.6941  0.0976  1.0123
 2866SOL     OW20059   0.844   1.889   7.364 -0.1470 -0.3692  0.0231
 2866SOL    HW120060   0.939   1.898   7.372 -0.3781 -0.0596  2.4440
 2866SOL    HW220061   0.831   1.794   7.367 -1.4720 -0.1814 -0.0214
 2867SOL     OW20062   3.977   4.157   2.826 -0.0428  0.2513  0.1444
 2867SOL    HW120063   3.892   4.148   2.870 -1.0603  2.6351 -1.3589
 2867SOL    HW220064   3.994   4.068   2.796  0.5600 -0.1108  1.5328
 2868SOL     OW20065   0.565   2.385   2.377 -0.1504 -0.0155 -1.1912
 2868SOL    HW120066   0.633   2.320   2.398 -2.1151 -1.3534  0.9983
 2868SOL    HW220067   0.539   2.394   2.469 -1.3383 -1.4374 -1.3800
 2869SOL     OW20068   2.001   0.291   4.223  0.3788 -0.4514  0.5253
 2869SOL    HW120069   2.007   0.259   4.313 -0.1349  3.1514  1.8477
 2869SOL    HW220070   1.947   0.225   4.180 -2.4070  3.6255 -2.2045
 2870SOL     OW20071   0.043   0.766   2.271  0.5196 -0.0762 -0.1405
 2870SOL    HW120072   0.009   0.677   2.260 -2.5024  0.9410  1.1218
 2870SOL    HW220073   0.032   0.774   2.365 -2.2189  1.0678 -0.5626
 2871SOL     OW20074   2.948   1.187  11.105 -0.1738  0.3348 -0.0515
 2871SOL    HW120075   2.856   1.161  11.104  0.0971 -0.6333  0.6068
 2871SOL    HW220076   2.943   1.283  11.102  0.3992  0.3566 -0.3066
 2872SOL     OW20077   0.817   4.601   0.354 -0.1023 -0.3406 -0.7780
 2872SOL    HW120078   0.814   4.538   0.426 -1.2850 -1.0804 -1.4674
 2872SOL    HW220079   0.861   4.675   0.396 -2.5014 -0.1823  1.4697
 2873SOL     OW20080   3.105   2.691   7.115 -0.2082 -0.3575 -0.1323
 2873SOL    HW120081   3.106   2.596   7.103 -0.7869 -0.3959  0.0901
 2873SOL    HW220082   3.126   2.696   7.208  0.1810  0.2985 -0.2608
 2874SOL     OW20083   2.458   2.768   8.695  0.6985  0.1410  0.5890
 2874SOL    HW120084   2.470   2.860   8.670 -0.6119  0.4908  1.2828
 2874SOL    HW220085   2.486   2.776   8.786  0.7366 -0.8604  0.6696
 2875SOL     OW20086   4.720   0.363   6.094 -0.6085 -0.8722 -0.5953
 2875SOL    HW120087   0.072   0.414   6.065 -0.7657 -1.3258 -1.8181
 2875SOL    HW220088   4.687   0.341   6.007 -2.8419  1.9523 -0.4566
 2876SOL     OW20089   4.089   1.301   4.898 -0.3637  0.1147 -0.2372
 2876SOL    HW120090   4.045   1.334   4.977 -1.8318 -1.2800 -0.4671
 2876SOL    HW220091   4.118   1.217   4.934 -2.4273 -0.8781 -0.9073
 2877SOL     OW20092   4.528   2.731  13.875 -0.0422  0.3173 -0.5328
 2877SOL    HW120093   4.503   2.683  13.955  2.0499 -0.2802 -0.2373
 2877SOL    HW220094   4.582   2.804  13.905  0.6940  0.6796 -2.7712
 2878SOL     OW20095   4.059   3.557   8.711  0.2532  0.3404  0.1687
 2878SOL    HW120096   4.067   3.480   8.767  1.6724  1.6155  1.7003
 2878SOL    HW220097   4.137   3.607   8.736  1.1838 -2.3364  2.5906
 2879SOL     OW20098   1.754   3.780   6.869  0.2610 -0.2001 -0.0536
 2879SOL    HW120099   1.764   3.745   6.958  1.2128  1.1069  0.3526
 2879SOL    HW220100   1.768   3.698   6.820  1.1707 -0.6345  0.9278
 2880SOL     OW20101   4.179   3.998   1.488  0.2872 -0.3161 -0.3030
 2880SOL    HW120102   4.265   4.024   1.455 -1.2131  2.9302 -1.6875
 2880SOL    HW220103   4.167   3.912   1.448  1.1586 -0.4695 -0.2421
 2881SOL     OW20104   1.259   1.488   3.918 -0.1744  0.5390 -0.4198
 2881SOL    HW120105   1.246   1.485   4.013 -0.3890  1.0827 -0.4301
 2881SOL    HW220106   1.172   1.468   3.885 -0.1322  0.6152 -0.5802
 2882SOL     OW20107   1.481   3.623   9.088  0.2836 -0.2018 -0.0332
 2882SOL    HW120108   1.561   3.651   9.133 -0.5751  1.6929  0.2865
 2882SOL    HW220109   1.439   3.705   9.061 -0.2890 -0.8292 -1.0636
 2883SOL     OW20110   0.825   3.180   3.125  0.0209  0.1624 -0.4943
 2883SOL    HW120111   0.868   3.115   3.070 -0.3429  0.3428 -0.9955
 2883SOL    HW220112   0.823   3.121   3.200 -1.3675  0.3446 -0.3893
 2884SOL     OW20113   4.016   1.134  11.405  0.3414 -0.4747 -0.2197
 2884SOL    HW120114   4.057   1.064  11.353 -0.7202  1.0903 -3.1915
 2884SOL    HW220115   3.927   1.104  11.426  0.8617 -1.4583  0.5940
 2885SOL     OW20116   3.904   3.353   2.783  0.3644  0.2091 -1.0626
 2885SOL    HW120117   3.973   3.408   2.745 -0.9710  1.5925 -1.4886
 2885SOL    HW220118   3.950   3.272   2.761 -2.4617 -2.1123  1.5262
 2886SOL     OW20119   0.392   0.435  10.111 -0.0115  0.5838 -0.1884
 2886SOL    HW120120   0.439   0.442  10.194  0.0525 -3.9685  0.1683
 2886SOL    HW220121   0.371   0.342  10.123  0.2394  0.4854 -0.5006
 2887SOL     OW20122   4.235   2.759   4.052 -0.1596  0.2234  0.3280
 2887SOL    HW120123   4.272   2.716   3.975  0.5725  0.3950  0.5778
 2887SOL    HW220124   4.161   2.805   4.012  0.0709  0.0489 -0.3032
 2888SOL     OW20125   0.737   0.035   3.638 -0.7805 -0.3217 -0.2067
 2888SOL    HW120126   0.820   0.007   3.675 -1.0188 -0.0118  0.5632
 2888SOL    HW220127   0.763   0.127   3.630 -0.3029 -0.4694 -0.3439
 2889SOL     OW20128   3.992   0.639   1.783  0.2953 -0.0949  0.7483
 2889SOL    HW120129   4.005   0.664   1.875 -1.1858  2.0367  0.3746
 2889SOL    HW220130   4.039   0.711   1.740 -0.2379  0.6937  1.4966
 2890SOL     OW20131   1.213   4.626   6.329  0.3467  0.6654 -0.0219
 2890SOL    HW120132   1.294   4.653   6.287  0.7309 -0.8555 -0.2684
 2890SOL    HW220133   1.231   4.647   6.420 -0.5060  3.8851 -0.6205
 2891SOL     OW20134   0.161   1.268   2.438  0.0689  0.1351 -0.8156
 2891SOL    HW120135   0.149   1.174   2.431 -1.9106  0.2581  0.8645
 2891SOL    HW220136   0.184   1.274   2.345 -1.6726 -0.0632 -1.2682
 2892SOL     OW20137   1.948   2.181   9.126  0.1369 -0.6732  0.2525
 2892SOL    HW120138   1.957   2.086   9.116  0.3906 -0.3527 -2.4945
 2892SOL    HW220139   1.867   2.201   9.079  0.7235  1.9505  0.3924
 2893SOL     OW20140   3.556   1.775  12.364  0.9539 -0.1976 -0.2818
 2893SOL    HW120141   3.513   1.700  12.323  0.8808 -0.5271  0.3911
 2893SOL    HW220142   3.500   1.804  12.436  0.2078  1.9465 -1.7455
 2894SOL     OW20143   1.481   0.374   3.699 -0.5047 -0.3923 -0.4059
 2894SOL    HW120144   1.552   0.439   3.702  0.9373 -1.9641 -0.3959
 2894SOL    HW220145   1.525   0.297   3.662  0.3737 -0.9224  1.7591
 2895SOL     OW20146   2.547   0.869   6.679  0.1949 -0.2175 -0.3193
 2895SOL    HW120147   2.573   0.860   6.770 -0.5404 -1.3431 -0.2082
 2895SOL    HW220148   2.453   0.870   6.697  0.2671 -0.6986  0.0738
 2896SOL     OW20149   2.371   1.509  13.895  0.1297  0.8569 -0.1084
 2896SOL    HW120150   2.463   1.492  13.913 -0.6422 -2.6372  0.5719
 2896SOL    HW220151   2.349   1.443  13.829  0.7274  0.3036  0.2566
 2897SOL     OW20152   4.148   2.406  11.627 -0.3279 -0.3067 -0.1859
 2897SOL    HW120153   4.182   2.487  11.588  0.1943  0.0889  1.0988
 2897SOL    HW220154   4.083   2.445  11.686  1.9034 -0.5165  2.3911
 2898SOL     OW20155   2.775   3.556   5.436  0.0142 -0.6442  0.0716
 2898SOL    HW120156   2.796   3.633   5.383  2.0771 -0.5723  0.9961
 2898SOL    HW220157   2.822   3.485   5.392 -1.5700 -2.1900  0.9044
 2899SOL     OW20158   4.063   2.371   3.214 -0.3129 -0.1127 -0.3358
 2899SOL    HW120159   4.043   2.280   3.191 -1.7010 -0.1419  0.9477
 2899SOL    HW220160   3.992   2.423   3.176 -1.9335 -2.2737 -0.3439
 2900SOL     OW20161   1.747   2.407  15.920 -0.2951 -0.0087  0.1347
 2900SOL    HW120162   1.771   2.357  15.841  0.7146 -0.1511  0.5329
 2900SOL    HW220163   1.816   2.471  15.902  0.3079 -0.4415  0.9305
 2901SOL     OW20164   1.334   3.262   7.187  0.1335 -0.3233  0.0110
 2901SOL    HW120165   1.268   3.206   7.144 -0.9668  2.0548 -1.3588
 2901SOL    HW220166   1.352   3.236   7.278  0.1141 -1.2724 -0.2518
 2902SOL     OW20167   2.349   3.721   1.478 -0.0333 -0.3364 -0.0045
 2902SOL    HW120168   2.421   3.760   1.429 -1.1782  0.2958 -1.1986
 2902SOL    HW220169   2.376   3.732   1.569 -1.0161 -3.6377  0.6803
 2903SOL     OW20170   0.936   0.369  11.312  0.2931 -0.1808  0.1858
 2903SOL    HW120171   0.981   0.295  11.271 -1.0775 -0.5027 -0.7328
 2903SOL    HW220172   1.008   0.424  11.343  0.5275 -0.4025  0.0371
 2904SOL     OW20173   3.162   1.759   3.192 -0.4872 -0.8533 -0.2881
 2904SOL    HW120174   3.255   1.781   3.183 -0.7135 -0.5813 -1.9419
 2904SOL    HW220175   3.131   1.790   3.107 -0.4266 -3.3344 -1.2372
 2905SOL     OW20176   2.065   4.345   9.343 -0.6816  0.3314  0.2353
 2905SOL    HW120177   2.067   4.441   9.348 -0.6833  0.1830  3.4204
 2905SOL    HW220178   1.975   4.337   9.376 -0.3828 -1.9788  0.4919
 2906SOL     OW20179   2.804   3.888   6.080  0.2177 -0.3319 -0.2822
 2906SOL    HW120180   2.750   3.844   6.014 -0.1934 -0.4925  0.1677
 2906SOL    HW220181   2.797   3.821   6.148 -1.9602  1.8109  1.5542
 2907SOL     OW20182   2.147   2.282   1.602 -0.1330  0.1493  0.0959
 2907SOL    HW120183   2.154   2.374   1.628 -1.5548  0.6417 -1.3027
 2907SOL    HW220184   2.100   2.255   1.681 -3.1397  1.6984 -1.1912
 2908SOL     OW20185   4.182   1.735  11.881 -0.0562  0.0921 -1.2760
 2908SOL    HW120186   4.178   1.664  11.816  1.2756 -0.3771 -0.8615
 2908SOL    HW220187   4.199   1.694  11.966  0.5209  0.8914 -1.0047
 2909SOL     OW20188   3.616   0.585   2.991 -0.1821  0.6023  0.0378
 2909SOL    HW120189   3.597   0.590   3.085  1.6342  1.0561  0.3785
 2909SOL    HW220190   3.691   0.526   2.996  0.1980  1.0135 -0.7814
 2910SOL     OW20191   2.869   4.607   5.795  0.5437 -0.1539  0.1560
 2910SOL    HW120192   2.803   4.537   5.797 -0.9780  1.2463 -0.4173
 2910SOL    HW220193   2.912   4.583   5.714  0.1334 -1.6877  0.4000
 2911SOL     OW20194   1.200   2.280   3.086 -0.0474 -0.1956 -0.2165
 2911SOL    HW120195   1.276   2.314   3.132  0.3787 -2.9563  1.1430
 2911SOL    HW220196   1.215   2.190   3.114  1.4244 -0.3699 -1.5803
 2912SOL     OW20197   0.733   1.252   6.694 -0.2639 -0.3295 -0.6351
 2912SOL    HW120198   0.814   1.241   6.644  1.1837  3.1042  0.9081
 2912SOL    HW220199   0.681   1.175   6.675  0.0007 -0.3955 -1.0874
 2913SOL     OW20200   1.415   3.930   5.051 -0.8232  0.3141  0.2173
 2913SOL    HW120201   1.360   4.003   5.022 -0.0929  0.1614 -1.5783
 2913SOL    HW220202   1.433   3.945   5.143 -0.1329 -0.6337  0.2363
 2914SOL     OW20203   0.152   0.573  10.160  0.5657 -0.0736 -0.5625
 2914SOL    HW120204   0.235   0.531  10.140  0.1481 -0.0895 -2.2622
 2914SOL    HW220205   0.174   0.586  10.252 -1.4117  0.7408 -0.1950
 2915SOL     OW20206   1.719   2.908  17.307 -0.2278 -0.4399 -0.1526
 2915SOL    HW120207   1.721   2.916  17.403 -0.1283  2.2068 -0.3686
 2915SOL    HW220208   1.809   2.878  17.295  0.9967  3.4579 -0.7582
 2916SOL     OW20209   2.350   1.757  11.821  0.2746  0.0896  0.0665
 2916SOL    HW120210   2.264   1.746  11.860 -0.4680  1.3226 -1.2256
 2916SOL    HW220211   2.325   1.811  11.746 -3.0412 -4.7251 -2.3059
 2917SOL     OW20212   2.115   2.402   8.158 -0.0191 -0.2850  0.4697
 2917SOL    HW120213   2.134   2.323   8.107  0.5228 -0.4338  0.9062
 2917SOL    HW220214   2.112   2.365   8.246  0.7851  0.5797  0.8627
 2918SOL     OW20215   0.638   1.009   6.122 -0.6986  0.5428 -0.0099
 2918SOL    HW120216   0.593   1.077   6.072  1.4379  1.5291 -0.5950
 2918SOL    HW220217   0.730   1.026   6.100 -0.6722 -0.2495 -0.4888
 2919SOL     OW20218   1.900   0.650   3.478 -0.0645 -0.0073 -0.0722
 2919SOL    HW120219   1.870   0.669   3.389  0.8640 -0.1338 -0.4217
 2919SOL    HW220220   1.881   0.733   3.521  0.9742  0.3301 -0.2583
 2920SOL     OW20221   4.371   1.160   3.580 -0.3564  1.2429  0.1103
 2920SOL    HW120222   4.454   1.119   3.601 -1.4621 -1.9292 -1.7597
 2920SOL    HW220223   4.336   1.174   3.668 -0.1156  0.3051  0.3447
 2921SOL     OW20224   3.422   0.068   2.612  0.5620  0.1756 -0.4384
 2921SOL    HW120225   3.463   0.065   2.526 -1.7576 -0.0819 -1.5362
 2921SOL    HW220226   3.483   0.003   2.649 -1.3819 -1.3488  0.1109
 2922SOL     OW20227   0.212   3.859   4.773 -0.1403 -0.1408  0.0805
 2922SOL    HW120228   0.251   3.777   4.803  1.2469  1.1094  1.7109
 2922SOL    HW220229   0.257   3.910   4.841  0.6949  0.5637 -0.9939
 2923SOL     OW20230   0.709   2.618  11.389  0.0631  0.0584 -0.1805
 2923SOL    HW120231   0.708   2.698  11.336  0.4607  0.6201  0.6561
 2923SOL    HW220232   0.772   2.633  11.459 -0.1210  0.2226 -0.0492
 2924SOL     OW20233   3.894   1.529   1.150  0.1907 -0.2258  0.3199
 2924SOL    HW120234   3.803   1.503   1.133 -0.1031  0.2844  1.0877
 2924SOL    HW220235   3.931   1.477   1.079 -0.1293 -1.3262  0.9572
 2925SOL     OW20236   0.916   1.460   3.309 -0.3744  0.2133  0.4202
 2925SOL    HW120237   0.982   1.448   3.377  0.0782 -0.9299 -0.2169
 2925SOL    HW220238   0.934   1.544   3.266 -0.7710  0.6700  1.1588
 2926SOL     OW20239   1.782   3.339   8.528 -0.1710  0.5182 -0.0444
 2926SOL    HW120240   1.835   3.352   8.449  0.5726  2.2600  0.7413
 2926SOL    HW220241   1.817   3.403   8.590  1.2943  0.9365 -1.2966
 2927SOL     OW20242   1.512   2.678  12.387  0.1753 -0.4908  0.2830
 2927SOL    HW120243   1.443   2.638  12.333 -0.8129 -0.5823  1.6250
 2927SOL    HW220244   1.461   2.715  12.459  0.4373 -0.7200  0.5847
 2928SOL     OW20245   3.346   2.478   0.689  0.2101 -0.1500 -0.2920
 2928SOL    HW120246   3.427   2.525   0.711  1.4156 -3.0970  1.5152
 2928SOL    HW220247   3.304   2.500   0.772 -0.5985 -1.1946 -0.4370
 2929SOL     OW20248   4.173   1.223   9.308 -0.0513 -0.2975  0.1512
 2929SOL    HW120249   4.161   1.156   9.375 -2.6232 -2.3184 -2.2984
 2929SOL    HW220250   4.078   1.231   9.294  0.0422 -0.5259 -0.6026
 2930SOL     OW20251   4.481   0.335   4.664  0.1250  0.5280 -0.4430
 2930SOL    HW120252   4.398   0.307   4.626  0.2746 -0.0360 -0.3563
 2930SOL    HW220253   4.509   0.250   4.698 -0.5840  0.8441  0.9326
 2931SOL     OW20254   2.534   0.224   2.518  0.1364 -0.2623 -0.2084
 2931SOL    HW120255   2.442   0.200   2.519  0.4031 -1.2641  0.2556
 2931SOL    HW220256   2.564   0.167   2.589 -1.0407 -0.1597  0.3644
 2932SOL     OW20257   1.117   4.087   9.793  0.1528 -0.4708  0.1618
 2932SOL    HW120258   1.147   3.999   9.817 -0.6209 -0.8574 -0.3130
 2932SOL    HW220259   1.098   4.116   9.882 -0.1321  3.9742 -1.3296
 2933SOL     OW20260   3.515   1.031   9.771  0.1833  0.0025 -0.2019
 2933SOL    HW120261   3.575   0.996   9.705  2.6503 -2.9618  3.6453
 2933SOL    HW220262   3.474   1.098   9.716  0.5691  0.5483  0.1672
 2934SOL     OW20263   3.127   3.556   8.559 -0.3105 -0.1371  0.5275
 2934SOL    HW120264   3.118   3.562   8.464 -0.4451 -1.1104  0.4791
 2934SOL    HW220265   3.197   3.619   8.576  1.3454 -1.4266 -1.6108
 2935SOL     OW20266   1.935   4.410   3.366  0.5860 -0.6244 -0.2133
 2935SOL    HW120267   2.011   4.354   3.351  0.8498 -0.2202 -0.3738
 2935SOL    HW220268   1.979   4.478   3.416  1.1566 -0.1087 -1.4439
 2936SOL     OW20269   4.547   2.028  13.012 -0.4364  0.0040  0.4167
 2936SOL    HW120270   4.484   1.960  12.987 -0.6400  0.6992 -0.9947
 2936SOL    HW220271   4.621   1.988  13.057  1.5109  2.2574 -0.7839
 2937SOL     OW20272   4.628   4.281  16.481  0.6230  0.5117 -0.1970
 2937SOL    HW120273   4.710   4.235  16.503  0.9430  1.3349  0.3262
 2937SOL    HW220274   4.650   4.373  16.492 -1.4094  1.1800 -1.7781
 2938SOL     OW20275   2.543   1.915   4.322  0.1869  0.0571 -0.3013
 2938SOL    HW120276   2.484   1.889   4.393  2.0082 -0.3705  1.0724
 2938SOL    HW220277   2.503   1.995   4.288 -1.5650 -0.8905 -0.4534
 2939SOL     OW20278   4.260   2.934   2.012  0.0570  0.1587 -0.2997
 2939SOL    HW120279   4.301   2.911   2.095 -3.5232  0.3961  1.5146
 2939SOL    HW220280   4.335   2.969   1.963  0.6976 -1.9546 -0.8113
 2940SOL     OW20281   1.994   1.184  13.962 -0.3686  0.1435  0.2673
 2940SOL    HW120282   2.030   1.264  14.000 -2.2351 -0.8421  4.1389
 2940SOL    HW220283   2.039   1.179  13.878 -0.1389  1.3306  0.3128
 2941SOL     OW20284   2.004   1.034   9.920 -0.1770 -0.4555 -0.3362
 2941SOL    HW120285   2.091   1.017   9.883 -0.4899  3.0831 -2.7221
 2941SOL    HW220286   2.012   1.129   9.929 -0.4798 -0.7094  2.4723
 2942SOL     OW20287   2.711   3.229   5.615  0.0908  0.3961  0.8464
 2942SOL    HW120288   2.706   3.239   5.520  1.1045 -0.2805  0.7175
 2942SOL    HW220289   2.777   3.160   5.621  0.5165  0.4722 -3.1092
 2943SOL     OW20290   2.535   1.478  15.857 -0.4979  0.3582 -0.1550
 2943SOL    HW120291   2.602   1.510  15.797  0.0420  0.5100  0.5326
 2943SOL    HW220292   2.476   1.554  15.864  0.5115  1.0496  0.9138
 2944SOL     OW20293   0.661   0.997   8.429  0.4732  0.1786  0.4584
 2944SOL    HW120294   0.713   1.007   8.508  0.7402 -1.9732  0.5730
 2944SOL    HW220295   0.642   0.905   8.448  1.2459  0.5557  3.0108
 2945SOL     OW20296   2.372   4.003   4.043 -0.2523 -0.3759  0.2795
 2945SOL    HW120297   2.414   4.085   4.018 -0.8883 -0.0300  0.3532
 2945SOL    HW220298   2.428   3.976   4.116  2.0725 -0.8190 -1.6348
 2946SOL     OW20299   0.108   1.546  15.440  0.1689 -0.3179 -0.2092
 2946SOL    HW120300   0.094   1.507  15.527 -0.8870 -0.2492 -0.3411
 2946SOL    HW220301   0.028   1.518  15.395 -0.0010 -2.9675  1.7389
 2947SOL     OW20302   0.737   2.105   7.494 -0.2692  0.1471  0.0113
 2947SOL    HW120303   0.781   2.021   7.481  0.3829  0.4513  0.2935
 2947SOL    HW220304   0.703   2.095   7.583  1.4892 -1.9461  0.4598
 2948SOL     OW20305   0.474   1.106   8.082 -0.3203  0.4577  0.9928
 2948SOL    HW120306   0.413   1.167   8.039 -1.4570 -1.4237 -0.0654
 2948SOL    HW220307   0.516   1.073   8.003 -1.3567  1.0364  0.2034
 2949SOL     OW20308   3.493   3.957   9.095  0.3686 -0.1225 -0.4279
 2949SOL    HW120309   3.488   4.048   9.066 -0.7744 -0.1024 -0.1606
 2949SOL    HW220310   3.404   3.930   9.117 -0.1354  0.6521 -1.5014
 2950SOL     OW20311   0.089   3.471   0.803 -0.3601 -0.4562  0.1424
 2950SOL    HW120312   0.146   3.397   0.782 -0.2389  0.1348 -1.5789
 2950SOL    HW220313   0.017   3.439   0.858  1.1136 -0.5708  2.0318
 2951SOL     OW20314   0.887   0.796   4.749 -0.0233 -0.2190  0.1028
 2951SOL    HW120315   0.807   0.773   4.701  0.1258 -1.8131  0.6273
 2951SOL    HW220316   0.914   0.878   4.707 -0.5551 -0.0406  0.1000
 2952SOL     OW20317   0.302   2.951  12.565 -0.1095 -0.4956 -0.3017
 2952SOL    HW120318   0.245   2.909  12.501  0.0954 -1.7185  0.3136
 2952SOL    HW220319   0.248   2.952  12.644  1.5217  4.6573  0.7666
 2953SOL     OW20320   1.494   1.279   5.580 -0.1286 -0.3706  0.1039
 2953SOL    HW120321   1.565   1.281   5.517 -0.5087  3.0689 -0.2241
 2953SOL    HW220322   1.522   1.198   5.623  0.9769 -1.1917 -2.1798
 2954SOL     OW20323   4.271   2.327  10.102  0.3255  0.3553 -0.1802
 2954SOL    HW120324   4.273   2.232  10.086 -1.6698 -0.0231  1.8004
 2954SOL    HW220325   4.281   2.360  10.013 -0.2518  0.9130 -0.0374
 2955SOL     OW20326   1.837   4.356  11.773 -0.4494 -0.1090 -0.0113
 2955SOL    HW120327   1.802   4.415  11.707  0.3815 -1.1473 -1.3942
 2955SOL    HW220328   1.905   4.316  11.718  0.8738 -1.9636  2.9893
 2956SOL     OW20329   2.853   2.215   3.156  0.6505 -0.2450 -0.3209
 2956SOL    HW120330   2.769   2.237   3.115  0.3790 -2.1226 -0.7605
 2956SOL    HW220331   2.852   2.289   3.216 -0.5799  0.1303 -0.8021
 2957SOL     OW20332   1.122   3.990   9.004 -0.4906  0.3161  0.0367
 2957SOL    HW120333   1.038   4.023   8.973 -0.4535  2.3273  2.0851
 2957SOL    HW220334   1.097   3.898   9.002  1.7184 -0.3538  1.8855
 2958SOL     OW20335   0.522   3.063   9.381  0.1806 -0.3205  0.3734
 2958SOL    HW120336   0.617   3.070   9.378  0.1163  0.7548  0.8931
 2958SOL    HW220337   0.504   3.102   9.295 -2.4120  0.1240  1.1226
 2959SOL     OW20338   4.572   3.070   1.608 -0.2370  0.0893  0.2445
 2959SOL    HW120339   4.580   3.166   1.613 -3.2141  0.4396 -1.1254
 2959SOL    HW220340   4.661   3.047   1.583 -0.5267  1.0789 -1.7268
 2960SOL     OW20341   4.536   2.219  15.965  0.8286  0.0892  0.1522
 2960SOL    HW120342   4.600   2.156  15.997  0.7540  0.8528  1.7810
 2960SOL    HW220343   4.567   2.221  15.874 -2.9071 -2.5930 -1.2195
 2961SOL     OW20344   0.724   4.666   7.775  0.2549  0.1371 -0.1846
 2961SOL    HW120345   0.658   4.717   7.822  0.0063 -1.6079  1.3665
 2961SOL    HW220346   0.666   4.604   7.731 -0.7029  0.4055  0.7039
 2962SOL     OW20347   2.389   2.587   4.697 -0.1318 -0.2083 -0.7217
 2962SOL    HW120348   2.416   2.647   4.628  0.8583  2.5839  2.0719
 2962SOL    HW220349   2.425   2.504   4.667  0.6107 -0.4248  0.7524
 2963SOL     OW20350   2.944   3.473   8.039  0.1811 -0.4278  0.4164
 2963SOL    HW120351   2.853   3.459   8.066 -0.4462  0.8745 -0.9782
 2963SOL    HW220352   2.936   3.458   7.944 -0.6460 -3.5784  0.9942
 2964SOL     OW20353   2.351   4.571   7.248 -0.4116  0.1894  0.2137
 2964SOL    HW120354   2.330   4.576   7.154 -0.8299 -1.3832  0.2188
 2964SOL    HW220355   2.265   4.551   7.284  0.2308 -1.4840  0.8347
 2965SOL     OW20356   1.855   4.036   4.812 -0.5969  0.4792  0.6013
 2965SOL    HW120357   1.774   4.005   4.772  0.7691 -0.7094 -1.2525
 2965SOL    HW220358   1.867   3.981   4.890 -1.7210 -0.0464  0.3937
 2966SOL     OW20359   4.698   2.295   2.549 -0.0588 -0.4841 -0.7128
 2966SOL    HW120360   0.028   2.303   2.470  1.3383 -1.5083  0.1343
 2966SOL    HW220361   4.698   2.387   2.575 -1.0938 -1.1548  1.6075
 2967SOL     OW20362   0.929   4.683  10.364 -0.0235 -0.0943 -0.0349
 2967SOL    HW120363   0.887   0.041  10.336 -1.1382 -0.7527 -0.3094
 2967SOL    HW220364   0.937   4.696  10.459  0.3644  0.7436 -0.1801
 2968SOL     OW20365   3.108   1.933   5.153  0.2161  0.3053 -0.7582
 2968SOL    HW120366   3.191   1.893   5.181  0.2524 -0.2845 -1.7308
 2968SOL    HW220367   3.056   1.853   5.148 -1.2572  0.8903  4.4281
 2969SOL     OW20368   1.864   1.352   1.336 -0.0880  1.1163 -0.0149
 2969SOL    HW120369   1.878   1.435   1.382  1.5177  1.4818 -1.1400
 2969SOL    HW220370   1.769   1.353   1.344 -0.0141 -0.0838  1.0640
 2970SOL     OW20371   3.911   4.310  12.128 -0.0685  0.1653 -0.2253
 2970SOL    HW120372   3.821   4.340  12.114  0.9290  2.5198 -1.6263
 2970SOL    HW220373   3.935   4.262  12.049  0.1032  0.3437 -0.2816
 2971SOL     OW20374   3.954   4.640   5.814  0.1231  0.3250  0.5083
 2971SOL    HW120375   4.049   4.650   5.806  0.0379  2.5096  2.1333
 2971SOL    HW220376   3.943   4.574   5.883 -0.7625  1.6005  1.5770
 2972SOL     OW20377   3.608   0.470   5.264 -0.4280 -0.1933 -0.2843
 2972SOL    HW120378   3.674   0.434   5.204  0.5334  2.2202 -0.6711
 2972SOL    HW220379   3.537   0.474   5.201  0.5441 -2.8416 -1.5755
 2973SOL     OW20380   4.402   1.021  16.685 -0.2846 -0.0686  0.0194
 2973SOL    HW120381   4.343   0.945  16.681 -0.6151  0.0987  1.6706
 2973SOL    HW220382   4.364   1.072  16.614 -1.3508 -0.8650  0.0135
 2974SOL     OW20383   4.265   1.879   1.088  0.1362 -0.2496  0.2740
 2974SOL    HW120384   4.305   1.844   1.008 -1.4441  2.4454 -1.6836
 2974SOL    HW220385   4.223   1.806   1.133  1.0868 -0.0381  1.4950
 2975SOL     OW20386   4.344   1.519   9.648 -0.5590  0.2690  0.8704
 2975SOL    HW120387   4.324   1.436   9.692 -0.8537 -0.3588 -0.4353
 2975SOL    HW220388   4.300   1.579   9.707 -1.1428  0.8914 -0.1910
 2976SOL     OW20389   4.226   0.802   2.288  0.0632 -0.2162  0.4658
 2976SOL    HW120390   4.150   0.789   2.345 -0.0341 -1.0034  0.1614
 2976SOL    HW220391   4.291   0.779   2.355 -0.0217 -0.3890  0.4886
 2977SOL     OW20392   4.157   1.698   4.817 -0.0804 -0.3118 -0.3437
 2977SOL    HW120393   4.083   1.746   4.853  0.6760  0.9295 -0.4414
 2977SOL    HW220394   4.118   1.612   4.803 -0.1695 -0.0527 -1.7366
 2978SOL     OW20395   2.846   0.431   0.638  0.1117 -0.3379  0.1557
 2978SOL    HW120396   2.808   0.393   0.718 -2.8332  1.3958 -0.4258
 2978SOL    HW220397   2.825   0.354   0.585 -2.3833 -0.2223  0.9769
 2979SOL     OW20398   0.311   2.055  10.828  0.1672 -0.0105 -0.0337
 2979SOL    HW120399   0.289   2.034  10.738 -0.9323  0.9517  0.0106
 2979SOL    HW220400   0.358   1.975  10.852  2.1710  0.5164 -2.2089
 2980SOL     OW20401   0.077   1.113  16.770 -1.2192 -0.2355  0.2866
 2980SOL    HW120402   0.042   1.171  16.702 -0.5131  1.7282  1.6089
 2980SOL    HW220403   0.016   1.040  16.777 -1.5623  0.3540  3.5364
 2981SOL     OW20404   3.698   0.687   4.236  0.1949  0.1508 -0.2618
 2981SOL    HW120405   3.627   0.747   4.256  0.2234  0.4870 -1.1826
 2981SOL    HW220406   3.695   0.661   4.144  0.5377  1.9602 -0.7723
 2982SOL     OW20407   2.237   4.359   7.453  0.3289  0.2414 -0.3413
 2982SOL    HW120408   2.165   4.385   7.395  0.8233 -0.7120 -1.3815
 2982SOL    HW220409   2.202   4.357   7.542  2.1032 -1.8645  0.2960
 2983SOL     OW20410   1.959   0.070   4.385  0.1058  0.4805 -0.6305
 2983SOL    HW120411   1.904   4.715   4.381 -0.3848  0.9568 -3.7340
 2983SOL    HW220412   2.022   0.052   4.454  0.5284  0.8130 -0.9305
 2984SOL     OW20413   4.637   2.760   2.106  0.5776  0.5249 -0.0446
 2984SOL    HW120414   4.704   2.693   2.122  1.8654  1.3571 -1.9663
 2984SOL    HW220415   4.600   2.728   2.023 -1.4148 -0.7242  1.3274
 2985SOL     OW20416   0.117   2.512   6.431  0.2693 -0.1481  0.3627
 2985SOL    HW120417   0.094   2.573   6.360  2.0837 -0.3330 -0.3800
 2985SOL    HW220418   0.206   2.492   6.404 -0.7415 -1.4590 -1.9773
 2986SOL     OW20419   3.648   1.621   7.766 -0.1800  0.3357  0.2317
 2986SOL    HW120420   3.648   1.589   7.856 -0.4121  1.6510  0.7008
 2986SOL    HW220421   3.622   1.544   7.714 -1.9492  1.3991 -0.4525
 2987SOL     OW20422   1.481   1.530   2.333  0.1670 -0.1190 -0.6543
 2987SOL    HW120423   1.425   1.608   2.338  1.5233  0.7572  0.9204
 2987SOL    HW220424   1.564   1.573   2.311 -1.8074  3.3599 -1.3411
 2988SOL     OW20425   1.690   4.677   3.158 -0.2251 -0.0462  0.3713
 2988SOL    HW120426   1.595   4.668   3.160 -0.4015  1.7900 -0.7459
 2988SOL    HW220427   1.706   4.630   3.076 -1.5490 -1.8302  1.1388
 2989SOL     OW20428   1.858   1.513  16.360 -0.1360 -0.1017 -0.5408
 2989SOL    HW120429   1.784   1.483  16.412 -0.1489 -0.1029 -0.5602
 2989SOL    HW220430   1.897   1.570  16.427  0.8011 -1.1625 -0.1789
 2990SOL     OW20431   3.325   0.371   7.024 -0.4604  0.4596  0.3575
 2990SOL    HW120432   3.356   0.445   6.972 -2.6342 -0.1322 -1.8048
 2990SOL    HW220433   3.401   0.315   7.034  0.0052  0.7599 -1.3626
 2991SOL     OW20434   3.819   3.513   6.821  0.0341 -0.1544  0.0036
 2991SOL    HW120435   3.761   3.582   6.853  1.2463  0.6492  0.4676
 2991SOL    HW220436   3.767   3.435   6.834 -0.5640  0.2426 -0.0137
 2992SOL     OW20437   4.084   3.651  12.321 -0.1620 -0.1935  0.0623
 2992SOL    HW120438   4.158   3.711  12.324  0.2754 -0.6680 -1.0368
 2992SOL    HW220439   4.112   3.583  12.259 -0.0068 -0.4466  0.4098
 2993SOL     OW20440   0.950   1.346  13.223 -0.4205 -0.2747 -0.5735
 2993SOL    HW120441   0.946   1.268  13.167 -2.7662  0.1464 -0.9981
 2993SOL    HW220442   0.944   1.306  13.309 -1.3540  1.6270  0.2458
 2994SOL     OW20443   0.453   1.193   2.385  0.0670  0.5276  0.3968
 2994SOL    HW120444   0.455   1.122   2.449  2.9143 -0.3489 -0.6772
 2994SOL    HW220445   0.452   1.270   2.442  1.4852 -0.1016  1.2825
 2995SOL     OW20446   4.315   4.151   4.027  0.2050  0.1326 -0.1254
 2995SOL    HW120447   4.249   4.099   4.074 -0.3248  0.9518  0.0513
 2995SOL    HW220448   4.279   4.156   3.939 -0.7506  2.4305  0.4009
 2996SOL     OW20449   3.976   1.766  16.406 -0.2272  0.4735 -0.1224
 2996SOL    HW120450   4.058   1.757  16.455 -0.4764 -1.9126 -0.1413
 2996SOL    HW220451   3.918   1.699  16.442 -0.5779  1.0505  0.3902
 2997SOL     OW20452   1.076   1.215   7.274 -0.4533  0.1665 -0.1989
 2997SOL    HW120453   1.049   1.178   7.358 -2.2896 -2.7897 -2.0628
 2997SOL    HW220454   0.997   1.248   7.231 -0.2469  0.1282 -0.6100
 2998SOL     OW20455   3.894   3.997  16.082  0.4830 -0.2313 -0.3639
 2998SOL    HW120456   3.985   4.022  16.063  0.3632 -1.0645 -2.0407
 2998SOL    HW220457   3.914   3.942  16.158 -0.9753  1.0312  0.9202
 2999SOL     OW20458   1.381   1.588  15.116  0.0274  0.0196 -0.4554
 2999SOL    HW120459   1.470   1.577  15.149 -0.4789 -0.5693  0.7545
 2999SOL    HW220460   1.389   1.671  15.069  0.3907  0.8995  1.1628
 3000SOL     OW20461   1.159   2.337   7.476 -0.2266 -0.0415 -0.3694
 3000SOL    HW120462   1.122   2.374   7.396 -2.3286  1.0181  1.0814
 3000SOL    HW220463   1.084   2.295   7.520 -0.8295  0.9444 -0.4524
 3001SOL     OW20464   2.339   3.466   8.838 -0.0883 -0.4041 -0.4855
 3001SOL    HW120465   2.309   3.381   8.805 -0.9506  0.3743 -1.7018
 3001SOL    HW220466   2.343   3.441   8.931  2.1976  0.3861 -0.3745
 3002SOL     OW20467   0.519   3.651   5.998  0.1273 -0.4110 -0.1864
 3002SOL    HW120468   0.431   3.668   6.031 -0.2007 -0.7497 -0.9049
 3002SOL    HW220469   0.517   3.658   5.903 -1.5529 -0.2382 -0.1355
 3003SOL     OW20470   2.063   2.673   2.620  0.0970  0.4843  0.0818
 3003SOL    HW120471   2.065   2.594   2.675 -1.6143  0.5300  0.2067
 3003SOL    HW220472   2.017   2.735   2.676  1.3323  0.1178  1.5201
 3004SOL     OW20473   0.852   0.737   1.121  0.3399 -0.3357 -0.6351
 3004SOL    HW120474   0.791   0.757   1.049  0.6708 -2.2809 -1.4584
 3004SOL    HW220475   0.884   0.821   1.152 -2.5668  0.0506  1.2951
 3005SOL     OW20476   0.634   4.101   5.564 -0.2773 -0.5930  0.6380
 3005SOL    HW120477   0.539   4.115   5.564 -0.4098 -1.5346 -0.7602
 3005SOL    HW220478   0.669   4.150   5.490  1.2993 -1.2754  0.9330
 3006SOL     OW20479   0.096   2.763   3.148  0.0949  0.7158 -0.0794
 3006SOL    HW120480   0.000   2.770   3.145 -0.0024 -0.1852  1.4982
 3006SOL    HW220481   0.118   2.851   3.178 -3.4852  1.2295  1.1011
 3007SOL     OW20482   1.150   2.989  10.835 -0.8448  0.2994 -0.5236
 3007SOL    HW120483   1.205   2.946  10.900 -0.0545 -0.6798 -1.8244
 3007SOL    HW220484   1.208   3.062  10.809  2.3067 -2.1394 -0.4057
 3008SOL     OW20485   2.275   2.022  11.304 -0.0269  0.3332 -0.0668
 3008SOL    HW120486   2.335   2.041  11.233  0.4736 -0.6371  0.0892
 3008SOL    HW220487   2.236   1.944  11.263  0.8078  0.3570 -0.8979
 3009SOL     OW20488   3.999   1.583   3.711  0.0685  0.0085  0.4606
 3009SOL    HW120489   3.970   1.668   3.745  0.7903  0.3710  0.1720
 3009SOL    HW220490   4.093   1.595   3.692 -0.3486  1.2031 -0.8907
 3010SOL     OW20491   4.690   0.424   3.862 -0.6071 -0.2652  0.0576
 3010SOL    HW120492   4.604   0.461   3.841  0.8488  1.5765 -2.6881
 3010SOL    HW220493   4.713   0.400   3.772 -0.2748 -1.7177  0.5277
 3011SOL     OW20494   3.540   3.299  10.331  0.4414  0.2822 -0.2839
 3011SOL    HW120495   3.513   3.240  10.402  0.0440 -0.5220 -1.0971
 3011SOL    HW220496   3.513   3.381  10.371  0.3583 -0.6853  1.6682
 3012SOL     OW20497   2.951   3.930  10.053 -0.3560  0.0287  0.0581
 3012SOL    HW120498   2.955   3.985  10.131  0.9850 -0.6991  0.5077
 3012SOL    HW220499   2.967   3.841  10.085  1.8545  1.1751  2.2151
 3013SOL     OW20500   3.892   2.890   4.021 -0.1692 -1.2364 -0.3908
 3013SOL    HW120501   3.934   2.912   4.105 -0.6230 -0.0987 -0.4564
 3013SOL    HW220502   3.896   2.795   4.017  0.5764 -1.2197 -0.0743
 3014SOL     OW20503   4.601   1.353   7.500  0.0809  0.0557 -0.3383
 3014SOL    HW120504   4.538   1.305   7.553 -1.8743  1.5585 -1.3084
 3014SOL    HW220505   4.631   1.409   7.571 -0.6153  0.2567 -0.2039
 3015SOL     OW20506   0.980   4.245   7.462 -0.1091 -0.6960 -0.4751
 3015SOL    HW120507   1.018   4.281   7.543 -1.9288 -0.4873  0.2763
 3015SOL    HW220508   1.034   4.286   7.395 -0.7043  0.0164 -0.5112
 3016SOL     OW20509   0.297   0.753   4.806 -0.4110  0.1198 -0.2121
 3016SOL    HW120510   0.282   0.839   4.844  2.2522  0.4512  0.1095
 3016SOL    HW220511   0.228   0.748   4.741 -1.8924 -2.4855  1.5492
 3017SOL     OW20512   1.569   2.911   6.266 -0.1954  0.0421 -0.2066
 3017SOL    HW120513   1.563   2.826   6.222  1.4212  0.9841 -2.2572
 3017SOL    HW220514   1.585   2.884   6.356 -0.8604  0.7342  0.1246
 3018SOL     OW20515   4.094   3.753   6.938  0.3924 -0.3458 -0.3059
 3018SOL    HW120516   4.018   3.715   6.982 -0.1987 -0.8340 -1.7592
 3018SOL    HW220517   4.071   3.730   6.848  1.5294 -0.0175 -0.6811
 3019SOL     OW20518   1.621   1.199  11.520  0.0629  0.1583  0.0816
 3019SOL    HW120519   1.579   1.284  11.513  0.5309  0.6940  3.6888
 3019SOL    HW220520   1.676   1.211  11.597  0.5660 -0.2229 -0.2100
 3020SOL     OW20521   0.261   3.783   5.439  0.2834 -0.1103  0.8478
 3020SOL    HW120522   0.178   3.810   5.398  0.9056 -0.3358 -0.5492
 3020SOL    HW220523   0.252   3.822   5.526 -0.9558  0.3098  0.5363
 3021SOL     OW20524   4.192   0.928   2.728  0.1634 -0.1246  0.4654
 3021SOL    HW120525   4.110   0.978   2.730  1.2293  1.5995  0.8217
 3021SOL    HW220526   4.169   0.864   2.660 -0.3738 -0.5379  1.0322
 3022SOL     OW20527   2.316   1.610   6.664  0.5998 -0.2318 -0.1489
 3022SOL    HW120528   2.237   1.633   6.713  1.2741  1.5835  0.0831
 3022SOL    HW220529   2.378   1.683   6.670  0.0914  0.3596 -2.0599
 3023SOL     OW20530   3.751   1.640   5.782  0.4913  0.2980 -0.2201
 3023SOL    HW120531   3.712   1.697   5.848  0.3247 -1.1815  0.9772
 3023SOL    HW220532   3.809   1.582   5.833  2.4465 -0.8582 -3.7882
 3024SOL     OW20533   3.714   3.635   7.990 -0.6320 -0.1531 -0.0332
 3024SOL    HW120534   3.802   3.644   7.955 -0.4315  1.5728  0.9356
 3024SOL    HW220535   3.651   3.662   7.923 -0.0523 -1.1008 -0.9689
 3025SOL     OW20536   3.057   2.503   3.837  0.5324 -0.3915 -0.0823
 3025SOL    HW120537   3.083   2.589   3.870 -0.5874 -0.2701  0.4976
 3025SOL    HW220538   3.036   2.518   3.745 -0.2551  2.4220  0.5709
 3026SOL     OW20539   2.670   2.278  12.377  0.6076  0.0848 -0.3081
 3026SOL    HW120540   2.690   2.372  12.379 -0.4319  0.2598  1.7774
 3026SOL    HW220541   2.666   2.277  12.282  1.2984 -0.5623 -0.3345
 3027SOL     OW20542   3.024   0.463   1.411 -0.1193  0.3592  0.4041
 3027SOL    HW120543   2.996   0.536   1.356 -1.4012  0.6755  1.4602
 3027SOL    HW220544   3.068   0.403   1.351 -0.0163 -1.2602  2.1057
 3028SOL     OW20545   4.707   0.811   7.160  0.0120 -0.3349  0.4073
 3028SOL    HW120546   4.694   0.817   7.255 -3.6144 -1.9170  0.0116
 3028SOL    HW220547   0.063   0.859   7.137  0.1694 -1.8433 -2.1668
 3029SOL     OW20548   1.541   3.218   5.022  0.0707 -0.1664  0.1731
 3029SOL    HW120549   1.601   3.159   4.978  0.9780  1.0139 -0.1495
 3029SOL    HW220550   1.592   3.239   5.100 -0.0260  1.0426 -0.0902
 3030SOL     OW20551   2.254   3.361   6.986 -0.2211 -0.3343  0.1572
 3030SOL    HW120552   2.210   3.394   6.907 -1.9531 -0.2334  1.1631
 3030SOL    HW220553   2.202   3.387   7.062  0.4336 -1.6699  1.0575
 3031SOL     OW20554   4.464   1.016   6.268  0.2386  0.9253 -0.1946
 3031SOL    HW120555   4.413   1.015   6.187  1.3264  4.4518 -0.9228
 3031SOL    HW220556   4.515   0.937   6.252 -1.9522 -0.4289 -0.4320
 3032SOL     OW20557   4.059   3.991   7.594  0.3604  0.1824  0.2180
 3032SOL    HW120558   4.080   3.953   7.509 -0.7433 -0.5920  0.2856
 3032SOL    HW220559   4.140   3.967   7.639  0.6532  0.7265 -0.0278
 3033SOL     OW20560   3.758   1.410   8.786 -0.0865  0.0611  0.3530
 3033SOL    HW120561   3.795   1.416   8.874 -0.6817  0.7573  0.5575
 3033SOL    HW220562   3.711   1.493   8.774 -1.0762 -0.4291  0.8287
 3034SOL     OW20563   3.584   1.408   7.586  0.0129  0.2740  0.4497
 3034SOL    HW120564   3.616   1.318   7.593 -1.3216 -0.3305 -1.3597
 3034SOL    HW220565   3.619   1.433   7.501  0.5119 -1.5375  0.1177
 3035SOL     OW20566   2.529   3.542   3.826  0.1224 -0.1868 -0.1335
 3035SOL    HW120567   2.437   3.564   3.840  0.2611 -0.7455  1.6000
 3035SOL    HW220568   2.559   3.617   3.774 -1.8644  0.7698  0.0848
 3036SOL     OW20569   1.104   0.199   7.425 -0.0230  0.0354  0.1362
 3036SOL    HW120570   1.030   0.162   7.376  0.2216  1.1053 -1.0468
 3036SOL    HW220571   1.064   0.283   7.444 -0.0902  0.2984 -1.1540
 3037SOL     OW20572   3.114   1.979   6.597  0.0894 -0.4334  0.0651
 3037SOL    HW120573   3.077   1.905   6.645 -0.1980  0.9079  1.8982
 3037SOL    HW220574   3.037   2.034   6.608 -0.1709 -1.1245  1.5396
 3038SOL     OW20575   4.009   0.729   5.122  0.0072  0.0350 -0.7653
 3038SOL    HW120576   4.018   0.755   5.030 -1.2661  0.8118 -0.6710
 3038SOL    HW220577   4.094   0.686   5.124 -0.3967 -0.8923 -3.4404
 3039SOL     OW20578   0.129   2.932   0.515  0.0953 -0.3702  0.3460
 3039SOL    HW120579   0.035   2.931   0.497  0.2389 -1.5705 -0.3515
 3039SOL    HW220580   0.141   2.839   0.530 -0.3684 -0.8194 -1.9868
 3040SOL     OW20581   2.243   0.290   4.499  0.0921  0.3036 -0.0465
 3040SOL    HW120582   2.193   0.368   4.476 -1.1886 -0.2374  0.8722
 3040SOL    HW220583   2.328   0.331   4.487  0.7842 -0.3145  2.6649
 3041SOL     OW20584   3.954   1.000  17.515  0.2365 -0.0185  0.5306
 3041SOL    HW120585   4.022   1.052  17.472 -1.8103  1.3103 -1.1225
 3041SOL    HW220586   3.874   1.049  17.494 -1.2320 -2.5266  0.3385
 3042SOL     OW20587   1.643   1.456   4.445  0.1979  0.0361  0.1672
 3042SOL    HW120588   1.655   1.369   4.407 -0.6649 -0.4294  0.9547
 3042SOL    HW220589   1.694   1.438   4.524 -1.8566  0.0051  1.4641
 3043SOL     OW20590   1.184   4.330   8.102  0.2882 -0.6743  0.2769
 3043SOL    HW120591   1.202   4.366   8.189 -1.5870 -0.1902  0.4610
 3043SOL    HW220592   1.233   4.249   8.115 -0.0733 -1.0460 -0.6236
 3044SOL     OW20593   4.295   0.729   0.427 -0.4176 -0.5360 -0.0103
 3044SOL    HW120594   4.322   0.704   0.515 -1.3632  0.6711  0.6112
 3044SOL    HW220595   4.200   0.726   0.439 -0.5748 -0.8522 -1.3182
 3045SOL     OW20596   0.603   4.268   9.162 -0.1023  0.4062  0.4913
 3045SOL    HW120597   0.631   4.281   9.252 -0.1599 -2.2654  0.8876
 3045SOL    HW220598   0.602   4.351   9.115  1.1090  0.2001  0.0931
 3046SOL     OW20599   1.431   3.630   3.077  0.6139  0.1804 -0.1396
 3046SOL    HW120600   1.519   3.635   3.039  0.1884  0.6916 -1.0465
 3046SOL    HW220601   1.376   3.674   3.013  3.2190  3.3360 -0.2040
 3047SOL     OW20602   0.169   1.470   6.099  0.6042 -0.0565 -0.1427
 3047SOL    HW120603   0.195   1.384   6.066 -1.1743 -0.9981  0.9294
 3047SOL    HW220604   0.097   1.494   6.041  0.7688 -0.3162 -0.4506
 3048SOL     OW20605   2.981   1.820   7.268  0.4856 -0.7769  0.3323
 3048SOL    HW120606   2.941   1.849   7.187  0.4120  3.5602  1.9054
 3048SOL    HW220607   3.070   1.856   7.262  0.3418 -0.1583  1.7622
 3049SOL     OW20608   4.302   2.585   1.695  0.3233 -0.4449  0.2621
 3049SOL    HW120609   4.320   2.547   1.609  1.0610  1.9625 -0.6550
 3049SOL    HW220610   4.253   2.664   1.672  0.8827 -0.6472 -1.6330
 3050SOL     OW20611   2.881   0.031   6.332 -0.1103 -0.0667 -0.0472
 3050SOL    HW120612   2.929   0.064   6.408  2.0219  0.4609 -1.6272
 3050SOL    HW220613   2.817   0.101   6.322  0.8639  0.9145  0.6095
 3051SOL     OW20614   2.320   2.325  12.939 -0.1603  0.4322  0.3140
 3051SOL    HW120615   2.384   2.254  12.939 -0.6046  0.0371  0.1371
 3051SOL    HW220616   2.246   2.292  12.990 -0.7933  0.0936 -0.8023
 3052SOL     OW20617   2.268   3.980   1.838 -0.8483 -0.4120  0.1639
 3052SOL    HW120618   2.233   4.005   1.924 -0.9377 -1.4449  0.4369
 3052SOL    HW220619   2.360   4.006   1.848 -1.4178  0.7045  2.5153
 3053SOL     OW20620   1.131   0.618   7.261 -0.1171 -0.0611  0.0188
 3053SOL    HW120621   1.071   0.691   7.245  0.8255  0.3674 -1.6695
 3053SOL    HW220622   1.197   0.658   7.204  0.4455 -1.0659 -0.0466
 3054SOL     OW20623   0.050   2.034   7.302 -0.1222  0.1407 -0.1441
 3054SOL    HW120624   4.705   2.026   7.236 -3.1549 -1.5412  3.2144
 3054SOL    HW220625   0.001   2.043   7.384 -0.4799  0.2645 -0.3712
 3055SOL     OW20626   4.163   4.015   6.591 -0.0714 -0.7105 -0.7131
 3055SOL    HW120627   4.216   3.953   6.642  3.4726  2.2087 -0.8753
 3055SOL    HW220628   4.073   4.005   6.619  0.2993 -1.2532  0.2703
 3056SOL     OW20629   0.695   2.386   8.302  0.3397  0.1514 -0.7669
 3056SOL    HW120630   0.734   2.467   8.270 -0.0114 -0.1393 -1.9307
 3056SOL    HW220631   0.693   2.398   8.397 -0.1070 -1.1129 -0.6201
 3057SOL     OW20632   3.370   2.595   0.437 -0.3181  0.1469 -0.1699
 3057SOL    HW120633   3.343   2.549   0.517 -1.0261 -1.3187 -1.2523
 3057SOL    HW220634   3.464   2.589   0.452 -1.1241 -0.8797  4.3829
 3058SOL     OW20635   3.204   2.717   4.276 -0.5115  0.3616 -0.3967
 3058SOL    HW120636   3.133   2.780   4.281 -0.6551  0.2149 -0.6078
 3058SOL    HW220637   3.165   2.639   4.317  1.7475  0.0584  1.2114
 3059SOL     OW20638   1.250   1.676   6.042  0.1785  0.3388 -0.8301
 3059SOL    HW120639   1.165   1.711   6.015 -0.1618  0.7838  0.8100
 3059SOL    HW220640   1.262   1.742   6.110 -0.9102  0.4907 -0.7778
 3060SOL     OW20641   4.252   0.290   4.516 -0.2511  0.8558 -0.5710
 3060SOL    HW120642   4.226   0.334   4.435 -0.9355 -1.0425 -1.3868
 3060SOL    HW220643   4.213   0.204   4.499  1.2577  0.2013 -0.6948
 3061SOL     OW20644   0.834   2.007   1.246  0.1284 -0.0723 -0.5085
 3061SOL    HW120645   0.757   2.001   1.189  0.5710  1.0339 -1.2202
 3061SOL    HW220646   0.886   2.076   1.205 -0.2787  0.3990 -0.2186
 3062SOL     OW20647   2.105   2.084   3.272  0.4318 -0.2163  0.7417
 3062SOL    HW120648   2.165   2.050   3.339 -2.0395 -2.2042  1.9995
 3062SOL    HW220649   2.161   2.103   3.197  1.7128  0.2184  1.8067
 3063SOL     OW20650   4.678   4.283  16.188 -0.3069 -0.1516 -0.6283
 3063SOL    HW120651   4.671   4.378  16.183  2.4427  0.1916  2.6936
 3063SOL    HW220652   4.651   4.268  16.278  0.3530 -1.1635 -0.5978
 3064SOL     OW20653   2.192   0.873   0.404  0.5190  0.0120 -0.0586
 3064SOL    HW120654   2.100   0.900   0.402  0.9103  1.4860  1.8012
 3064SOL    HW220655   2.220   0.923   0.481  1.4843 -0.8462  0.1405
 3065SOL     OW20656   1.422   3.566   6.046 -0.1165  0.3819  0.0227
 3065SOL    HW120657   1.512   3.597   6.046  0.0752 -0.1731 -0.6045
 3065SOL    HW220658   1.389   3.594   5.961 -0.1694  1.2170  0.3190
 3066SOL     OW20659   3.681   0.132  10.138  0.1077 -0.5867  0.1481
 3066SOL    HW120660   3.656   0.053  10.186 -0.1309 -0.4755  0.2081
 3066SOL    HW220661   3.712   0.109  10.051 -0.3856 -2.2551  0.4224
 3067SOL     OW20662   2.684   1.540   4.620  0.1689 -0.0710 -0.1079
 3067SOL    HW120663   2.715   1.611   4.564  0.4258  0.4651  0.7077
 3067SOL    HW220664   2.770   1.517   4.655 -0.2289 -0.3649  0.6830
 3068SOL     OW20665   1.166   3.623  16.865 -0.3064  0.8240  0.0378
 3068SOL    HW120666   1.101   3.625  16.794  0.3380  2.5109 -0.4906
 3068SOL    HW220667   1.225   3.690  16.833  2.5798 -2.0955 -0.8149
 3069SOL     OW20668   4.498   0.728   2.964  0.3599 -0.1530  0.1176
 3069SOL    HW120669   4.407   0.749   2.939 -0.4478 -3.4898  0.3338
 3069SOL    HW220670   4.533   0.817   2.967  1.9463 -0.7855  0.4872
 3070SOL     OW20671   3.223   3.089   0.783  0.4159 -0.2909 -0.0598
 3070SOL    HW120672   3.230   3.106   0.689  1.4080  0.1236  0.0971
 3070SOL    HW220673   3.282   3.015   0.798 -0.0082 -0.1466  2.3081
 3071SOL     OW20674   0.086   2.839  10.530 -0.6928  0.3173 -0.2300
 3071SOL    HW120675   0.106   2.772  10.465 -1.3615  0.3978 -0.5115
 3071SOL    HW220676   0.166   2.891  10.535  1.2022 -2.5799 -0.6473
 3072SOL     OW20677   3.810   2.444  10.751 -0.3417  0.6154 -0.5325
 3072SOL    HW120678   3.800   2.527  10.705  1.5458  0.8846 -0.4518
 3072SOL    HW220679   3.841   2.473  10.837 -1.1146  1.6153 -0.5953
 3073SOL     OW20680   2.330   3.376  15.426 -0.4537 -0.6168  0.7984
 3073SOL    HW120681   2.372   3.455  15.460  0.2287 -0.9065  0.6243
 3073SOL    HW220682   2.236   3.396  15.422  0.1932  1.7854 -2.5027
 3074SOL     OW20683   2.046   1.150   7.243 -0.0168 -0.4350  0.3818
 3074SOL    HW120684   2.011   1.095   7.313  2.3770  0.0998  2.0059
 3074SOL    HW220685   2.093   1.216   7.294 -0.1439 -0.7168  0.8665
 3075SOL     OW20686   1.696   1.470  16.833  0.1894  0.0212 -0.5122
 3075SOL    HW120687   1.765   1.430  16.886 -1.1416  0.2741  1.4078
 3075SOL    HW220688   1.690   1.556  16.876 -0.9969  0.5521 -1.7517
 3076SOL     OW20689   0.316   4.164   2.605 -0.6098  0.1454 -0.6964
 3076SOL    HW120690   0.277   4.188   2.689  1.5420  2.4391 -0.3905
 3076SOL    HW220691   0.248   4.166   2.536 -0.7294  0.2199 -0.5756
 3077SOL     OW20692   1.930   2.114  12.543 -0.1998  0.7145  0.1648
 3077SOL    HW120693   2.024   2.112  12.558 -0.0050  2.3510 -0.8663
 3077SOL    HW220694   1.930   2.173  12.468 -1.1889 -0.5306 -0.8270
 3078SOL     OW20695   2.546   4.707   9.292 -0.5038 -0.3009 -0.0782
 3078SOL    HW120696   2.594   0.046   9.238  0.2401  1.7516  2.9858
 3078SOL    HW220697   2.462   4.694   9.249 -0.5015 -1.7328  0.3421
 3079SOL     OW20698   2.120   3.269   9.813 -0.1438 -0.4047  0.1678
 3079SOL    HW120699   2.150   3.332   9.747 -2.7896  0.1497 -0.4702
 3079SOL    HW220700   2.198   3.216   9.830 -0.0949  0.8701  3.9180
 3080SOL     OW20701   2.251   4.029   8.232  0.3997 -0.0237  0.0852
 3080SOL    HW120702   2.282   4.072   8.312  1.0093 -1.0865  0.4171
 3080SOL    HW220703   2.299   4.077   8.164 -1.6183 -1.0811 -2.0562
 3081SOL     OW20704   2.762   0.473  14.380  0.2780  0.0591 -0.4129
 3081SOL    HW120705   2.793   0.430  14.299 -0.0638  0.8765 -0.9756
 3081SOL    HW220706   2.671   0.444  14.373 -0.0370  0.2610  3.1358
 3082SOL     OW20707   0.097   1.523   2.111  0.0491 -0.2917 -0.2749
 3082SOL    HW120708   0.035   1.469   2.159  0.4925 -0.7381 -0.2041
 3082SOL    HW220709   0.172   1.467   2.131  0.8191  0.3049 -1.5022
 3083SOL     OW20710   1.451   2.488   4.832  0.0256  0.1817 -0.1153
 3083SOL    HW120711   1.398   2.437   4.894 -0.6230  0.8685 -0.1181
 3083SOL    HW220712   1.450   2.573   4.875 -0.0148 -0.2722  0.7886
 3084SOL     OW20713   0.554   0.195   4.993  0.0458  0.3765 -0.4529
 3084SOL    HW120714   0.519   0.274   5.034 -0.5844  0.9289 -2.0733
 3084SOL    HW220715   0.511   0.203   4.908 -1.2311 -0.7086  0.0921
 3085SOL     OW20716   3.746   4.356   8.308  0.1729  0.1806  0.0057
 3085SOL    HW120717   3.698   4.410   8.371  0.1648 -0.0814  0.2255
 3085SOL    HW220718   3.743   4.269   8.348 -0.1563  0.0294 -0.3571
 3086SOL     OW20719   1.603   2.641   3.398  0.1770  0.0269 -0.3086
 3086SOL    HW120720   1.638   2.725   3.429 -1.6002  0.7596 -0.2471
 3086SOL    HW220721   1.653   2.581   3.453 -0.8607 -2.0888 -1.6787
 3087SOL     OW20722   0.686   4.637   9.372  0.2212  0.0653  0.1771
 3087SOL    HW120723   0.733   4.557   9.397  0.2814  0.0247 -0.0682
 3087SOL    HW220724   0.670   4.675   9.459 -1.3900  1.6369 -0.8177
 3088SOL     OW20725   2.795   0.924   2.154  0.2410  0.0329  0.2798
 3088SOL    HW120726   2.699   0.918   2.156  0.3644 -1.8241 -0.4843
 3088SOL    HW220727   2.804   0.897   2.063  1.4358  1.9768 -0.1758
 3089SOL     OW20728   2.414   1.250   8.169  0.0439  0.3907  0.6829
 3089SOL    HW120729   2.408   1.294   8.085  0.9755  1.2459  1.0507
 3089SOL    HW220730   2.452   1.314   8.230  0.1379 -1.0734  2.1807
 3090SOL     OW20731   0.869   4.134   5.412  0.6842 -0.0458  0.4530
 3090SOL    HW120732   0.942   4.095   5.364 -0.0284 -1.2278  0.3382
 3090SOL    HW220733   0.829   4.058   5.454  0.0040 -0.5839 -1.1698
 3091SOL     OW20734   0.077   3.885  15.573 -0.1150 -0.2462 -0.2533
 3091SOL    HW120735   4.711   3.886  15.540 -1.0206 -2.5929  2.2363
 3091SOL    HW220736   0.062   3.894  15.667  0.3427  0.0524 -0.2063
 3092SOL     OW20737   3.217   4.416   0.555  0.5724 -0.0972 -0.5470
 3092SOL    HW120738   3.220   4.321   0.542  0.9615  0.1610 -2.3430
 3092SOL    HW220739   3.263   4.421   0.639  0.4585 -2.2319 -0.3354
 3093SOL     OW20740   3.939   1.350   2.478 -0.2219  0.0042  0.2180
 3093SOL    HW120741   4.005   1.282   2.489  0.4131  0.5382 -0.2948
 3093SOL    HW220742   3.885   1.342   2.556  1.1302  0.5572  1.1982
 3094SOL     OW20743   0.199   0.335   5.583  0.1156 -0.5122 -0.1901
 3094SOL    HW120744   0.153   0.261   5.544 -1.8492 -0.9134  2.8864
 3094SOL    HW220745   0.280   0.331   5.532 -1.7003 -1.1741 -3.0265
 3095SOL     OW20746   4.558   3.669   6.416 -0.7427  0.0639  0.1282
 3095SOL    HW120747   4.527   3.744   6.366  1.0797  0.6260 -0.1483
 3095SOL    HW220748   4.620   3.624   6.359 -2.1021  0.5120 -1.6832
 3096SOL     OW20749   1.770   2.170   4.711 -0.1140  0.4831  0.5440
 3096SOL    HW120750   1.835   2.216   4.764 -3.0983  4.0196  1.1780
 3096SOL    HW220751   1.828   2.133   4.644 -0.3512  1.3198 -0.1308
 3097SOL     OW20752   0.960   2.779   5.624 -0.8563 -0.3773  0.2250
 3097SOL    HW120753   1.035   2.839   5.616 -1.0256 -0.1942  0.0333
 3097SOL    HW220754   0.890   2.837   5.653 -0.2168  0.9480 -0.8750
 3098SOL     OW20755   2.308   2.219   0.315  0.3030 -0.3765  0.2949
 3098SOL    HW120756   2.359   2.144   0.348  2.5039  1.1144  0.2850
 3098SOL    HW220757   2.220   2.198   0.346 -0.7994  1.4290 -1.6001
 3099SOL     OW20758   2.250   1.615  14.409  0.0966 -0.1878  0.1309
 3099SOL    HW120759   2.282   1.529  14.436  1.2635  0.6152  1.3270
 3099SOL    HW220760   2.179   1.594  14.349 -0.7608  2.0502  0.3691
 3100SOL     OW20761   1.666   1.522   1.881  0.4099 -0.4489  0.0709
 3100SOL    HW120762   1.689   1.572   1.959  1.2479  0.1869 -0.5770
 3100SOL    HW220763   1.586   1.571   1.860 -0.2337 -0.8573  1.5533
 3101SOL     OW20764   2.225   0.844   1.762  0.3830 -0.2925  0.4349
 3101SOL    HW120765   2.262   0.781   1.699  0.0757  0.4895 -0.5161
 3101SOL    HW220766   2.165   0.893   1.706  2.3146 -0.3449 -1.7164
 3102SOL     OW20767   4.454   2.648  10.538 -0.0410  0.3389 -0.2649
 3102SOL    HW120768   4.434   2.558  10.562 -2.1641  0.5435 -1.2924
 3102SOL    HW220769   4.366   2.684  10.528 -0.7081 -0.5082  2.5054
 3103SOL     OW20770   2.638   1.045  10.191  0.5443 -0.3255 -0.5839
 3103SOL    HW120771   2.708   1.026  10.129 -0.0932  1.1673 -1.7431
 3103SOL    HW220772   2.559   1.001  10.160  0.4034 -0.0302 -0.6447
 3104SOL     OW20773   1.144   3.000   2.085  0.2498 -0.1656 -0.0480
 3104SOL    HW120774   1.145   3.040   2.172  1.0512 -1.1010  0.3640
 3104SOL    HW220775   1.074   3.053   2.046 -0.4754  0.5083  2.1533
 3105SOL     OW20776   4.386   1.283  14.372 -0.1290  1.0309  0.3541
 3105SOL    HW120777   4.478   1.299  14.352 -0.1395 -1.0368 -1.3991
 3105SOL    HW220778   4.396   1.249  14.461 -0.8939 -2.9940 -1.0892
 3106SOL     OW20779   2.576   2.773   5.224 -0.2631  0.1482 -0.2861
 3106SOL    HW120780   2.662   2.749   5.258 -1.2029  0.9082  2.6325
 3106SOL    HW220781   2.518   2.773   5.300 -1.8985 -1.2651 -1.5345
 3107SOL     OW20782   4.170   2.714   6.451  0.0168 -0.4522 -0.0719
 3107SOL    HW120783   4.139   2.769   6.379  1.8158  0.9345  0.2112
 3107SOL    HW220784   4.258   2.751   6.457 -0.9602  1.5687  1.6281
 3108SOL     OW20785   1.015   1.818   6.654  0.3860  0.6928  0.1008
 3108SOL    HW120786   0.928   1.797   6.686  0.6794 -0.1197  0.3659
 3108SOL    HW220787   1.002   1.863   6.570 -0.8351  0.7592  0.3303
 3109SOL     OW20788   3.102   4.621   3.277 -0.1497  0.1375 -0.3091
 3109SOL    HW120789   3.031   4.560   3.293 -0.0443  0.2945  0.7548
 3109SOL    HW220790   3.070   4.699   3.322  1.2637  0.2871  0.4411
 3110SOL     OW20791   1.263   4.202   5.109 -0.0277 -0.3339 -0.5168
 3110SOL    HW120792   1.287   4.288   5.144 -0.5816 -1.0845  1.7156
 3110SOL    HW220793   1.222   4.229   5.027  0.0722 -3.7426 -1.6787
 3111SOL     OW20794   1.543   3.497   1.429  0.1034 -0.4313  0.5610
 3111SOL    HW120795   1.632   3.464   1.443  0.0502 -0.4398  0.8747
 3111SOL    HW220796   1.557   3.590   1.409  0.9684 -0.4439  1.0925
 3112SOL     OW20797   3.077   2.078   5.961  0.0101  0.0516  0.0333
 3112SOL    HW120798   3.058   2.075   6.055  0.1131  0.6451  0.0736
 3112SOL    HW220799   3.080   2.172   5.943 -0.8492  0.0942  0.0978
 3113SOL     OW20800   2.218   4.540   5.781  0.1963 -0.5936 -0.3908
 3113SOL    HW120801   2.305   4.563   5.748 -0.5668  2.9526 -0.0102
 3113SOL    HW220802   2.183   4.629   5.789  0.3522 -0.5712  0.0133
 3114SOL     OW20803   0.033   4.439  15.875 -0.2622  0.6084 -0.0654
 3114SOL    HW120804   0.096   4.506  15.903  0.5356 -0.4965  0.7444
 3114SOL    HW220805   0.090   4.391  15.816 -0.1906  0.1544  0.3741
 3115SOL     OW20806   4.032   0.727   0.470 -0.0959  0.3424 -0.3618
 3115SOL    HW120807   3.990   0.813   0.466 -1.8222 -0.4160  1.6813
 3115SOL    HW220808   3.980   0.684   0.538  0.4622  0.5479  0.1980
 3116SOL     OW20809   4.044   2.748   3.018 -0.3149  0.1258 -0.6149
 3116SOL    HW120810   3.968   2.725   3.071 -0.2128 -3.2960 -1.9767
 3116SOL    HW220811   4.009   2.728   2.931 -2.2587  2.4746 -0.3622
 3117SOL     OW20812   4.410   4.514   0.668 -0.3760 -0.4377 -0.2297
 3117SOL    HW120813   4.458   4.572   0.608  1.6187 -0.9365  0.8574
 3117SOL    HW220814   4.368   4.580   0.723 -2.7077 -2.0242 -0.1334
 3118SOL     OW20815   2.758   3.607   5.697  0.5018  0.5050  0.2296
 3118SOL    HW120816   2.774   3.586   5.605 -1.6943  1.4295 -0.3483
 3118SOL    HW220817   2.706   3.528   5.709 -1.0268  1.0633 -2.6625
 3119SOL     OW20818   1.554   2.342  13.688 -0.2199 -0.1449  0.5992
 3119SOL    HW120819   1.637   2.295  13.689 -1.9573 -3.1624  0.4652
 3119SOL    HW220820   1.484   2.278  13.693  1.7672 -2.3081  0.6029
 3120SOL     OW20821   3.611   1.109   8.991 -0.3671 -0.2053  0.4719
 3120SOL    HW120822   3.654   1.192   9.011  2.9105 -1.2534 -2.2386
 3120SOL    HW220823   3.633   1.085   8.901  1.1040 -0.7734  0.9957
 3121SOL     OW20824   2.895   0.158   9.946 -0.8496  0.0198 -0.1811
 3121SOL    HW120825   2.806   0.173   9.977 -1.5194  0.8889 -2.4793
 3121SOL    HW220826   2.891   0.063   9.961  2.2101 -0.2662 -1.2329
 3122SOL     OW20827   1.314   1.301   4.725 -0.1773 -0.0116  0.0319
 3122SOL    HW120828   1.292   1.364   4.656  0.5882  1.1928  0.8674
 3122SOL    HW220829   1.317   1.218   4.679 -1.3850 -0.1719  0.2619
 3123SOL     OW20830   4.592   1.673  12.048  0.2345 -0.5943  1.0560
 3123SOL    HW120831   4.550   1.739  12.103  0.9661 -0.3512  1.3213
 3123SOL    HW220832   4.549   1.590  12.069  0.7862 -1.0730  0.2814
 3124SOL     OW20833   1.085   0.205   9.007  0.0462 -0.2577 -0.1045
 3124SOL    HW120834   1.069   0.231   9.098  1.5979  1.1561 -0.2307
 3124SOL    HW220835   1.017   0.139   8.992 -0.2189 -0.1161  0.4734
 3125SOL     OW20836   4.496   1.808   3.586  0.4609 -0.3999 -0.0676
 3125SOL    HW120837   4.519   1.898   3.610  1.2041 -0.1615 -1.6818
 3125SOL    HW220838   4.529   1.805   3.497 -0.1358  2.1695 -0.3872
 3126SOL     OW20839   0.256   0.448   2.965  0.1343  0.6417  0.1987
 3126SOL    HW120840   0.306   0.366   2.973  0.3391  0.5236 -2.4580
 3126SOL    HW220841   0.300   0.501   2.900 -0.2313 -2.7666 -2.8358
 3127SOL     OW20842   1.523   1.869  17.073  0.2953  0.1498  0.0268
 3127SOL    HW120843   1.478   1.951  17.053 -2.4283 -1.0962  1.0968
 3127SOL    HW220844   1.467   1.848  17.148 -1.9612 -2.2495 -2.3493
 3128SOL     OW20845   0.626   4.021   3.433  0.6839  0.1562  0.0025
 3128SOL    HW120846   0.624   4.109   3.470  0.0373  0.5771 -1.0279
 3128SOL    HW220847   0.564   3.977   3.492 -1.5450  1.2217 -1.5915
 3129SOL     OW20848   3.967   2.600   3.969 -0.4098  0.0074  0.4694
 3129SOL    HW120849   3.977   2.572   3.878  0.5642 -0.7089  0.7926
 3129SOL    HW220850   3.975   2.517   4.015 -1.7410 -0.0266  0.6460
 3130SOL     OW20851   3.511   2.759   4.931 -0.4999  0.2201  0.2508
 3130SOL    HW120852   3.425   2.798   4.914 -0.0302  1.6418  1.0965
 3130SOL    HW220853   3.568   2.836   4.933  1.1687 -0.9886 -0.9698
 3131SOL     OW20854   3.060   2.839   0.673  0.3800  0.2113  0.1027
 3131SOL    HW120855   2.996   2.906   0.648  0.2061  0.1487  0.3802
 3131SOL    HW220856   3.015   2.790   0.742 -0.2922  0.6402 -0.0300
 3132SOL     OW20857   3.400   3.869   4.459  0.8968 -0.5519 -0.1485
 3132SOL    HW120858   3.459   3.900   4.390  1.9209 -0.0259  0.9654
 3132SOL    HW220859   3.375   3.958   4.485  1.2904 -0.6296  0.4949
 3133SOL     OW20860   2.759   3.636   4.968 -0.3178 -0.5564 -0.2350
 3133SOL    HW120861   2.701   3.712   4.978  0.9287  0.3388  0.2231
 3133SOL    HW220862   2.697   3.572   4.932 -0.1514 -1.3556  0.8910
 3134SOL     OW20863   3.667   3.749   1.456 -0.4797 -0.1390  0.0415
 3134SOL    HW120864   3.603   3.680   1.442  0.4750 -0.7445 -1.2968
 3134SOL    HW220865   3.630   3.817   1.399 -0.2750 -0.3233 -0.3087
 3135SOL     OW20866   4.605   1.406  11.508 -0.0135 -0.0313  0.0327
 3135SOL    HW120867   4.648   1.321  11.497  1.6700  0.9597 -1.0414
 3135SOL    HW220868   4.601   1.401  11.603  1.5097 -2.6991 -0.0328
 3136SOL     OW20869   3.072   2.815  14.761  0.3490  0.3127  0.1114
 3136SOL    HW120870   3.040   2.726  14.746 -0.1524  0.7299 -1.3292
 3136SOL    HW220871   3.026   2.863  14.692 -1.1397 -2.1141 -0.5672
 3137SOL     OW20872   3.899   0.719   2.431 -0.0694 -0.0764  0.2494
 3137SOL    HW120873   3.844   0.793   2.454 -1.1571 -0.2205 -1.8865
 3137SOL    HW220874   3.844   0.680   2.362  0.0234  0.0329  0.1136
 3138SOL     OW20875   0.651   2.078  14.952  0.1971  0.5260  0.2701
 3138SOL    HW120876   0.710   2.049  14.882 -0.2732  2.3564 -0.8680
 3138SOL    HW220877   0.656   1.997  15.003  4.1855  0.6225 -0.0234
 3139SOL     OW20878   2.005   0.784   5.450 -0.4986  0.2682 -0.0967
 3139SOL    HW120879   2.069   0.757   5.384  1.3453 -0.8611  2.1587
 3139SOL    HW220880   1.993   0.876   5.426  0.0691 -0.2615 -2.3839
 3140SOL     OW20881   4.433   3.669   7.145  0.1081  0.5818  0.2350
 3140SOL    HW120882   4.442   3.576   7.165 -0.0132  0.1241 -1.8490
 3140SOL    HW220883   4.524   3.690   7.123  0.1172  0.1031 -0.1679
 3141SOL     OW20884   0.706   1.818  12.737  0.0246  0.5464  0.1447
 3141SOL    HW120885   0.720   1.869  12.817  3.5859 -0.9920  0.4547
 3141SOL    HW220886   0.757   1.866  12.672 -1.2730 -0.7374 -1.8104
 3142SOL     OW20887   0.117   0.966   1.037 -0.2799  0.2083  0.2553
 3142SOL    HW120888   0.060   0.974   0.960 -0.9183 -1.0547  0.5985
 3142SOL    HW220889   0.064   1.013   1.102 -2.4506 -0.8067 -0.7665
 3143SOL     OW20890   4.228   1.679   4.322  0.1107 -0.9256  0.2435
 3143SOL    HW120891   4.152   1.621   4.329  0.4573 -1.2435  1.3999
 3143SOL    HW220892   4.275   1.644   4.398 -0.6159 -1.4495  0.4524
 3144SOL     OW20893   4.671   3.089   6.736  0.0347 -0.3988  0.4418
 3144SOL    HW120894   4.668   2.994   6.730 -0.4380 -0.3844  0.4681
 3144SOL    HW220895   4.597   3.110   6.679  0.8420  2.1997  0.3419
 3145SOL     OW20896   3.939   3.102  12.022 -0.3133 -0.0707 -1.2934
 3145SOL    HW120897   3.987   3.040  12.077  0.8930  1.4098 -0.6752
 3145SOL    HW220898   3.868   3.123  12.083  1.2165 -1.5388  1.0028
 3146SOL     OW20899   3.013   0.150   2.086  0.4978 -0.0941 -0.0146
 3146SOL    HW120900   3.024   0.100   2.005  2.9285  1.6818 -0.7804
 3146SOL    HW220901   2.917   0.151   2.089  0.5303  0.4664  0.8136
 3147SOL     OW20902   2.086   1.761  11.686 -0.1663  0.5539  0.3982
 3147SOL    HW120903   2.136   1.737  11.608 -0.3880 -0.4768  0.5821
 3147SOL    HW220904   2.030   1.830  11.651  0.1389  1.8180  2.4080
 3148SOL     OW20905   4.306   3.942   4.860  0.2450  0.0146  0.2712
 3148SOL    HW120906   4.212   3.930   4.846  0.0722  1.3355  0.3022
 3148SOL    HW220907   4.339   3.880   4.794  0.8114  1.8701 -1.1986
 3149SOL     OW20908   3.125   1.016   0.708  0.1374  0.2081 -0.1462
 3149SOL    HW120909   3.202   0.990   0.658  1.6277  0.0242  2.2638
 3149SOL    HW220910   3.089   0.930   0.730  0.5321 -0.1672 -0.9823
 3150SOL     OW20911   4.176   0.404   6.233 -0.4096  0.0043 -0.1667
 3150SOL    HW120912   4.111   0.347   6.192  0.3880 -0.1134 -1.2795
 3150SOL    HW220913   4.234   0.333   6.260 -0.0923  0.3231 -0.0107
 3151SOL     OW20914   2.959   4.158   1.542  0.0852  0.2165  0.3589
 3151SOL    HW120915   2.985   4.077   1.498  0.8433  0.5105  0.2594
 3151SOL    HW220916   3.016   4.138   1.617 -1.1098 -0.3380  1.1151
 3152SOL     OW20917   4.708   0.895   2.029 -0.1467  0.7234 -0.2002
 3152SOL    HW120918   0.003   0.837   2.103  0.9452 -0.2170 -1.2183
 3152SOL    HW220919   4.698   0.979   2.074  0.4142  0.5630  0.2278
 3153SOL     OW20920   3.082   0.456   7.973  0.1788 -0.0825 -0.1140
 3153SOL    HW120921   3.081   0.461   8.068 -4.4423  0.1482 -0.1435
 3153SOL    HW220922   3.160   0.402   7.965 -1.5983 -2.5181 -1.1395
 3154SOL     OW20923   1.236   3.198  16.386 -0.6171 -0.5127  0.3092
 3154SOL    HW120924   1.184   3.118  16.394  1.0355 -1.6109  0.2240
 3154SOL    HW220925   1.206   3.228  16.471 -2.7642 -1.8105 -0.0022
 3155SOL     OW20926   2.684   3.070  16.200 -0.2809  0.0871  0.1922
 3155SOL    HW120927   2.668   3.042  16.290 -2.0396 -0.9909 -0.4486
 3155SOL    HW220928   2.766   3.116  16.215  0.0414 -0.1655 -0.8261
 3156SOL     OW20929   2.569   0.825   6.151  0.1005 -0.2360 -0.4134
 3156SOL    HW120930   2.526   0.823   6.236  0.1613  0.9895 -0.3452
 3156SOL    HW220931   2.505   0.774   6.102  1.2202 -2.7755  0.7758
 3157SOL     OW20932   4.579   3.439  14.776 -0.4069  0.4421 -0.3105
 3157SOL    HW120933   4.611   3.382  14.707 -0.5656 -0.3107  0.2380
 3157SOL    HW220934   4.515   3.386  14.824  1.3139 -0.9364  0.4799
 3158SOL     OW20935   4.619   2.038   5.645  0.3966 -0.6272 -0.3033
 3158SOL    HW120936   4.622   2.096   5.721  0.4159  1.4201 -1.8512
 3158SOL    HW220937   4.710   2.035   5.617  0.6035  2.8465 -0.0370
 3159SOL     OW20938   4.693   1.569   8.671  0.3727  0.4382 -0.3446
 3159SOL    HW120939   4.719   1.510   8.742  2.3626  0.8925 -0.6965
 3159SOL    HW220940   4.598   1.563   8.686  1.0224 -2.5146  2.5332
 3160SOL     OW20941   3.818   2.585   6.867  0.6410  0.2589  0.4693
 3160SOL    HW120942   3.723   2.594   6.878  0.2021  0.1269 -3.0892
 3160SOL    HW220943   3.839   2.666   6.820  2.7481 -0.3918  0.2993
 3161SOL     OW20944   0.717   0.330   1.476  0.1852 -0.1472  0.3115
 3161SOL    HW120945   0.793   0.382   1.452 -0.9640 -0.0404 -3.0849
 3161SOL    HW220946   0.649   0.397   1.478  0.2662 -0.0662  0.3415
 3162SOL     OW20947   0.798   4.245  15.149 -0.3800 -0.6379  0.7419
 3162SOL    HW120948   0.751   4.328  15.139 -1.6024 -1.4060  0.0059
 3162SOL    HW220949   0.880   4.260  15.104 -1.2101  2.8453  0.3711
 3163SOL     OW20950   3.659   1.461   8.408  0.1980 -0.0290 -0.5550
 3163SOL    HW120951   3.583   1.470   8.466  1.1552  4.5780 -0.0429
 3163SOL    HW220952   3.613   1.452   8.325 -0.7511 -0.8462  0.0459
 3164SOL     OW20953   2.290   0.995   1.960  0.1485  0.4208 -0.2907
 3164SOL    HW120954   2.209   0.968   2.003  1.2225 -1.5676  0.4568
 3164SOL    HW220955   2.292   0.926   1.895  0.5846  0.6009 -0.4621
 3165SOL     OW20956   3.930   1.786   1.190  0.6119 -0.2681 -0.1904
 3165SOL    HW120957   4.025   1.779   1.204  0.2974 -2.2358  0.8512
 3165SOL    HW220958   3.903   1.695   1.182 -0.4440  0.0748 -0.4714
 3166SOL     OW20959   2.120   1.379   6.301  0.5366  0.1488  0.7388
 3166SOL    HW120960   2.056   1.391   6.232  1.8227  1.2959 -0.2450
 3166SOL    HW220961   2.163   1.300   6.267  0.8823  0.4207  0.5390
 3167SOL     OW20962   4.192   1.112   5.083  0.0835  0.2678 -0.0388
 3167SOL    HW120963   4.148   1.089   5.164  2.1052  1.2869  1.3445
 3167SOL    HW220964   4.236   1.028   5.068  0.1999  0.2965  0.1415
 3168SOL     OW20965   0.208   4.637   5.596 -0.3494  0.4695  0.5459
 3168SOL    HW120966   0.219   4.660   5.504 -1.4162  0.3110  0.3800
 3168SOL    HW220967   0.262   4.701   5.643  0.2133  0.1089  0.3881
 3169SOL     OW20968   3.900   4.607   9.394 -0.3843 -0.6509 -0.4421
 3169SOL    HW120969   3.904   4.688   9.446 -1.5589 -2.0331  1.7855
 3169SOL    HW220970   3.992   4.609   9.368 -0.4050 -0.6925 -0.5178
 3170SOL     OW20971   3.811   1.139  17.278 -0.3857 -0.2062 -0.1604
 3170SOL    HW120972   3.840   1.228  17.297  0.9007 -0.5561 -0.4884
 3170SOL    HW220973   3.776   1.148  17.190  0.5055 -0.6896 -0.5719
 3171SOL     OW20974   1.734   4.403   5.250  0.2118 -0.4037 -0.0087
 3171SOL    HW120975   1.730   4.455   5.330  1.3076  0.4929 -0.5384
 3171SOL    HW220976   1.693   4.322   5.280  1.8580 -0.5226  1.9327
 3172SOL     OW20977   3.679   3.604  13.281  0.1597 -0.0476 -0.9345
 3172SOL    HW120978   3.683   3.517  13.320 -1.5325  1.1049  1.7699
 3172SOL    HW220979   3.741   3.597  13.208  0.0556  0.2596 -1.0547
 3173SOL     OW20980   2.052   4.388  12.186  0.4338  0.3070 -0.2578
 3173SOL    HW120981   2.065   4.483  12.189 -1.7127  0.5542  1.4013
 3173SOL    HW220982   1.963   4.385  12.153  1.3660 -0.1288 -2.7042
 3174SOL     OW20983   4.392   2.286   1.857  0.1461  0.0052  0.2959
 3174SOL    HW120984   4.364   2.345   1.787 -0.9397  0.4959  1.1380
 3174SOL    HW220985   4.313   2.251   1.897 -0.3120  0.8641  0.1492
 3175SOL     OW20986   1.224   3.811   7.897  0.5575  0.8428  0.0310
 3175SOL    HW120987   1.202   3.841   7.986 -1.1487  1.9897 -0.7680
 3175SOL    HW220988   1.277   3.735   7.921 -1.5245 -0.5689  0.1629
 3176SOL     OW20989   3.554   0.224   9.694  0.6598  0.0963 -0.7056
 3176SOL    HW120990   3.607   0.297   9.726  1.2304 -0.1239 -1.1564
 3176SOL    HW220991   3.586   0.157   9.755  1.0049 -0.1379 -1.1474
 3177SOL     OW20992   0.482   4.655   2.967 -0.6080 -0.5500 -0.2155
 3177SOL    HW120993   0.468   4.569   2.928  0.0837 -0.2230 -1.1848
 3177SOL    HW220994   0.538   4.698   2.902 -1.4804 -0.4471 -0.8897
 3178SOL     OW20995   2.083   1.306   4.820 -0.1000  0.3211  0.9222
 3178SOL    HW120996   2.102   1.215   4.845  1.0131  0.3065  0.0052
 3178SOL    HW220997   1.988   1.304   4.804  0.1622 -1.4897 -0.3896
 3179SOL     OW20998   2.103   0.193   9.352  0.3639  0.3283  0.0003
 3179SOL    HW120999   2.104   0.262   9.418 -0.1310 -2.3289  2.7852
 3179SOL    HW221000   2.035   0.230   9.296 -1.3785 -2.6681  0.1767
 3180SOL     OW21001   1.743   3.306   0.248  0.4259  0.2980  0.0288
 3180SOL    HW121002   1.689   3.292   0.325  0.2647 -2.0828 -0.5263
 3180SOL    HW221003   1.720   3.394   0.218  1.1358 -0.1876 -1.9523
 3181SOL     OW21004   1.637   0.181   5.665  0.3534 -0.3765 -0.2625
 3181SOL    HW121005   1.695   0.222   5.730 -0.1717 -0.6401  0.3708
 3181SOL    HW221006   1.701   0.145   5.603  0.3244  0.2503 -0.6506
 3182SOL     OW21007   3.059   1.713  14.015  0.3246 -0.0862  0.6465
 3182SOL    HW121008   3.093   1.700  14.103 -0.9313  2.4023  1.4947
 3182SOL    HW221009   3.014   1.797  14.024  1.4787  0.1069  4.3199
 3183SOL     OW21010   3.883   3.046  10.004  0.8111  0.1375  0.3803
 3183SOL    HW121011   3.814   3.091  10.053  0.7214  0.5549 -0.1340
 3183SOL    HW221012   3.904   3.104   9.931 -1.9860 -1.3931 -1.6296
 3184SOL     OW21013   2.041   2.885   3.655  0.5031  0.0460  0.2098
 3184SOL    HW121014   2.112   2.867   3.594  0.1912  1.7113 -0.6470
 3184SOL    HW221015   2.012   2.963   3.607 -1.0800 -1.1559 -0.7872
 3185SOL     OW21016   3.412   1.370   1.749 -0.1637  0.3067  0.8198
 3185SOL    HW121017   3.358   1.449   1.748 -0.6656 -0.0678 -0.4368
 3185SOL    HW221018   3.498   1.406   1.731 -0.1751 -0.3944 -0.5731
 3186SOL     OW21019   1.329   0.466   5.228 -0.0074 -0.1971  0.0320
 3186SOL    HW121020   1.375   0.428   5.303 -1.0858 -0.9084  0.3271
 3186SOL    HW221021   1.340   0.394   5.166  1.5909  0.4234 -0.4194
 3187SOL     OW21022   1.310   4.417   7.878 -0.1106  0.1607 -0.5392
 3187SOL    HW121023   1.277   4.391   7.964 -0.7103  0.5553 -0.6494
 3187SOL    HW221024   1.241   4.466   7.832  0.8430  0.1973 -1.9234
 3188SOL     OW21025   1.705   3.930   3.542  0.2544  0.1747  0.1285
 3188SOL    HW121026   1.640   4.000   3.546  1.0419  1.0313 -2.0980
 3188SOL    HW221027   1.683   3.880   3.464 -0.4761  1.7617 -0.6853
 3189SOL     OW21028   4.708   3.305  14.562 -0.1585  0.8321  0.1456
 3189SOL    HW121029   0.072   3.271  14.543 -0.1750  1.9781 -2.0987
 3189SOL    HW221030   4.703   3.372  14.493  1.6255  0.8280 -0.0020
 3190SOL     OW21031   4.701   2.303   0.583  0.5457  0.3343  0.0183
 3190SOL    HW121032   4.692   2.302   0.678  0.2253 -0.3177 -0.0193
 3190SOL    HW221033   4.646   2.228   0.559 -2.2825  1.5284  2.7195
 3191SOL     OW21034   3.908   2.726   9.818  0.3098 -0.7091 -0.2536
 3191SOL    HW121035   3.892   2.660   9.751  0.0825 -1.0963  0.1773
 3191SOL    HW221036   3.997   2.754   9.800 -0.5465  0.8875 -1.9587
 3192SOL     OW21037   3.077   1.933   2.535  0.2170  0.1377  0.3075
 3192SOL    HW121038   2.984   1.929   2.509  0.0639  1.7105  0.6331
 3192SOL    HW221039   3.069   1.958   2.627  1.1860 -1.8725  0.9228
 3193SOL     OW21040   0.493   2.162   4.435 -0.6494 -0.4584 -0.1773
 3193SOL    HW121041   0.523   2.076   4.406  1.9383  1.5281 -3.4262
 3193SOL    HW221042   0.418   2.192   4.383 -1.6919 -1.6794  0.6253
 3194SOL     OW21043   0.575   2.375   4.050 -0.1439 -0.2274 -0.4563
 3194SOL    HW121044   0.614   2.460   4.030  0.6374  0.0416  2.2265
 3194SOL    HW221045   0.650   2.315   4.055 -1.3072 -1.7145 -0.7958
 3195SOL     OW21046   1.651   2.411   2.506  0.2126  0.4012 -0.5261
 3195SOL    HW121047   1.595   2.481   2.538  0.9576 -0.6659  3.1046
 3195SOL    HW221048   1.590   2.358   2.455 -0.8792  0.0277  1.1622
 3196SOL     OW21049   3.957   4.527   6.640  0.0896  0.3675 -0.1700
 3196SOL    HW121050   3.896   4.503   6.710  0.0646  0.0439 -0.3013
 3196SOL    HW221051   3.986   4.442   6.606  0.5181  0.3781  0.1679
 3197SOL     OW21052   4.174   1.996   7.806  0.0130 -0.1765  0.0929
 3197SOL    HW121053   4.226   2.021   7.729 -1.7228  1.5459 -0.5302
 3197SOL    HW221054   4.153   1.907   7.775 -0.6854 -0.7479  2.2298
 3198SOL     OW21055   1.521   3.007  10.386 -0.3963 -0.0349 -0.2558
 3198SOL    HW121056   1.564   3.046  10.462 -0.0397 -0.6833 -0.1275
 3198SOL    HW221057   1.570   2.926  10.369 -0.3158 -0.1503  0.5005
 3199SOL     OW21058   0.024   4.486   6.289  0.0963  0.0814  0.5241
 3199SOL    HW121059   0.072   4.447   6.362 -0.1823 -1.0750  0.0885
 3199SOL    HW221060   0.088   4.555   6.269  1.0090 -0.5117  1.4025
 3200SOL     OW21061   3.585   0.825  13.990 -0.8942  0.1534 -0.1807
 3200SOL    HW121062   3.625   0.817  14.077 -0.2097 -2.4031 -0.7478
 3200SOL    HW221063   3.662   0.789  13.947  0.4096  0.6111  1.7570
 3201SOL     OW21064   0.673   0.341  16.515  0.7595 -0.3761  0.2915
 3201SOL    HW121065   0.767   0.346  16.493  1.0862 -0.5425  1.6461
 3201SOL    HW221066   0.665   0.394  16.594  1.2773  0.3519 -0.1432
 3202SOL     OW21067   0.372   4.206  13.709 -0.4684 -0.1183 -0.3808
 3202SOL    HW121068   0.441   4.186  13.646  1.0526  1.2401  0.8679
 3202SOL    HW221069   0.295   4.172  13.663 -0.2255  0.2185 -1.0431
 3203SOL     OW21070   4.519   1.048   6.617 -1.0566 -0.1055  0.4051
 3203SOL    HW121071   4.456   1.111   6.652 -2.1043 -1.7308  1.4444
 3203SOL    HW221072   4.506   1.065   6.524  1.4164  1.8329  0.4102
 3204SOL     OW21073   0.584   1.133  15.525  0.0742  0.4234  0.0776
 3204SOL    HW121074   0.666   1.174  15.497 -1.3333  1.6737 -2.1637
 3204SOL    HW221075   0.579   1.178  15.609 -2.0308 -0.4851  0.4338
 3205SOL     OW21076   0.933   1.697   3.830  0.4135 -0.2358 -0.1855
 3205SOL    HW121077   0.891   1.621   3.789 -0.4570  0.3582 -0.3896
 3205SOL    HW221078   0.884   1.709   3.911  1.4026 -1.9689  0.6827
 3206SOL     OW21079   1.044   4.140   1.951  0.6023 -0.1477 -0.1641
 3206SOL    HW121080   0.985   4.175   2.018 -0.9563  1.4088 -2.3763
 3206SOL    HW221081   1.124   4.126   2.002  0.0348  0.3994  0.8914
 3207SOL     OW21082   0.934   2.956   6.667 -0.3694 -0.1156 -0.0245
 3207SOL    HW121083   1.016   2.932   6.710 -0.3789 -0.4028 -0.1720
 3207SOL    HW221084   0.882   2.881   6.696  0.8379 -0.6405  0.7931
 3208SOL     OW21085   2.919   3.796   5.313 -0.9209 -0.2553  0.4427
 3208SOL    HW121086   2.923   3.821   5.406  0.2255  1.5726 -0.0961
 3208SOL    HW221087   2.826   3.809   5.295 -0.9047  2.7473  2.4445
 3209SOL     OW21088   3.262   1.171  17.330 -0.5461  0.2385  0.1693
 3209SOL    HW121089   3.327   1.241  17.342 -1.3606  1.2633 -1.4871
 3209SOL    HW221090   3.283   1.135  17.244 -1.1633 -1.1943  0.6177
 3210SOL     OW21091   4.646   3.180   1.250 -0.6740 -0.3680  0.2256
 3210SOL    HW121092   4.574   3.172   1.314  1.2922  2.2420  2.7304
 3210SOL    HW221093   4.588   3.193   1.175 -1.4233 -1.3042  0.6362
 3211SOL     OW21094   2.044   3.666   6.858 -0.1752 -0.2267 -0.4710
 3211SOL    HW121095   2.130   3.688   6.894 -1.1242  2.1445  0.3685
 3211SOL    HW221096   1.995   3.731   6.908 -1.3601  0.1857 -2.1758
 3212SOL     OW21097   1.433   2.473   4.090 -0.0968 -0.0181 -0.6755
 3212SOL    HW121098   1.441   2.427   4.174 -2.0901  0.3556 -0.2803
 3212SOL    HW221099   1.387   2.404   4.041 -0.2091 -1.6711  1.7454
 3213SOL     OW21100   3.449   2.046   1.284  0.0667  0.6347  0.5073
 3213SOL    HW121101   3.515   1.989   1.244  2.0949  3.7283 -0.5263
 3213SOL    HW221102   3.371   2.019   1.235  0.0038 -0.0111  0.9629
 3214SOL     OW21103   0.817   4.651   4.131  0.3219 -0.4989 -0.5145
 3214SOL    HW121104   0.811   0.022   4.121 -2.4189 -0.6181 -0.2082
 3214SOL    HW221105   0.876   4.633   4.204 -0.2134  0.4354  0.1505
 3215SOL     OW21106   1.605   0.205   3.539  0.5488  0.1916 -0.6290
 3215SOL    HW121107   1.586   0.226   3.447  0.1446 -1.1167 -0.8424
 3215SOL    HW221108   1.657   0.126   3.529 -1.7397 -1.5191  0.9276
 3216SOL     OW21109   2.196   0.490   7.225  0.1111  0.0837 -0.0852
 3216SOL    HW121110   2.170   0.543   7.300  0.3732 -1.1990  0.9089
 3216SOL    HW221111   2.281   0.532   7.210 -0.2107  0.5709 -0.5621
 3217SOL     OW21112   4.453   1.961   1.531  0.1260  0.0596  0.6058
 3217SOL    HW121113   4.376   1.908   1.550 -0.8071  1.2443  0.1522
 3217SOL    HW221114   4.421   2.010   1.455  0.2676 -0.0226  0.4941
 3218SOL     OW21115   3.954   0.947  15.489 -0.2811 -0.0467 -0.2141
 3218SOL    HW121116   4.003   0.875  15.530  1.3708  1.6775  0.8537
 3218SOL    HW221117   3.936   1.009  15.559 -1.2182 -1.6176  0.9470
 3219SOL     OW21118   1.057   2.528   7.223  1.2228  0.1604 -0.3585
 3219SOL    HW121119   1.018   2.516   7.136 -0.1285 -1.6536  0.4908
 3219SOL    HW221120   1.153   2.530   7.213  1.1668 -3.9433 -1.7707
 3220SOL     OW21121   0.445   2.899  14.762 -0.8256 -0.4229  0.0937
 3220SOL    HW121122   0.379   2.916  14.695  2.2186  1.5195 -2.3946
 3220SOL    HW221123   0.519   2.950  14.728 -1.2585 -0.0025 -0.2161
 3221SOL     OW21124   0.580   1.058   3.766  0.2077 -0.1395 -0.9571
 3221SOL    HW121125   0.534   0.975   3.755 -0.4114  0.4091 -2.4025
 3221SOL    HW221126   0.668   1.026   3.786 -0.5940 -1.3738  0.6198
 3222SOL     OW21127   4.511   2.915   3.354 -0.1090 -0.3615 -0.2551
 3222SOL    HW121128   4.571   2.844   3.375  0.1448  0.2335  1.0325
 3222SOL    HW221129   4.444   2.867   3.306 -0.5943 -0.3516  0.4036
 3223SOL     OW21130   0.066   0.864  10.101 -0.1386 -0.0381  0.0402
 3223SOL    HW121131   0.089   0.781  10.143 -0.0996 -0.1436 -0.1871
 3223SOL    HW221132   0.146   0.905  10.067  0.6705 -0.1443  1.8067
 3224SOL     OW21133   3.933   1.079  15.270  0.0080 -0.6347 -0.4061
 3224SOL    HW121134   3.925   1.033  15.353  2.3927 -1.2020 -0.4930
 3224SOL    HW221135   3.899   1.005  15.220 -0.6860 -0.2867 -0.4498
 3225SOL     OW21136   0.562   1.630   7.272  0.3888  0.0357 -0.7492
 3225SOL    HW121137   0.548   1.696   7.205  0.2945  1.9100  1.1193
 3225SOL    HW221138   0.493   1.650   7.336  0.6893  0.3410 -0.5180
 3226SOL     OW21139   2.566   3.335   9.340 -0.3839  0.2816  0.3547
 3226SOL    HW121140   2.649   3.368   9.374 -1.5247  0.2084  3.1950
 3226SOL    HW221141   2.525   3.301   9.419  0.2869 -1.1812  0.0634
 3227SOL     OW21142   4.262   0.426   9.580  0.4011 -0.1599  0.2042
 3227SOL    HW121143   4.340   0.479   9.570  0.9673 -1.2010 -0.9441
 3227SOL    HW221144   4.245   0.399   9.489  1.5216  0.2825 -0.1276
 3228SOL     OW21145   4.517   2.664  12.042 -0.7120 -0.5482  0.1548
 3228SOL    HW121146   4.601   2.624  12.018 -0.5872 -0.4823  0.4874
 3228SOL    HW221147   4.552   2.739  12.090 -1.8926  0.8748 -1.2003
 3229SOL     OW21148   4.240   0.215  11.841  0.3168 -0.2862 -0.2194
 3229SOL    HW121149   4.277   0.293  11.882 -0.7313  0.7053 -1.1785
 3229SOL    HW221150   4.183   0.248  11.772  0.4435 -0.4759 -0.4154
 3230SOL     OW21151   0.459   1.908   4.098 -0.9596 -0.0726 -0.3031
 3230SOL    HW121152   0.466   2.000   4.073 -1.5605 -0.0721 -0.4603
 3230SOL    HW221153   0.366   1.893   4.118 -0.7672  0.2935  0.8828
 3231SOL     OW21154   3.117   1.641  10.553 -0.0796  0.2606 -0.5129
 3231SOL    HW121155   3.137   1.702  10.623  0.6865 -2.5036  1.6982
 3231SOL    HW221156   3.180   1.670  10.487 -1.0152  1.5260 -0.8382
 3232SOL     OW21157   3.076   4.648  15.557  0.1126  0.1277 -0.0984
 3232SOL    HW121158   3.067   4.558  15.526 -0.3216  0.3727 -0.6713
 3232SOL    HW221159   3.026   4.693  15.490  0.3283 -0.6700 -0.7997
 3233SOL     OW21160   3.792   4.479  14.026 -0.6595  0.0171 -0.0722
 3233SOL    HW121161   3.866   4.523  13.983 -1.0492  0.4724 -0.2766
 3233SOL    HW221162   3.720   4.523  13.980 -0.9630  0.4967  0.8733
 3234SOL     OW21163   3.804   2.983  13.248 -0.0003 -0.4730  0.2689
 3234SOL    HW121164   3.877   2.947  13.197 -0.2349 -1.4006  0.5751
 3234SOL    HW221165   3.815   2.932  13.329  0.7916  0.3665  0.6825
 3235SOL     OW21166   4.020   4.260   0.760  0.1340 -0.0479 -0.2487
 3235SOL    HW121167   4.054   4.349   0.754 -0.8114  0.3721  0.6737
 3235SOL    HW221168   4.089   4.219   0.707  1.2956 -2.4568  3.1574
 3236SOL     OW21169   4.462   4.093   6.865 -1.0609  0.4365 -0.4026
 3236SOL    HW121170   4.422   4.010   6.893 -0.1975  0.0254 -0.3965
 3236SOL    HW221171   4.493   4.122   6.951  0.5972  1.4587 -1.3479
 3237SOL     OW21172   2.984   1.153  10.650 -0.0991  0.1270  0.5812
 3237SOL    HW121173   3.042   1.221  10.616  0.9285  0.4418  2.9764
 3237SOL    HW221174   3.052   1.108  10.700  0.5008 -0.9475 -1.1871
 3238SOL     OW21175   4.491   1.132   9.480  0.1662 -0.3884 -0.3405
 3238SOL    HW121176   4.509   1.168   9.394 -1.1346 -0.7047 -0.7428
 3238SOL    HW221177   4.459   1.212   9.522 -2.6368 -1.6174 -0.1053
 3239SOL     OW21178   0.364   1.391   7.324  0.0502 -0.0816 -0.0264
 3239SOL    HW121179   0.360   1.468   7.381 -1.3288  1.7468 -2.6281
 3239SOL    HW221180   0.280   1.354   7.351  0.1952  0.0308  0.5878
 3240SOL     OW21181   0.322   1.321   5.504 -0.0925 -0.4790 -0.9066
 3240SOL    HW121182   0.371   1.373   5.568 -1.1352 -2.5808  1.5952
 3240SOL    HW221183   0.251   1.291   5.561 -0.7105 -0.3522 -1.5991
 3241SOL     OW21184   3.636   2.468   7.990 -0.3300  0.3534  0.7351
 3241SOL    HW121185   3.682   2.547   8.019  0.5401  0.6422 -1.4126
 3241SOL    HW221186   3.595   2.494   7.907 -1.9324 -1.5975  0.9079
 3242SOL     OW21187   0.687   1.647  15.786 -0.1436 -0.3577  0.3145
 3242SOL    HW121188   0.679   1.587  15.712 -0.0065 -0.2815  0.2379
 3242SOL    HW221189   0.616   1.708  15.768  0.9585 -0.1469 -3.4178
 3243SOL     OW21190   4.316   4.352  15.985  0.0979 -0.1685 -0.1661
 3243SOL    HW121191   4.387   4.292  15.963 -1.5791 -2.4909  0.8498
 3243SOL    HW221192   4.240   4.294  15.986 -0.5504  0.6742 -0.3769
 3244SOL     OW21193   4.684   2.604   8.231 -0.3067 -0.3153  0.5020
 3244SOL    HW121194   4.682   2.698   8.212  0.9118 -0.3605  0.0968
 3244SOL    HW221195   4.671   2.579   8.139 -3.0635  0.5514  0.6562
 3245SOL     OW21196   0.632   0.778   6.766 -0.4265  0.0729 -0.8106
 3245SOL    HW121197   0.708   0.830   6.741 -0.2228  0.1260 -0.0763
 3245SOL    HW221198   0.569   0.796   6.696  1.1419  1.2201 -1.9152
 3246SOL     OW21199   0.022   2.031   2.648 -0.1730 -0.3061 -0.0800
 3246SOL    HW121200   0.027   1.996   2.559  0.6369  1.1909 -0.6254
 3246SOL    HW221201   0.007   2.123   2.626  1.0890 -0.1711 -0.3768
 3247SOL     OW21202   4.155   2.055   4.677 -0.4267  0.1183 -0.1427
 3247SOL    HW121203   4.186   2.116   4.744  2.9272 -2.0347  0.2860
 3247SOL    HW221204   4.079   2.025   4.727 -0.8896 -0.4134 -1.1649
 3248SOL     OW21205   1.421   4.188   8.725  0.5174  0.2651  0.2075
 3248SOL    HW121206   1.459   4.115   8.772 -1.3548 -0.3548  0.7866
 3248SOL    HW221207   1.385   4.244   8.794  3.5949 -0.1068  2.0792
 3249SOL     OW21208   3.909   2.576   4.393 -0.1743 -0.6303 -0.2992
 3249SOL    HW121209   3.998   2.582   4.358 -0.0065  0.0773  0.2380
 3249SOL    HW221210   3.870   2.650   4.347 -0.5333 -1.2171 -0.9417
 3250SOL     OW21211   1.661   3.678   2.938 -0.1142 -0.1182 -0.2538
 3250SOL    HW121212   1.676   3.660   2.845  1.2186 -1.9779  0.3241
 3250SOL    HW221213   1.714   3.757   2.954 -1.7042  1.2691 -1.8684
 3251SOL     OW21214   4.566   1.130  15.411  0.0003 -0.2484 -0.2416
 3251SOL    HW121215   4.543   1.135  15.318 -0.6045 -1.6189 -0.1552
 3251SOL    HW221216   4.541   1.040  15.430 -1.3076 -0.0219 -0.8507
 3252SOL     OW21217   3.750   4.100   4.698 -0.3510  0.5271 -0.3110
 3252SOL    HW121218   3.839   4.080   4.726 -1.2450 -1.0592  1.4140
 3252SOL    HW221219   3.758   4.078   4.605 -0.6828  1.0650 -0.4711
 3253SOL     OW21220   1.387   4.667   4.104 -0.7294 -0.6890 -0.0533
 3253SOL    HW121221   1.429   4.604   4.045 -0.3927 -2.6678  2.3232
 3253SOL    HW221222   1.451   4.678   4.174  0.4799 -0.7967 -1.1312
 3254SOL     OW21223   0.422   0.839   6.584 -0.2447  0.9538 -0.0627
 3254SOL    HW121224   0.355   0.771   6.580  0.3923  0.3516 -0.2924
 3254SOL    HW221225   0.432   0.863   6.492  1.6465 -0.9181 -0.3287
 3255SOL     OW21226   2.110   3.561   1.517 -0.2840  0.5057 -0.1477
 3255SOL    HW121227   2.181   3.616   1.485 -0.7249  1.2388  0.1260
 3255SOL    HW221228   2.085   3.606   1.598  1.2325 -0.5903  0.9170
 3256SOL     OW21229   0.857   3.647   4.530 -0.2064 -0.5210  0.1085
 3256SOL    HW121230   0.865   3.664   4.436  1.1298 -0.0577  0.3051
 3256SOL    HW221231   0.876   3.737   4.558 -1.1129 -0.5861  0.9651
 3257SOL     OW21232   2.868   2.608  17.598  0.3523  0.2876 -0.1622
 3257SOL    HW121233   2.791   2.662  17.577 -0.7548 -0.7949  1.0486
 3257SOL    HW221234   2.887   2.628  17.690  1.3158 -0.1791 -0.2625
 3258SOL     OW21235   4.551   2.979   4.109 -0.0086  0.0389 -0.1862
 3258SOL    HW121236   4.636   2.953   4.072 -0.3183  0.3196 -1.0871
 3258SOL    HW221237   4.491   3.001   4.038  1.3298  3.0347 -0.4000
 3259SOL     OW21238   1.433   3.546   3.959 -0.2698 -0.1297 -0.1328
 3259SOL    HW121239   1.476   3.624   3.995 -0.8160  1.1068 -2.1495
 3259SOL    HW221240   1.427   3.570   3.867  1.5463 -0.7381 -0.4216
 3260SOL     OW21241   4.482   2.140   2.466  0.6615 -0.2512  0.5495
 3260SOL    HW121242   4.551   2.197   2.500 -0.6457  0.4629  1.9847
 3260SOL    HW221243   4.513   2.133   2.376 -0.0115 -1.9420  0.4458
 3261SOL     OW21244   0.117   0.018   0.848 -0.0260 -0.0243  0.0061
 3261SOL    HW121245   0.189   4.696   0.891  0.9280  0.2885 -1.2627
 3261SOL    HW221246   0.123   4.703   0.761 -2.5263  1.7250 -0.9445
 3262SOL     OW21247   4.083   1.152  17.107  0.5416  0.2848  0.2925
 3262SOL    HW121248   4.113   1.204  17.032  1.1135 -0.1741  0.2034
 3262SOL    HW221249   3.990   1.171  17.102  0.8212  1.4465 -0.6762
 3263SOL     OW21250   0.285   3.550   4.128  0.2752  0.5204  0.7133
 3263SOL    HW121251   0.362   3.570   4.075  0.3748 -1.1688  0.1961
 3263SOL    HW221252   0.315   3.469   4.170 -2.3907 -0.5557  0.5782
 3264SOL     OW21253   0.975   0.529   2.599 -0.2092  0.1095  0.4818
 3264SOL    HW121254   0.958   0.556   2.509 -2.5281 -0.6345  0.7104
 3264SOL    HW221255   0.919   0.586   2.652 -0.4406 -0.0450  0.4029
 3265SOL     OW21256   0.702   1.109  10.654  1.0433  0.7357  0.1844
 3265SOL    HW121257   0.638   1.131  10.721  0.1932 -1.2034 -0.0145
 3265SOL    HW221258   0.664   1.025  10.629  0.6497  0.8538  0.3920
 3266SOL     OW21259   3.366   2.465   3.334 -0.5079  0.0838  0.4382
 3266SOL    HW121260   3.316   2.388   3.361 -0.5519 -0.9469 -2.5210
 3266SOL    HW221261   3.316   2.535   3.376 -1.8193 -0.6529  0.1139
 3267SOL     OW21262   3.261   0.151   3.077  0.1439 -0.0418  0.4480
 3267SOL    HW121263   3.271   0.222   3.014 -1.4396 -0.1823  0.0225
 3267SOL    HW221264   3.233   0.197   3.157 -0.7765  1.4182 -0.7098
 3268SOL     OW21265   3.467   1.228   4.585 -0.8909  0.5209 -0.0522
 3268SOL    HW121266   3.463   1.255   4.493 -1.5733 -2.1005 -0.8158
 3268SOL    HW221267   3.545   1.275   4.614  0.2138 -0.8538 -0.8058
 3269SOL     OW21268   1.875   2.249  17.523 -0.0361 -0.2584  0.1520
 3269SOL    HW121269   1.962   2.288  17.515  0.1896 -0.9094 -0.6088
 3269SOL    HW221270   1.820   2.328  17.533  0.5674  0.3102 -1.0277
 3270SOL     OW21271   0.444   2.444   5.878 -0.0338  0.6461 -0.0547
 3270SOL    HW121272   0.368   2.451   5.819 -0.4197  0.2692  0.3955
 3270SOL    HW221273   0.438   2.521   5.935  0.1998  1.3761 -1.0184
 3271SOL     OW21274   3.023   4.200   5.592 -0.1164  0.4504 -0.2667
 3271SOL    HW121275   2.972   4.282   5.596 -0.7613 -0.1114  2.7366
 3271SOL    HW221276   3.074   4.222   5.514  1.4271  0.3464  0.7247
 3272SOL     OW21277   3.891   3.367  14.088  0.2103  0.5999  0.0662
 3272SOL    HW121278   3.844   3.448  14.108 -0.1984  0.1557  0.8995
 3272SOL    HW221279   3.820   3.304  14.076  0.1023  0.8139 -0.3950
 3273SOL     OW21280   4.489   4.712   3.988 -0.0085  0.4729  0.3419
 3273SOL    HW121281   4.410   4.713   3.934  1.0003 -1.9365 -1.1533
 3273SOL    HW221282   4.486   0.073   4.033  1.9583  1.4748 -1.4456
 3274SOL     OW21283   2.407   0.894   7.179  0.0811 -0.7426 -0.1645
 3274SOL    HW121284   2.325   0.930   7.144  1.0439  0.4564 -1.1907
 3274SOL    HW221285   2.391   0.891   7.273  0.4156 -2.0340 -0.1517
 3275SOL     OW21286   0.854   1.997   5.429 -0.1822  0.8303  0.3242
 3275SOL    HW121287   0.940   2.032   5.409  0.7783 -0.3889  2.2835
 3275SOL    HW221288   0.868   1.946   5.509  1.8774 -1.2963 -1.3847
 3276SOL     OW21289   4.406   2.318  10.340  0.2286  0.3932 -0.5158
 3276SOL    HW121290   4.353   2.300  10.263  2.8866 -1.2904 -1.9802
 3276SOL    HW221291   4.457   2.396  10.317  1.3390 -0.2475 -0.2577
 3277SOL     OW21292   3.850   4.443   6.292  0.3287  0.0805 -0.1851
 3277SOL    HW121293   3.799   4.484   6.362 -0.3848 -0.8070 -0.1877
 3277SOL    HW221294   3.794   4.478   6.223 -0.3867 -1.1519 -0.2179
 3278SOL     OW21295   3.136   3.470  15.365  1.4906 -0.2232 -0.4931
 3278SOL    HW121296   3.126   3.432  15.452 -2.8058  1.6012 -0.1773
 3278SOL    HW221297   3.045   3.497  15.349  2.0837  2.6474  0.9183
 3279SOL     OW21298   0.766   3.205   6.568  0.3744  0.3641  0.1838
 3279SOL    HW121299   0.832   3.135   6.574  0.9590  1.0430  1.6905
 3279SOL    HW221300   0.801   3.264   6.501 -0.3049  1.4761  0.8200
 3280SOL     OW21301   1.139   3.166   2.321  0.0603 -0.3113 -0.0250
 3280SOL    HW121302   1.052   3.152   2.357 -1.4534 -0.0097 -3.5747
 3280SOL    HW221303   1.202   3.176   2.392 -1.3640  1.0383  1.0318
 3281SOL     OW21304   0.284   2.281  17.128 -0.5633  0.3069 -0.3499
 3281SOL    HW121305   0.357   2.341  17.145  0.3154 -0.9803  0.3984
 3281SOL    HW221306   0.318   2.222  17.061 -0.2293  0.0825  0.0173
 3282SOL     OW21307   2.244   1.807  11.137 -0.1612  0.2141  0.6470
 3282SOL    HW121308   2.333   1.771  11.137 -0.0045  0.6065 -1.8158
 3282SOL    HW221309   2.185   1.732  11.144  0.9416 -0.6505  0.7287
 3283SOL     OW21310   2.909   0.975  15.874  0.0382 -0.9359 -0.0965
 3283SOL    HW121311   2.992   0.931  15.857  1.1498  1.2120 -0.2791
 3283SOL    HW221312   2.928   1.063  15.841  2.3455 -0.7453  1.7129
 3284SOL     OW21313   1.493   2.633   2.588 -0.1174 -0.2394 -0.4129
 3284SOL    HW121314   1.548   2.686   2.646  0.5629 -1.1690 -0.2122
 3284SOL    HW221315   1.431   2.703   2.568  0.3174 -0.1383 -1.4101
 3285SOL     OW21316   0.926   3.865   2.808  0.1935 -0.6595 -0.0935
 3285SOL    HW121317   0.933   3.771   2.823  1.4972 -0.6046 -0.3549
 3285SOL    HW221318   0.938   3.870   2.714 -0.4185  0.1855 -0.1291
 3286SOL     OW21319   3.363   2.593   4.062  0.1577  0.1550  0.3625
 3286SOL    HW121320   3.309   2.632   4.131 -1.6946  0.5002 -1.2920
 3286SOL    HW221321   3.408   2.672   4.033 -0.6858 -0.0976 -1.6224
 3287SOL     OW21322   3.161   2.447   4.981 -0.1659  0.4490 -0.6685
 3287SOL    HW121323   3.116   2.373   5.022 -0.2354  0.7345 -0.2296
 3287SOL    HW221324   3.082   2.501   4.972 -0.1822  0.0862 -2.7044
 3288SOL     OW21325   2.104   4.593  12.546  0.3175  0.5407 -0.1276
 3288SOL    HW121326   2.088   4.659  12.613  1.9782 -1.2584  2.0714
 3288SOL    HW221327   2.023   4.542  12.549 -0.2026  1.3601 -0.3009
 3289SOL     OW21328   2.393   3.903   0.666 -0.4249 -0.5819  0.4675
 3289SOL    HW121329   2.452   3.834   0.698 -0.6844 -1.0741 -0.1230
 3289SOL    HW221330   2.321   3.841   0.658  0.0727 -1.1255  0.2216
 3290SOL     OW21331   3.327   1.616  12.864  0.2315 -0.0315 -0.4157
 3290SOL    HW121332   3.309   1.683  12.797 -1.3070  0.3174  0.3555
 3290SOL    HW221333   3.325   1.539  12.807 -0.4021  0.1750 -0.6781
 3291SOL     OW21334   1.361   3.020   3.539 -0.3175  0.4819 -0.0388
 3291SOL    HW121335   1.445   3.062   3.559 -1.5045  1.1239  3.6412
 3291SOL    HW221336   1.369   2.988   3.449 -1.1418  0.7778 -0.2145
 3292SOL     OW21337   0.879   0.317  13.612  0.4045 -0.2964  1.1563
 3292SOL    HW121338   0.846   0.406  13.617 -0.2498 -0.5243  0.8808
 3292SOL    HW221339   0.967   0.334  13.578  1.0832 -0.9077  2.5985
 3293SOL     OW21340   4.573   1.370  15.533 -0.0684  0.2889 -0.3129
 3293SOL    HW121341   4.557   1.430  15.460 -0.9523  0.6941  0.2166
 3293SOL    HW221342   4.579   1.286  15.487  0.5081  0.9519 -1.4443
 3294SOL     OW21343   3.204   3.735   7.789 -0.1021 -0.4068 -0.7385
 3294SOL    HW121344   3.284   3.780   7.761 -0.2075  1.0376  1.3799
 3294SOL    HW221345   3.193   3.672   7.717 -0.4447 -3.1026  1.6861
 3295SOL     OW21346   3.881   3.274   4.183 -0.1530 -0.0879  0.1471
 3295SOL    HW121347   3.878   3.363   4.219 -2.3477  0.4640 -1.4580
 3295SOL    HW221348   3.823   3.229   4.244 -0.8498 -0.8344 -1.0797
 3296SOL     OW21349   4.504   0.046   8.374 -0.6947 -0.0439  0.0192
 3296SOL    HW121350   4.450   0.100   8.432  1.5543  0.5421  1.5858
 3296SOL    HW221351   4.470   4.681   8.379  0.2955 -0.3114  2.3636
 3297SOL     OW21352   3.900   4.474   1.889 -0.3991  0.0521 -0.8035
 3297SOL    HW121353   3.989   4.447   1.868 -0.5383 -2.1340  1.3837
 3297SOL    HW221354   3.905   4.519   1.974  0.0808  0.1668 -0.8920
 3298SOL     OW21355   2.569   0.494   5.285  0.0674  0.3988 -0.5712
 3298SOL    HW121356   2.517   0.497   5.205 -0.7573 -1.3266 -0.1170
 3298SOL    HW221357   2.615   0.577   5.277  2.9641 -1.0429  0.9908
 3299SOL     OW21358   2.459   0.955   4.552  0.1686  0.4460 -0.1930
 3299SOL    HW121359   2.406   1.020   4.505  1.1560  2.4092  1.3929
 3299SOL    HW221360   2.541   1.004   4.556 -0.3405  1.2180  0.8184
 3300SOL     OW21361   1.316   0.192   8.864 -0.2515 -0.2258  0.0658
 3300SOL    HW121362   1.248   0.197   8.931  0.1140 -1.2964  0.5208
 3300SOL    HW221363   1.261   0.182   8.786 -1.9531  0.1901  1.2128
 3301SOL     OW21364   3.441   4.455   2.113 -0.0530  0.0852 -0.0051
 3301SOL    HW121365   3.475   4.486   2.197 -1.3286 -4.2544  2.0632
 3301SOL    HW221366   3.480   4.368   2.106 -3.0149 -1.1833 -0.6441
 3302SOL     OW21367   0.898   4.616   4.462  0.1144 -0.1604  0.1225
 3302SOL    HW121368   0.820   4.619   4.517  0.4644  0.3631  0.5847
 3302SOL    HW221369   0.896   4.524   4.434  0.5883 -0.4511  1.0515
 3303SOL     OW21370   0.961   3.951   6.181  0.2925  1.0298 -0.0233
 3303SOL    HW121371   0.996   3.944   6.092 -0.1717 -1.1195 -0.0319
 3303SOL    HW221372   0.911   3.870   6.185  0.5390  0.8724 -0.1288
 3304SOL     OW21373   1.167   2.057   1.813 -0.3269  0.3012 -0.0989
 3304SOL    HW121374   1.115   2.001   1.871 -1.3896  0.3657 -0.9742
 3304SOL    HW221375   1.123   2.039   1.730 -0.3832 -0.1060  0.0175
 3305SOL     OW21376   0.971   4.069   0.933  0.3507  0.3278 -0.4874
 3305SOL    HW121377   0.982   4.036   1.023 -0.6938 -0.0219 -0.4875
 3305SOL    HW221378   0.890   4.119   0.934 -0.3276 -0.8097  1.3080
 3306SOL     OW21379   4.549   0.963   8.819 -0.7706 -0.1227 -0.3481
 3306SOL    HW121380   4.579   1.028   8.882 -1.9311  1.9937 -2.0019
 3306SOL    HW221381   4.528   1.017   8.743 -0.6529  1.3979  0.7142
 3307SOL     OW21382   2.331   0.800   3.816 -0.2089 -0.2491 -0.1630
 3307SOL    HW121383   2.303   0.708   3.812 -3.2708  0.6695 -0.0675
 3307SOL    HW221384   2.423   0.788   3.836  0.1930  1.6830 -0.8345
 3308SOL     OW21385   2.232   3.094   5.010 -0.5972  0.1357  0.0668
 3308SOL    HW121386   2.191   3.069   4.927  0.7985 -1.5132 -0.1139
 3308SOL    HW221387   2.236   3.006   5.045 -0.6749 -0.6301 -1.8295
 3309SOL     OW21388   3.528   4.185   3.289  0.0118 -1.0490  0.5715
 3309SOL    HW121389   3.439   4.202   3.319 -0.4441  1.4393 -2.2051
 3309SOL    HW221390   3.518   4.100   3.246 -0.7837  0.0538 -1.3906
 3310SOL     OW21391   2.850   3.193  15.928 -0.4280 -0.2512  0.2147
 3310SOL    HW121392   2.776   3.164  15.874  0.1498 -0.5479 -0.4118
 3310SOL    HW221393   2.810   3.266  15.976  1.3803  0.7782  0.1697
 3311SOL     OW21394   1.511   0.024  15.972  0.2134 -0.0033  0.5195
 3311SOL    HW121395   1.420   0.002  15.953  1.3410 -0.6581 -3.9253
 3311SOL    HW221396   1.517   0.119  15.965  1.6356 -0.2273 -1.1579
 3312SOL     OW21397   2.394   1.519  10.952  0.0747  0.2469 -0.4549
 3312SOL    HW121398   2.376   1.512  11.046 -0.4021  1.2128 -0.4715
 3312SOL    HW221399   2.430   1.608  10.945 -1.0283  0.7381  0.1194
 3313SOL     OW21400   2.778   1.107  10.426  0.7163 -0.5090  0.0276
 3313SOL    HW121401   2.730   1.084  10.347 -1.1193 -0.1974  1.0354
 3313SOL    HW221402   2.866   1.117  10.392  0.9840 -1.8394  0.3280
 3314SOL     OW21403   2.789   2.023   8.584 -0.3707  0.1231 -0.1148
 3314SOL    HW121404   2.707   2.042   8.540 -0.4478 -0.3937 -0.1975
 3314SOL    HW221405   2.847   2.081   8.534 -0.3387 -1.0086 -1.4145
 3315SOL     OW21406   2.366   1.814  10.602  0.2411  0.5567 -0.9360
 3315SOL    HW121407   2.302   1.772  10.544  2.2751 -2.8433 -0.7195
 3315SOL    HW221408   2.317   1.893  10.624  0.7501  1.0961 -1.7687
 3316SOL     OW21409   1.897   3.154   5.301 -0.0688 -0.0219 -0.4457
 3316SOL    HW121410   1.961   3.102   5.253 -0.3625  0.9309 -1.8704
 3316SOL    HW221411   1.925   3.155   5.393  0.9074  0.1197 -0.7444
 3317SOL     OW21412   1.280   0.163   3.244  0.0545  0.1053 -0.2278
 3317SOL    HW121413   1.230   0.175   3.325 -1.7508 -2.6223 -0.9570
 3317SOL    HW221414   1.236   0.229   3.190 -0.0241  0.4975  0.3087
 3318SOL     OW21415   3.472   2.225   0.685 -0.4789  0.3362  0.0731
 3318SOL    HW121416   3.446   2.317   0.686  0.4841  0.6070  0.8882
 3318SOL    HW221417   3.554   2.222   0.734  0.5971 -0.5051 -1.7655
 3319SOL     OW21418   4.198   2.562   4.262  0.5840  0.2021 -0.6023
 3319SOL    HW121419   4.186   2.640   4.207  3.1692  1.3079  0.4128
 3319SOL    HW221420   4.245   2.506   4.201  1.6423  0.7352 -0.2722
 3320SOL     OW21421   4.607   2.707   1.589 -0.1891  0.2802 -0.4098
 3320SOL    HW121422   4.699   2.718   1.610 -0.1712 -0.7888  0.0755
 3320SOL    HW221423   4.605   2.726   1.496  0.9747  1.2648 -0.2314
 3321SOL     OW21424   1.014   3.655  16.647 -0.7605  0.0863 -0.9107
 3321SOL    HW121425   0.981   3.744  16.634  1.9778  1.3089  0.5395
 3321SOL    HW221426   1.097   3.659  16.599 -1.0128  1.9052 -1.2045
 3322SOL     OW21427   0.838   0.426   6.673 -0.0182 -0.1941 -0.5855
 3322SOL    HW121428   0.791   0.485   6.732  0.5221  0.6524 -0.9985
 3322SOL    HW221429   0.890   0.375   6.735  0.0639 -1.9542 -2.0823
 3323SOL     OW21430   0.250   2.536   2.406 -0.0441  0.5101 -0.3996
 3323SOL    HW121431   0.250   2.444   2.379  0.9486  0.1817  0.7249
 3323SOL    HW221432   0.156   2.552   2.398 -0.1192  1.0821  1.5902
 3324SOL     OW21433   0.925   1.901   2.801  0.6122 -0.2226 -0.0449
 3324SOL    HW121434   0.881   1.846   2.736  1.9432 -0.4929 -0.7252
 3324SOL    HW221435   0.958   1.836   2.862 -0.1467  1.0097  1.6811
 3325SOL     OW21436   3.681   3.117   2.642  0.0424 -1.0047 -0.1717
 3325SOL    HW121437   3.776   3.102   2.635  0.4745  1.6054  0.0866
 3325SOL    HW221438   3.648   3.110   2.552 -0.7937  2.8086 -0.1946
 3326SOL     OW21439   3.109   3.288   1.826  0.2433 -1.1053  0.2256
 3326SOL    HW121440   3.024   3.309   1.865  1.5845  0.5815  2.2246
 3326SOL    HW221441   3.167   3.331   1.889  0.3260 -3.1610  1.5647
 3327SOL     OW21442   2.015   1.656   0.818  0.3522  0.2214  0.1647
 3327SOL    HW121443   1.998   1.748   0.801  0.3487 -0.2496 -2.4803
 3327SOL    HW221444   1.978   1.620   0.737 -0.1678  0.7268  0.1808
 3328SOL     OW21445   0.801   0.277   4.246 -0.6363 -0.3319  0.2589
 3328SOL    HW121446   0.796   0.365   4.209 -2.8788 -0.8586 -0.7128
 3328SOL    HW221447   0.769   0.300   4.333  0.9543 -1.5756  1.1873
 3329SOL     OW21448   4.126   3.877   7.327 -0.2075  0.2210  0.5663
 3329SOL    HW121449   4.063   3.806   7.313  1.7707 -1.4090 -0.1430
 3329SOL    HW221450   4.094   3.942   7.265 -1.7655  0.3565  1.5264
 3330SOL     OW21451   3.932   4.397   8.575 -0.1968 -0.1730 -0.5967
 3330SOL    HW121452   3.959   4.448   8.498  2.8946 -1.1648 -0.1590
 3330SOL    HW221453   3.929   4.463   8.644 -2.8187 -1.5154  0.5489
 3331SOL     OW21454   1.227   3.747   7.502 -0.1688 -0.0631 -0.6782
 3331SOL    HW121455   1.253   3.814   7.438 -1.6238  1.7515  0.6578
 3331SOL    HW221456   1.310   3.705   7.526 -0.5981  0.3854  1.5684
 3332SOL     OW21457   2.274   2.301   0.731 -0.4471  0.0492 -0.2944
 3332SOL    HW121458   2.314   2.367   0.675 -1.3780 -0.3500 -1.4347
 3332SOL    HW221459   2.222   2.249   0.670  1.4788 -1.9653 -0.2467
 3333SOL     OW21460   2.887   2.730   5.806 -0.1275 -0.0083  0.1691
 3333SOL    HW121461   2.925   2.652   5.764  0.8007  0.4810  0.0955
 3333SOL    HW221462   2.925   2.719   5.893  1.8870 -0.9082 -0.8001
 3334SOL     OW21463   0.507   0.819   5.187 -0.0695 -0.0020  0.1453
 3334SOL    HW121464   0.572   0.854   5.248  0.1261  0.1836 -0.1706
 3334SOL    HW221465   0.568   0.805   5.114 -0.4471 -0.6682 -0.0481
 3335SOL     OW21466   1.315   4.297   4.106 -0.3132 -0.4018  0.1472
 3335SOL    HW121467   1.243   4.360   4.105  1.1190  1.2778  1.3883
 3335SOL    HW221468   1.383   4.355   4.070  0.8391 -2.0975 -0.4094
 3336SOL     OW21469   1.728   1.611  15.600  0.5111 -0.0398 -0.2669
 3336SOL    HW121470   1.699   1.698  15.573 -1.4986 -0.5403  0.3010
 3336SOL    HW221471   1.722   1.561  15.519  0.2695 -0.5450  0.0684
 3337SOL     OW21472   2.500   0.702  15.596  0.6215 -0.2378 -0.4905
 3337SOL    HW121473   2.487   0.755  15.674  1.3753  1.0591 -1.2565
 3337SOL    HW221474   2.594   0.709  15.580  0.3515  0.6028 -1.6977
 3338SOL     OW21475   2.411   0.997   2.506 -0.5175  0.1320  0.5902
 3338SOL    HW121476   2.363   0.920   2.475  1.6977 -1.7017  1.7881
 3338SOL    HW221477   2.425   1.049   2.426  0.1609 -2.4665 -0.9884
 3339SOL     OW21478   3.212   1.817   7.433  0.3520 -0.3635 -0.1397
 3339SOL    HW121479   3.216   1.759   7.357  0.0978 -1.8637  1.0009
 3339SOL    HW221480   3.161   1.768   7.498  0.5407 -0.6487 -0.2099
 3340SOL     OW21481   0.162   0.722  16.630  0.4749 -0.8394  0.0828
 3340SOL    HW121482   0.117   0.668  16.565 -0.3196  1.2537 -1.1027
 3340SOL    HW221483   0.082   0.770  16.648 -0.9178 -2.9261 -0.5267
 3341SOL     OW21484   4.700   1.148  11.947 -0.2248 -0.1183 -0.5610
 3341SOL    HW121485   0.043   1.100  11.996 -0.1629  0.8258  0.2686
 3341SOL    HW221486   4.653   1.074  11.907 -0.6721 -0.0147 -0.2236
 3342SOL     OW21487   4.654   2.688   7.282  0.4018 -1.0503  0.3645
 3342SOL    HW121488   4.566   2.676   7.318 -0.0632 -1.5637 -0.9624
 3342SOL    HW221489   4.697   2.746   7.345  1.6405  2.3195 -3.5874
 3343SOL     OW21490   3.920   1.001   2.805 -0.0214  0.2047  0.3903
 3343SOL    HW121491   3.851   1.065   2.823 -1.7970 -1.9955  1.3171
 3343SOL    HW221492   3.873   0.918   2.809  0.9825 -0.4990 -2.7475
 3344SOL     OW21493   2.963   0.605   6.077 -0.2545  0.1522  0.5026
 3344SOL    HW121494   2.925   0.685   6.042 -0.0002  0.0682  0.0384
 3344SOL    HW221495   2.979   0.556   5.996 -0.3033  1.7121 -0.4425
 3345SOL     OW21496   1.653   3.176   4.252  0.2813 -0.1739 -0.3954
 3345SOL    HW121497   1.593   3.101   4.255 -0.3938  0.2423 -4.0036
 3345SOL    HW221498   1.619   3.219   4.174  1.7338  0.7014 -0.5344
 3346SOL     OW21499   2.511   0.385  14.252  0.1929  0.5115  0.3761
 3346SOL    HW121500   2.492   0.330  14.328  0.3187 -1.3144 -0.9125
 3346SOL    HW221501   2.554   0.320  14.196 -0.2397  0.8841 -0.3934
 3347SOL     OW21502   0.042   0.916   7.964 -0.2026 -0.2069  0.2538
 3347SOL    HW121503   0.101   0.876   7.900  1.1898 -0.0341  1.4275
 3347SOL    HW221504   0.092   0.907   8.045  0.2046  3.9933  0.4720
 3348SOL     OW21505   1.163   0.902   3.753  0.2472  0.7579 -0.3856
 3348SOL    HW121506   1.146   0.995   3.771  0.0635  0.1932  2.4768
 3348SOL    HW221507   1.195   0.876   3.840 -1.6238  0.6814  0.2704
 3349SOL     OW21508   4.225   0.955   8.266 -0.3778  0.4615  0.1398
 3349SOL    HW121509   4.171   0.881   8.239 -2.1040  2.4869 -2.0194
 3349SOL    HW221510   4.173   0.992   8.337  0.3328  0.4814  0.6547
 3350SOL     OW21511   4.376   0.722   2.044 -0.1801 -0.8976  0.3767
 3350SOL    HW121512   4.315   0.739   2.116  0.1581 -0.7963  0.6388
 3350SOL    HW221513   4.433   0.649   2.069  1.6171  0.0044 -1.0301
 3351SOL     OW21514   1.698   4.037   9.398 -0.4534 -0.2029 -0.3397
 3351SOL    HW121515   1.621   3.989   9.368 -0.8453  0.5771 -0.5924
 3351SOL    HW221516   1.728   4.070   9.313  0.0172 -0.7865 -0.4002
 3352SOL     OW21517   2.699   1.933   5.382  0.3799 -0.2219 -0.0492
 3352SOL    HW121518   2.742   1.857   5.422  1.3541  0.3311 -0.0441
 3352SOL    HW221519   2.709   2.000   5.450 -1.0632 -1.5399  1.4915
 3353SOL     OW21520   0.103   1.870  15.747 -0.2032 -0.2401 -0.1222
 3353SOL    HW121521   0.044   1.838  15.679  2.6363 -0.8682 -2.2787
 3353SOL    HW221522   0.162   1.799  15.773  0.2498  0.0735 -0.3057
 3354SOL     OW21523   2.616   0.528  12.706  0.1457  0.1747 -0.0774
 3354SOL    HW121524   2.661   0.444  12.715 -1.7408 -0.9517 -1.1540
 3354SOL    HW221525   2.543   0.519  12.766  0.8850  0.0290  0.7968
 3355SOL     OW21526   3.064   4.038   3.213  0.1679 -0.0553  0.0030
 3355SOL    HW121527   3.138   4.072   3.263 -0.6432  0.4675  0.8438
 3355SOL    HW221528   3.097   4.024   3.124 -0.8188  0.9388 -0.5183
 3356SOL     OW21529   1.299   1.170   8.562 -0.4269 -0.1298  0.0159
 3356SOL    HW121530   1.372   1.217   8.521  0.1957  0.9406  2.3607
 3356SOL    HW221531   1.222   1.200   8.514 -0.2338 -1.7051 -1.2675
 3357SOL     OW21532   1.111   3.416  10.433 -0.0773  0.8572  0.4154
 3357SOL    HW121533   1.176   3.360  10.391 -1.1950  0.0381 -0.2059
 3357SOL    HW221534   1.087   3.358  10.505 -0.5694  2.1788  1.3185
 3358SOL     OW21535   4.585   3.686   8.593  0.6292 -0.6085  0.1741
 3358SOL    HW121536   4.542   3.757   8.545  0.2170  0.4952  2.1873
 3358SOL    HW221537   4.638   3.647   8.523  1.7125  0.1311  0.5886
 3359SOL     OW21538   0.036   0.917   6.542  0.7035 -0.1417 -0.3091
 3359SOL    HW121539   0.054   0.907   6.635 -1.4586 -2.0109 -0.0686
 3359SOL    HW221540   4.707   0.996   6.536 -1.4977 -1.5622  0.3148
 3360SOL     OW21541   1.319   4.047   7.762  0.3259 -0.1352 -0.0599
 3360SOL    HW121542   1.233   4.079   7.735  0.8732  1.1864 -0.2514
 3360SOL    HW221543   1.304   3.952   7.759  1.1341 -0.2784  0.3065
 3361SOL     OW21544   0.895   3.825   8.357  0.4997 -0.5234  0.0047
 3361SOL    HW121545   0.987   3.808   8.377  0.6592 -0.2066 -0.4716
 3361SOL    HW221546   0.916   3.897   8.299 -1.4131 -0.0356 -0.0998
 3362SOL     OW21547   1.624   2.352  14.948 -0.2168  0.8259  0.6258
 3362SOL    HW121548   1.674   2.431  14.926  2.0574 -1.1446 -1.2189
 3362SOL    HW221549   1.678   2.313  15.017 -0.0677  0.3517  0.2399
 3363SOL     OW21550   3.710   2.210   6.151  0.1975  0.8808 -0.0770
 3363SOL    HW121551   3.660   2.179   6.075 -0.1912  0.0655  0.5039
 3363SOL    HW221552   3.647   2.201   6.223  0.8794 -1.1082  0.2668
 3364SOL     OW21553   4.656   4.721  13.062  0.3380  0.0902 -0.2675
 3364SOL    HW121554   4.650   0.092  13.052 -2.1317 -0.2314 -1.6804
 3364SOL    HW221555   4.599   4.712  13.138 -0.9292  2.4327 -0.9507
 3365SOL     OW21556   4.127   0.155   7.003 -0.3985  0.7527 -0.0271
 3365SOL    HW121557   4.045   0.193   7.034 -1.5168 -0.5542 -1.3431
 3365SOL    HW221558   4.125   0.074   7.055 -0.8469 -0.2657 -1.6156
 3366SOL     OW21559   2.301   3.388   4.635 -0.1829  0.1509 -0.4253
 3366SOL    HW121560   2.345   3.304   4.640 -1.1775 -0.2091  2.0441
 3366SOL    HW221561   2.352   3.428   4.564  0.0465 -1.4337 -1.1351
 3367SOL     OW21562   0.252   3.658   2.808  0.4667 -0.1502  0.3205
 3367SOL    HW121563   0.310   3.702   2.746  0.6960 -0.3824  0.3704
 3367SOL    HW221564   0.304   3.584   2.839 -0.4967 -0.8501  0.2763
 3368SOL     OW21565   1.079   2.513  11.307 -0.1290  0.1625 -0.0660
 3368SOL    HW121566   1.067   2.582  11.241  1.1133 -0.0982 -0.5586
 3368SOL    HW221567   1.012   2.453  11.274 -0.2301 -1.8304  3.7668
 3369SOL     OW21568   1.360   2.511  11.307 -0.3276 -0.0617 -0.1075
 3369SOL    HW121569   1.265   2.511  11.295 -0.4830  0.0961  1.1908
 3369SOL    HW221570   1.365   2.529  11.401 -1.5241 -2.4429  0.4035
 3370SOL     OW21571   2.909   0.487   5.084 -0.4191  0.1152  0.1367
 3370SOL    HW121572   2.978   0.427   5.115  0.6990  1.2794 -0.0856
 3370SOL    HW221573   2.963   0.548   5.033  0.8356  0.0186  1.3463
 3371SOL     OW21574   0.561   0.062   3.885 -0.2092 -0.5992  0.0689
 3371SOL    HW121575   0.504   0.027   3.953 -0.6687  0.5885  0.3011
 3371SOL    HW221576   0.521   0.035   3.802  0.3987 -0.3976 -0.2895
 3372SOL     OW21577   2.141   4.722   8.265  0.2059  0.1076  0.6123
 3372SOL    HW121578   2.226   0.002   8.309  1.9792  0.1162 -2.7884
 3372SOL    HW221579   2.172   4.706   8.176 -2.5497 -0.8446 -0.1520
 3373SOL     OW21580   4.058   1.022   4.444 -0.0935  0.7090  0.0033
 3373SOL    HW121581   4.138   1.071   4.463  1.5767 -2.5296  1.2981
 3373SOL    HW221582   4.013   1.065   4.371 -0.6652  1.8930  1.0699
 3374SOL     OW21583   4.556   0.902   1.614  0.4685  0.0628  0.4339
 3374SOL    HW121584   4.612   0.844   1.666  2.0845  1.6146  0.4044
 3374SOL    HW221585   4.470   0.889   1.655 -0.0451  0.2890 -0.5778
 3375SOL     OW21586   0.060   2.479   1.783 -0.3885  0.3628  0.2194
 3375SOL    HW121587   0.140   2.481   1.730 -0.3516  2.4455  0.3411
 3375SOL    HW221588   0.080   2.408   1.844  0.6163 -0.1479 -0.7012
 3376SOL     OW21589   4.001   4.188   6.855 -0.1449 -0.0386 -0.1976
 3376SOL    HW121590   4.019   4.197   6.762  0.1994  1.1441 -0.0126
 3376SOL    HW221591   3.912   4.153   6.843  1.6040 -4.3155 -0.7364
 3377SOL     OW21592   0.314   4.435  14.489  0.3699  0.5989  0.2450
 3377SOL    HW121593   0.302   4.344  14.462 -0.2777  0.4600  0.9836
 3377SOL    HW221594   0.335   4.484  14.410 -2.2213 -0.9254 -1.3747
 3378SOL     OW21595   0.446   3.721   7.275  0.1813 -0.1485 -0.3953
 3378SOL    HW121596   0.455   3.810   7.310  2.9537 -0.0937 -1.2150
 3378SOL    HW221597   0.361   3.698   7.314  0.7343 -0.2668  0.7453
 3379SOL     OW21598   2.481   4.328   2.282 -0.0752 -0.0630  0.4573
 3379SOL    HW121599   2.499   4.330   2.188  2.1376  1.9986  0.9073
 3379SOL    HW221600   2.396   4.285   2.291  0.9202 -1.6677  2.2787
 3380SOL     OW21601   2.372   0.452   0.863  0.1405  0.8094  0.3084
 3380SOL    HW121602   2.408   0.540   0.857  0.1887  0.8453  1.1898
 3380SOL    HW221603   2.342   0.456   0.953 -3.9696  0.4224 -1.0638
 3381SOL     OW21604   0.185   3.692   8.542 -0.4689  0.4985  0.1129
 3381SOL    HW121605   0.135   3.690   8.461  2.3299 -1.1495 -1.5961
 3381SOL    HW221606   0.222   3.605   8.527 -1.1607  0.4407 -1.2839
 3382SOL     OW21607   4.551   2.393   7.986  0.1201  0.0300  0.2304
 3382SOL    HW121608   4.639   2.375   8.019  0.6708  1.0511 -0.6970
 3382SOL    HW221609   4.564   2.473   7.935  1.1501  0.1476  0.6691
 3383SOL     OW21610   0.727   0.032   8.082 -0.6362 -0.3471  0.3717
 3383SOL    HW121611   0.683   0.095   8.025  0.8333  0.3135 -0.0307
 3383SOL    HW221612   0.707   0.068   8.169 -1.1174  0.1826  0.0437
 3384SOL     OW21613   2.846   2.429   4.037  0.0319  0.0801  0.1277
 3384SOL    HW121614   2.903   2.389   3.972 -0.3826 -0.4900  0.1147
 3384SOL    HW221615   2.895   2.440   4.118 -0.0821  2.5454 -0.1237
 3385SOL     OW21616   0.986   4.041   8.237 -0.7184  0.2003 -0.0685
 3385SOL    HW121617   0.944   4.088   8.165 -1.4936  0.2224  0.4042
 3385SOL    HW221618   1.070   4.029   8.192 -0.0543 -0.4505  1.3594
 3386SOL     OW21619   0.101   0.675   7.761  0.2167 -0.1849 -0.5672
 3386SOL    HW121620   0.102   0.640   7.672 -1.2608  0.8295 -0.9866
 3386SOL    HW221621   0.154   0.612   7.810  0.0975 -0.2115 -0.4732
 3387SOL     OW21622   1.791   3.521  13.029  0.1979 -0.0102 -0.0268
 3387SOL    HW121623   1.803   3.597  12.972 -1.9398 -0.0633 -0.5693
 3387SOL    HW221624   1.838   3.545  13.109 -1.3104  0.7046  0.6430
 3388SOL     OW21625   4.693   1.544   7.763 -0.7126 -0.3694 -0.1507
 3388SOL    HW121626   4.624   1.502   7.814 -0.0692  0.6161  1.5364
 3388SOL    HW221627   4.721   1.616   7.820 -1.2796 -1.7791  1.9312
 3389SOL     OW21628   0.013   0.767  17.336 -0.2387 -0.4497 -0.0856
 3389SOL    HW121629   0.024   0.692  17.394  0.2357  0.2153  0.6954
 3389SOL    HW221630   0.001   0.726  17.251 -0.9025  0.3689 -0.3891
 3390SOL     OW21631   2.478   1.700   9.687 -0.3526  0.5853 -0.4848
 3390SOL    HW121632   2.399   1.718   9.740 -0.0857  1.6973 -0.4567
 3390SOL    HW221633   2.511   1.623   9.732  0.3092  2.1572  1.7675
 3391SOL     OW21634   4.259   3.972   8.825  0.1816 -0.6388 -0.1576
 3391SOL    HW121635   4.270   3.934   8.737  1.9741 -1.0027  0.2193
 3391SOL    HW221636   4.347   4.004   8.846  0.2169 -1.2651  0.6236
 3392SOL     OW21637   4.409   3.578   7.426 -0.1727 -0.1648 -0.0617
 3392SOL    HW121638   4.391   3.489   7.397 -1.3157 -0.1490  0.5664
 3392SOL    HW221639   4.452   3.620   7.352 -0.8696  0.5616 -0.0625
 3393SOL     OW21640   4.209   3.164   4.460 -0.3442  0.3743  0.0795
 3393SOL    HW121641   4.129   3.179   4.511  0.4977  1.7673  0.9975
 3393SOL    HW221642   4.202   3.071   4.440 -3.1481  1.2492 -2.9343
 3394SOL     OW21643   2.819   2.018  10.384 -0.3954  0.0112 -1.0603
 3394SOL    HW121644   2.747   1.998  10.445 -1.6617  1.5975 -2.0139
 3394SOL    HW221645   2.795   1.953  10.319  0.0632  0.7916 -2.0121
 3395SOL     OW21646   3.593   3.942   7.145  0.0821  0.1065 -0.2546
 3395SOL    HW121647   3.615   3.896   7.064  0.6610  1.6780 -0.9952
 3395SOL    HW221648   3.580   4.034   7.124  0.1480  0.3844  0.9002
 3396SOL     OW21649   2.683   0.418   7.401  0.0173  0.2597  0.4872
 3396SOL    HW121650   2.692   0.498   7.349  1.8554  1.2527  2.3614
 3396SOL    HW221651   2.715   0.356   7.335 -1.5504  0.1263 -0.1421
 3397SOL     OW21652   1.733   2.488   3.622  0.2545 -0.3896 -0.0303
 3397SOL    HW121653   1.688   2.473   3.705 -0.2909 -2.8359 -0.7764
 3397SOL    HW221654   1.773   2.572   3.646 -0.7776  0.6903 -2.0700
 3398SOL     OW21655   2.172   0.605   3.532 -0.2441  0.1281 -0.1292
 3398SOL    HW121656   2.211   0.542   3.472  1.0887 -1.7010  2.6579
 3398SOL    HW221657   2.077   0.591   3.543 -0.1511 -1.0999 -0.8821
 3399SOL     OW21658   3.586   1.700   9.016  0.1397  0.1135  0.1274
 3399SOL    HW121659   3.498   1.667   9.003 -0.4024  0.7171  2.2032
 3399SOL    HW221660   3.569   1.767   9.083 -0.7849  0.1040 -0.1027
 3400SOL     OW21661   0.976   1.226  15.374 -0.1662  0.2972 -0.3168
 3400SOL    HW121662   0.895   1.250  15.419  0.1091 -0.7091  0.7129
 3400SOL    HW221663   1.025   1.307  15.364  2.2016 -1.0456  0.3759
 3401SOL     OW21664   2.248   1.746   2.726 -0.8606  0.1039  0.5170
 3401SOL    HW121665   2.270   1.740   2.819 -0.7073  0.5894  0.5143
 3401SOL    HW221666   2.305   1.820   2.706 -0.1945 -0.1886  1.3415
 3402SOL     OW21667   3.279   1.720   4.813 -0.2309  0.3539  0.2206
 3402SOL    HW121668   3.270   1.684   4.725  0.0226 -1.2608  0.8424
 3402SOL    HW221669   3.212   1.786   4.798 -0.7023  0.4985  3.0070
 3403SOL     OW21670   0.762   2.154   6.833  0.4479  0.3494  0.0879
 3403SOL    HW121671   0.685   2.127   6.783  0.5981  2.3175 -1.2395
 3403SOL    HW221672   0.713   2.196   6.903  2.0009 -0.6547  1.7636
 3404SOL     OW21673   3.827   0.888  11.237  0.2255 -0.2482  0.4809
 3404SOL    HW121674   3.827   0.969  11.289  0.4156  0.2883 -0.3495
 3404SOL    HW221675   3.790   0.817  11.290  1.8950 -2.1905 -0.9838
 3405SOL     OW21676   1.958   3.155  15.049 -0.1802  0.2639 -0.1966
 3405SOL    HW121677   1.892   3.224  15.039 -1.0089 -0.6430 -1.0200
 3405SOL    HW221678   2.018   3.199  14.989 -0.8876  0.0266 -1.0771
 3406SOL     OW21679   1.635   2.567   6.509 -0.0292 -0.2874  0.2591
 3406SOL    HW121680   1.621   2.661   6.516  1.1819 -0.1977  1.6219
 3406SOL    HW221681   1.637   2.529   6.598 -1.6943 -1.3256 -0.1408
 3407SOL     OW21682   1.056   2.261  13.191  0.0350 -0.5293 -0.1112
 3407SOL    HW121683   1.134   2.274  13.245  0.5622 -1.6494 -0.6018
 3407SOL    HW221684   0.993   2.207  13.238 -0.7723  1.4022  1.0268
 3408SOL     OW21685   1.340   3.904   5.382 -0.2244  0.4890 -0.7502
 3408SOL    HW121686   1.416   3.913   5.324 -1.0232  1.2746 -1.6926
 3408SOL    HW221687   1.314   3.996   5.388  0.0012  0.5821 -1.1796
 3409SOL     OW21688   2.901   2.448   4.328  0.5080  0.3505 -0.1115
 3409SOL    HW121689   2.978   2.490   4.365 -1.6614  3.4368  0.9222
 3409SOL    HW221690   2.899   2.358   4.361  3.9070  0.1380 -0.5091
 3410SOL     OW21691   1.380   4.035  12.268 -0.0172  0.5075  0.1325
 3410SOL    HW121692   1.448   4.028  12.201 -0.5540  0.9725 -0.4642
 3410SOL    HW221693   1.304   4.056  12.215 -1.0587  0.6934  1.6859
 3411SOL     OW21694   0.242   4.151   7.508  0.4701 -0.5267  0.1096
 3411SOL    HW121695   0.323   4.193   7.476  0.9773  1.2278  3.6993
 3411SOL    HW221696   0.162   4.195   7.480 -0.1131 -1.2560  0.6472
 3412SOL     OW21697   3.338   2.188   6.974 -0.1217 -0.4058 -0.1499
 3412SOL    HW121698   3.325   2.266   6.921  1.5203  0.5862  0.9121
 3412SOL    HW221699   3.254   2.187   7.021  1.1171  1.6940  2.1031
 3413SOL     OW21700   0.968   2.444   6.957  0.0249  0.3218 -0.2590
 3413SOL    HW121701   0.926   2.477   6.877 -0.1370  0.6958 -0.0224
 3413SOL    HW221702   1.008   2.362   6.927 -0.2954  1.2844 -3.3776
 3414SOL     OW21703   0.715   3.507   5.265 -0.2112  0.4384  0.1215
 3414SOL    HW121704   0.763   3.581   5.229  1.0973 -0.6514 -0.3893
 3414SOL    HW221705   0.646   3.553   5.313  0.0764 -0.3636  1.3069
 3415SOL     OW21706   3.357   2.060   7.441 -0.2757  0.1750  0.4496
 3415SOL    HW121707   3.342   2.075   7.535 -0.3144  1.4166  0.2374
 3415SOL    HW221708   3.339   1.966   7.438 -0.8600  0.2328  1.7852
 3416SOL     OW21709   1.205   0.345   2.496 -0.1632 -0.1971  0.0488
 3416SOL    HW121710   1.170   0.260   2.522 -2.7068  0.7732 -0.2137
 3416SOL    HW221711   1.136   0.399   2.534 -0.8401 -1.3114  0.3991
 3417SOL     OW21712   1.854   0.819   1.847 -0.1809 -0.2131  0.9226
 3417SOL    HW121713   1.861   0.852   1.936 -0.7349  1.3993  0.3695
 3417SOL    HW221714   1.855   0.904   1.804 -3.3187 -1.0813 -0.8794
 3418SOL     OW21715   4.088   2.333  10.494 -0.7988  0.1620 -0.1792
 3418SOL    HW121716   4.141   2.382  10.558 -1.6042  0.7780  0.0277
 3418SOL    HW221717   4.035   2.401  10.452  0.5691  1.2905 -0.0653
 3419SOL     OW21718   3.865   4.123  13.910  0.1958 -0.0168 -0.0972
 3419SOL    HW121719   3.804   4.152  13.843  1.4532 -1.1120 -1.7285
 3419SOL    HW221720   3.949   4.166  13.892  0.6062 -0.0072  1.8048
 3420SOL     OW21721   1.456   3.258   8.808  0.3621  0.7095  0.4261
 3420SOL    HW121722   1.456   3.338   8.756 -1.0408 -0.1950 -0.9627
 3420SOL    HW221723   1.478   3.278   8.899 -0.5400 -1.3176  1.0995
 3421SOL     OW21724   1.047   4.417   3.291  0.2097 -0.2904 -0.3037
 3421SOL    HW121725   1.057   4.346   3.355  0.1558 -0.7888 -0.8507
 3421SOL    HW221726   0.983   4.479   3.326 -0.2211  0.5755 -2.6676
 3422SOL     OW21727   1.941   3.669   4.799 -0.4689  0.2960 -0.4168
 3422SOL    HW121728   1.863   3.617   4.818  0.0538 -1.0563 -1.9707
 3422SOL    HW221729   1.922   3.738   4.863 -1.8919 -0.0549 -0.4688
 3423SOL     OW21730   1.452   1.618   5.873  0.6696  0.2501 -0.2669
 3423SOL    HW121731   1.394   1.565   5.818 -1.4172  1.9226  0.3156
 3423SOL    HW221732   1.387   1.663   5.927  0.7480  0.9421 -0.7495
 3424SOL     OW21733   4.364   3.163   7.228  0.0980  0.3212 -0.1025
 3424SOL    HW121734   4.424   3.100   7.269  2.0095  0.2952 -2.9465
 3424SOL    HW221735   4.355   3.140   7.136  0.5031 -3.5107  0.8055
 3425SOL     OW21736   2.248   2.974  14.356 -0.4022  0.7398  0.0117
 3425SOL    HW121737   2.316   3.042  14.351 -1.9694  2.3878  1.0732
 3425SOL    HW221738   2.215   2.994  14.268  0.7912  0.1743 -0.5682
 3426SOL     OW21739   0.493   2.745   5.539 -0.0915 -0.1535 -0.7951
 3426SOL    HW121740   0.559   2.810   5.515 -2.3359  2.1832 -0.5954
 3426SOL    HW221741   0.427   2.801   5.580  0.1344 -0.6089  0.1813
 3427SOL     OW21742   3.880   3.440   6.043  0.5709 -0.2645 -0.1817
 3427SOL    HW121743   3.895   3.533   6.022  1.2208 -0.6534 -1.4460
 3427SOL    HW221744   3.952   3.405   5.990  2.1755  2.7395 -0.0317
 3428SOL     OW21745   1.406   0.741   0.206  0.1240 -0.9999  0.2832
 3428SOL    HW121746   1.415   0.645   0.204  0.4157 -0.8803 -4.1125
 3428SOL    HW221747   1.341   0.753   0.275  1.4124 -0.9293  1.5087
 3429SOL     OW21748   1.649   3.711   6.007  0.3980  0.4411 -0.2925
 3429SOL    HW121749   1.721   3.735   5.948  2.2053  1.4760  2.3264
 3429SOL    HW221750   1.710   3.709   6.081 -2.5877 -1.0425  2.0912
 3430SOL     OW21751   0.997   0.666  17.602  0.1671 -0.1775 -0.3191
 3430SOL    HW121752   1.090   0.684  17.613 -0.0365  0.2597  0.6101
 3430SOL    HW221753   0.975   0.744  17.552  1.3599  0.1492 -0.3357
 3431SOL     OW21754   0.981   2.672   3.009 -0.3215  0.5914  0.0114
 3431SOL    HW121755   0.966   2.607   2.941  0.1914  0.9511 -0.4475
 3431SOL    HW221756   0.925   2.642   3.081 -1.6965  2.1653 -0.4230
 3432SOL     OW21757   4.623   1.541   0.224 -0.2497 -0.2069 -0.4785
 3432SOL    HW121758   4.603   1.619   0.171  2.4041 -0.7041 -2.2242
 3432SOL    HW221759   4.550   1.483   0.202 -1.0974 -0.0975  2.0957
 3433SOL     OW21760   0.165   1.528   8.303  0.6250 -0.2435  0.3137
 3433SOL    HW121761   0.205   1.599   8.355 -0.1260  0.6371 -0.3097
 3433SOL    HW221762   0.190   1.446   8.345  1.0358  0.3803  1.2874
 3434SOL     OW21763   2.752   0.797   9.830 -0.1627 -1.0848 -0.2552
 3434SOL    HW121764   2.675   0.743   9.813 -1.8013  0.6214  1.9036
 3434SOL    HW221765   2.750   0.856   9.755  2.9929  0.2525  0.7113
 3435SOL     OW21766   3.741   4.039   3.412  0.0648  0.3490 -0.0322
 3435SOL    HW121767   3.705   4.125   3.389 -1.4003 -0.6829 -1.6039
 3435SOL    HW221768   3.724   3.992   3.330  1.3416  0.4205 -0.3529
 3436SOL     OW21769   0.816   0.522  10.649  0.4231 -0.0706 -0.4650
 3436SOL    HW121770   0.738   0.492  10.695 -0.7287  1.6849 -1.2958
 3436SOL    HW221771   0.831   0.441  10.600  3.7386 -1.3084  2.6042
 3437SOL     OW21772   0.748   4.465   5.353 -0.6680 -0.2090 -0.5234
 3437SOL    HW121773   0.659   4.488   5.327 -0.9378  0.6437  1.1905
 3437SOL    HW221774   0.789   4.417   5.280  1.6081  3.1088 -1.4436
 3438SOL     OW21775   4.043   4.478   5.446  0.4576 -0.2910 -0.9018
 3438SOL    HW121776   4.036   4.531   5.366  0.5602  1.2032  0.0623
 3438SOL    HW221777   3.950   4.458   5.453  0.4322  0.9183  2.7578
 3439SOL     OW21778   3.344   2.497   5.524  0.2387 -0.2010 -0.1768
 3439SOL    HW121779   3.328   2.590   5.541 -0.0326 -0.8802  3.2582
 3439SOL    HW221780   3.437   2.487   5.507  0.8210  0.0407  2.7579
 3440SOL     OW21781   0.257   1.240  17.251  0.1896 -0.2281 -0.6298
 3440SOL    HW121782   0.222   1.255  17.163  1.0823  3.4037 -0.3280
 3440SOL    HW221783   0.181   1.199  17.293 -0.0380  0.3059 -0.5202
 3441SOL     OW21784   1.224   3.110   8.795  0.6387  0.4582  0.4920
 3441SOL    HW121785   1.309   3.149   8.816  1.7666 -0.8660 -1.5762
 3441SOL    HW221786   1.258   3.024   8.770  0.4090  0.3963  0.3908
 3442SOL     OW21787   1.042   0.009   3.560  0.4473  0.3537  0.0812
 3442SOL    HW121788   1.088   0.087   3.530 -1.3709  1.7340  0.8396
 3442SOL    HW221789   0.991   4.716   3.481 -1.2722 -0.5129  1.3688
 3443SOL     OW21790   3.348   2.159   1.655 -0.3516  0.2297 -0.3365
 3443SOL    HW121791   3.366   2.168   1.748 -1.4377  1.8628 -0.2907
 3443SOL    HW221792   3.435   2.142   1.618 -0.0298  0.9027  0.1076
 3444SOL     OW21793   2.769   1.846   1.879 -0.3217  1.0883 -0.0156
 3444SOL    HW121794   2.733   1.786   1.945  1.3798  0.7034  0.5520
 3444SOL    HW221795   2.780   1.786   1.805  0.0659  2.0921 -0.7755
 3445SOL     OW21796   3.539   2.812   7.786  0.1500 -0.3414  0.7313
 3445SOL    HW121797   3.544   2.726   7.745  2.0943 -0.2343  0.7778
 3445SOL    HW221798   3.501   2.788   7.871 -0.4509 -1.1656  0.2271
 3446SOL     OW21799   2.817   3.587   8.344  0.1191  0.4955 -0.0391
 3446SOL    HW121800   2.780   3.551   8.264 -0.1296 -0.1288  0.3492
 3446SOL    HW221801   2.853   3.672   8.318  1.6372  0.0567  0.6000
 3447SOL     OW21802   1.680   1.869   6.324 -0.1918  0.1350 -0.4926
 3447SOL    HW121803   1.706   1.779   6.341  1.7267  0.9560  0.8195
 3447SOL    HW221804   1.689   1.868   6.228  0.0338  0.4400 -0.4733
 3448SOL     OW21805   2.266   1.623  13.506 -0.5334  0.3058 -0.0402
 3448SOL    HW121806   2.342   1.651  13.557 -0.7902 -3.1232  2.2038
 3448SOL    HW221807   2.215   1.704  13.513  1.6027  1.7321 -0.9798
 3449SOL     OW21808   2.254   1.925   3.428  0.3299  0.4709  0.4031
 3449SOL    HW121809   2.322   1.878   3.476  0.3401 -0.4220 -0.4795
 3449SOL    HW221810   2.174   1.899   3.473 -0.2929  1.2738 -0.2267
 3450SOL     OW21811   2.944   1.391   4.427  0.0112 -0.4965  0.0716
 3450SOL    HW121812   3.036   1.413   4.411  0.1994 -0.6014  1.0275
 3450SOL    HW221813   2.945   1.389   4.522  0.3490 -2.2690  0.0233
 3451SOL     OW21814   2.066   2.729   4.780 -0.1965 -0.0549 -0.2136
 3451SOL    HW121815   2.093   2.662   4.717 -2.8376 -1.3154 -0.0385
 3451SOL    HW221816   2.136   2.715   4.843  0.5946  1.2230 -0.8171
 3452SOL     OW21817   2.783   1.865  10.178  0.3229  0.4450  0.7083
 3452SOL    HW121818   2.725   1.916  10.122 -0.7116 -0.2181  1.1665
 3452SOL    HW221819   2.794   1.784  10.126  1.5009  0.3889  1.0433
 3453SOL     OW21820   3.635   2.935   1.091  0.1733  0.4391  0.0811
 3453SOL    HW121821   3.556   2.903   1.134  0.8569 -0.6459  0.5368
 3453SOL    HW221822   3.604   2.945   1.001  2.8007  1.4813 -0.7167
 3454SOL     OW21823   1.963   2.724   6.104 -0.0769  0.1499 -0.6134
 3454SOL    HW121824   1.985   2.664   6.175  1.7229  0.8299 -0.6065
 3454SOL    HW221825   1.924   2.668   6.036  0.0542 -1.5762  0.7158
 3455SOL     OW21826   3.565   3.895   4.251 -0.0008 -0.1887  0.0781
 3455SOL    HW121827   3.538   3.896   4.159  1.2318 -0.5569 -0.2877
 3455SOL    HW221828   3.555   3.801   4.267  1.1705 -0.3683 -0.2779
 3456SOL     OW21829   2.725   0.828  11.952 -0.6088 -0.0334 -0.6597
 3456SOL    HW121830   2.718   0.758  12.018  2.6618 -0.7445 -1.0980
 3456SOL    HW221831   2.813   0.809  11.921 -0.7888 -0.9698 -0.6005
 3457SOL     OW21832   4.545   1.020   4.235 -0.3195  0.0307  0.1162
 3457SOL    HW121833   4.632   1.022   4.195 -0.9945  0.3877 -1.3582
 3457SOL    HW221834   4.515   1.111   4.232  0.3966  0.2481 -0.4491
 3458SOL     OW21835   3.198   1.967   4.670  0.0980  0.0058 -0.0350
 3458SOL    HW121836   3.251   2.033   4.715  2.4916  0.2404 -3.2163
 3458SOL    HW221837   3.194   1.994   4.579 -1.3564  0.9879  0.3221
 3459SOL     OW21838   0.037   4.441  15.558  0.1023  0.4817 -0.1220
 3459SOL    HW121839   0.109   4.437  15.494  1.1790  0.0431  1.1034
 3459SOL    HW221840   4.695   4.483  15.503 -1.0410 -1.6289 -0.3860
 3460SOL     OW21841   2.729   0.321  13.675  0.1005  0.1782  0.4955
 3460SOL    HW121842   2.679   0.383  13.728  0.1393 -0.3777  1.1881
 3460SOL    HW221843   2.718   0.357  13.587  1.3878 -1.1340 -0.2049
 3461SOL     OW21844   1.538   0.024   6.017 -0.0595 -0.6601  0.0528
 3461SOL    HW121845   1.620   0.073   6.021 -0.9953  1.0369 -2.2908
 3461SOL    HW221846   1.569   4.663   5.983  0.0690 -1.1802  1.4459
 3462SOL     OW21847   3.371   1.710   8.244  0.0858 -0.1597 -0.0142
 3462SOL    HW121848   3.405   1.736   8.329  0.2074  2.9413 -1.0213
 3462SOL    HW221849   3.285   1.679   8.271  0.6152 -0.7339  1.0360
 3463SOL     OW21850   3.934   0.238   9.215  0.0055  0.4992 -0.0251
 3463SOL    HW121851   3.935   0.329   9.243 -2.2157  0.0428  1.4820
 3463SOL    HW221852   3.844   0.208   9.203  0.0292 -0.0137  1.1079
 3464SOL     OW21853   0.384   3.456  10.569 -0.1224 -0.1128 -0.5864
 3464SOL    HW121854   0.326   3.484  10.640 -0.8731  3.1334 -2.5063
 3464SOL    HW221855   0.378   3.529  10.507  0.0229  3.0203  3.1069
 3465SOL     OW21856   2.244   0.424   2.771 -0.0962  0.0025 -0.4054
 3465SOL    HW121857   2.193   0.498   2.737  0.9795 -0.4747 -3.0629
 3465SOL    HW221858   2.308   0.411   2.701  1.9698  0.6424  1.3668
 3466SOL     OW21859   3.351   2.024   0.568 -0.0196 -0.1224  0.2031
 3466SOL    HW121860   3.437   1.983   0.561 -0.8860 -2.0024  0.7267
 3466SOL    HW221861   3.379   2.097   0.623  2.9101 -0.0522 -1.3612
 3467SOL     OW21862   4.202   0.800   9.832  0.0564  0.1820  0.1516
 3467SOL    HW121863   4.217   0.801   9.927  0.6257 -0.4464  0.0750
 3467SOL    HW221864   4.245   0.717   9.808  1.2729  0.6653  0.6490
 3468SOL     OW21865   2.377   2.938   7.854 -0.3420 -0.2078 -0.0744
 3468SOL    HW121866   2.348   2.932   7.945 -0.8815  0.1861 -0.2201
 3468SOL    HW221867   2.376   2.851   7.814 -0.1966 -1.4299  2.5450
 3469SOL     OW21868   4.394   1.110  16.427 -0.1221  0.4674  0.4619
 3469SOL    HW121869   4.442   1.072  16.353  0.5590  1.1016  0.5671
 3469SOL    HW221870   4.334   1.170  16.383 -0.9791  0.2878  1.3989
 3470SOL     OW21871   1.443   1.319   6.493 -0.2161 -0.2447 -0.0732
 3470SOL    HW121872   1.379   1.389   6.482 -0.0344 -0.1084 -0.2745
 3470SOL    HW221873   1.520   1.376   6.503  0.3687 -0.5805 -2.6174
 3471SOL     OW21874   2.365   2.500   2.723 -0.2033 -0.0308 -0.9170
 3471SOL    HW121875   2.316   2.566   2.771  0.7393  0.7351 -1.0034
 3471SOL    HW221876   2.431   2.553   2.677 -0.2699  0.0122 -0.9623
 3472SOL     OW21877   1.131   0.090   8.674  0.6690  0.4460  0.4239
 3472SOL    HW121878   1.134   0.019   8.609  1.1069  2.0169 -1.2807
 3472SOL    HW221879   1.060   0.069   8.735 -0.1408 -0.2809 -0.7467
 3473SOL     OW21880   3.252   4.006   5.029 -0.2239 -0.1538 -0.0985
 3473SOL    HW121881   3.194   3.936   5.056 -0.4582 -0.5743 -1.6999
 3473SOL    HW221882   3.251   4.002   4.934  1.2396 -0.3201 -0.0988
 3474SOL     OW21883   0.499   3.655   5.386 -0.1365 -0.0426 -0.3559
 3474SOL    HW121884   0.424   3.711   5.369  0.5944  0.9116 -0.4864
 3474SOL    HW221885   0.463   3.593   5.449  0.2837 -0.2527 -0.3230
 3475SOL     OW21886   3.530   3.049  11.459  0.3629 -0.0139 -0.3272
 3475SOL    HW121887   3.622   3.032  11.481  0.7027  5.1060  2.2280
 3475SOL    HW221888   3.541   3.012  11.371 -1.2492 -0.8748 -0.1674
 3476SOL     OW21889   3.076   0.288   7.127 -0.3684  0.1291 -0.0678
 3476SOL    HW121890   3.050   0.233   7.053  1.7970 -1.0311  0.0262
 3476SOL    HW221891   3.119   0.355   7.074 -0.4928  0.5603  0.3719
 3477SOL     OW21892   4.534   1.010   6.892 -0.6059 -0.7110 -0.2587
 3477SOL    HW121893   4.554   1.006   6.799 -1.0992  1.3316 -0.4489
 3477SOL    HW221894   4.466   1.078   6.893 -1.0026 -1.1142  0.8272
 3478SOL     OW21895   3.969   2.507   3.716  0.2662  0.0944  0.5336
 3478SOL    HW121896   3.896   2.451   3.688  0.3434  0.4987 -0.4729
 3478SOL    HW221897   3.998   2.518   3.626  0.2111  0.1111  0.5177
 3479SOL     OW21898   0.629   1.679   4.760 -0.4160  0.0546  0.1840
 3479SOL    HW121899   0.605   1.697   4.852 -2.3414  0.1801 -0.3370
 3479SOL    HW221900   0.658   1.769   4.744  0.3004 -0.2698 -0.3195
 3480SOL     OW21901   3.018   3.656   5.763 -0.4731 -0.1367 -0.0794
 3480SOL    HW121902   2.925   3.674   5.751 -0.4644 -0.2885 -0.3748
 3480SOL    HW221903   3.035   3.580   5.708 -0.4935 -0.5432  0.4701
 3481SOL     OW21904   2.235   2.598  16.181 -0.0433 -0.2254 -0.2626
 3481SOL    HW121905   2.141   2.602  16.202  0.4051  2.3755  1.2761
 3481SOL    HW221906   2.261   2.682  16.145 -1.2289  1.3840  2.5779
 3482SOL     OW21907   1.487   2.718   6.083  0.6414 -0.1982  0.2048
 3482SOL    HW121908   1.402   2.760   6.096  0.6575  0.3295 -1.4592
 3482SOL    HW221909   1.483   2.640   6.138  0.9601 -1.2728 -1.2909
 3483SOL     OW21910   3.046   0.581   9.557 -0.0401 -0.2945  0.0281
 3483SOL    HW121911   2.995   0.503   9.535  0.2890  0.3958 -3.1367
 3483SOL    HW221912   3.022   0.586   9.649  1.6730  0.6810  0.4102
 3484SOL     OW21913   0.768   3.547   3.646 -0.3628  0.8617 -0.3117
 3484SOL    HW121914   0.755   3.455   3.669 -2.6352  0.7795 -1.9080
 3484SOL    HW221915   0.863   3.542   3.632 -0.3166  0.4884  0.1352
 3485SOL     OW21916   0.145   4.103  13.531 -0.3376 -0.0773  0.0919
 3485SOL    HW121917   0.051   4.114  13.521 -0.5204  0.6899  2.5620
 3485SOL    HW221918   0.150   4.010  13.511  1.5361  0.0648 -0.0876
 3486SOL     OW21919   3.162   2.370   2.084 -0.3417  0.1994 -0.5157
 3486SOL    HW121920   3.080   2.346   2.126 -0.2383  1.7756  0.5466
 3486SOL    HW221921   3.143   2.443   2.026 -1.5793 -0.3244 -0.7548
 3487SOL     OW21922   1.252   4.342   5.772  0.2127  0.5021  0.6145
 3487SOL    HW121923   1.310   4.266   5.773  1.3359  1.3435 -0.4211
 3487SOL    HW221924   1.257   4.353   5.677 -2.2523 -0.6304  0.3586
 3488SOL     OW21925   4.630   1.977  17.145 -0.0528  0.3202  0.0951
 3488SOL    HW121926   4.560   2.042  17.136  0.3898  0.7694 -0.1034
 3488SOL    HW221927   4.701   2.035  17.173 -0.7769  0.7357  1.0596
 3489SOL     OW21928   4.277   4.318   9.023  0.1254  0.3834  0.1396
 3489SOL    HW121929   4.371   4.301   9.018 -0.0833 -0.6339 -0.3231
 3489SOL    HW221930   4.250   4.236   9.066  1.0725  1.1681  2.2544
 3490SOL     OW21931   3.746   3.153   6.437  0.0443  0.0860 -0.1959
 3490SOL    HW121932   3.667   3.099   6.446 -0.8214  1.2119 -1.0261
 3490SOL    HW221933   3.744   3.218   6.508  0.4543  0.7465 -0.7941
 3491SOL     OW21934   1.133   1.197   5.652 -0.4010 -0.0778  0.1854
 3491SOL    HW121935   1.079   1.146   5.593 -1.5425 -1.9223  2.8332
 3491SOL    HW221936   1.122   1.283   5.611 -2.1379  1.0302  2.9016
 3492SOL     OW21937   2.648   1.808   8.661 -0.2463  0.2415  0.5483
 3492SOL    HW121938   2.643   1.800   8.756 -1.2787 -1.9147  0.3123
 3492SOL    HW221939   2.709   1.881   8.649 -0.3322 -0.0464 -1.6448
 3493SOL     OW21940   1.068   1.037   5.893  0.2616  0.5034 -0.2440
 3493SOL    HW121941   0.991   1.094   5.896 -0.8477 -1.0395  1.1397
 3493SOL    HW221942   1.113   1.078   5.820  0.5152 -1.2544 -1.0652
 3494SOL     OW21943   3.886   1.123   7.443  0.3290  0.0684  0.0392
 3494SOL    HW121944   3.913   1.046   7.495  0.5879  0.2154  0.1224
 3494SOL    HW221945   3.792   1.115   7.460  0.5658 -2.2857  0.2624
 3495SOL     OW21946   0.211   3.981   9.138 -0.7447  0.0879  0.4037
 3495SOL    HW121947   0.239   3.897   9.101 -1.3671  0.8269 -1.7606
 3495SOL    HW221948   0.268   4.001   9.212 -0.5563 -0.8588  0.5241
 3496SOL     OW21949   4.595   1.924  15.250  0.0564 -0.1004  0.4011
 3496SOL    HW121950   4.635   1.887  15.171  1.6645 -1.3169  1.7930
 3496SOL    HW221951   4.502   1.904  15.242 -0.3563  0.3090  4.1663
 3497SOL     OW21952   4.545   1.987   1.792  0.4843  0.1296  0.1859
 3497SOL    HW121953   4.536   1.989   1.696 -0.8008  0.3132  0.3051
 3497SOL    HW221954   4.536   1.893   1.801 -1.6816  0.4656  1.6162
 3498SOL     OW21955   4.662   4.198   0.502  0.0810 -0.6142 -0.1829
 3498SOL    HW121956   4.627   4.209   0.591 -1.2561  2.0349 -1.0278
 3498SOL    HW221957   4.590   4.232   0.449  1.0950  0.8555 -0.6133
 3499SOL     OW21958   2.472   3.707   8.424  0.5677 -0.1973 -0.4836
 3499SOL    HW121959   2.471   3.766   8.349  1.0484  0.3635 -0.0483
 3499SOL    HW221960   2.534   3.746   8.485  0.8783 -2.8848  0.9317
 3500SOL     OW21961   2.387   2.338   5.775 -0.2940  0.6502 -0.1921
 3500SOL    HW121962   2.351   2.250   5.792  0.3517  0.7250  1.5696
 3500SOL    HW221963   2.400   2.329   5.681 -0.8782 -0.0852 -0.2023
 3501SOL     OW21964   1.737   4.431  14.469 -0.7215  0.0844  0.3596
 3501SOL    HW121965   1.741   4.525  14.485 -0.1990 -0.1478  1.6103
 3501SOL    HW221966   1.828   4.403  14.479 -0.1258  1.5163 -1.0325
 3502SOL     OW21967   4.676   0.496   8.083  0.1949  0.0105  0.1575
 3502SOL    HW121968   0.043   0.505   8.054  1.0149 -0.2014  2.6620
 3502SOL    HW221969   4.681   0.545   8.165  1.7892  1.2345 -0.6883
 3503SOL     OW21970   1.013   2.843   2.528  0.0761  0.1327 -0.8522
 3503SOL    HW121971   0.961   2.827   2.449 -0.0946  0.1287 -0.7389
 3503SOL    HW221972   0.961   2.917   2.560 -0.3398  0.4080 -2.1719
 3504SOL     OW21973   0.258   0.975   6.216  0.3218  0.5725 -0.0621
 3504SOL    HW121974   0.204   0.896   6.226 -0.5524  1.0525 -0.9691
 3504SOL    HW221975   0.323   0.950   6.151  0.3307 -2.5224  1.1345
 3505SOL     OW21976   0.001   4.022  16.678  0.5885 -0.6500  0.0808
 3505SOL    HW121977   4.634   3.993  16.686  0.1324  0.8698  0.3556
 3505SOL    HW221978   0.007   4.005  16.584 -2.9456 -3.1525  0.3402
 3506SOL     OW21979   4.144   4.450   9.233 -0.0955  0.4244  1.1534
 3506SOL    HW121980   4.199   4.418   9.305 -2.0470 -2.7636  1.2113
 3506SOL    HW221981   4.180   4.407   9.155 -0.3503  0.6505  0.9124
 3507SOL     OW21982   4.000   2.987  12.645 -0.1733  0.4037 -0.2140
 3507SOL    HW121983   3.987   2.957  12.735  0.4583  1.6055  0.2770
 3507SOL    HW221984   3.909   2.981  12.613 -0.3592 -0.3954  0.4785
 3508SOL     OW21985   1.104   0.458   8.646 -0.2111 -0.1848 -0.1221
 3508SOL    HW121986   1.130   0.535   8.696  1.2586  0.5696 -2.0761
 3508SOL    HW221987   1.042   0.418   8.708  0.8220 -1.3698  0.1461
 3509SOL     OW21988   1.064   2.623  14.573  0.5433  0.4112 -0.2658
 3509SOL    HW121989   1.095   2.647  14.661  2.1620  2.0409 -1.2777
 3509SOL    HW221990   1.009   2.547  14.596  0.3927  0.9062  1.0413
 3510SOL     OW21991   4.159   1.740   1.536 -0.0528 -0.0572  0.0790
 3510SOL    HW121992   4.201   1.685   1.602 -2.9541  1.1803  2.9658
 3510SOL    HW221993   4.113   1.805   1.588  1.3850 -0.5750  1.9807
 3511SOL     OW21994   2.174   3.965   7.258  0.1780  0.2512  0.0473
 3511SOL    HW121995   2.128   3.989   7.339  1.6418  0.5090  0.8069
 3511SOL    HW221996   2.121   4.013   7.194  0.2437  1.1716  0.6806
 3512SOL     OW21997   3.841   2.241   5.319  0.4127  0.3691 -0.3238
 3512SOL    HW121998   3.876   2.293   5.247  1.1307 -2.4066 -1.9883
 3512SOL    HW221999   3.783   2.188   5.264  1.7024  0.8142 -2.0800
 3513SOL     OW22000   2.137   1.692   7.571  0.2382 -0.5744 -0.8673
 3513SOL    HW122001   2.146   1.628   7.500 -0.0854 -0.9147 -0.6034
 3513SOL    HW222002   2.044   1.673   7.587  0.2570 -2.1301 -2.5834
 3514SOL     OW22003   3.830   1.485   3.271 -0.3718  0.5372 -0.3145
 3514SOL    HW122004   3.923   1.469   3.288 -0.0007  3.3323  0.3776
 3514SOL    HW222005   3.796   1.492   3.360 -0.5183 -0.7474 -0.2753
 3515SOL     OW22006   1.928   1.618   9.993  0.2880 -0.0553  0.4533
 3515SOL    HW122007   1.914   1.698   9.944  2.8427 -2.1269 -3.6363
 3515SOL    HW222008   2.019   1.623  10.022  0.4762  3.8449 -0.8708
 3516SOL     OW22009   1.803   2.619   8.586 -0.2398 -0.1833  0.2475
 3516SOL    HW122010   1.771   2.706   8.563  0.1047 -0.3714 -0.9519
 3516SOL    HW222011   1.765   2.604   8.672 -2.2907  0.1009 -0.6220
 3517SOL     OW22012   3.019   0.002   2.434 -0.5140  0.2051 -0.0398
 3517SOL    HW122013   3.089   4.702   2.373 -1.7271 -2.3920 -0.3883
 3517SOL    HW222014   3.063   4.694   2.513  0.2390  0.0911 -0.5069
 3518SOL     OW22015   1.343   2.424  14.338 -0.0325 -0.0373 -0.5851
 3518SOL    HW122016   1.278   2.358  14.360  0.1235 -0.2259 -0.6894
 3518SOL    HW222017   1.422   2.394  14.385 -0.5839  1.3950  1.2947
 3519SOL     OW22018   1.324   0.461   8.243  0.5592 -0.1227  0.1081
 3519SOL    HW122019   1.360   0.531   8.189 -0.5783  0.5845  0.2600
 3519SOL    HW222020   1.401   0.404   8.248  0.2018 -0.8339 -2.4947
 3520SOL     OW22021   3.474   2.683   0.899  0.0155 -0.2846 -0.0349
 3520SOL    HW122022   3.480   2.745   0.826  0.6659 -0.9789 -0.5803
 3520SOL    HW222023   3.379   2.678   0.899  0.1046 -1.8225  1.2079
 3521SOL     OW22024   2.595   2.644   3.634  0.1175 -0.0038  0.4775
 3521SOL    HW122025   2.663   2.637   3.702  1.6626 -1.6137 -1.2384
 3521SOL    HW222026   2.510   2.657   3.677 -0.2187 -0.8821  0.0907
 3522SOL     OW22027   1.904   1.765   3.704  0.1070  0.1903 -0.8140
 3522SOL    HW122028   1.988   1.738   3.740  1.3142  2.3160 -2.0553
 3522SOL    HW222029   1.852   1.696   3.745  0.0379  1.5126  1.3082
 3523SOL     OW22030   2.970   1.600   2.779  0.4815  0.4191 -0.3222
 3523SOL    HW122031   2.939   1.600   2.688 -0.2556 -0.7907 -0.0760
 3523SOL    HW222032   2.950   1.513   2.813  0.4370  0.5770  0.0515
 3524SOL     OW22033   4.664   4.407   6.045  0.1691  0.1370  0.0265
 3524SOL    HW122034   4.696   4.438   6.129  1.7702  0.0354 -0.5460
 3524SOL    HW222035   4.690   4.476   5.984  0.0591  0.5367  0.4282
 3525SOL     OW22036   0.876   3.482   6.910  0.4694  0.2663  0.5020
 3525SOL    HW122037   0.865   3.547   6.841  0.4129  0.5253  0.7503
 3525SOL    HW222038   0.916   3.408   6.866  2.2297  1.8022 -0.4640
 3526SOL     OW22039   0.821   0.718  13.376 -0.3862  0.1382 -0.2343
 3526SOL    HW122040   0.791   0.679  13.457 -2.8280 -1.2037 -1.7961
 3526SOL    HW222041   0.796   0.656  13.307  1.0095  0.4780 -1.0644
 3527SOL     OW22042   0.576   3.784   6.264  0.0368  0.3050 -1.3424
 3527SOL    HW122043   0.574   3.740   6.179 -0.3259  0.3226 -1.3462
 3527SOL    HW222044   0.653   3.742   6.300  1.2332  2.4071 -1.4515
 3528SOL     OW22045   1.929   4.225   2.555  0.7040  0.1954 -0.0432
 3528SOL    HW122046   1.897   4.158   2.494 -1.6644  1.4366 -0.1819
 3528SOL    HW222047   1.982   4.277   2.494  1.4933 -1.5870 -0.9014
 3529SOL     OW22048   2.283   0.834  17.324 -0.2290 -0.6147 -0.3049
 3529SOL    HW122049   2.266   0.829  17.230 -0.8174  2.9329 -0.4025
 3529SOL    HW222050   2.363   0.783  17.323  0.7305  0.9141 -2.5456
 3530SOL     OW22051   0.358   0.287   8.217 -0.6332 -0.0210  0.4327
 3530SOL    HW122052   0.351   0.280   8.121 -2.6039  0.2672  0.5653
 3530SOL    HW222053   0.371   0.381   8.230  0.8186 -0.1140 -0.2887
 3531SOL     OW22054   3.479   1.498   1.066  0.1917  0.1288  0.1505
 3531SOL    HW122055   3.451   1.446   0.991 -1.2456  0.4696  0.4526
 3531SOL    HW222056   3.398   1.546   1.083  0.5193  0.7887 -0.1266
 3532SOL     OW22057   0.160   3.373   2.881  0.2889 -0.0262  0.1596
 3532SOL    HW122058   0.254   3.389   2.890  0.2036  1.2854 -1.2368
 3532SOL    HW222059   0.156   3.308   2.812  1.4956  1.2211 -1.1049
 3533SOL     OW22060   1.548   3.914  17.388  0.3366 -0.2508  0.5889
 3533SOL    HW122061   1.502   3.998  17.395 -0.5133 -0.8026  1.4881
 3533SOL    HW222062   1.539   3.880  17.476 -1.0242  1.1348  0.9874
 3534SOL     OW22063   2.758   0.024   5.289  0.2485  0.3249  0.4176
 3534SOL    HW122064   2.756   0.119   5.286  0.2272  0.1995 -3.8789
 3534SOL    HW222065   2.696   0.009   5.360  0.5623  0.8854  0.8065
 3535SOL     OW22066   3.806   0.599  10.400 -0.2847  0.1926 -0.3013
 3535SOL    HW122067   3.852   0.642  10.328  0.0210 -0.0751 -0.2645
 3535SOL    HW222068   3.761   0.530  10.352  0.3340 -0.5782  0.2301
 3536SOL     OW22069   1.755   3.445   8.846 -0.2346 -0.8155  0.5454
 3536SOL    HW122070   1.734   3.396   8.926 -0.3799  1.5931  1.9977
 3536SOL    HW222071   1.669   3.461   8.807  0.0367 -1.1182 -0.1612
 3537SOL     OW22072   4.179   1.593  10.864  0.0372  0.3671 -0.1719
 3537SOL    HW122073   4.177   1.498  10.871  2.0899  0.2642 -1.1195
 3537SOL    HW222074   4.270   1.606  10.839  0.6634 -1.2314  1.3482
 3538SOL     OW22075   0.119   2.233  14.556 -0.2256 -0.7087  0.4763
 3538SOL    HW122076   0.051   2.211  14.492  1.3078 -1.8399 -0.7807
 3538SOL    HW222077   0.114   2.163  14.622 -2.7153 -1.2537 -0.3193
 3539SOL     OW22078   0.763   3.261   9.870 -0.5036  0.3427  0.2178
 3539SOL    HW122079   0.797   3.332   9.925 -1.0749  1.7475 -1.2132
 3539SOL    HW222080   0.674   3.291   9.852 -0.2504  1.8671  1.4510
 3540SOL     OW22081   3.641   3.820  11.749  0.0067 -0.2943 -0.5776
 3540SOL    HW122082   3.549   3.823  11.721 -1.1291  1.8092  3.4718
 3540SOL    HW222083   3.686   3.853  11.672 -2.8913  1.3784 -1.5552
 3541SOL     OW22084   3.555   1.723   3.966 -0.7154  0.0649 -0.7796
 3541SOL    HW122085   3.544   1.649   4.026  0.8212 -0.0228 -0.6076
 3541SOL    HW222086   3.649   1.736   3.966 -0.8944  1.3161 -1.0037
 3542SOL     OW22087   1.522   0.009   2.611 -0.3425  0.3518  0.1693
 3542SOL    HW122088   1.540   4.639   2.602 -0.4772  0.3641 -0.2334
 3542SOL    HW222089   1.581   0.043   2.544 -0.0038 -1.2680 -0.3577
 3543SOL     OW22090   1.698   0.686   7.148  0.5111  0.0808 -0.3593
 3543SOL    HW122091   1.673   0.639   7.227 -2.0150 -0.3476 -1.4216
 3543SOL    HW222092   1.791   0.677   7.169  0.0813  0.4180  1.7448
 3544SOL     OW22093   4.084   1.851  11.303 -0.4379  0.7518  0.2943
 3544SOL    HW122094   4.014   1.795  11.336  1.9242 -2.4684 -0.0853
 3544SOL    HW222095   4.129   1.797  11.238 -1.9244  0.0319 -0.1408
 3545SOL     OW22096   0.443   3.533   8.965 -0.4126  0.2940  0.6252
 3545SOL    HW122097   0.370   3.583   8.929 -0.0038 -0.8214 -1.7541
 3545SOL    HW222098   0.431   3.542   9.060 -0.6424 -0.5784  0.6768
 3546SOL     OW22099   0.991   0.508   8.327  0.6774  0.2830 -0.1416
 3546SOL    HW122100   0.957   0.571   8.263  0.1377  1.3717  1.2225
 3546SOL    HW222101   0.939   0.430   8.310 -1.8367  2.1686 -1.0787
 3547SOL     OW22102   1.576   3.799  11.119 -0.5399  0.0876  0.0458
 3547SOL    HW122103   1.613   3.717  11.086  2.8292  1.7091 -0.2753
 3547SOL    HW222104   1.486   3.768  11.127 -0.1376 -0.9049  0.6998
 3548SOL     OW22105   2.761   0.637  15.540 -0.4844 -0.5175 -0.0896
 3548SOL    HW122106   2.836   0.655  15.484  0.8068  0.4649  1.9437
 3548SOL    HW222107   2.814   0.624  15.619  0.3847  1.5334 -0.3352
 3549SOL     OW22108   3.577   3.094   2.933 -0.0351  0.5301 -0.6379
 3549SOL    HW122109   3.515   3.026   2.906 -0.9545 -0.7289  4.7651
 3549SOL    HW222110   3.598   3.139   2.851  0.2353  2.0773  0.2741
 3550SOL     OW22111   2.922   3.939   5.564 -0.1012  0.2722  0.1166
 3550SOL    HW122112   2.921   3.928   5.659  1.6688 -1.7397 -0.0753
 3550SOL    HW222113   2.946   4.031   5.560  0.5151  0.0562 -1.1499
 3551SOL     OW22114   2.158   3.698   9.018 -0.2745 -0.6857 -0.0097
 3551SOL    HW122115   2.143   3.697   8.924  1.0514  4.4404 -0.2916
 3551SOL    HW222116   2.096   3.627   9.037 -1.2759 -1.1389 -5.1206
 3552SOL     OW22117   1.160   3.577   4.342  0.2556  0.2621  0.1311
 3552SOL    HW122118   1.164   3.520   4.265  0.3324 -0.2456  0.5071
 3552SOL    HW222119   1.207   3.658   4.322 -2.5101  2.2005  1.4085
 3553SOL     OW22120   1.526   2.551   3.818 -0.1302  0.2393  0.1057
 3553SOL    HW122121   1.478   2.594   3.748 -1.8062  0.0919  1.1567
 3553SOL    HW222122   1.467   2.564   3.892  0.0038  1.3140  0.0212
 3554SOL     OW22123   2.847   3.101   4.571 -0.0780  0.5280 -0.0304
 3554SOL    HW122124   2.839   3.140   4.484 -2.2345  1.4797  0.6046
 3554SOL    HW222125   2.833   3.179   4.624 -0.7415  1.7463 -1.9941
 3555SOL     OW22126   2.407   4.245  13.272 -0.6188 -0.2029 -0.4228
 3555SOL    HW122127   2.423   4.339  13.263 -1.4716  0.0859  0.9362
 3555SOL    HW222128   2.466   4.212  13.204  2.7074  1.2450  1.7626
 3556SOL     OW22129   3.676   3.196   3.967 -0.2584 -0.2910 -0.3250
 3556SOL    HW122130   3.736   3.148   3.910  1.3302 -1.4288  2.2803
 3556SOL    HW222131   3.743   3.223   4.030  0.2847 -0.0903 -0.9850
 3557SOL     OW22132   0.124   3.638  10.967 -0.1514  0.0956 -0.1508
 3557SOL    HW122133   0.031   3.657  10.973  0.3667  2.6664 -0.2975
 3557SOL    HW222134   0.154   3.674  11.050  0.7653 -1.9762  0.4338
 3558SOL     OW22135   3.120   2.986  13.508 -0.0222 -0.2866 -0.3824
 3558SOL    HW122136   3.088   3.016  13.423 -0.8171  0.3547  0.1433
 3558SOL    HW222137   3.040   2.995  13.559 -0.0205 -0.7597 -0.3016
 3559SOL     OW22138   3.747   0.632   6.755  0.3860 -0.2109  0.8622
 3559SOL    HW122139   3.821   0.583   6.720  1.6789  2.5135 -0.1833
 3559SOL    HW222140   3.670   0.590   6.718  0.5665  1.0587 -0.9267
 3560SOL     OW22141   2.914   1.229  15.699  0.4666 -0.1939  0.1767
 3560SOL    HW122142   2.918   1.309  15.751  2.1142 -1.2917  1.7478
 3560SOL    HW222143   2.819   1.212  15.698  0.7195 -1.5585 -1.4330
 3561SOL     OW22144   3.965   0.192   5.406 -0.5116  0.0832 -0.4181
 3561SOL    HW122145   3.987   0.110   5.449 -1.9606  0.8245  1.7216
 3561SOL    HW222146   3.876   0.204   5.438 -0.2379  1.3207 -0.1115
 3562SOL     OW22147   0.212   2.452   3.606 -0.2375  0.0449 -0.2150
 3562SOL    HW122148   0.213   2.469   3.512  0.4724 -0.6539 -0.3273
 3562SOL    HW222149   0.156   2.374   3.599 -0.6836  0.4168 -0.8680
 3563SOL     OW22150   4.449   1.143  14.622 -0.2012  0.1221 -0.6269
 3563SOL    HW122151   4.432   1.050  14.606  0.5429 -0.4801  2.2142
 3563SOL    HW222152   4.423   1.148  14.714 -0.3359  0.3782 -0.6779
 3564SOL     OW22153   2.414   4.684   6.236  0.2389 -0.7105  0.3166
 3564SOL    HW122154   2.444   4.693   6.327 -1.2570 -0.1698  0.7622
 3564SOL    HW222155   2.477   0.015   6.189  0.0953 -1.1443 -0.3787
 3565SOL     OW22156   1.690   1.402   3.181 -0.4371 -0.3714  0.4778
 3565SOL    HW122157   1.726   1.486   3.151  0.7772 -1.2120 -0.4590
 3565SOL    HW222158   1.743   1.338   3.133 -0.2768  0.3209 -0.2801
 3566SOL     OW22159   2.627   3.478   4.202  0.0379  0.2335  0.2306
 3566SOL    HW122160   2.614   3.388   4.174  0.5654 -0.2378  1.4826
 3566SOL    HW222161   2.663   3.523   4.126  0.4551 -0.8160 -0.1898
 3567SOL     OW22162   3.156   2.238  15.378  0.0743  0.3081  0.4254
 3567SOL    HW122163   3.211   2.219  15.302 -1.2113 -0.6003 -0.2926
 3567SOL    HW222164   3.187   2.318  15.420  1.7815  0.1590 -0.5694
 3568SOL     OW22165   4.138   0.011   0.038 -0.0318  0.4691 -0.1313
 3568SOL    HW122166   4.092   0.058  17.665 -0.9235  1.0708  0.8592
 3568SOL    HW222167   4.160   4.659  17.680  0.2019  0.9250 -0.6654
 3569SOL     OW22168   3.476   3.176  10.554  0.1355 -0.0946 -0.1395
 3569SOL    HW122169   3.477   3.084  10.582 -2.2645 -0.3067 -0.7418
 3569SOL    HW222170   3.395   3.213  10.589  0.5768  2.6445 -2.0522
 3570SOL     OW22171   2.520   3.602   6.141 -0.9143 -0.1647 -0.2355
 3570SOL    HW122172   2.546   3.509   6.142 -1.3864 -0.2956 -0.3055
 3570SOL    HW222173   2.449   3.611   6.205  0.4612 -3.5496  1.8055
 3571SOL     OW22174   0.846   2.896   3.069 -0.0944  0.2167  0.1874
 3571SOL    HW122175   0.773   2.842   3.098  0.1760  0.0718  0.5908
 3571SOL    HW222176   0.903   2.827   3.036 -2.1557 -1.9276  1.1209
 3572SOL     OW22177   3.423   4.494  10.992  0.2548  0.0864  0.4493
 3572SOL    HW122178   3.379   4.578  11.005 -2.1886 -0.9003 -1.5782
 3572SOL    HW222179   3.376   4.451  10.921  0.2493  1.2157 -0.2469
 3573SOL     OW22180   4.582   3.078  17.300 -0.0115  0.3408 -0.2703
 3573SOL    HW122181   4.544   3.131  17.230 -1.2904 -0.0325  0.1387
 3573SOL    HW222182   4.557   2.990  17.272 -0.5396  0.3942  0.0403
 3574SOL     OW22183   3.910   2.547  15.387  0.9102 -0.4550 -0.4800
 3574SOL    HW122184   3.990   2.505  15.419  1.8519  1.1547 -0.6805
 3574SOL    HW222185   3.890   2.504  15.304 -1.6933 -0.5176  0.2121
 3575SOL     OW22186   1.158   1.756  16.866 -0.0155 -0.4768 -0.6462
 3575SOL    HW122187   1.208   1.710  16.934  1.5430 -0.4506 -1.7866
 3575SOL    HW222188   1.142   1.845  16.898 -0.0927 -0.4183 -0.8478
 3576SOL     OW22189   1.959   0.579  10.091 -0.0724  0.0468 -0.1859
 3576SOL    HW122190   1.926   0.489  10.101  0.7698 -0.1571  0.7421
 3576SOL    HW222191   1.950   0.584   9.996 -0.8798  0.3751 -0.0913
 3577SOL     OW22192   3.687   2.375   2.232 -0.2790 -0.0699  0.4184
 3577SOL    HW122193   3.742   2.431   2.176  1.2057 -0.4989  1.4483
 3577SOL    HW222194   3.598   2.385   2.198  1.1138  0.1327 -3.2055
 3578SOL     OW22195   2.275   1.532   3.569 -0.3511 -0.3301  0.0195
 3578SOL    HW122196   2.240   1.448   3.538 -0.8524 -0.3712  0.7030
 3578SOL    HW222197   2.314   1.558   3.485  1.3089 -0.9150  0.6054
 3579SOL     OW22198   0.130   3.479  16.289  0.0374 -0.0177  0.1213
 3579SOL    HW122199   0.093   3.392  16.304 -1.1756  0.3589 -0.7466
 3579SOL    HW222200   0.206   3.485  16.347 -0.9597 -0.3355  1.4488
 3580SOL     OW22201   1.684   3.924   3.837  0.0555 -0.2058 -0.5302
 3580SOL    HW122202   1.692   3.962   3.750 -0.7588 -1.5935 -1.2143
 3580SOL    HW222203   1.763   3.967   3.870  0.0314 -0.6311  0.0958
 3581SOL     OW22204   3.888   0.281   7.092  0.4436  0.1322  0.3006
 3581SOL    HW122205   3.920   0.368   7.067  0.2429  0.4613  1.1934
 3581SOL    HW222206   3.875   0.293   7.186 -1.5027  2.6757 -0.3152
 3582SOL     OW22207   3.655   1.879   4.266 -0.4501  0.2727  0.8341
 3582SOL    HW122208   3.606   1.938   4.209  1.4634  0.4921 -0.5646
 3582SOL    HW222209   3.733   1.934   4.272 -1.2223  1.1952  2.5196
 3583SOL     OW22210   4.130   3.130   4.140 -0.5634 -0.0370 -0.5070
 3583SOL    HW122211   4.037   3.153   4.138 -0.4618  0.4472  0.2319
 3583SOL    HW222212   4.129   3.051   4.193 -0.4589  0.5532  0.3770
 3584SOL     OW22213   4.064   1.213   3.610  0.4450  0.2214  0.2964
 3584SOL    HW122214   4.146   1.166   3.624  0.2415 -0.0602  0.5419
 3584SOL    HW222215   4.084   1.260   3.529 -0.3260 -2.4034 -1.4235
 3585SOL     OW22216   0.259   3.663   8.817  0.1461 -0.2930 -0.1516
 3585SOL    HW122217   0.238   3.671   8.724 -2.7475  2.1106  0.7096
 3585SOL    HW222218   0.170   3.671   8.853 -0.3178  0.6752 -1.4878
 3586SOL     OW22219   3.481   3.776  11.372 -0.8343 -0.1073 -0.2208
 3586SOL    HW122220   3.463   3.827  11.451  0.5717 -0.1265  0.1109
 3586SOL    HW222221   3.467   3.689  11.409  1.4982  0.5753  2.2430
 3587SOL     OW22222   2.012   1.031   1.254 -0.0300 -0.7867 -0.0991
 3587SOL    HW122223   2.083   0.968   1.250 -1.1638 -2.0127 -1.1397
 3587SOL    HW222224   1.944   0.993   1.311  0.2597  0.0981  0.8363
 3588SOL     OW22225   0.776   4.076  10.991  0.5863  0.0141  1.1359
 3588SOL    HW122226   0.698   4.064  11.045  0.7889 -0.8734  1.2299
 3588SOL    HW222227   0.830   4.020  11.045  1.2001  1.1873  1.7405
 3589SOL     OW22228   1.452   1.355  16.514 -0.3616  0.1413 -0.0607
 3589SOL    HW122229   1.411   1.303  16.444  0.9410  0.0466 -0.7426
 3589SOL    HW222230   1.383   1.356  16.580 -1.6864 -0.2915 -1.4286
 3590SOL     OW22231   3.604   2.340   3.436 -0.0638  0.2928 -0.0600
 3590SOL    HW122232   3.530   2.399   3.445 -0.3777 -0.1293  0.1411
 3590SOL    HW222233   3.557   2.267   3.396 -0.3754  1.1692 -1.2626
 3591SOL     OW22234   1.394   2.748   4.904 -0.0715  0.0485  0.0724
 3591SOL    HW122235   1.412   2.749   4.998 -1.0556  0.9693  0.2438
 3591SOL    HW222236   1.329   2.817   4.892 -0.7589 -1.0204 -2.4753
 3592SOL     OW22237   2.933   4.602  14.106 -0.1181 -0.0140 -0.0751
 3592SOL    HW122238   3.002   4.668  14.110 -0.2108  0.1114 -0.5749
 3592SOL    HW222239   2.958   4.556  14.026  3.1435 -2.3533  2.2814
 3593SOL     OW22240   4.641   1.878   0.968  0.2636 -0.1796 -0.0900
 3593SOL    HW122241   0.009   1.861   0.950  0.6889  0.0472  1.8974
 3593SOL    HW222242   4.651   1.914   1.056  0.0973 -0.4574  0.0458
 3594SOL     OW22243   2.958   2.242   4.595 -0.1089  0.0001  0.2935
 3594SOL    HW122244   3.041   2.215   4.556  0.1398  2.3593 -0.7862
 3594SOL    HW222245   2.963   2.173   4.661  0.7287  0.6490  0.9128
 3595SOL     OW22246   0.988   0.560  16.993  0.2923  0.1347  0.2298
 3595SOL    HW122247   0.928   0.622  16.951  0.5319  0.2707  0.0891
 3595SOL    HW222248   0.953   0.558  17.082  3.1553 -0.9761  1.3357
 3596SOL     OW22249   3.288   4.714   5.459  0.3040 -0.1136  0.1911
 3596SOL    HW122250   3.246   0.007   5.544 -1.4788 -0.5195 -0.6009
 3596SOL    HW222251   3.203   4.711   5.415  0.1075  0.3920  0.5283
 3597SOL     OW22252   1.313   3.633   5.772 -0.6769 -0.5507 -0.5802
 3597SOL    HW122253   1.223   3.602   5.780 -1.3376  1.4225 -0.2284
 3597SOL    HW222254   1.304   3.692   5.698 -1.3622 -0.0223 -0.0844
 3598SOL     OW22255   0.595   4.092  11.197  0.7908  0.0879 -0.0306
 3598SOL    HW122256   0.539   4.165  11.172 -1.6661 -2.3208 -1.5741
 3598SOL    HW222257   0.537   4.031  11.242  1.2152 -1.5820 -1.7480
 3599SOL     OW22258   0.813   0.317   8.327 -0.5655 -0.4370 -0.4024
 3599SOL    HW122259   0.803   0.319   8.422  1.1981  1.4470 -0.2477
 3599SOL    HW222260   0.738   0.270   8.292  0.5725 -2.2146 -0.4837
 3600SOL     OW22261   2.548   4.074   5.420 -0.5824  0.5521  0.3380
 3600SOL    HW122262   2.466   4.025   5.427  0.2027 -0.8028 -0.0313
 3600SOL    HW222263   2.546   4.096   5.327 -1.4241 -2.2108 -0.3081
 3601SOL     OW22264   1.399   3.282   1.047  0.2696  0.1538  0.6967
 3601SOL    HW122265   1.315   3.326   1.060  0.4342  1.0964 -1.3161
 3601SOL    HW222266   1.389   3.193   1.081  0.1103  1.1832  3.3470
 3602SOL     OW22267   3.166   4.097   7.308  0.2078  0.1524 -0.0449
 3602SOL    HW122268   3.083   4.096   7.260  0.4461  0.6486 -0.4623
 3602SOL    HW222269   3.202   4.179   7.275 -1.0279  1.6036  2.3047
 3603SOL     OW22270   3.192   2.688   6.183 -0.1124 -0.4642 -0.0090
 3603SOL    HW122271   3.188   2.766   6.237 -0.0804 -1.7217  1.8197
 3603SOL    HW222272   3.190   2.612   6.241 -1.6786  0.7513  1.5245
 3604SOL     OW22273   1.628   4.189   0.285 -0.3186 -0.0565 -0.3418
 3604SOL    HW122274   1.676   4.266   0.317 -0.7066 -0.7894  2.0304
 3604SOL    HW222275   1.544   4.209   0.327 -0.0645  1.4120 -0.5095
 3605SOL     OW22276   0.662   4.585  12.952  0.1147 -0.1237 -0.3351
 3605SOL    HW122277   0.664   4.491  12.936  0.7976 -0.7949  3.5979
 3605SOL    HW222278   0.696   4.616  12.868  0.7317  0.1020 -0.0006
 3606SOL     OW22279   2.372   1.746  15.867 -0.5434  0.6419 -0.1627
 3606SOL    HW122280   2.316   1.712  15.798  0.8598 -1.4121 -0.3081
 3606SOL    HW222281   2.310   1.800  15.916 -0.2545  0.9122 -0.0968
 3607SOL     OW22282   2.337   1.195   8.708  0.0462 -0.1705 -0.3727
 3607SOL    HW122283   2.373   1.245   8.781  1.3372 -2.4427  0.5501
 3607SOL    HW222284   2.379   1.232   8.631 -1.8789  1.5336 -0.6077
 3608SOL     OW22285   4.227   4.209   7.370 -0.3844 -0.3613 -0.1934
 3608SOL    HW122286   4.172   4.210   7.291  1.0028 -1.9095 -1.1634
 3608SOL    HW222287   4.255   4.118   7.367 -2.0825 -0.8561 -0.9265
 3609SOL     OW22288   3.532   2.069  12.977  0.2953 -0.0855 -0.0915
 3609SOL    HW122289   3.498   2.036  13.061  0.4897 -0.9308 -0.3413
 3609SOL    HW222290   3.621   2.096  12.999  1.0910 -0.6490 -2.6913
 3610SOL     OW22291   1.328   0.926   3.962  0.2468  0.5437  0.0141
 3610SOL    HW122292   1.315   0.932   4.057  1.5593 -2.4367  0.3869
 3610SOL    HW222293   1.421   0.900   3.956  0.1980  0.3434  0.1079
 3611SOL     OW22294   1.179   2.249   2.805  0.1266  0.3423  0.0886
 3611SOL    HW122295   1.167   2.277   2.896  0.7121  2.9596 -0.6452
 3611SOL    HW222296   1.192   2.336   2.767 -0.5573  0.1019 -0.6912
 3612SOL     OW22297   4.645   0.470   6.823  0.0663  0.0581 -0.1611
 3612SOL    HW122298   4.683   0.390   6.788 -1.6442 -0.4879 -0.7776
 3612SOL    HW222299   4.690   0.532   6.766  1.6625 -1.4334 -0.5023
 3613SOL     OW22300   3.641   0.305   9.446 -0.0467  0.8006 -0.2209
 3613SOL    HW122301   3.607   0.340   9.528 -0.2937  0.6156 -0.2455
 3613SOL    HW222302   3.686   0.379   9.403  1.2278  0.7107  0.9435
 3614SOL     OW22303   3.557   3.869  11.145  0.3410  0.5916 -0.5221
 3614SOL    HW122304   3.526   3.832  11.228  1.3457 -1.0745 -0.9123
 3614SOL    HW222305   3.486   3.933  11.133  0.6796  0.7615 -1.6507
 3615SOL     OW22306   3.350   0.613   9.595  0.5699 -0.2186 -0.3360
 3615SOL    HW122307   3.265   0.623   9.553  1.1799 -1.3695 -1.8279
 3615SOL    HW222308   3.336   0.520   9.614 -1.3649  0.2537  0.5695
 3616SOL     OW22309   3.895   0.928  13.577 -0.2846 -0.2360 -0.4977
 3616SOL    HW122310   3.890   0.920  13.481  2.8274 -0.3810 -0.6610
 3616SOL    HW222311   3.940   0.852  13.613 -0.2154 -0.3707 -0.8638
 3617SOL     OW22312   0.921   4.437   7.682 -0.3035 -0.0646 -0.7597
 3617SOL    HW122313   0.992   4.497   7.706  0.8989 -1.7461 -0.1388
 3617SOL    HW222314   0.848   4.488   7.647  0.0621  0.2597 -1.0527
 3618SOL     OW22315   3.978   2.870   6.784 -0.5268 -0.2448 -0.1953
 3618SOL    HW122316   4.072   2.857   6.773 -0.2688  3.0221 -1.7821
 3618SOL    HW222317   3.974   2.891   6.877 -0.8444 -0.4320 -0.1674
 3619SOL     OW22318   2.892   2.915  14.601  0.0037  0.4942  0.0662
 3619SOL    HW122319   2.884   2.942  14.510 -3.2026  0.4226  0.3320
 3619SOL    HW222320   2.838   2.837  14.602 -0.4670  0.8095 -0.9886
 3620SOL     OW22321   1.216   2.700   0.845  0.4831  0.0544  0.7198
 3620SOL    HW122322   1.192   2.717   0.936  1.8261  1.7657  0.7489
 3620SOL    HW222323   1.242   2.608   0.848  0.6154  0.1000  1.0369
 3621SOL     OW22324   0.397   3.225   3.937  0.2218  0.1475 -0.6089
 3621SOL    HW122325   0.446   3.303   3.960  1.9348 -1.2642  0.4873
 3621SOL    HW222326   0.329   3.237   4.004  0.5784  1.0174 -0.4175
 3622SOL     OW22327   1.188   0.678   4.515 -0.0559  0.3735 -0.6210
 3622SOL    HW122328   1.271   0.683   4.562 -0.9948  2.6685  0.7805
 3622SOL    HW222329   1.213   0.631   4.435 -0.3404  2.3722 -1.8780
 3623SOL     OW22330   1.108   1.198  17.614 -0.1881  0.3368 -0.3027
 3623SOL    HW122331   1.053   1.121  17.621  3.0936 -2.1763 -2.2891
 3623SOL    HW222332   1.198   1.167  17.623 -0.2717  0.3308  0.4990
 3624SOL     OW22333   2.839   2.651   3.353  0.6991 -0.4165  0.2164
 3624SOL    HW122334   2.811   2.597   3.280  1.2698  3.0546 -2.5723
 3624SOL    HW222335   2.883   2.717   3.300  3.6102 -2.5561  0.0347
 3625SOL     OW22336   0.547   0.051   2.535 -0.5387 -0.3241  0.0398
 3625SOL    HW122337   0.630   0.006   2.522 -1.6086 -2.4829  0.7162
 3625SOL    HW222338   0.507   0.049   2.448  0.1762 -0.7164 -0.2781
 3626SOL     OW22339   1.824   2.206   5.225 -0.4588 -0.8312 -0.2026
 3626SOL    HW122340   1.787   2.260   5.295 -0.3990 -1.0513 -0.0034
 3626SOL    HW222341   1.893   2.156   5.267 -0.2291 -1.8909 -1.8303
 3627SOL     OW22342   3.083   2.117   8.258  0.4447 -0.0390  0.5949
 3627SOL    HW122343   3.001   2.139   8.214  0.5655 -1.1412 -0.1543
 3627SOL    HW222344   3.065   2.023   8.252 -1.8808  0.4483  0.0660
 3628SOL     OW22345   0.759   1.206   8.803 -0.4348 -0.4887 -0.2482
 3628SOL    HW122346   0.765   1.113   8.778  1.4779 -0.5896  0.6214
 3628SOL    HW222347   0.835   1.240   8.756 -0.0481 -0.6407  0.2639
 3629SOL     OW22348   4.528   3.523   5.886  0.4227  0.2737 -0.2515
 3629SOL    HW122349   4.493   3.591   5.828  4.7206  1.2229 -1.7759
 3629SOL    HW222350   4.620   3.552   5.886 -0.6184  3.6434  2.0979
 3630SOL     OW22351   2.927   1.869   0.441  0.1610  0.4468 -0.2588
 3630SOL    HW122352   3.004   1.879   0.385  2.2239 -1.5166  2.2245
 3630SOL    HW222353   2.849   1.879   0.386  0.7010 -2.4197 -1.5683
 3631SOL     OW22354   4.203   4.006   6.337  0.5554 -0.4240  0.7363
 3631SOL    HW122355   4.221   4.100   6.330 -0.9119 -0.2488 -0.5988
 3631SOL    HW222356   4.195   4.003   6.432 -4.2265 -1.3145  0.2953
 3632SOL     OW22357   3.542   3.144   7.390 -0.5484  0.4472 -0.0071
 3632SOL    HW122358   3.470   3.175   7.335  0.7758  0.0642 -1.9931
 3632SOL    HW222359   3.513   3.054   7.407  1.7163 -0.6505 -1.9823
 3633SOL     OW22360   0.338   0.209   6.712  0.3705 -0.3558 -0.1267
 3633SOL    HW122361   0.364   0.301   6.720 -0.8262  0.2624 -3.3502
 3633SOL    HW222362   0.393   0.169   6.645  1.3946  2.1455 -0.7877
 3634SOL     OW22363   2.279   4.023  10.318  0.3779 -0.0626  0.2168
 3634SOL    HW122364   2.320   4.088  10.374  0.5216  0.4707 -0.5122
 3634SOL    HW222365   2.257   4.062  10.233 -3.2349 -1.5577  0.4606
 3635SOL     OW22366   4.717   3.570   2.783 -0.0595  0.0713 -0.3915
 3635SOL    HW122367   0.076   3.616   2.791  0.1513 -0.5783  1.0656
 3635SOL    HW222368   0.016   3.483   2.815 -2.3670 -0.3969 -0.0334
 3636SOL     OW22369   1.910   0.334  15.008  0.4821  0.2641  0.8952
 3636SOL    HW122370   1.991   0.283  15.017  0.9733  0.8726 -0.0360
 3636SOL    HW222371   1.901   0.360  15.100 -1.6993 -1.3782  1.1279
 3637SOL     OW22372   3.656   3.409   7.775 -0.1840  0.3844  0.3776
 3637SOL    HW122373   3.738   3.457   7.770 -0.6828  1.2037 -0.0051
 3637SOL    HW222374   3.609   3.435   7.695  0.6676 -0.0527 -0.2532
 3638SOL     OW22375   3.841   3.951   5.931 -0.0414 -0.9627 -0.3551
 3638SOL    HW122376   3.868   4.043   5.935 -0.1905 -0.9553  0.5528
 3638SOL    HW222377   3.829   3.944   5.837 -2.5926  1.1171 -0.1889
 3639SOL     OW22378   0.231   2.837  16.257  0.2483  0.5602  0.2118
 3639SOL    HW122379   0.192   2.757  16.292  0.6741  0.2328 -0.0642
 3639SOL    HW222380   0.166   2.907  16.269 -0.6496 -0.4154  0.9362
 3640SOL     OW22381   1.983   3.257   3.965  0.3089 -0.2988  0.3245
 3640SOL    HW122382   2.034   3.226   3.890  0.7219  0.2210  0.3916
 3640SOL    HW222383   2.046   3.264   4.036 -0.9707 -0.1086  1.4403
 3641SOL     OW22384   1.452   1.636   8.819 -0.3164 -0.0062 -0.0290
 3641SOL    HW122385   1.515   1.686   8.768  1.6296 -1.4301  0.9770
 3641SOL    HW222386   1.380   1.695   8.840 -0.4741 -0.2869  0.2291
 3642SOL     OW22387   3.051   3.002   6.469  0.0826  0.1606  0.4860
 3642SOL    HW122388   2.963   3.038   6.462  0.3885  0.6532 -0.8990
 3642SOL    HW222389   3.077   2.985   6.379  0.7781 -2.8903  1.2514
 3643SOL     OW22390   1.488   3.269   4.014 -0.5584  0.2508  0.3531
 3643SOL    HW122391   1.470   3.359   3.985 -0.5755  0.2512  0.3649
 3643SOL    HW222392   1.570   3.254   3.966 -0.2916  3.0892 -0.0915
 3644SOL     OW22393   1.280   2.005   0.560 -0.1678  0.6679  0.0566
 3644SOL    HW122394   1.247   2.048   0.639 -1.5850 -1.0594  0.3876
 3644SOL    HW222395   1.262   1.912   0.572 -2.1262  0.7663 -2.0354
 3645SOL     OW22396   0.562   1.409   5.625 -0.3090  0.2867 -0.0755
 3645SOL    HW122397   0.638   1.464   5.607  0.7185  0.2003  3.9793
 3645SOL    HW222398   0.533   1.455   5.704 -2.7471 -0.5794 -0.4664
 3646SOL     OW22399   3.235   0.299   8.830 -0.2208 -0.2390 -0.2654
 3646SOL    HW122400   3.279   0.338   8.754  0.7563 -1.5207 -0.3712
 3646SOL    HW222401   3.200   0.217   8.794  1.4972 -1.8642  1.7738
 3647SOL     OW22402   1.950   2.274   6.668  0.0028 -0.6277  0.8563
 3647SOL    HW122403   2.037   2.302   6.639 -0.9812  0.1361 -1.3360
 3647SOL    HW222404   1.941   2.339   6.738 -1.1033 -0.5329  0.6217
 3648SOL     OW22405   0.056   2.541   6.814 -0.3142 -0.3438 -0.1010
 3648SOL    HW122406   0.075   2.481   6.742 -1.6828 -1.1433  0.1924
 3648SOL    HW222407   0.145   2.555   6.847 -0.4406 -1.0652  0.5630
 3649SOL     OW22408   2.441   3.417   1.033  0.5299 -0.5027 -0.1141
 3649SOL    HW122409   2.472   3.504   1.060  2.1198 -2.0943  3.2106
 3649SOL    HW222410   2.355   3.436   0.995  1.7086  2.4446 -1.3125
 3650SOL     OW22411   4.282   2.998   6.170 -0.1503 -0.2095  0.0710
 3650SOL    HW122412   4.247   3.080   6.205  1.8974  0.6116  0.2029
 3650SOL    HW222413   4.288   3.018   6.077 -0.8102 -0.1148  0.0492
 3651SOL     OW22414   2.687   0.194   9.145  0.6487  0.8674  0.1380
 3651SOL    HW122415   2.662   0.121   9.088  1.0332  0.2881  0.7088
 3651SOL    HW222416   2.701   0.260   9.077  1.9307 -1.1904 -1.6357
 3652SOL     OW22417   2.303   3.942  16.783 -0.3531  0.1019 -0.2038
 3652SOL    HW122418   2.263   3.965  16.866  2.0654 -1.2310  1.3122
 3652SOL    HW222419   2.275   3.850  16.780 -0.8233  0.2628 -0.6785
 3653SOL     OW22420   4.658   1.539  13.352 -0.3850  0.0342 -0.1837
 3653SOL    HW122421   4.566   1.529  13.377  0.0220 -3.8821 -0.2617
 3653SOL    HW222422   4.669   1.633  13.341 -0.0287  0.0793  0.5990
 3654SOL     OW22423   0.272   1.313   2.146  0.3287 -0.3309  0.0629
 3654SOL    HW122424   0.353   1.364   2.153 -0.8744  2.0291 -3.2786
 3654SOL    HW222425   0.306   1.223   2.146  3.0290  0.6949 -2.0378
 3655SOL     OW22426   4.436   4.002   4.561 -0.0437  0.5252  0.2695
 3655SOL    HW122427   4.491   4.053   4.621  0.6781 -0.4601  0.4351
 3655SOL    HW222428   4.484   4.017   4.480 -1.2849  0.0732 -0.5282
 3656SOL     OW22429   3.106   3.497   3.749  0.3323  0.4443  0.1296
 3656SOL    HW122430   3.192   3.538   3.735  0.7022  0.4000  2.2148
 3656SOL    HW222431   3.079   3.495   3.658 -2.6488 -1.4741  1.0657
 3657SOL     OW22432   2.168   2.533   5.188  0.8467 -0.1463  0.0758
 3657SOL    HW122433   2.144   2.441   5.177 -2.9193  0.6536  1.4686
 3657SOL    HW222434   2.206   2.555   5.103 -2.5873  1.1229 -1.1292
 3658SOL     OW22435   4.166   4.246   1.936 -0.6269 -0.3047  0.5901
 3658SOL    HW122436   4.169   4.326   1.882  0.9801 -0.0708  1.0079
 3658SOL    HW222437   4.165   4.177   1.870 -0.2134  0.2636 -0.0218
 3659SOL     OW22438   2.986   0.071   4.767 -0.1493 -0.1372  0.8249
 3659SOL    HW122439   3.066   0.116   4.740 -0.2968 -1.0852 -1.2123
 3659SOL    HW222440   2.994   0.078   4.862  0.4998  3.2949  0.5075
 3660SOL     OW22441   0.868   4.416   5.601  0.1409  0.0704  0.5303
 3660SOL    HW122442   0.834   4.411   5.511  1.0787 -0.5881  0.2168
 3660SOL    HW222443   0.834   4.498   5.637  0.4476  0.2918  0.3133
 3661SOL     OW22444   3.265   0.717   1.553 -0.0983  0.4011 -0.3860
 3661SOL    HW122445   3.354   0.698   1.521 -0.1559 -2.7203  1.2796
 3661SOL    HW222446   3.245   0.641   1.608  0.1531  1.1620  0.7647
 3662SOL     OW22447   4.404   2.845   2.222 -0.0378  0.1480  0.2333
 3662SOL    HW122448   4.369   2.767   2.264 -0.8455 -0.3597 -1.3793
 3662SOL    HW222449   4.494   2.818   2.202  0.0941  0.8968 -0.1968
 3663SOL     OW22450   3.573   3.397   2.650 -0.0696  0.1807 -0.2287
 3663SOL    HW122451   3.636   3.409   2.579  1.4885 -1.2728  0.9079
 3663SOL    HW222452   3.615   3.320   2.688 -0.5342  0.0170 -0.0394
 3664SOL     OW22453   3.808   0.140   7.420  0.0548 -0.1303  0.4330
 3664SOL    HW122454   3.871   0.091   7.474  0.7316  0.7585  0.4346
 3664SOL    HW222455   3.788   0.085   7.344  0.4323 -1.9624  1.6448
 3665SOL     OW22456   1.785   3.225   6.193  0.3459 -0.3209  0.0065
 3665SOL    HW122457   1.879   3.213   6.176  0.1417  0.8702 -1.9660
 3665SOL    HW222458   1.775   3.175   6.274 -0.8337 -1.7179 -0.9877
 3666SOL     OW22459   2.319   1.341   1.749  0.3321 -0.1688  0.1154
 3666SOL    HW122460   2.333   1.341   1.654  2.3357  1.5832  0.4281
 3666SOL    HW222461   2.230   1.377   1.752 -0.1199 -1.2841  0.0659
 3667SOL     OW22462   3.648   1.977   8.208 -0.2851 -0.3050 -0.2766
 3667SOL    HW122463   3.727   1.979   8.261 -0.4240  1.2653 -0.1331
 3667SOL    HW222464   3.626   2.069   8.194  1.6990  0.3685  1.0310
 3668SOL     OW22465   1.159   3.818   1.408  0.2568 -0.2710 -0.2034
 3668SOL    HW122466   1.079   3.809   1.461 -0.0666 -0.2602 -0.6878
 3668SOL    HW222467   1.160   3.736   1.359 -0.3179 -0.9246  0.8690
 3669SOL     OW22468   0.109   3.097   9.829 -0.2181  0.1194  0.0487
 3669SOL    HW122469   0.068   3.062   9.907  2.0908 -0.1980  1.1295
 3669SOL    HW222470   0.071   3.184   9.824  1.4184  0.9773  2.5517
 3670SOL     OW22471   2.780   1.809  10.682 -0.0119  0.7514 -0.0947
 3670SOL    HW122472   2.766   1.723  10.643 -1.4926  0.8053  0.3049
 3670SOL    HW222473   2.736   1.854  10.609 -0.4512 -1.8296 -1.4214
 3671SOL     OW22474   2.712   4.465   7.536 -0.9125 -0.1775  0.2975
 3671SOL    HW122475   2.683   4.494   7.450  1.2640  3.8210  0.9036
 3671SOL    HW222476   2.630   4.463   7.585  0.1736 -0.7022  2.0993
 3672SOL     OW22477   2.138   1.918   4.692 -0.6413  0.1258 -0.3227
 3672SOL    HW122478   2.082   1.844   4.713  1.4346 -1.9711 -2.0550
 3672SOL    HW222479   2.123   1.981   4.762  1.8927  1.1372 -0.6833
 3673SOL     OW22480   2.337   3.188   2.117 -0.0552 -0.0129  0.1032
 3673SOL    HW122481   2.380   3.105   2.099 -0.8399 -0.2622 -0.6346
 3673SOL    HW222482   2.393   3.255   2.078 -0.9571 -0.4498 -1.9598
 3674SOL     OW22483   1.697   4.084   7.751 -0.2106  0.1236  0.7050
 3674SOL    HW122484   1.708   4.061   7.844 -0.7655  0.8507  0.9503
 3674SOL    HW222485   1.618   4.137   7.763  0.3683  0.4551  3.0988
 3675SOL     OW22486   2.204   3.532   6.462 -0.1203  0.0254  0.1329
 3675SOL    HW122487   2.210   3.455   6.519 -0.7446  0.1382  0.3435
 3675SOL    HW222488   2.228   3.493   6.378 -1.0306  1.0367 -0.5931
 3676SOL     OW22489   1.500   4.314   4.787 -0.2589 -0.0309  0.1179
 3676SOL    HW122490   1.565   4.384   4.778  2.3053 -2.5522 -0.8318
 3676SOL    HW222491   1.505   4.293   4.881 -2.3802  2.9954  0.9151
 3677SOL     OW22492   4.715   2.348  10.509 -0.1706  0.0480  0.3978
 3677SOL    HW122493   4.682   2.258  10.520  0.1785 -0.1050  0.1783
 3677SOL    HW222494   0.017   2.359  10.600  0.6681  1.4711 -0.0218
 3678SOL     OW22495   2.530   3.552   7.950  0.1787  0.2951  0.1714
 3678SOL    HW122496   2.549   3.640   7.982  0.6279 -0.6829  2.6563
 3678SOL    HW222497   2.593   3.497   7.998  0.2736  2.4833  2.5164
 3679SOL     OW22498   3.354   2.144   5.020 -0.1551 -0.3006  0.2898
 3679SOL    HW122499   3.263   2.173   5.015 -0.6573 -1.7119  1.2988
 3679SOL    HW222500   3.378   2.121   4.930 -1.1892 -0.5010  0.0618
 3680SOL     OW22501   2.569   0.546   5.644 -0.0969 -0.1915 -0.4102
 3680SOL    HW122502   2.562   0.585   5.731 -1.4313  1.0274 -1.0616
 3680SOL    HW222503   2.478   0.553   5.614 -0.1053 -0.8422 -0.5383
 3681SOL     OW22504   2.427   0.945  10.460  0.6518 -0.4112 -0.6341
 3681SOL    HW122505   2.492   0.958  10.391  0.1114 -1.4372 -1.3233
 3681SOL    HW222506   2.458   0.989  10.539  2.5955 -1.9634 -0.5335
 3682SOL     OW22507   0.154   2.191  14.989  0.1424  0.4393 -0.6901
 3682SOL    HW122508   0.102   2.193  15.069  1.4185 -0.0699  0.1555
 3682SOL    HW222509   0.227   2.130  15.000 -1.0515 -1.1248 -1.3652
 3683SOL     OW22510   3.019   1.160  12.905  0.5429  0.3784 -0.3372
 3683SOL    HW122511   2.943   1.131  12.956  1.5139 -3.0572 -0.8587
 3683SOL    HW222512   3.040   1.088  12.845 -1.5202  0.5329 -1.2555
 3684SOL     OW22513   1.908   0.089   8.364  0.0413  0.6759 -0.5466
 3684SOL    HW122514   1.987   0.058   8.319 -0.3969 -2.0312  0.5329
 3684SOL    HW222515   1.902   0.180   8.335  1.5038  0.6321 -1.0306
 3685SOL     OW22516   4.325   2.111   4.323 -0.1208  0.0424 -0.4713
 3685SOL    HW122517   4.340   2.055   4.400 -2.2109 -0.8088 -0.6870
 3685SOL    HW222518   4.384   2.186   4.334  0.1131  0.0151 -1.5932
 3686SOL     OW22519   1.152   1.674  12.734  0.2787  0.0807  0.4076
 3686SOL    HW122520   1.060   1.652  12.745  0.2458 -0.8820 -1.7509
 3686SOL    HW222521   1.190   1.592  12.765  0.9270  0.1601 -0.1535
 3687SOL     OW22522   4.209   0.098   4.227 -0.2655 -0.3403 -0.1135
 3687SOL    HW122523   4.213   0.019   4.173  1.3294 -1.5357  1.7523
 3687SOL    HW222524   4.278   0.153   4.188  0.6187 -1.8063 -0.6241
 3688SOL     OW22525   2.124   2.644   8.574 -1.1287 -0.4136  1.0217
 3688SOL    HW122526   2.043   2.676   8.535 -0.8254 -0.4735  0.3259
 3688SOL    HW222527   2.097   2.618   8.662  1.5008  2.2075  2.5954
 3689SOL     OW22528   0.279   1.482   0.908  0.4388 -0.4323  0.4496
 3689SOL    HW122529   0.274   1.486   1.003 -0.0654  1.2280  0.3528
 3689SOL    HW222530   0.354   1.541   0.905 -0.5021  0.6365 -2.6289
 3690SOL     OW22531   1.127   1.368   6.332 -0.2054 -0.8552 -0.1936
 3690SOL    HW122532   1.208   1.393   6.376  0.1570  1.8167 -2.3433
 3690SOL    HW222533   1.072   1.443   6.355  0.5775 -0.5155  0.5670
 3691SOL     OW22534   0.516   3.264  10.674 -0.8170  0.2508 -0.5494
 3691SOL    HW122535   0.474   3.344  10.640 -2.4625 -0.4877 -0.2718
 3691SOL    HW222536   0.539   3.296  10.762  0.2196 -1.4307 -0.2128
 3692SOL     OW22537   1.369   3.060   5.443  0.8995  0.0051  0.2964
 3692SOL    HW122538   1.419   3.034   5.366 -0.4522  1.3486 -1.0227
 3692SOL    HW222539   1.383   3.154   5.450 -0.7053  0.2767  0.0445
 3693SOL     OW22540   0.571   1.667  13.055  0.3546  0.4910  0.0985
 3693SOL    HW122541   0.512   1.592  13.064  1.4701 -0.6501 -2.2039
 3693SOL    HW222542   0.605   1.664  12.966  0.8982  0.4581  0.3076
 3694SOL     OW22543   0.717   4.551   2.461  0.2158 -0.1753 -0.7716
 3694SOL    HW122544   0.811   4.536   2.454  0.3156 -0.1975  0.4813
 3694SOL    HW222545   0.688   4.473   2.414 -3.4161 -0.1825  1.4546
 3695SOL     OW22546   2.431   1.307  11.406 -0.7207  0.3911 -0.2878
 3695SOL    HW122547   2.492   1.267  11.343 -0.4553  1.8190 -0.9569
 3695SOL    HW222548   2.482   1.291  11.485  1.6403  1.7747 -1.5258
 3696SOL     OW22549   2.771   0.128   3.160 -0.3004  0.0253 -0.0318
 3696SOL    HW122550   2.828   0.099   3.231  0.3962 -0.2160 -0.6934
 3696SOL    HW222551   2.830   0.176   3.103 -0.0697  0.8328  0.8771
 3697SOL     OW22552   1.225   4.178   6.996  0.5124 -0.4026  0.0906
 3697SOL    HW122553   1.257   4.101   7.044 -0.6722  0.9831  3.1193
 3697SOL    HW222554   1.275   4.188   6.915 -1.8108 -0.1812 -1.3080
 3698SOL     OW22555   3.312   2.431  15.153 -0.2646 -0.6402 -0.2214
 3698SOL    HW122556   3.389   2.460  15.105  0.7496 -1.4947  0.8674
 3698SOL    HW222557   3.325   2.336  15.154 -0.0601 -0.6181 -1.4938
 3699SOL     OW22558   0.361   1.243   3.578 -0.5261 -0.0129  0.5020
 3699SOL    HW122559   0.381   1.301   3.505 -0.6020 -0.9961 -0.3022
 3699SOL    HW222560   0.267   1.228   3.564 -0.2691 -1.1946  0.0217
 3700SOL     OW22561   4.602   1.240  15.140 -0.0014 -0.3590 -0.3105
 3700SOL    HW122562   4.660   1.303  15.184  0.0020 -0.9291  0.5103
 3700SOL    HW222563   4.642   1.247  15.053  2.7393 -0.4953  0.9201
 3701SOL     OW22564   4.000   4.556  10.145 -0.1040  0.3049 -0.3541
 3701SOL    HW122565   3.971   4.587  10.230 -1.1923  0.5182 -0.8069
 3701SOL    HW222566   3.923   4.571  10.090 -0.6809 -0.3514  0.2840
 3702SOL     OW22567   0.124   1.644  10.838  0.2106 -0.3517 -0.1447
 3702SOL    HW122568   0.197   1.643  10.776 -0.9588 -0.0244 -1.5205
 3702SOL    HW222569   0.154   1.581  10.903  1.4491 -0.2680 -0.6427
 3703SOL     OW22570   2.818   2.194   1.756  0.5272  0.2554  0.3972
 3703SOL    HW122571   2.777   2.237   1.682 -0.6524  0.6782  1.2887
 3703SOL    HW222572   2.894   2.157   1.711  0.8640  1.0431  0.3210
 3704SOL     OW22573   0.547   3.202   5.873  0.2273 -0.1548 -0.0688
 3704SOL    HW122574   0.580   3.258   5.943  1.7493 -2.9556  1.4731
 3704SOL    HW222575   0.563   3.265   5.803 -0.9182 -0.3400 -0.4945
 3705SOL     OW22576   1.904   1.794   8.853 -0.1879  0.7494 -0.5143
 3705SOL    HW122577   1.994   1.773   8.877 -0.5622 -1.9881 -1.5775
 3705SOL    HW222578   1.851   1.772   8.930  0.4045  0.2575 -0.2509
 3706SOL     OW22579   3.444   1.671   0.371 -0.8716  0.1065 -0.4041
 3706SOL    HW122580   3.497   1.751   0.370 -0.1824 -0.3436 -0.3641
 3706SOL    HW222581   3.390   1.686   0.294 -1.4897  1.1885  0.2517
 3707SOL     OW22582   0.329   4.361   8.984 -0.2113  0.0537  0.2015
 3707SOL    HW122583   0.365   4.439   9.027  0.2994 -1.3374  2.2974
 3707SOL    HW222584   0.388   4.356   8.909  3.0618  0.2471  2.7575
 3708SOL     OW22585   2.991   1.522   5.743 -0.3646  0.5112 -0.1530
 3708SOL    HW122586   3.060   1.577   5.704  1.2295  0.1710  2.2192
 3708SOL    HW222587   2.936   1.589   5.783  0.4574  1.5601 -0.7731
 3709SOL     OW22588   2.481   2.364  13.632 -0.4348 -0.1375  0.1446
 3709SOL    HW122589   2.506   2.450  13.597  2.7702  0.1484  3.1537
 3709SOL    HW222590   2.405   2.351  13.576  1.1683  0.1711 -2.1406
 3710SOL     OW22591   0.243   3.565   9.870  0.3545 -0.2874  0.0760
 3710SOL    HW122592   0.304   3.543   9.940 -0.0780 -1.3459  0.1133
 3710SOL    HW222593   0.212   3.648   9.906 -2.4403 -1.0261 -0.6540
 3711SOL     OW22594   2.183   0.745   5.253 -0.8489  0.2730 -0.1532
 3711SOL    HW122595   2.146   0.739   5.165 -0.8175  1.9478 -0.2784
 3711SOL    HW222596   2.225   0.660   5.267 -2.0828 -0.1960  0.6690
 3712SOL     OW22597   0.782   4.166   6.850 -0.5509  0.0670  0.0451
 3712SOL    HW122598   0.752   4.255   6.864 -1.2278 -0.2146  0.3951
 3712SOL    HW222599   0.857   4.173   6.791 -0.0898 -1.1053  0.4742
 3713SOL     OW22600   2.776   4.572   1.985 -0.1571  0.2245  0.0222
 3713SOL    HW122601   2.692   4.618   1.989 -0.8590 -1.1632  1.4736
 3713SOL    HW222602   2.783   4.533   2.072 -0.7860  0.9227  0.3833
 3714SOL     OW22603   1.106   4.542   3.049  0.2228  0.0839 -0.1272
 3714SOL    HW122604   1.073   4.486   3.120 -0.9804 -1.6560 -2.0439
 3714SOL    HW222605   1.182   4.585   3.087 -0.2274  2.1892 -1.5811
 3715SOL     OW22606   2.992   3.487   6.737  0.2757  0.2078  0.0556
 3715SOL    HW122607   3.048   3.504   6.661  1.2880  0.4239  0.8537
 3715SOL    HW222608   2.918   3.541   6.708  1.8275  1.9777 -0.6214
 3716SOL     OW22609   1.889   3.846   5.008 -0.2009  0.3088  0.1962
 3716SOL    HW122610   1.874   3.907   5.080  3.0900 -1.2287  2.1756
 3716SOL    HW222611   1.933   3.776   5.056 -0.3804 -0.1940 -0.3760
 3717SOL     OW22612   3.305   1.134   3.468  0.0934 -0.3537  0.1365
 3717SOL    HW122613   3.247   1.195   3.513 -1.7129 -1.1742 -1.0664
 3717SOL    HW222614   3.394   1.155   3.497  0.9657 -0.6445 -2.3661
 3718SOL     OW22615   3.867   3.489  10.093 -0.1089  0.0841 -0.5367
 3718SOL    HW122616   3.892   3.572  10.133  0.8313 -0.0543 -0.8347
 3718SOL    HW222617   3.804   3.509  10.023 -0.0276 -0.2248 -0.6993
 3719SOL     OW22618   0.013   1.239  14.885 -0.1103 -0.0689 -0.3028
 3719SOL    HW122619   0.003   1.309  14.821 -3.1299  0.9153  1.2525
 3719SOL    HW222620   4.712   1.169  14.825 -1.0023  0.9336 -1.0872
 3720SOL     OW22621   4.497   1.710   5.969  0.3199 -0.1693  0.0116
 3720SOL    HW122622   4.447   1.733   6.047 -0.4252  2.7245 -1.3342
 3720SOL    HW222623   4.429   1.730   5.905 -0.6690 -0.1704  1.0776
 3721SOL     OW22624   1.640   2.851   0.013  0.5706 -0.1704 -0.4048
 3721SOL    HW122625   1.613   2.770  17.666 -2.0866  0.9132 -0.8049
 3721SOL    HW222626   1.576   2.920  17.691 -0.8732 -1.2635  0.4517
 3722SOL     OW22627   3.251   3.748   0.650 -0.0274 -0.2395  0.2234
 3722SOL    HW122628   3.230   3.814   0.716  1.0047 -0.8698  1.1910
 3722SOL    HW222629   3.343   3.743   0.676  0.3241  0.0607 -0.9897
 3723SOL     OW22630   4.089   1.320   8.784 -0.2185  0.3104 -0.2205
 3723SOL    HW122631   4.047   1.372   8.715 -2.1235 -1.3909 -0.3461
 3723SOL    HW222632   4.057   1.230   8.781 -1.2392  0.7250 -1.7563
 3724SOL     OW22633   1.364   2.132   7.479  0.3265  0.5821  0.8050
 3724SOL    HW122634   1.428   2.182   7.427 -0.5343  0.1672 -0.6649
 3724SOL    HW222635   1.295   2.198   7.492 -1.6024 -1.4401  0.8363
 3725SOL     OW22636   1.408   2.159   8.775 -0.3939 -0.1440  0.2830
 3725SOL    HW122637   1.369   2.090   8.828  1.8367 -1.5767  0.0682
 3725SOL    HW222638   1.339   2.224   8.762 -0.7680 -0.8706 -1.4314
 3726SOL     OW22639   0.786   1.525   2.204  0.5699  0.2621 -0.2493
 3726SOL    HW122640   0.818   1.549   2.291  0.8338  0.0925 -0.2996
 3726SOL    HW222641   0.815   1.599   2.151  0.3516  1.5977  1.5241
 3727SOL     OW22642   0.115   2.591  14.502 -0.0122 -0.6524  0.2282
 3727SOL    HW122643   0.023   2.600  14.478  0.2030 -0.4715 -0.5273
 3727SOL    HW222644   0.170   2.610  14.425  0.5159  1.5731  1.1648
 3728SOL     OW22645   4.712   1.097   4.725 -0.1274 -0.0872  0.0093
 3728SOL    HW122646   0.053   1.061   4.665 -0.9088 -1.6007  0.0907
 3728SOL    HW222647   4.708   1.185   4.686  1.6467 -1.1014 -2.5212
 3729SOL     OW22648   1.455   3.589   5.199  0.4106 -0.2077  0.5150
 3729SOL    HW122649   1.524   3.549   5.252  1.8559 -2.5206 -3.1482
 3729SOL    HW222650   1.383   3.578   5.262 -1.4856  0.2051 -1.5862
 3730SOL     OW22651   0.125   3.251   6.345 -0.4555  0.6222 -0.1333
 3730SOL    HW122652   0.151   3.223   6.257 -0.4281 -1.6334  0.5942
 3730SOL    HW222653   0.206   3.294   6.370  0.4207 -1.3637  0.4571
 3731SOL     OW22654   1.177   0.784  10.927 -0.0004  0.1174 -0.2833
 3731SOL    HW122655   1.149   0.873  10.947  1.4915  1.1519 -2.7819
 3731SOL    HW222656   1.106   0.766  10.864 -0.3419  1.6379 -0.3156
 3732SOL     OW22657   1.983   3.279   9.292  0.1928  0.2817 -0.1033
 3732SOL    HW122658   2.074   3.308   9.284  0.1735  0.6192  0.9981
 3732SOL    HW222659   1.989   3.204   9.350 -0.0404 -0.5884 -1.2111
 3733SOL     OW22660   0.579   1.277   4.647 -0.3691  0.0774  1.0632
 3733SOL    HW122661   0.593   1.350   4.586 -0.6109 -0.3910  0.4540
 3733SOL    HW222662   0.541   1.216   4.584  1.1727  0.3093 -0.0885
 3734SOL     OW22663   4.261   2.859   6.820 -0.1830  0.0022 -0.5746
 3734SOL    HW122664   4.227   2.780   6.861 -0.8746 -0.2390 -1.6002
 3734SOL    HW222665   4.316   2.815   6.755  1.6388  0.2077  0.8428
 3735SOL     OW22666   3.834   4.077   9.065 -0.6832 -0.4681 -0.2114
 3735SOL    HW122667   3.777   4.127   9.124 -1.1102 -2.0806  0.7513
 3735SOL    HW222668   3.906   4.041   9.116  0.7625  0.2345 -1.7456
 3736SOL     OW22669   3.019   1.429   5.271  0.7174  0.9498 -0.8159
 3736SOL    HW122670   3.107   1.462   5.257 -0.3115  2.0039 -4.7595
 3736SOL    HW222671   3.027   1.430   5.366  2.9504 -0.5578 -1.0125
 3737SOL     OW22672   3.411   4.059  13.293  0.0363 -0.6193 -0.0845
 3737SOL    HW122673   3.319   4.032  13.293 -0.1294 -0.0415  0.3345
 3737SOL    HW222674   3.452   3.976  13.318 -1.1370 -0.5140  2.1740
 3738SOL     OW22675   2.782   1.269   5.229 -0.1766  0.1691 -0.5988
 3738SOL    HW122676   2.826   1.193   5.268 -0.2768  0.1523 -0.5180
 3738SOL    HW222677   2.849   1.333   5.250 -0.5431  0.2664  0.2487
 3739SOL     OW22678   3.454   1.408   6.797  0.7466  0.1385  0.5774
 3739SOL    HW122679   3.475   1.356   6.875  1.7394 -3.1357 -1.8654
 3739SOL    HW222680   3.460   1.494   6.838  3.0546 -0.2121  0.9834
 3740SOL     OW22681   4.182   2.064   3.416  0.3121 -0.2003 -0.0679
 3740SOL    HW122682   4.100   2.015   3.414  0.1861 -0.0204  0.6872
 3740SOL    HW222683   4.236   2.022   3.348  1.0236 -3.1494  2.2941
 3741SOL     OW22684   1.427   3.066   3.024 -0.2797 -0.4093  0.1561
 3741SOL    HW122685   1.373   3.055   2.946 -1.4838 -1.5389  1.1616
 3741SOL    HW222686   1.404   3.155   3.051  1.4214 -0.2630  1.1530
 3742SOL     OW22687   0.288   0.250   7.957 -0.2262 -0.4796 -0.0538
 3742SOL    HW122688   0.251   0.257   7.869 -1.1481  1.7386  0.5155
 3742SOL    HW222689   0.225   0.195   8.004  2.3865 -1.8396  1.8375
 3743SOL     OW22690   0.586   3.421   3.981 -0.5502 -0.4051 -0.1420
 3743SOL    HW122691   0.681   3.429   3.976 -0.6308 -0.8456 -2.2504
 3743SOL    HW222692   0.556   3.508   4.007  1.1044 -0.0884  0.6935
 3744SOL     OW22693   3.487   1.953   2.532 -0.1035 -0.4856 -0.0631
 3744SOL    HW122694   3.443   2.030   2.567  0.4241  1.1120 -2.9772
 3744SOL    HW222695   3.514   1.988   2.447  0.2899  1.0800  0.7098
 3745SOL     OW22696   3.002   3.831   2.348  0.1287  0.5102 -0.0837
 3745SOL    HW122697   3.007   3.766   2.418  1.0487 -1.3346 -1.8551
 3745SOL    HW222698   3.055   3.794   2.278  0.6454  1.1835 -0.0548
 3746SOL     OW22699   0.518   1.333   0.751 -0.1665 -0.5016  0.5493
 3746SOL    HW122700   0.605   1.333   0.712  0.4879  2.6620  1.9762
 3746SOL    HW222701   0.494   1.425   0.739  0.8497 -0.5444 -1.6486
 3747SOL     OW22702   4.146   3.064  11.201  0.5894 -0.1842 -0.3357
 3747SOL    HW122703   4.132   3.110  11.118 -0.2683  0.6441  0.2712
 3747SOL    HW222704   4.126   3.130  11.267 -0.6092 -0.8447 -0.0521
 3748SOL     OW22705   2.877   4.247   7.547  0.3002 -0.4224 -0.4168
 3748SOL    HW122706   2.812   4.198   7.497 -0.9860  0.0797  0.7533
 3748SOL    HW222707   2.844   4.336   7.552 -1.1999 -0.9825 -0.3558
 3749SOL     OW22708   1.761   2.365   6.346 -0.2578 -0.3653  0.1285
 3749SOL    HW122709   1.742   2.429   6.415  0.4358 -0.5265  0.4654
 3749SOL    HW222710   1.702   2.293   6.368  1.1882 -1.5884 -0.0102
 3750SOL     OW22711   2.151   2.657   6.488 -0.6784 -0.6494  0.3262
 3750SOL    HW122712   2.225   2.598   6.472 -0.6850  0.2557 -3.0082
 3750SOL    HW222713   2.078   2.631   6.433 -0.3967  0.5163 -0.6050
 3751SOL     OW22714   2.330   3.193   7.766 -0.0972  0.1051 -0.2054
 3751SOL    HW122715   2.338   3.101   7.790  0.3153 -0.2825 -1.8047
 3751SOL    HW222716   2.272   3.231   7.832 -0.6009 -1.7950  0.4468
 3752SOL     OW22717   0.499   0.496   9.585  0.3105  0.5839  0.2476
 3752SOL    HW122718   0.438   0.492   9.658 -0.6486  0.7731 -0.5403
 3752SOL    HW222719   0.476   0.587   9.565 -2.0656  0.0762  0.7603
 3753SOL     OW22720   2.341   4.335   4.167  0.4520  0.3923  0.3942
 3753SOL    HW122721   2.400   4.286   4.225  1.8985  1.3753 -0.2652
 3753SOL    HW222722   2.371   4.422   4.192  2.7611  0.1755 -1.6751
 3754SOL     OW22723   1.092   1.965   3.543 -0.0084 -0.2034  0.1936
 3754SOL    HW122724   1.150   2.025   3.496  2.4680 -2.1703  0.7345
 3754SOL    HW222725   1.153   1.923   3.604 -1.0570 -0.1221  1.2913
 3755SOL     OW22726   0.886   1.653   2.433  0.1560  0.3527  0.2784
 3755SOL    HW122727   0.893   1.692   2.520 -1.9065 -0.7912  0.9652
 3755SOL    HW222728   0.917   1.565   2.457  1.1189  0.5829 -0.1424
 3756SOL     OW22729   2.604   1.159   3.711 -0.1283 -0.2845  0.4113
 3756SOL    HW122730   2.553   1.225   3.759  0.7010  1.1464 -0.6816
 3756SOL    HW222731   2.630   1.222   3.643  0.0702 -0.0537  0.6967
 3757SOL     OW22732   3.649   3.296   5.981 -0.2858 -0.3100 -0.0376
 3757SOL    HW122733   3.719   3.361   5.985  0.1270 -0.7983  0.9698
 3757SOL    HW222734   3.590   3.347   5.927  0.5200  0.0428 -0.5754
 3758SOL     OW22735   2.554   1.384  16.219  0.0262  0.6280  0.3573
 3758SOL    HW122736   2.507   1.348  16.293  0.1996 -0.0558  0.1368
 3758SOL    HW222737   2.485   1.443  16.189 -1.6580  0.7768  4.6122
 3759SOL     OW22738   3.515   1.846   1.581 -0.3012  0.2844  0.2035
 3759SOL    HW122739   3.526   1.938   1.603  0.1401  0.6201 -1.4685
 3759SOL    HW222740   3.596   1.822   1.536 -0.6765  0.1049 -0.3743
 3760SOL     OW22741   3.330   4.321   8.069 -0.4417  0.8014 -0.0071
 3760SOL    HW122742   3.423   4.301   8.058  0.0576  1.5918  2.7596
 3760SOL    HW222743   3.332   4.391   8.134  1.7454 -0.4225  1.2207
 3761SOL     OW22744   2.666   2.982   2.978 -0.1365  0.4959 -0.2562
 3761SOL    HW122745   2.752   3.016   2.954  0.2150 -0.5685 -0.5118
 3761SOL    HW222746   2.658   2.904   2.923  1.2262  1.8590 -2.3685
 3762SOL     OW22747   1.417   0.763   3.045  0.0828 -0.6256  0.6124
 3762SOL    HW122748   1.421   0.668   3.039  0.3108 -0.6492  1.1099
 3762SOL    HW222749   1.326   0.768   3.074 -0.3502 -1.5523 -0.5907
 3763SOL     OW22750   1.414   1.789   1.199 -0.0035  0.0434 -0.7475
 3763SOL    HW122751   1.330   1.830   1.215 -1.6076 -2.4829 -2.7179
 3763SOL    HW222752   1.399   1.741   1.117  0.7878 -0.3724 -0.6577
 3764SOL     OW22753   1.586   0.345   8.253  0.4440  0.3900  0.9524
 3764SOL    HW122754   1.675   0.372   8.231  0.8828  0.4384  2.7943
 3764SOL    HW222755   1.573   0.267   8.199 -0.0708  0.9761  0.2160
 3765SOL     OW22756   4.130   0.570  11.098  0.0777  0.3449 -0.8838
 3765SOL    HW122757   4.090   0.652  11.070  0.4380  1.3502  1.5516
 3765SOL    HW222758   4.137   0.520  11.017  2.3351  1.4478 -1.3985
 3766SOL     OW22759   2.150   1.989  10.650 -0.2835 -0.0406  0.1257
 3766SOL    HW122760   2.143   1.967  10.743  1.9837  1.2708  0.6006
 3766SOL    HW222761   2.065   2.030  10.637 -0.6285 -0.9909 -0.6701
 3767SOL     OW22762   1.215   1.835   3.754  0.1911 -0.2751  0.1941
 3767SOL    HW122763   1.165   1.816   3.834 -1.5120 -2.2185 -1.3171
 3767SOL    HW222764   1.298   1.836   3.800  0.5044  0.1234 -0.3853
 3768SOL     OW22765   3.719   0.048   2.427 -0.1848 -1.0412 -0.2644
 3768SOL    HW122766   3.677   4.711   2.366  1.3819 -0.3457 -2.0410
 3768SOL    HW222767   3.691   0.132   2.390  1.4676 -1.4196 -2.3546
 3769SOL     OW22768   4.638   3.759   9.333 -0.4014 -0.1995  0.5980
 3769SOL    HW122769   4.719   3.739   9.379  0.9986  1.9998 -0.9008
 3769SOL    HW222770   4.610   3.669   9.316 -0.2744 -0.0349 -0.5102
 3770SOL     OW22771   3.970   3.575   7.996  0.1415  0.3173  0.1489
 3770SOL    HW122772   4.044   3.629   8.022 -0.4151  0.6638  1.0120
 3770SOL    HW222773   4.019   3.493   8.003  3.0171  2.3148  3.4663
 3771SOL     OW22774   0.230   1.345  13.573 -0.0932 -0.0412  0.4153
 3771SOL    HW122775   0.149   1.397  13.570  0.5033  0.8035 -1.0523
 3771SOL    HW222776   0.209   1.268  13.625  0.1489  0.7182  1.6208
 3772SOL     OW22777   0.318   3.628   0.155 -0.1808 -0.3452 -1.0886
 3772SOL    HW122778   0.260   3.665   0.088 -1.0987 -5.2754 -2.9755
 3772SOL    HW222779   0.277   3.661   0.235  0.0901 -3.1881  0.2280
 3773SOL     OW22780   1.853   0.227   8.934  0.0842  0.0986  0.5001
 3773SOL    HW122781   1.821   0.146   8.972  0.1076 -1.7180 -3.4355
 3773SOL    HW222782   1.852   0.192   8.845  0.6176 -2.2075  1.4069
 3774SOL     OW22783   1.372   1.939   5.823  0.4210  0.2675  0.1458
 3774SOL    HW122784   1.361   2.011   5.761 -0.2104 -1.2908 -1.5380
 3774SOL    HW222785   1.287   1.896   5.817 -1.1954  3.1381  2.5475
 3775SOL     OW22786   4.677   1.954   1.198  0.8413  0.6408 -0.3506
 3775SOL    HW122787   4.688   1.893   1.271  0.7539  1.4325  0.3364
 3775SOL    HW222788   0.005   2.029   1.229  1.1285  0.6521 -0.8692
 3776SOL     OW22789   0.882   1.947   9.518 -0.5194  0.3622  0.2211
 3776SOL    HW122790   0.893   1.957   9.612  0.6141  1.3056 -0.0168
 3776SOL    HW222791   0.947   1.878   9.505 -1.8119 -1.1895  2.0391
 3777SOL     OW22792   4.251   1.137   3.833 -0.3325 -0.2097  0.2290
 3777SOL    HW122793   4.279   1.070   3.895 -1.3991  1.0488  2.0408
 3777SOL    HW222794   4.270   1.221   3.875 -1.0380  0.1285 -0.1185
 3778SOL     OW22795   0.431   1.513   5.838  0.7600  0.1474 -0.5849
 3778SOL    HW122796   0.381   1.573   5.783 -2.6652 -1.7303  0.4078
 3778SOL    HW222797   0.427   1.564   5.919 -0.0767  0.1459 -0.6193
 3779SOL     OW22798   0.329   3.814  13.280  0.2335  0.1064 -0.0156
 3779SOL    HW122799   0.356   3.726  13.253 -1.3297 -0.6801  1.0171
 3779SOL    HW222800   0.296   3.800  13.369  0.0418 -0.6383 -0.1989
 3780SOL     OW22801   2.916   3.552  11.927  0.0574 -0.0120  0.0673
 3780SOL    HW122802   2.857   3.611  11.880 -1.6893 -1.0233  1.0051
 3780SOL    HW222803   2.917   3.592  12.014 -0.4033  1.0157 -0.3910
 3781SOL     OW22804   4.467   3.987   0.458  0.4220 -0.2573 -0.3879
 3781SOL    HW122805   4.545   4.042   0.450 -1.3854  2.1555 -1.4904
 3781SOL    HW222806   4.499   3.934   0.530  2.8107  0.1617 -1.1306
 3782SOL     OW22807   1.557   0.886   8.285 -0.0667  0.2484  0.0243
 3782SOL    HW122808   1.461   0.894   8.282  0.0635  1.8488 -0.2293
 3782SOL    HW222809   1.560   0.799   8.324 -0.9877  0.3002  0.2128
 3783SOL     OW22810   0.939   0.803   5.906  0.0822  0.7246  0.1039
 3783SOL    HW122811   0.967   0.893   5.921 -0.8653  1.4609 -2.5234
 3783SOL    HW222812   0.989   0.770   5.831 -0.1616  5.1505 -2.0504
 3784SOL     OW22813   2.733   0.990   4.226  0.0109  0.2821  0.1399
 3784SOL    HW122814   2.638   0.975   4.221  0.2753 -0.4880 -2.5432
 3784SOL    HW222815   2.750   1.013   4.135 -2.1787  0.2300 -0.2878
 3785SOL     OW22816   0.302   1.322   3.007 -0.5139  0.2324 -0.2204
 3785SOL    HW122817   0.221   1.359   3.042 -1.2114  0.8222 -2.4578
 3785SOL    HW222818   0.329   1.403   2.964 -2.6426  1.0888  0.0340
 3786SOL     OW22819   4.363   4.125   5.401 -0.5025  0.8627 -0.0989
 3786SOL    HW122820   4.332   4.063   5.335 -0.8816 -0.3035  1.1925
 3786SOL    HW222821   4.278   4.148   5.438 -1.4423 -0.7182 -1.2603
 3787SOL     OW22822   3.983   3.980   3.523  0.0118  0.8972  0.1078
 3787SOL    HW122823   4.037   4.023   3.456 -0.7822  3.5103  1.1510
 3787SOL    HW222824   3.900   4.015   3.488 -0.7941 -0.1337  0.9853
 3788SOL     OW22825   2.442   1.091  16.186 -0.2177 -0.2293  0.1244
 3788SOL    HW122826   2.517   1.064  16.239 -1.1962  1.5016  2.3799
 3788SOL    HW222827   2.432   1.180  16.218 -0.2628  0.2620 -1.2732
 3789SOL     OW22828   2.181   3.449   1.284 -0.3060  0.0643  0.3692
 3789SOL    HW122829   2.144   3.457   1.372 -0.5860 -1.2518  0.3680
 3789SOL    HW222830   2.252   3.391   1.313  1.2736  0.7205 -2.2646
 3790SOL     OW22831   2.833   1.470   8.455 -0.1984  0.1614 -0.0670
 3790SOL    HW122832   2.843   1.475   8.550  1.4257 -1.8387 -0.1365
 3790SOL    HW222833   2.899   1.531   8.422  0.5272 -0.4716  0.2076
 3791SOL     OW22834   3.845   0.853  11.652 -0.1993 -0.3338 -0.3517
 3791SOL    HW122835   3.855   0.764  11.618  3.5337  0.3618 -1.0940
 3791SOL    HW222836   3.825   0.896  11.569  3.1140 -0.2502 -1.1169
 3792SOL     OW22837   1.672   0.227   7.626 -0.3801  0.5468 -0.1566
 3792SOL    HW122838   1.718   0.292   7.679  0.8161  0.1545 -0.7202
 3792SOL    HW222839   1.596   0.277   7.595  1.0874  2.1186 -1.2122
 3793SOL     OW22840   3.285   0.575  14.273  0.1703 -0.4578 -0.0655
 3793SOL    HW122841   3.254   0.536  14.191  0.3105  2.2004 -1.4051
 3793SOL    HW222842   3.379   0.558  14.277  0.2815 -0.0314 -0.7004
 3794SOL     OW22843   1.078   2.133   4.150 -0.5893 -0.3358  0.1471
 3794SOL    HW122844   1.025   2.058   4.124  1.0690 -1.1841 -0.8529
 3794SOL    HW222845   1.139   2.089   4.210 -0.5638 -0.1888  0.2285
 3795SOL     OW22846   1.358   4.232   2.726 -0.1894 -0.3897  0.0243
 3795SOL    HW122847   1.412   4.175   2.671  4.4089  1.9011  2.1149
 3795SOL    HW222848   1.351   4.190   2.811 -2.1571 -0.6133 -0.2485
 3796SOL     OW22849   4.319   3.036   5.603  0.4503  0.2347  0.6149
 3796SOL    HW122850   4.285   3.007   5.518 -1.0328  0.1339  1.2460
 3796SOL    HW222851   4.252   3.099   5.631 -1.1339  0.1136 -2.9159
 3797SOL     OW22852   3.741   0.989   6.319 -0.2974 -1.0982 -0.1771
 3797SOL    HW122853   3.740   1.045   6.241  0.1878  0.0297  0.6242
 3797SOL    HW222854   3.678   1.042   6.367  2.1278 -1.4375  3.3263
 3798SOL     OW22855   2.768   0.958   7.998 -0.1333 -0.2322  0.3364
 3798SOL    HW122856   2.744   1.008   8.075 -2.2759  0.3768 -0.7324
 3798SOL    HW222857   2.822   0.888   8.034 -0.5857 -0.4841  0.5213
 3799SOL     OW22858   0.100   0.704   5.309  0.4722 -0.0651  0.0767
 3799SOL    HW122859   0.148   0.624   5.289  0.8067  0.4791 -1.2743
 3799SOL    HW222860   0.072   0.735   5.223  0.6698  1.3160  0.4995
 3800SOL     OW22861   4.473   3.547   9.234  0.6703 -0.6390 -0.2280
 3800SOL    HW122862   4.456   3.460   9.199  0.2975 -0.4765 -0.4596
 3800SOL    HW222863   4.431   3.540   9.320  0.4739 -0.6256 -0.3217
 3801SOL     OW22864   2.117   4.214   3.999  0.4163  0.8048 -0.3179
 3801SOL    HW122865   2.154   4.128   4.018 -2.3087  0.2623  2.5274
 3801SOL    HW222866   2.170   4.271   4.055 -1.7347  1.3416  1.1769
 3802SOL     OW22867   2.759   3.446   1.642 -0.9251 -0.0475  0.1281
 3802SOL    HW122868   2.834   3.439   1.583 -0.6785 -2.1612  0.6620
 3802SOL    HW222869   2.683   3.464   1.586  0.6439  0.6274 -1.7637
 3803SOL     OW22870   2.894   2.079   6.246 -0.4964  0.5258 -0.2295
 3803SOL    HW122871   2.846   2.156   6.219  0.3396 -0.0687 -3.4657
 3803SOL    HW222872   2.854   2.071   6.333 -0.5786  2.4793 -0.0911
 3804SOL     OW22873   1.093   1.730   8.633  0.9305  0.2891 -0.0729
 3804SOL    HW122874   1.117   1.639   8.620  0.8413  0.2167  0.2688
 3804SOL    HW222875   1.136   1.747   8.717  1.7594 -0.2503 -0.3852
 3805SOL     OW22876   4.677   1.668   4.802  0.1987  0.2593 -0.1413
 3805SOL    HW122877   0.020   1.612   4.841  0.6686  0.5604 -0.5088
 3805SOL    HW222878   4.621   1.610   4.750  1.0224 -0.8246  0.1963
 3806SOL     OW22879   3.922   1.804   2.194  0.2772  0.3483  0.1054
 3806SOL    HW122880   3.905   1.710   2.203 -0.5044  0.6663  2.0231
 3806SOL    HW222881   3.918   1.835   2.284 -0.4482 -1.5676  0.7422
 3807SOL     OW22882   1.148   4.052   4.468  0.3815 -0.7621  0.2118
 3807SOL    HW122883   1.206   4.015   4.401  0.9370  0.2186  0.1532
 3807SOL    HW222884   1.208   4.053   4.542  1.9844  0.5572 -1.0939
 3808SOL     OW22885   3.784   3.164   1.809 -0.0866 -0.1959  0.1646
 3808SOL    HW122886   3.851   3.110   1.851  1.3946  1.6388  0.1451
 3808SOL    HW222887   3.735   3.200   1.883  1.0832  1.6788  0.0260
 3809SOL     OW22888   4.532   3.742   7.621 -0.1919  0.2720 -0.0545
 3809SOL    HW122889   4.488   3.670   7.576  0.6179 -0.1272 -0.2062
 3809SOL    HW222890   4.588   3.695   7.682 -0.5114  0.3967  0.3316
 3810SOL     OW22891   1.370   0.431   1.808 -0.5637 -0.2712  0.3022
 3810SOL    HW122892   1.352   0.519   1.775 -2.1713 -0.5617  0.3910
 3810SOL    HW222893   1.381   0.461   1.899 -1.1782 -2.4756  1.0916
 3811SOL     OW22894   4.347   3.341   4.067  0.2210  0.2709  0.7198
 3811SOL    HW122895   4.279   3.405   4.047 -0.2585 -0.9661 -1.6486
 3811SOL    HW222896   4.307   3.296   4.142 -0.7911  0.1285  0.0871
 3812SOL     OW22897   2.854   1.084   5.945 -0.4085 -0.3111  0.3866
 3812SOL    HW122898   2.817   1.064   5.859 -1.8556 -1.0625  1.1774
 3812SOL    HW222899   2.922   1.150   5.929  0.3105 -1.4773 -1.3015
 3813SOL     OW22900   2.771   3.103   6.471 -0.4761  0.1939 -0.3367
 3813SOL    HW122901   2.798   3.169   6.407 -2.0179 -0.6632 -1.8510
 3813SOL    HW222902   2.679   3.129   6.473 -0.2835  0.6407  2.4795
 3814SOL     OW22903   1.366   1.168   3.255 -0.1891 -0.6704  0.2543
 3814SOL    HW122904   1.444   1.157   3.310 -0.6537 -1.0385  0.8420
 3814SOL    HW222905   1.377   1.100   3.189 -1.6528 -0.7260  0.0523
 3815SOL     OW22906   1.221   2.291   8.597  0.1253  0.4266  0.6070
 3815SOL    HW122907   1.138   2.248   8.580  0.8221 -0.6802 -0.0339
 3815SOL    HW222908   1.206   2.380   8.565  0.1649 -0.5095 -2.0111
 3816SOL     OW22909   1.983   3.452   0.742  0.3666  0.1074 -0.2729
 3816SOL    HW122910   1.973   3.368   0.787 -0.2865  0.4832  0.2694
 3816SOL    HW222911   1.889   3.467   0.737  0.2058 -0.2926  1.5396
 3817SOL     OW22912   3.650   1.831   5.985  0.6414 -0.0174  0.3576
 3817SOL    HW122913   3.562   1.845   5.950  0.4386  3.4372  2.2524
 3817SOL    HW222914   3.698   1.910   5.960  1.8703 -1.5665 -2.2224
 3818SOL     OW22915   1.897   2.472   4.569 -0.3079 -0.0065 -0.0255
 3818SOL    HW122916   1.876   2.470   4.663  0.0832  0.5225  0.0734
 3818SOL    HW222917   1.953   2.395   4.559  1.2338  1.2377 -1.0441
 3819SOL     OW22918   1.685   2.129  17.130 -0.0639 -0.5890  0.3839
 3819SOL    HW122919   1.662   2.101  17.041  1.2045 -2.4315  0.6537
 3819SOL    HW222920   1.741   2.057  17.159 -1.8505 -1.2616  2.1413
 3820SOL     OW22921   4.710   0.631   6.608  0.0502 -0.3440  0.0395
 3820SOL    HW122922   4.625   0.639   6.565  0.5172 -0.1569 -0.8542
 3820SOL    HW222923   0.026   0.717   6.593 -0.2845 -0.0460  0.8414
 3821SOL     OW22924   3.845   2.310  11.200  0.4230 -0.4259 -0.0346
 3821SOL    HW122925   3.915   2.247  11.213  0.8843  0.1574  0.3131
 3821SOL    HW222926   3.889   2.374  11.143  1.0435  1.7253  2.8610
 3822SOL     OW22927   1.098   4.175   9.212 -0.5742 -0.3555  0.0097
 3822SOL    HW122928   1.125   4.096   9.165 -0.7722  0.0750 -0.8290
 3822SOL    HW222929   1.032   4.134   9.269  0.5816  0.3145  1.8169
 3823SOL     OW22930   2.790   0.655   5.275  0.0204 -0.2474 -0.0880
 3823SOL    HW122931   2.825   0.588   5.217 -1.2447  0.8014 -2.0535
 3823SOL    HW222932   2.844   0.727   5.241  2.2327 -0.6757  2.4595
 3824SOL     OW22933   3.488   0.968   7.306 -0.1545 -0.1137 -0.1746
 3824SOL    HW122934   3.487   0.879   7.342 -1.2560 -1.6015 -3.8224
 3824SOL    HW222935   3.547   0.959   7.231  0.8760 -1.1383  0.7559
 3825SOL     OW22936   1.901   0.088   5.377 -0.2974  0.2766 -0.2331
 3825SOL    HW122937   1.885   4.718   5.380  0.4002  0.1092 -1.8199
 3825SOL    HW222938   1.990   0.103   5.411  0.1274  0.8538 -1.5901
 3826SOL     OW22939   3.161   1.202  11.598  0.2182  0.1760 -0.4860
 3826SOL    HW122940   3.128   1.214  11.510 -1.9476 -0.2787  0.2742
 3826SOL    HW222941   3.129   1.282  11.640  2.1582  1.5909 -1.6942
 3827SOL     OW22942   2.913   1.559   8.013  0.2372 -0.0516 -0.1684
 3827SOL    HW122943   2.888   1.565   7.921  1.3160  0.8711 -0.3978
 3827SOL    HW222944   2.940   1.468   8.023 -1.2034 -0.4789 -0.0741
 3828SOL     OW22945   1.803   3.576  16.976  0.2791  0.0100 -0.1298
 3828SOL    HW122946   1.796   3.561  17.070  0.9666  0.6923  0.0266
 3828SOL    HW222947   1.844   3.662  16.965  1.0128 -0.5239 -1.5927
 3829SOL     OW22948   0.162   2.765   1.298 -0.4784  0.3058 -0.3822
 3829SOL    HW122949   0.212   2.722   1.229 -0.0015 -0.3028  0.3359
 3829SOL    HW222950   0.196   2.853   1.283 -1.6165  0.4363 -2.1153
 3830SOL     OW22951   1.287   2.438   0.927 -0.1137  0.0938 -0.0253
 3830SOL    HW122952   1.367   2.460   0.975  0.9395 -0.0618 -1.7299
 3830SOL    HW222953   1.229   2.481   0.990  0.1429  0.7325 -0.2332
 3831SOL     OW22954   1.724   4.497   8.454  0.1403 -0.1261 -0.4532
 3831SOL    HW122955   1.723   4.548   8.536 -0.0372  0.6011 -0.9056
 3831SOL    HW222956   1.651   4.436   8.459 -1.2526  1.5810 -0.0020
 3832SOL     OW22957   4.514   2.358  11.942 -0.2089  0.1751 -0.1542
 3832SOL    HW122958   4.571   2.350  11.865  0.9194 -0.9440  0.8106
 3832SOL    HW222959   4.479   2.269  11.949 -1.9115  1.0360  2.0934
 3833SOL     OW22960   1.220   4.366   3.760  0.4729  0.3650  0.8197
 3833SOL    HW122961   1.222   4.416   3.678 -0.4639  0.6239  0.9555
 3833SOL    HW222962   1.248   4.422   3.832  0.1082 -1.4866  2.4054
 3834SOL     OW22963   1.857   4.280   7.341 -0.8473  0.1632  0.0741
 3834SOL    HW122964   1.820   4.265   7.428 -1.0438 -3.3123 -0.6404
 3834SOL    HW222965   1.789   4.331   7.296  0.8101  5.1187  3.1330
 3835SOL     OW22966   1.961   2.772   6.913  0.7688  0.5223 -0.4437
 3835SOL    HW122967   2.035   2.722   6.878  2.0648  1.3894  1.0092
 3835SOL    HW222968   1.929   2.793   6.826  0.8555  1.8873 -0.1434
 3836SOL     OW22969   3.602   0.189   5.227 -0.0705 -0.3462  0.4815
 3836SOL    HW122970   3.660   0.237   5.169  0.4028  1.5135  2.5255
 3836SOL    HW222971   3.653   0.115   5.261 -0.2428 -0.6528  0.0795
 3837SOL     OW22972   4.383   4.212  16.471  0.4069  0.2547  0.6831
 3837SOL    HW122973   4.473   4.224  16.501  0.4671  1.1289  0.1564
 3837SOL    HW222974   4.355   4.304  16.475  2.3902  0.9498 -1.5115
 3838SOL     OW22975   3.020   1.593   6.533  0.0633  0.4667  0.4401
 3838SOL    HW122976   3.094   1.571   6.476  0.1126 -0.6827  0.9364
 3838SOL    HW222977   3.014   1.510   6.580 -0.1184 -0.7567 -1.7713
 3839SOL     OW22978   4.154   1.580   0.206 -0.3847  0.1102  0.3650
 3839SOL    HW122979   4.111   1.541   0.131 -1.6099  1.2231  0.4746
 3839SOL    HW222980   4.092   1.635   0.255 -0.3786  1.2865 -0.9670
 3840SOL     OW22981   2.106   2.419  11.150 -0.1785  0.4561 -0.1482
 3840SOL    HW122982   2.095   2.336  11.104  0.3637  0.4052 -0.1783
 3840SOL    HW222983   2.044   2.403  11.221 -2.1914  1.0098 -1.7469
 3841SOL     OW22984   3.792   2.599   8.450 -0.5188  0.6138  0.1550
 3841SOL    HW122985   3.804   2.556   8.365 -2.0378 -1.0750  0.7663
 3841SOL    HW222986   3.750   2.680   8.424 -1.4865 -0.3434 -1.2495
 3842SOL     OW22987   3.149   2.381   1.748  0.1767 -0.0414 -0.2690
 3842SOL    HW122988   3.094   2.420   1.816 -0.9605  1.8249 -2.2851
 3842SOL    HW222989   3.228   2.361   1.798  0.8061  0.1586 -1.2052
 3843SOL     OW22990   3.602   2.246  11.089 -0.0436  0.0658 -0.1856
 3843SOL    HW122991   3.688   2.271  11.122  0.1344 -0.1424 -0.4885
 3843SOL    HW222992   3.548   2.324  11.079 -1.3444 -0.7553  0.4155
 3844SOL     OW22993   0.408   2.089   2.742  0.1645  0.1890  0.0177
 3844SOL    HW122994   0.486   2.075   2.796 -0.7015 -0.5060  1.1017
 3844SOL    HW222995   0.363   2.164   2.782 -1.2231 -1.6472  1.9073
 3845SOL     OW22996   1.526   2.003   1.318  0.0926  0.3017 -0.0352
 3845SOL    HW122997   1.508   2.077   1.259  1.2070  2.3679  2.2288
 3845SOL    HW222998   1.482   1.926   1.281  1.0550 -0.3781  0.2609
 3846SOL     OW22999   0.947   3.469  14.826  0.2840 -0.1339 -0.2931
 3846SOL    HW123000   0.909   3.510  14.904  1.4113  3.7060 -1.7498
 3846SOL    HW223001   0.953   3.549  14.774 -2.0243  0.5969  0.5518
 3847SOL     OW23002   1.723   3.470   0.710  0.0866 -0.5925  0.1091
 3847SOL    HW123003   1.659   3.444   0.776 -3.8030  0.6313 -3.2289
 3847SOL    HW223004   1.697   3.407   0.643 -1.2447  0.5780 -0.4679
 3848SOL     OW23005   1.325   2.171  15.249 -0.0338 -0.4318  0.5288
 3848SOL    HW123006   1.411   2.141  15.222  0.3158  1.4046 -0.4297
 3848SOL    HW223007   1.310   2.231  15.176  0.8877 -1.0322 -0.1438
 3849SOL     OW23008   3.407   0.860  14.531 -0.3186 -0.6269 -0.0297
 3849SOL    HW123009   3.336   0.859  14.595 -1.7355 -2.4759 -1.6322
 3849SOL    HW223010   3.392   0.788  14.470  2.0043 -0.9295 -0.2467
 3850SOL     OW23011   1.860   3.091  13.120 -0.4538  0.6977  0.1951
 3850SOL    HW123012   1.926   3.092  13.050  1.2710 -2.3313  1.7829
 3850SOL    HW223013   1.909   3.040  13.184 -0.3602 -0.2165 -0.6034
 3851SOL     OW23014   2.209   2.684   7.608 -0.2345  0.5780  0.1721
 3851SOL    HW123015   2.128   2.636   7.626  1.3308 -1.8206  0.9741
 3851SOL    HW223016   2.183   2.772   7.636 -0.6844  0.0977  1.2769
 3852SOL     OW23017   1.073   1.445   2.874 -0.0405 -0.2743 -0.5573
 3852SOL    HW123018   1.108   1.429   2.961  0.8377  1.8040 -0.5411
 3852SOL    HW223019   1.129   1.385   2.824 -0.9246 -0.8072 -0.9123
 3853SOL     OW23020   2.509   1.249   9.302 -0.2514  0.5275  0.1357
 3853SOL    HW123021   2.456   1.327   9.319 -1.5713 -0.4674  0.5938
 3853SOL    HW223022   2.457   1.169   9.308  2.0087 -0.8848  0.8169
 3854SOL     OW23023   0.028   3.517   3.542  0.4136  0.4401  0.6991
 3854SOL    HW123024   0.101   3.457   3.524 -0.7941 -1.0147  0.6315
 3854SOL    HW223025   4.685   3.468   3.589 -1.5929  0.9937 -1.5970
 3855SOL     OW23026   4.110   0.759   4.868  0.2683 -0.0236  0.2150
 3855SOL    HW123027   4.050   0.780   4.796  1.5802 -3.2191 -1.8181
 3855SOL    HW223028   4.194   0.792   4.837 -0.5688 -1.8287 -3.9433
 3856SOL     OW23029   2.945   0.059   3.499 -0.0838  0.5751 -0.2809
 3856SOL    HW123030   2.901   0.144   3.504 -0.2792  0.5995 -2.3336
 3856SOL    HW223031   2.871   4.723   3.502  0.4573  0.0528  2.5361
 3857SOL     OW23032   4.707   3.676  14.667  0.0647 -0.4193  0.3323
 3857SOL    HW123033   0.019   3.718  14.745  2.8431 -2.1059 -0.0365
 3857SOL    HW223034   4.689   3.589  14.701  1.2693 -0.8544 -0.1402
 3858SOL     OW23035   4.418   1.493   1.166 -0.1655 -0.3617 -0.3346
 3858SOL    HW123036   4.369   1.495   1.084 -2.0518  1.5147  0.8448
 3858SOL    HW223037   4.508   1.512   1.140 -0.9105  0.9970 -1.8579
 3859SOL     OW23038   4.158   2.413   8.694  0.8084 -0.4046  0.0470
 3859SOL    HW123039   4.115   2.332   8.723  0.5905 -1.2921 -2.7503
 3859SOL    HW223040   4.101   2.482   8.729 -0.0463 -2.0761  1.9993
 3860SOL     OW23041   0.158   1.470  15.721 -0.2316  0.0388  0.2190
 3860SOL    HW123042   0.084   1.414  15.744 -1.2174  1.5709  0.7787
 3860SOL    HW223043   0.167   1.514  15.805 -3.9684 -0.6130  0.9558
 3861SOL     OW23044   1.446   0.610  15.968  0.2430  0.8261 -0.4335
 3861SOL    HW123045   1.449   0.665  15.890  1.6021  0.2843 -0.7721
 3861SOL    HW223046   1.521   0.629  16.025  0.2174 -1.9935  0.5591
 3862SOL     OW23047   2.851   3.273  16.265  0.1630  1.2093  0.6763
 3862SOL    HW123048   2.799   3.323  16.202 -0.0003 -0.3179 -0.3957
 3862SOL    HW223049   2.940   3.293  16.236 -0.3446 -1.2295 -2.4793
 3863SOL     OW23050   4.605   2.995   5.098 -0.4923 -0.1203  0.1137
 3863SOL    HW123051   4.668   2.991   5.026  0.6386  0.2374  1.0874
 3863SOL    HW223052   4.549   3.070   5.079 -0.0003  0.8322  2.5026
 3864SOL     OW23053   3.219   2.964   4.677 -0.3113 -0.3415 -0.2379
 3864SOL    HW123054   3.279   2.907   4.629 -1.3100  0.0530 -1.9270
 3864SOL    HW223055   3.131   2.945   4.646 -1.5474  1.4199  2.1369
 3865SOL     OW23056   1.000   3.777   9.292  0.6813  0.8994  0.2431
 3865SOL    HW123057   1.008   3.769   9.388  2.6703 -0.3473 -0.0255
 3865SOL    HW223058   1.072   3.722   9.262 -0.4836 -1.5467  1.9175
 3866SOL     OW23059   2.036   0.583   2.177  0.8465  0.8257  0.4840
 3866SOL    HW123060   2.093   0.636   2.231 -0.1380  1.3956  0.9554
 3866SOL    HW223061   2.097   0.570   2.105  1.1973  1.2712  0.7052
 3867SOL     OW23062   4.208   4.016   0.284 -0.3280  0.1232 -0.7507
 3867SOL    HW123063   4.175   3.927   0.273  0.1060 -0.1415  0.0942
 3867SOL    HW223064   4.263   4.002   0.361 -0.7684  1.8745 -0.1075
 3868SOL     OW23065   1.554   4.520   5.819  0.6259  0.3388 -0.4470
 3868SOL    HW123066   1.617   4.448   5.816 -0.5548 -0.7897  2.0367
 3868SOL    HW223067   1.490   4.489   5.883 -0.0693  3.0315  0.1472
 3869SOL     OW23068   0.510   3.299  17.526 -0.1271 -0.1066 -0.3365
 3869SOL    HW123069   0.504   3.391  17.552  0.4360 -0.0275 -0.4752
 3869SOL    HW223070   0.522   3.309  17.432 -2.2527 -0.9624 -0.6958
 3870SOL     OW23071   0.023   4.565  13.795 -0.6257 -0.3885  0.1385
 3870SOL    HW123072   0.117   4.557  13.809 -0.6026 -2.1780 -0.9956
 3870SOL    HW223073   0.003   4.500  13.727  0.9025 -1.2457  0.5174
 3871SOL     OW23074   3.207   1.167   5.255  0.8481  0.3865 -0.3479
 3871SOL    HW123075   3.259   1.224   5.312  1.9140 -0.3187 -0.6345
 3871SOL    HW223076   3.262   1.089   5.249  2.8852  1.7843  0.1287
 3872SOL     OW23077   0.245   0.053   3.416 -0.3460 -0.4228  0.4321
 3872SOL    HW123078   0.266   0.128   3.361 -0.0173 -0.2794  0.7505
 3872SOL    HW223079   0.164   0.025   3.374 -0.3487  0.7213 -0.3277
 3873SOL     OW23080   2.418   3.051   1.545  0.0613 -0.6024  0.0411
 3873SOL    HW123081   2.514   3.055   1.547  0.0944 -1.4484 -0.0431
 3873SOL    HW223082   2.412   3.031   1.638  0.4707  0.1243  0.2266
 3874SOL     OW23083   0.085   0.400   1.468  0.3552 -0.4452  0.2875
 3874SOL    HW123084   0.089   0.495   1.465 -1.9559 -0.2968  2.2352
 3874SOL    HW223085   0.117   0.369   1.383 -0.1105  3.3722 -1.2431
 3875SOL     OW23086   1.534   3.923   2.319  0.6177  0.2875 -0.3234
 3875SOL    HW123087   1.473   3.996   2.313 -0.8776 -0.9245  0.1099
 3875SOL    HW223088   1.532   3.898   2.411  0.4565 -2.0195 -0.9333
 3876SOL     OW23089   0.387   2.776  12.932  0.0893 -0.5878 -0.1346
 3876SOL    HW123090   0.305   2.756  12.887  1.2457 -1.0728 -2.0218
 3876SOL    HW223091   0.393   2.702  12.993  0.1609  1.2592  2.1297
 3877SOL     OW23092   1.101   4.493   7.356 -0.0904 -0.1587  0.0419
 3877SOL    HW123093   1.142   4.461   7.276  1.4619 -0.5028  0.9889
 3877SOL    HW223094   1.170   4.545   7.396 -0.5091  0.8810 -0.5913
 3878SOL     OW23095   1.738   2.004   8.892 -0.0016  0.1512 -0.3332
 3878SOL    HW123096   1.815   1.950   8.878  0.8623  1.6530 -1.4070
 3878SOL    HW223097   1.717   1.976   8.981  0.7275  0.2495 -0.1287
 3879SOL     OW23098   0.319   4.015   3.785 -0.4702  0.2457 -0.1662
 3879SOL    HW123099   0.236   3.979   3.817 -0.0961  0.5558  1.1418
 3879SOL    HW223100   0.290   4.038   3.697 -1.4526 -0.4434 -0.0207
 3880SOL     OW23101   0.003   3.988   7.061  0.3168  0.2185 -0.0658
 3880SOL    HW123102   4.698   4.063   7.114  0.3778 -1.1233  1.8562
 3880SOL    HW223103   4.681   3.922   7.112  0.5675  0.9545  1.1286
 3881SOL     OW23104   3.605   0.091   6.685 -0.0108  0.5389 -0.1569
 3881SOL    HW123105   3.676   0.096   6.620 -0.0032 -0.9801 -0.2606
 3881SOL    HW223106   3.552   0.020   6.649  1.3808 -0.7130  0.2431
 3882SOL     OW23107   3.510   3.287  14.830 -0.0211 -0.2133 -0.0194
 3882SOL    HW123108   3.480   3.323  14.913  0.0177  1.1475 -0.5825
 3882SOL    HW223109   3.588   3.242  14.862 -0.1938 -0.3268  0.2332
 3883SOL     OW23110   0.680   3.480   3.017 -0.3195 -0.8054 -0.1409
 3883SOL    HW123111   0.675   3.575   3.027 -0.5218 -1.0434  1.9997
 3883SOL    HW223112   0.696   3.470   2.923 -1.8786 -2.5232 -0.2137
 3884SOL     OW23113   0.574   2.875   9.162 -0.1950 -0.5750  0.4179
 3884SOL    HW123114   0.635   2.803   9.144 -0.8049 -1.4615  1.8239
 3884SOL    HW223115   0.636   2.946   9.179 -0.4162  0.4234 -2.9783
 3885SOL     OW23116   2.882   4.548  16.826  0.2112 -0.2352  0.3025
 3885SOL    HW123117   2.928   4.587  16.752 -0.5646  3.6128  1.8132
 3885SOL    HW223118   2.906   4.458  16.808  0.8523 -0.0183  0.0711
 3886SOL     OW23119   0.468   0.493   5.809  0.2474  0.2799  0.5978
 3886SOL    HW123120   0.378   0.494   5.841  0.6032  1.7103  1.5362
 3886SOL    HW223121   0.460   0.563   5.745  2.1135  1.8882  2.1174
 3887SOL     OW23122   3.002   3.509   1.507  0.0630  0.0617  0.0343
 3887SOL    HW123123   3.035   3.586   1.554  0.0718 -0.7663  1.3453
 3887SOL    HW223124   3.027   3.446   1.574  1.2443 -0.4549 -0.8725
 3888SOL     OW23125   0.917   0.959  13.465  0.1585 -0.4030  0.0222
 3888SOL    HW123126   0.979   0.943  13.537  0.4022  0.0350 -0.0937
 3888SOL    HW223127   0.882   0.876  13.434  1.2241  0.1821 -2.7148
 3889SOL     OW23128   0.206   4.001  11.391 -0.1383 -0.9778  0.2337
 3889SOL    HW123129   0.242   3.996  11.479  1.6995 -0.6148 -0.4986
 3889SOL    HW223130   0.115   3.974  11.399 -0.1246 -1.1164 -0.0794
 3890SOL     OW23131   2.441   2.415   7.618  0.1600 -0.4228  0.6457
 3890SOL    HW123132   2.384   2.402   7.694  1.2237 -1.4877  1.2565
 3890SOL    HW223133   2.521   2.446   7.660  1.5067 -0.4922 -1.9079
 3891SOL     OW23134   4.711   3.666   2.504 -0.6613 -0.3860 -0.2833
 3891SOL    HW123135   0.035   3.637   2.582 -0.7413 -1.0909 -0.4961
 3891SOL    HW223136   4.621   3.638   2.523 -1.6576  3.2677  0.4174
 3892SOL     OW23137   1.699   1.324   2.831 -0.0344 -0.4495  0.0645
 3892SOL    HW123138   1.726   1.409   2.864  0.0141  0.6670 -2.8348
 3892SOL    HW223139   1.781   1.304   2.784 -1.4101  0.2800 -2.6566
 3893SOL     OW23140   3.621   0.904   7.077  0.8593  0.0270  0.2775
 3893SOL    HW123141   3.640   0.811   7.081  0.7015 -0.0715 -1.1662
 3893SOL    HW223142   3.693   0.928   7.019  0.8529  0.5298  0.4686
 3894SOL     OW23143   0.235   1.729  16.168 -0.0720  0.4886 -0.2856
 3894SOL    HW123144   0.216   1.809  16.120  1.8181  1.2732  0.2621
 3894SOL    HW223145   0.318   1.753  16.209 -1.2575  0.9524  1.8308
 3895SOL     OW23146   4.343   4.497   2.319  0.4007  0.2098  0.1494
 3895SOL    HW123147   4.309   4.522   2.405  0.5122 -0.0543  0.2704
 3895SOL    HW223148   4.436   4.516   2.333  0.7011  2.2631 -4.5563
 3896SOL     OW23149   0.339   0.016  11.137 -0.3009  0.2911 -0.1611
 3896SOL    HW123150   0.415   4.687  11.162  0.5079  0.5235 -2.1427
 3896SOL    HW223151   0.272   4.676  11.114 -0.2918 -1.1706  3.8075
 3897SOL     OW23152   1.410   3.141   6.378  0.5261 -0.1686 -0.6715
 3897SOL    HW123153   1.464   3.064   6.361 -0.5271 -0.5865 -2.0762
 3897SOL    HW223154   1.432   3.200   6.306  1.3733  1.0273  0.5564
 3898SOL     OW23155   2.202   1.039   0.636  0.0819 -0.3337 -0.1171
 3898SOL    HW123156   2.224   0.993   0.717  2.0667  2.1780  0.7664
 3898SOL    HW223157   2.183   1.127   0.668  3.5805  0.2093  0.4240
 3899SOL     OW23158   2.767   2.606   6.556 -0.5927 -0.8015  0.2389
 3899SOL    HW123159   2.782   2.672   6.624 -1.8111  0.3697 -0.6156
 3899SOL    HW223160   2.681   2.571   6.575  0.0647 -2.8362 -0.5315
 3900SOL     OW23161   4.665   0.091   7.748  0.0020  0.0624 -0.1589
 3900SOL    HW123162   4.702   0.116   7.832  0.5833  0.3054 -0.4882
 3900SOL    HW223163   4.578   0.132   7.751  0.2001  0.4054  0.7095
 3901SOL     OW23164   2.306   0.115   2.891  0.1754 -0.1226 -0.5040
 3901SOL    HW123165   2.384   0.083   2.846  0.6194  0.2254  0.0165
 3901SOL    HW223166   2.338   0.196   2.930 -0.3603 -1.2624  2.2463
 3902SOL     OW23167   3.557   2.455   3.102  0.3091  0.3377 -0.1183
 3902SOL    HW123168   3.492   2.462   3.172 -0.0729  1.3074 -0.5696
 3902SOL    HW223169   3.516   2.378   3.063 -2.1195 -0.1241  3.3162
 3903SOL     OW23170   1.136   1.156   3.804  0.1427 -0.2148  0.0490
 3903SOL    HW123171   1.231   1.172   3.804  0.2489 -0.8727 -1.9756
 3903SOL    HW223172   1.113   1.231   3.749 -1.5742 -0.7653  0.0192
 3904SOL     OW23173   2.029   1.833  14.123  0.4786  0.5541 -0.2822
 3904SOL    HW123174   2.117   1.805  14.096  0.9315  2.3925 -0.7021
 3904SOL    HW223175   2.042   1.890  14.199 -2.1140 -0.0392  0.5970
 3905SOL     OW23176   1.327   3.594   5.427 -0.2374 -0.2364 -0.4102
 3905SOL    HW123177   1.302   3.502   5.416  0.8192 -0.4825 -0.7348
 3905SOL    HW223178   1.247   3.607   5.478  0.0423 -0.5476  0.1130
 3906SOL     OW23179   3.633   3.563   6.123 -0.1009  0.2001 -0.0252
 3906SOL    HW123180   3.688   3.489   6.148  0.6319  1.2494  1.4580
 3906SOL    HW223181   3.705   3.626   6.119  0.7652 -1.0532 -3.7997
 3907SOL     OW23182   4.021   3.647  10.234  0.0693 -0.0556  0.4977
 3907SOL    HW123183   4.049   3.726  10.281  0.6855  1.2442 -2.0612
 3907SOL    HW223184   3.973   3.609  10.308  0.3031 -0.4040  0.4746
 3908SOL     OW23185   0.713   3.653   8.549  0.4453 -0.2014  0.0878
 3908SOL    HW123186   0.678   3.685   8.632 -1.6900  0.4851 -1.0837
 3908SOL    HW223187   0.766   3.725   8.513  0.7096 -0.9309 -0.9902
 3909SOL     OW23188   1.915   0.132   3.996 -0.6980 -0.0904 -0.0283
 3909SOL    HW123189   1.924   0.037   3.984  0.3869  0.1620 -1.2198
 3909SOL    HW223190   1.821   0.140   3.981 -0.8185 -0.6657  0.3882
 3910SOL     OW23191   0.900   2.860   5.955  0.1808 -0.0115 -0.1384
 3910SOL    HW123192   0.926   2.781   5.907 -0.2838  1.7336 -3.2384
 3910SOL    HW223193   0.974   2.876   6.014  0.9275 -1.7546 -0.6006
 3911SOL     OW23194   0.339   1.921   1.769 -0.3170  0.0039  0.2433
 3911SOL    HW123195   0.373   1.847   1.719 -1.6545 -0.6992  0.3660
 3911SOL    HW223196   0.249   1.921   1.737 -0.3681 -0.7973  0.3763
 3912SOL     OW23197   0.037   1.782   3.797 -0.4880  0.2082  0.2382
 3912SOL    HW123198   0.054   1.729   3.875 -1.5530  0.0590  0.3754
 3912SOL    HW223199   4.669   1.808   3.810 -1.1121 -1.1625 -1.4449
 3913SOL     OW23200   0.333   2.210   3.987  0.8911  0.2641 -0.4185
 3913SOL    HW123201   0.359   2.148   3.918  0.2117 -1.3323  0.7566
 3913SOL    HW223202   0.399   2.279   3.984  1.1250  0.0029 -1.4613
 3914SOL     OW23203   1.824   1.748   8.438  0.0152  0.7101  0.1111
 3914SOL    HW123204   1.917   1.746   8.462 -0.3083 -0.2532  1.3189
 3914SOL    HW223205   1.802   1.831   8.480  2.6856  1.1655  0.6106
 3915SOL     OW23206   1.687   1.657   5.490  0.0521 -0.0904  0.4935
 3915SOL    HW123207   1.703   1.615   5.405  1.1130  1.5480 -0.1140
 3915SOL    HW223208   1.772   1.681   5.525  1.5733 -2.3811 -1.6138
 3916SOL     OW23209   0.750   3.907   3.173  0.1310  0.2307  0.0330
 3916SOL    HW123210   0.778   3.998   3.185 -1.0339  0.5692  0.2189
 3916SOL    HW223211   0.674   3.909   3.230  1.5713  0.6741  1.9186
 3917SOL     OW23212   1.560   0.146   4.814  0.1250 -0.6569  0.1714
 3917SOL    HW123213   1.533   0.058   4.787  0.7856 -0.1957 -1.9260
 3917SOL    HW223214   1.621   0.117   4.882  2.5398  0.5599 -1.4725
 3918SOL     OW23215   1.348   2.586  13.182  0.2292  0.1855  0.1438
 3918SOL    HW123216   1.331   2.492  13.181 -3.7956  0.9133  0.9102
 3918SOL    HW223217   1.270   2.616  13.229 -0.9707 -0.4998 -1.4170
 3919SOL     OW23218   0.954   2.669   7.936 -0.5821 -0.6450  0.1968
 3919SOL    HW123219   0.960   2.602   7.867  0.6174 -1.1754  0.8130
 3919SOL    HW223220   1.035   2.647   7.983  0.9308  1.4310 -1.4263
 3920SOL     OW23221   2.390   1.250  15.917 -0.9550  0.5043  0.3591
 3920SOL    HW123222   2.304   1.286  15.942  0.3132  3.2503  0.7700
 3920SOL    HW223223   2.435   1.330  15.891  0.3883 -0.7811 -1.2947
 3921SOL     OW23224   0.499   1.531   1.819  0.2137 -0.0372 -0.7223
 3921SOL    HW123225   0.514   1.614   1.864  1.1967  0.0103 -1.1392
 3921SOL    HW223226   0.411   1.502   1.846 -0.0925  0.7753 -0.8588
 3922SOL     OW23227   3.908   3.981  14.831  0.1935 -0.6266  0.1708
 3922SOL    HW123228   3.815   3.974  14.851  0.4684  0.4127  1.8291
 3922SOL    HW223229   3.945   3.955  14.915  0.2374  2.4994  1.1442
 3923SOL     OW23230   3.795   1.869   2.996 -0.7178 -0.3899  0.3491
 3923SOL    HW123231   3.880   1.867   2.953 -1.7364 -0.6111 -1.6385
 3923SOL    HW223232   3.777   1.963   3.002  1.4065  0.0610 -0.5575
 3924SOL     OW23233   0.550   4.588  15.635 -0.3485 -0.0802  0.1509
 3924SOL    HW123234   0.583   4.551  15.553 -1.3738  1.7020 -1.0601
 3924SOL    HW223235   0.610   4.559  15.703 -3.2504 -0.6734  2.4322
 3925SOL     OW23236   3.530   3.570   6.538 -0.0399 -0.1486 -0.2005
 3925SOL    HW123237   3.515   3.608   6.624 -0.4946  2.4053 -1.3986
 3925SOL    HW223238   3.510   3.646   6.484  1.0955  0.4119  0.1678
 3926SOL     OW23239   3.453   2.003  11.294  0.0178  0.6334 -0.3402
 3926SOL    HW123240   3.409   2.077  11.252  0.5967  0.3235 -1.5064
 3926SOL    HW223241   3.508   1.965  11.225 -0.2215  0.1770 -0.2843
 3927SOL     OW23242   0.174   2.279   7.340 -0.1011  0.2978 -0.7954
 3927SOL    HW123243   0.136   2.198   7.308  1.1826 -0.6200 -0.0123
 3927SOL    HW223244   0.254   2.248   7.383 -0.4831 -0.1670 -0.4267
 3928SOL     OW23245   0.025   0.465   2.434 -0.8135 -0.1928 -0.1235
 3928SOL    HW123246   0.054   0.405   2.503 -0.1872 -0.3649 -0.5417
 3928SOL    HW223247   0.103   0.467   2.379  1.6396 -0.1359  3.3539
 3929SOL     OW23248   2.214   4.013   9.164 -0.6449  0.0057  0.0066
 3929SOL    HW123249   2.288   4.001   9.105 -0.1758  1.5953  0.2959
 3929SOL    HW223250   2.249   4.079   9.223  3.7915 -2.5835  0.3157
 3930SOL     OW23251   2.642   3.986   2.077 -0.0373  0.1711 -0.2259
 3930SOL    HW123252   2.576   3.926   2.113 -2.5917  2.7402 -0.5910
 3930SOL    HW223253   2.641   4.059   2.139 -0.0123 -1.4429  1.6803
 3931SOL     OW23254   0.430   0.678   5.572  0.5258 -0.2990 -0.2503
 3931SOL    HW123255   0.516   0.720   5.560  0.0876  1.0505  1.2274
 3931SOL    HW223256   0.423   0.634   5.488 -2.8499 -2.0551  0.9572
 3932SOL     OW23257   0.580   4.299   5.766 -0.5103 -0.3686  0.2848
 3932SOL    HW123258   0.656   4.259   5.725 -1.7628 -1.4283 -0.9869
 3932SOL    HW223259   0.589   4.391   5.741 -0.0731 -0.9183 -1.5743
 3933SOL     OW23260   4.406   4.723   1.885  0.4664 -0.4079 -0.0062
 3933SOL    HW123261   4.377   4.646   1.933 -1.7863  1.9523  2.4043
 3933SOL    HW223262   4.353   0.076   1.908  0.4056  0.0334 -1.5499
 3934SOL     OW23263   2.832   1.440   8.966  0.6943  0.1247  0.1089
 3934SOL    HW123264   2.899   1.465   9.030 -0.2182  1.5598  0.5170
 3934SOL    HW223265   2.786   1.367   9.009  1.4196 -0.2858  0.1805
 3935SOL     OW23266   3.677   0.997   9.518 -0.0448  0.2156  0.2440
 3935SOL    HW123267   3.657   1.069   9.459 -2.1501 -0.1197  0.5284
 3935SOL    HW223268   3.643   0.927   9.463 -0.8116 -0.0611  1.0748
 3936SOL     OW23269   1.779   4.204   5.622  0.4357 -0.4793  0.2325
 3936SOL    HW123270   1.737   4.224   5.538  0.4084  0.7944  0.5484
 3936SOL    HW223271   1.825   4.121   5.611 -1.6804 -1.8295  1.5661
 3937SOL     OW23272   1.171   1.314   0.449 -0.6673  0.1432 -0.4231
 3937SOL    HW123273   1.153   1.338   0.540 -0.6019 -2.4776  0.2980
 3937SOL    HW223274   1.096   1.256   0.437 -1.0966  0.5656  0.2002
 3938SOL     OW23275   4.628   2.358  15.360 -0.2500 -0.6750 -0.2764
 3938SOL    HW123276   4.610   2.402  15.443 -2.1773 -0.1011 -0.9906
 3938SOL    HW223277   4.716   2.390  15.340 -0.7787  0.2139 -1.2003
 3939SOL     OW23278   0.198   4.213   6.708  0.2486 -0.6128 -0.6901
 3939SOL    HW123279   0.254   4.140   6.735 -0.0241 -0.3288  0.6330
 3939SOL    HW223280   0.112   4.184   6.736 -2.4317  2.6929 -5.4254
 3940SOL     OW23281   4.181   4.096   3.646 -0.2276  0.3408 -0.2154
 3940SOL    HW123282   4.114   4.034   3.620 -0.8285  0.5614  0.7982
 3940SOL    HW223283   4.126   4.140   3.711  0.5084 -0.4422  0.9420
 3941SOL     OW23284   0.812   3.254   2.828  0.1977 -0.5789 -0.5092
 3941SOL    HW123285   0.766   3.262   2.912  0.8463  1.2448 -0.3387
 3941SOL    HW223286   0.780   3.336   2.789  0.5378 -1.0061 -1.6984
 3942SOL     OW23287   2.201   1.009   6.498  0.5247  0.5917  0.0831
 3942SOL    HW123288   2.190   0.951   6.573 -0.2146  2.5330  1.4735
 3942SOL    HW223289   2.210   1.092   6.545 -0.9173  2.0239 -2.1548
 3943SOL     OW23290   0.009   1.343   4.611  0.2400  0.6718 -0.2296
 3943SOL    HW123291   4.643   1.366   4.588  0.3195  2.3708  1.0769
 3943SOL    HW223292   0.051   1.348   4.525  0.3399  0.6992 -0.1794
 3944SOL     OW23293   4.478   4.426   7.327  0.3040 -0.7215 -0.3157
 3944SOL    HW123294   4.399   4.374   7.345 -1.3596  2.3234  1.0596
 3944SOL    HW223295   4.468   4.493   7.394 -3.4068  0.1542 -1.7498
 3945SOL     OW23296   3.091   0.446   8.592  0.3474  0.0614 -0.0445
 3945SOL    HW123297   3.056   0.531   8.622 -1.2502 -0.7651  0.4548
 3945SOL    HW223298   3.024   0.411   8.532 -1.0894 -1.1682  2.2810
 3946SOL     OW23299   1.383   4.422   1.390 -0.5239 -0.3667  0.4532
 3946SOL    HW123300   1.341   4.483   1.451 -0.7316 -0.2034  0.1493
 3946SOL    HW223301   1.426   4.476   1.323 -1.9985  3.1506  2.3372
 3947SOL     OW23302   1.726   1.943  13.696 -0.4250 -0.6492  0.1867
 3947SOL    HW123303   1.761   1.880  13.633 -1.7918  0.1369 -1.3461
 3947SOL    HW223304   1.744   2.024  13.649  0.6797 -0.5845  0.7286
 3948SOL     OW23305   0.163   4.602   0.577 -0.5470 -0.0006 -0.1306
 3948SOL    HW123306   0.142   4.555   0.496 -0.4858 -0.0655 -0.1082
 3948SOL    HW223307   0.231   4.658   0.541  0.2308 -0.5070  0.5750
 3949SOL     OW23308   0.555   1.227  15.204  0.1823 -0.1824 -0.4580
 3949SOL    HW123309   0.575   1.193  15.117 -0.7694 -0.4853 -0.5562
 3949SOL    HW223310   0.629   1.188  15.251 -0.6559  0.2248  1.2232
 3950SOL     OW23311   2.097   3.695   7.192  0.4891  0.5600  0.1590
 3950SOL    HW123312   2.120   3.776   7.239 -0.9661  2.3589 -2.2237
 3950SOL    HW223313   2.148   3.631   7.242 -0.4621 -0.5632 -0.3314
 3951SOL     OW23314   0.683   3.706   8.834 -0.4636 -0.0151 -0.0246
 3951SOL    HW123315   0.605   3.753   8.864  0.2873  1.9374 -1.1799
 3951SOL    HW223316   0.740   3.731   8.907 -0.5344 -0.3875  0.1595
 3952SOL     OW23317   0.700   2.346   4.449 -0.2106 -0.4046 -0.0242
 3952SOL    HW123318   0.640   2.272   4.438  0.1814 -0.5839 -0.9492
 3952SOL    HW223319   0.743   2.353   4.364  1.3242  1.4288  0.9054
 3953SOL     OW23320   4.618   4.495   3.920 -0.5244 -0.4763  0.0672
 3953SOL    HW123321   4.575   4.580   3.924 -0.3717 -0.4744  1.5925
 3953SOL    HW223322   4.571   4.442   3.984 -0.4675  0.3199  0.7608
 3954SOL     OW23323   1.243   2.845   0.623  0.5564  0.0152 -0.2185
 3954SOL    HW123324   1.183   2.805   0.560  1.0787  1.2564 -1.4980
 3954SOL    HW223325   1.234   2.793   0.703  1.5171 -1.3947 -1.0294
 3955SOL     OW23326   1.928   2.322  11.326  0.0080 -0.1116 -0.0729
 3955SOL    HW123327   1.921   2.232  11.357  0.9507  0.2950  1.2657
 3955SOL    HW223328   1.894   2.377  11.397  0.2884 -1.7600  1.3406
 3956SOL     OW23329   3.366   1.210  11.244 -0.1226 -0.3940 -0.1002
 3956SOL    HW123330   3.442   1.255  11.209 -1.6456  3.2505  1.2490
 3956SOL    HW223331   3.340   1.261  11.321  0.8761 -0.4024  0.2328
 3957SOL     OW23332   2.882   3.154   7.165  0.0393 -0.2343  0.5730
 3957SOL    HW123333   2.883   3.237   7.213  1.2923  0.0450  0.0710
 3957SOL    HW223334   2.881   3.190   7.076 -2.1984  1.6293  1.3585
 3958SOL     OW23335   1.408   1.184   2.080  0.0859  0.1675  0.7678
 3958SOL    HW123336   1.463   1.249   2.124 -0.0506  0.1748  0.9288
 3958SOL    HW223337   1.384   1.122   2.149 -0.6438  2.5917  2.6852
 3959SOL     OW23338   2.192   2.496   6.981  0.7054  0.0009  0.2976
 3959SOL    HW123339   2.198   2.567   6.917  0.2836  0.3682  0.6724
 3959SOL    HW223340   2.234   2.538   7.057 -3.4717  1.3912  1.8134
 3960SOL     OW23341   1.574   4.550  16.737  0.1392 -0.8150 -0.3116
 3960SOL    HW123342   1.656   4.591  16.710 -1.4172  1.9174 -0.8733
 3960SOL    HW223343   1.603   4.497  16.811 -1.1409 -1.2513 -0.1223
 3961SOL     OW23344   1.849   1.344   7.562 -0.2099 -0.1947  0.0028
 3961SOL    HW123345   1.796   1.401   7.507 -0.3204 -0.8001 -0.5300
 3961SOL    HW223346   1.784   1.278   7.586  0.8220 -1.0979  0.3470
 3962SOL     OW23347   0.571   0.897   1.233  0.4598 -0.5454 -0.1802
 3962SOL    HW123348   0.500   0.909   1.170 -1.0913  1.2561  1.9448
 3962SOL    HW223349   0.550   0.957   1.304 -0.0800  1.1674 -1.8012
 3963SOL     OW23350   3.495   1.540  11.127  0.1062  0.2946 -0.3030
 3963SOL    HW123351   3.436   1.522  11.200  0.6492  3.0456  0.8269
 3963SOL    HW223352   3.538   1.458  11.105 -1.0575 -0.5949  0.7970
 3964SOL     OW23353   2.255   0.391   4.187 -0.4658 -0.0602 -0.3774
 3964SOL    HW123354   2.225   0.475   4.221 -1.2435 -0.8913  0.9772
 3964SOL    HW223355   2.175   0.342   4.169 -0.3959  0.0290 -0.9504
 3965SOL     OW23356   0.527   2.857   3.643  0.0394 -0.0741  0.4845
 3965SOL    HW123357   0.461   2.879   3.709 -1.6639 -0.1578 -1.1731
 3965SOL    HW223358   0.487   2.788   3.589  1.7645  1.5625 -2.8444
 3966SOL     OW23359   2.431   0.520   1.314  0.1480  0.7325  0.3059
 3966SOL    HW123360   2.474   0.576   1.379 -1.2671  0.6709  1.3168
 3966SOL    HW223361   2.484   0.441   1.323  0.1408  0.6363 -0.5644
 3967SOL     OW23362   1.129   1.822   5.817 -0.1388  0.4083  0.2823
 3967SOL    HW123363   1.095   1.732   5.818  0.8538 -0.0138 -1.9111
 3967SOL    HW223364   1.048   1.871   5.805 -0.0346  0.4199 -0.3630
 3968SOL     OW23365   4.700   1.846   1.446  0.5805  0.5610 -0.2325
 3968SOL    HW123366   4.622   1.886   1.483  0.8700 -0.0401  1.0149
 3968SOL    HW223367   0.052   1.863   1.503  1.0015  2.2641 -1.2991
 3969SOL     OW23368   4.337   4.257   8.323 -0.3835  0.2533  0.0974
 3969SOL    HW123369   4.267   4.321   8.312 -0.9126 -0.1827  0.9240
 3969SOL    HW223370   4.293   4.188   8.374 -2.5401  2.0688  0.6975
 3970SOL     OW23371   3.357   3.442   2.839  0.3991  0.3515  0.0176
 3970SOL    HW123372   3.315   3.528   2.841  1.2259  0.7495  0.4751
 3970SOL    HW223373   3.406   3.438   2.757  0.3831  2.8877 -0.1078
 3971SOL     OW23374   2.391   3.778   4.798  0.6714 -0.1286  0.8617
 3971SOL    HW123375   2.371   3.692   4.833 -0.2246 -0.1907  0.1921
 3971SOL    HW223376   2.347   3.755   4.716 -1.4447 -1.6895  2.4618
 3972SOL     OW23377   4.243   2.110  14.547  0.0565  0.2521 -0.5455
 3972SOL    HW123378   4.310   2.099  14.479 -0.7423 -2.4909 -0.8808
 3972SOL    HW223379   4.299   2.130  14.622 -1.8145  0.9057  0.6750
 3973SOL     OW23380   3.574   4.704  12.930 -0.2117  0.2237  0.3340
 3973SOL    HW123381   3.574   4.631  12.993 -1.1569 -1.9038 -2.1486
 3973SOL    HW223382   3.535   0.058  12.970 -0.8873  0.6968 -1.2463
 3974SOL     OW23383   1.649   0.382   3.992 -0.1095 -0.3214  0.5598
 3974SOL    HW123384   1.573   0.437   4.014 -1.1335 -1.4632 -0.0963
 3974SOL    HW223385   1.601   0.314   3.946 -1.3107  0.7035  0.2890
 3975SOL     OW23386   3.066   1.807   8.166 -0.4966 -0.7417  0.4421
 3975SOL    HW123387   3.094   1.725   8.125  1.1480 -0.2139  0.4907
 3975SOL    HW223388   3.047   1.781   8.256  3.7981 -2.3862  0.8796
 3976SOL     OW23389   4.439   3.288  11.287  0.0084  0.2904 -0.1987
 3976SOL    HW123390   4.448   3.379  11.258  1.6079 -0.1938 -1.2124
 3976SOL    HW223391   4.345   3.287  11.304 -0.2418  1.5483 -1.4366
 3977SOL     OW23392   0.295   3.451   8.573  0.5940 -0.4163 -0.1784
 3977SOL    HW123393   0.355   3.376   8.578  2.1020  1.0004  3.2095
 3977SOL    HW223394   0.252   3.433   8.656 -0.8175  1.1054 -0.5847
 3978SOL     OW23395   3.065   1.579   8.878 -0.0848 -0.3903 -0.3603
 3978SOL    HW123396   3.037   1.652   8.933  1.2453 -1.5450  1.8853
 3978SOL    HW223397   2.979   1.557   8.843  0.3233 -0.2944 -1.4241
 3979SOL     OW23398   1.370   1.519   2.984  0.6907  0.4923 -1.0210
 3979SOL    HW123399   1.344   1.550   3.071  1.7577 -1.5802  0.0362
 3979SOL    HW223400   1.395   1.429   3.001  0.2240  0.8604  1.5362
 3980SOL     OW23401   2.104   2.709  12.621  0.2702  0.1490 -0.0068
 3980SOL    HW123402   2.048   2.647  12.668 -1.8014  1.8267 -0.2919
 3980SOL    HW223403   2.142   2.657  12.551  0.6747 -1.7431  1.6029
 3981SOL     OW23404   1.198   3.373   0.251  0.0885  0.2640  1.0792
 3981SOL    HW123405   1.124   3.327   0.291 -0.0303  0.9846  1.6998
 3981SOL    HW223406   1.264   3.360   0.320  0.5845  0.5374  0.6569
 3982SOL     OW23407   4.634   3.916   9.114  0.4033  0.0455 -0.2107
 3982SOL    HW123408   4.721   3.956   9.122  0.5221 -0.1567 -0.4846
 3982SOL    HW223409   4.635   3.858   9.191  0.4643  1.7945  1.1087
 3983SOL     OW23410   4.167   0.928  11.308  0.6511  0.0466 -0.1735
 3983SOL    HW123411   4.213   0.980  11.242  0.6335 -0.0984 -0.3015
 3983SOL    HW223412   4.212   0.848  11.280 -0.0919 -0.5760  0.3885
 3984SOL     OW23413   0.802   3.594   4.241 -0.5916  0.3611  0.1708
 3984SOL    HW123414   0.844   3.508   4.242 -2.1234 -0.4141 -0.7164
 3984SOL    HW223415   0.844   3.628   4.163 -1.7239  0.9731 -0.1616
 3985SOL     OW23416   2.747   0.595   4.057 -0.5550 -0.4139  0.3596
 3985SOL    HW123417   2.720   0.610   4.148  1.2597 -3.1091  1.3384
 3985SOL    HW223418   2.841   0.586   4.076 -0.4467 -1.9981 -1.0160
 3986SOL     OW23419   3.597   1.709  15.211 -0.1829  0.1718  0.5572
 3986SOL    HW123420   3.655   1.716  15.136  1.4066  0.9245  1.8369
 3986SOL    HW223421   3.630   1.630  15.253 -1.0281 -1.0965 -1.2205
 3987SOL     OW23422   4.471   4.440   4.652 -0.6281  0.3434 -0.2395
 3987SOL    HW123423   4.556   4.460   4.614 -0.1742 -0.4742  0.3273
 3987SOL    HW223424   4.485   4.348   4.676 -3.0859 -0.1272 -0.6249
 3988SOL     OW23425   4.348   2.721   3.162 -0.1740 -0.3752 -0.7119
 3988SOL    HW123426   4.268   2.749   3.118 -0.7084  1.0510  1.1871
 3988SOL    HW223427   4.343   2.626   3.172 -0.3221 -0.1733  1.0398
 3989SOL     OW23428   1.633   1.697   6.727 -0.6408 -0.1040  0.1871
 3989SOL    HW123429   1.550   1.692   6.775 -0.8395 -2.4064 -0.4302
 3989SOL    HW223430   1.678   1.775   6.761 -0.1973 -0.6298  0.8178
 3990SOL     OW23431   1.191   2.210   9.024  0.2372  0.1374 -0.3334
 3990SOL    HW123432   1.180   2.219   9.118 -2.9373  0.5794 -0.7305
 3990SOL    HW223433   1.217   2.301   9.011 -0.7086  0.3684 -0.6504
 3991SOL     OW23434   1.180   1.636   7.309  0.0238 -0.5736 -0.3157
 3991SOL    HW123435   1.275   1.642   7.310 -0.0075 -0.4127  1.6551
 3991SOL    HW223436   1.152   1.606   7.223  1.5749  1.3589 -1.4884
 3992SOL     OW23437   2.466   1.639   2.932 -0.0290 -0.0291  0.4778
 3992SOL    HW123438   2.561   1.656   2.932  0.0217 -0.3123  0.6502
 3992SOL    HW223439   2.447   1.662   3.023 -2.1800 -1.8033  0.4474
 3993SOL     OW23440   2.473   2.932  10.343  0.6900 -0.3235 -0.1130
 3993SOL    HW123441   2.553   2.967  10.383  1.4604 -0.9865 -1.0526
 3993SOL    HW223442   2.438   2.892  10.422  0.8378 -1.9604 -0.8727
 3994SOL     OW23443   2.355   3.258   2.404  0.0610  0.2237  0.1403
 3994SOL    HW123444   2.326   3.205   2.330 -1.6997 -0.2468  1.1694
 3994SOL    HW223445   2.381   3.188   2.464 -1.6263 -0.3166  0.2408
 3995SOL     OW23446   2.045   4.518   4.203 -0.2223 -0.4844 -0.7311
 3995SOL    HW123447   1.975   4.554   4.257 -0.7906 -1.6353 -0.6919
 3995SOL    HW223448   2.070   4.441   4.256 -2.2497 -0.2969  0.5004
 3996SOL     OW23449   0.270   0.682   6.867 -0.5739 -0.0983  0.5051
 3996SOL    HW123450   0.216   0.626   6.923 -1.9019 -0.5264 -1.1995
 3996SOL    HW223451   0.296   0.634   6.789 -0.9494 -1.0295  0.9482
 3997SOL     OW23452   0.679   3.119   7.220  0.4252 -0.2848 -0.2273
 3997SOL    HW123453   0.710   3.030   7.203 -0.1054 -0.8703  1.8005
 3997SOL    HW223454   0.661   3.102   7.313  0.5876  1.3720  0.1163
 3998SOL     OW23455   3.239   0.188   4.682  0.2264 -0.1886  0.5699
 3998SOL    HW123456   3.314   0.139   4.649 -0.0119 -0.7650  0.9043
 3998SOL    HW223457   3.223   0.231   4.598  0.8666 -0.5039  0.2887
 3999SOL     OW23458   3.618   3.731   9.183 -0.6949  0.0331 -0.4011
 3999SOL    HW123459   3.593   3.815   9.143  1.8545  0.5322 -0.9067
 3999SOL    HW223460   3.710   3.746   9.201 -0.6540  0.6059 -1.0696
 4000SOL     OW23461   0.338   2.328  11.522 -0.1191  0.2678 -0.3618
 4000SOL    HW123462   0.369   2.284  11.601 -1.0281  0.3329  0.0210
 4000SOL    HW223463   0.246   2.304  11.518 -0.1271  0.0853  0.8489
 4001SOL     OW23464   2.124   1.695  16.063 -0.6884  0.1312 -0.0538
 4001SOL    HW123465   2.095   1.780  16.098  0.7376  0.3150  0.6747
 4001SOL    HW223466   2.042   1.645  16.067 -0.5055  0.0349  2.3654
 4002SOL     OW23467   3.774   2.055  13.143 -0.6857 -0.1149 -0.4129
 4002SOL    HW123468   3.750   1.969  13.176 -0.0330 -0.4634 -0.8468
 4002SOL    HW223469   3.869   2.056  13.160 -0.9028  0.0923  0.8170
 4003SOL     OW23470   3.988   3.571   2.581  0.0105 -0.3165 -0.2287
 4003SOL    HW123471   4.075   3.608   2.600  0.8878 -2.1853 -0.6068
 4003SOL    HW223472   4.006   3.504   2.515  3.1379  0.3316 -0.0426
 4004SOL     OW23473   0.822   2.729   4.856  0.1192 -0.6317 -0.3935
 4004SOL    HW123474   0.814   2.793   4.926 -0.2929  1.3180 -2.2575
 4004SOL    HW223475   0.910   2.690   4.857  0.7643  0.8250 -0.5542
 4005SOL     OW23476   3.082   2.007   1.901  0.2534 -0.7517  0.0285
 4005SOL    HW123477   3.077   1.926   1.850 -0.4083 -0.7480  0.0919
 4005SOL    HW223478   3.044   2.071   1.840  1.3218  0.1319  0.2764
 4006SOL     OW23479   2.957   1.797  15.046 -0.2412  0.7457  0.3550
 4006SOL    HW123480   3.019   1.811  15.118 -0.5924  0.7686  0.6509
 4006SOL    HW223481   3.011   1.829  14.974 -0.2386  1.1847  0.5519
 4007SOL     OW23482   2.398   2.980   8.943 -0.1372 -0.4298 -0.3747
 4007SOL    HW123483   2.450   3.025   9.009  0.0692 -1.5434  0.2388
 4007SOL    HW223484   2.340   2.926   8.997  1.0180  1.4565  2.7656
 4008SOL     OW23485   2.556   3.505   9.711 -0.2132  0.7968  0.3281
 4008SOL    HW123486   2.618   3.566   9.671  0.4853 -0.7603 -0.9468
 4008SOL    HW223487   2.599   3.420   9.716 -2.0455  0.0146  2.5181
 4009SOL     OW23488   2.926   1.471   9.264  0.1472  0.4480  0.0178
 4009SOL    HW123489   2.858   1.408   9.283  1.9126 -1.2880  0.5276
 4009SOL    HW223490   2.970   1.473   9.349  0.2909 -0.4643 -0.0377
 4010SOL     OW23491   2.362   1.967   2.194 -0.0380 -0.2565 -0.2753
 4010SOL    HW123492   2.295   2.028   2.163  0.6052  0.9353  0.6478
 4010SOL    HW223493   2.419   1.969   2.117  1.7080 -0.3289  0.9930
 4011SOL     OW23494   3.652   3.027  11.231  0.4379  0.4151 -0.2540
 4011SOL    HW123495   3.731   2.976  11.213 -0.0368  1.1929 -4.6150
 4011SOL    HW223496   3.683   3.117  11.242  5.3959 -1.0488 -2.2881
 4012SOL     OW23497   3.806   2.894   7.795  0.6721  0.1839 -0.4971
 4012SOL    HW123498   3.716   2.863   7.796  1.8286 -3.3218 -3.0163
 4012SOL    HW223499   3.823   2.920   7.704 -0.1575  1.1401 -0.3741
 4013SOL     OW23500   0.774   1.034   1.086 -0.2727 -0.0630  0.0125
 4013SOL    HW123501   0.771   1.094   1.161 -1.4129  2.4221 -2.0011
 4013SOL    HW223502   0.724   0.958   1.114 -0.7229  0.8337  1.6334
 4014SOL     OW23503   2.044   2.206  10.966 -0.0565 -0.2824  0.0222
 4014SOL    HW123504   2.125   2.155  10.971 -1.1140 -1.8518  1.6166
 4014SOL    HW223505   1.994   2.136  10.925 -0.2581 -1.2042  1.8103
 4015SOL     OW23506   2.739   0.401   2.280  0.1189  0.0687 -0.5585
 4015SOL    HW123507   2.801   0.424   2.211 -1.4739 -0.0692 -2.0489
 4015SOL    HW223508   2.794   0.341   2.330 -0.1167  0.2436 -0.0882
 4016SOL     OW23509   2.224   4.319  14.896  0.2121  0.4433 -0.2064
 4016SOL    HW123510   2.197   4.262  14.968  0.8976 -0.7717 -0.8979
 4016SOL    HW223511   2.303   4.268  14.877  0.1231  0.9149 -1.8145
 4017SOL     OW23512   3.545   2.116   7.948  0.5408  0.3900  0.1910
 4017SOL    HW123513   3.635   2.149   7.953  0.9533 -0.9297  1.4508
 4017SOL    HW223514   3.514   2.100   8.037 -0.0389 -0.5891 -0.1925
 4018SOL     OW23515   2.399   2.782   0.174  0.8597 -0.2984 -0.0431
 4018SOL    HW123516   2.417   2.732   0.094  0.9884  1.9930 -1.4476
 4018SOL    HW223517   2.433   2.866   0.145  1.7829 -0.8697 -0.6194
 4019SOL     OW23518   0.520   0.389  13.630  0.2132  0.2841  0.1469
 4019SOL    HW123519   0.541   0.297  13.648 -1.7311  0.2668  2.2777
 4019SOL    HW223520   0.442   0.400  13.685  0.5436  0.2797  0.6231
 4020SOL     OW23521   0.816   2.803   5.155 -0.0669  0.7034  0.3449
 4020SOL    HW123522   0.823   2.763   5.242 -0.7734 -1.4220 -0.5888
 4020SOL    HW223523   0.740   2.860   5.168  0.1655  0.1521  4.2075
 4021SOL     OW23524   3.416   3.770  13.931 -0.6491 -0.5239  0.4326
 4021SOL    HW123525   3.429   3.772  13.836 -1.6604  0.8308  0.3280
 4021SOL    HW223526   3.494   3.716  13.944 -0.3850 -1.0302 -3.1345
 4022SOL     OW23527   3.002   1.004  11.706 -0.1927  0.3822  0.0211
 4022SOL    HW123528   2.932   1.003  11.641  0.0450 -0.9719 -0.2174
 4022SOL    HW223529   3.050   1.087  11.696 -0.9003  0.7838  0.0006
 4023SOL     OW23530   2.250   4.470   6.249 -0.1229  0.1840  0.1622
 4023SOL    HW123531   2.305   4.547   6.233 -1.4596  1.3267  1.1270
 4023SOL    HW223532   2.289   4.398   6.198 -0.6508  1.4469 -2.0166
 4024SOL     OW23533   1.388   0.837   1.480  0.1711 -0.1817  0.4246
 4024SOL    HW123534   1.456   0.850   1.414 -1.8249  2.3821 -1.1352
 4024SOL    HW223535   1.403   0.919   1.528 -0.2673 -0.2018  0.5918
 4025SOL     OW23536   2.995   0.352   6.494 -0.0277  0.0149 -0.3177
 4025SOL    HW123537   3.025   0.434   6.533 -0.0048 -0.3166  0.3467
 4025SOL    HW223538   3.042   0.366   6.412  2.6351 -1.0253  1.0407
 4026SOL     OW23539   0.852   0.942  11.801 -0.1303  0.4713 -0.9489
 4026SOL    HW123540   0.821   0.908  11.885  1.0464  0.8525 -0.3620
 4026SOL    HW223541   0.943   0.913  11.802 -0.0657  0.7443  1.9825
 4027SOL     OW23542   0.360   2.971   0.276 -0.0458  0.3856  0.3078
 4027SOL    HW123543   0.315   3.032   0.217 -0.5474 -1.0411 -0.7760
 4027SOL    HW223544   0.442   3.015   0.299 -0.5151  0.7438  1.3293
 4028SOL     OW23545   3.385   3.106   3.630  0.7803 -0.0568 -0.2669
 4028SOL    HW123546   3.429   3.092   3.714 -0.9527  1.1446  0.8370
 4028SOL    HW223547   3.394   3.201   3.619  1.1249  0.0833  1.3304
 4029SOL     OW23548   2.455   4.647   3.586 -0.5828  0.2275 -0.4739
 4029SOL    HW123549   2.490   4.558   3.581 -2.9540 -0.6800 -1.1340
 4029SOL    HW223550   2.398   4.646   3.662 -1.0783 -0.0105 -0.8508
 4030SOL     OW23551   1.397   1.108  11.000 -0.2969 -0.3350 -0.4015
 4030SOL    HW123552   1.355   1.148  11.077 -2.1693  1.2227 -2.2372
 4030SOL    HW223553   1.451   1.041  11.042  1.0863 -0.4264 -2.3225
 4031SOL     OW23554   0.624   4.438  16.151 -0.3543 -0.2421  0.7005
 4031SOL    HW123555   0.556   4.380  16.119  0.0965 -1.7499  2.4983
 4031SOL    HW223556   0.568   4.501  16.195  0.2669  0.6965  0.1598
 4032SOL     OW23557   4.670   2.537   5.332  0.2374  0.0361  0.2432
 4032SOL    HW123558   4.720   2.575   5.260 -1.7605  0.9584 -0.6586
 4032SOL    HW223559   4.685   2.446   5.309  1.5546  0.0173  1.1392
 4033SOL     OW23560   3.225   0.276   3.602  0.1692  0.3779 -0.5783
 4033SOL    HW123561   3.280   0.321   3.538 -1.7592  1.3951 -1.5198
 4033SOL    HW223562   3.164   0.229   3.545 -0.7200  1.2313 -0.3169
 4034SOL     OW23563   2.969   3.718  12.727 -0.6664  0.2344  0.2667
 4034SOL    HW123564   2.882   3.759  12.728 -0.6386  0.2955  0.0034
 4034SOL    HW223565   2.975   3.670  12.810 -0.5706  0.7001  0.5310
 4035SOL     OW23566   0.065   0.382   7.495 -0.1506  0.6023  0.1152
 4035SOL    HW123567   4.695   0.369   7.505 -0.5160  3.2982  0.2919
 4035SOL    HW223568   0.085   0.331   7.417 -0.2478  1.4699 -0.4861
 4036SOL     OW23569   4.055   0.133   2.194 -0.4254  0.4354  0.6100
 4036SOL    HW123570   4.131   0.155   2.249 -0.6839 -0.5870  1.3659
 4036SOL    HW223571   3.998   0.203   2.227 -1.0261 -0.7957  2.1694
 4037SOL     OW23572   1.633   4.685  15.550 -0.4850 -0.0467 -0.4836
 4037SOL    HW123573   1.603   4.693  15.460 -1.7313 -1.2072 -0.1830
 4037SOL    HW223574   1.670   0.049  15.561  0.1666 -0.4065  0.2123
 4038SOL     OW23575   0.886   0.704   9.499 -0.2172 -0.1001 -0.4520
 4038SOL    HW123576   0.976   0.672   9.494 -0.9825 -2.3325  0.4548
 4038SOL    HW223577   0.882   0.758   9.578  2.3070  0.1109 -0.4644
 4039SOL     OW23578   2.773   1.562   3.039 -0.6826 -1.0979  0.3592
 4039SOL    HW123579   2.786   1.566   3.134 -1.9168  1.3255  0.4136
 4039SOL    HW223580   2.855   1.527   3.002 -0.0443  0.4655  0.3040
 4040SOL     OW23581   1.839   2.285  13.813  0.0113 -0.5728  0.4297
 4040SOL    HW123582   1.925   2.292  13.855  1.0291  0.1640 -1.8205
 4040SOL    HW223583   1.802   2.364  13.853 -1.7428 -0.2087 -1.9552
 4041SOL     OW23584   0.748   3.000   5.785  0.3239 -0.0370 -0.0898
 4041SOL    HW123585   0.773   2.947   5.861 -1.2997 -0.6451  0.0181
 4041SOL    HW223586   0.696   3.068   5.828  0.0839  0.4699 -1.1809
 4042SOL     OW23587   0.530   3.467   9.270 -0.0215 -0.4438 -0.0478
 4042SOL    HW123588   0.622   3.451   9.294  1.0947  1.9753 -2.6781
 4042SOL    HW223589   0.504   3.551   9.308 -1.4630 -1.6031  1.5286
 4043SOL     OW23590   3.552   1.688  10.297  0.4450  0.5635 -0.0576
 4043SOL    HW123591   3.600   1.737  10.363  0.1572  3.1996 -1.7992
 4043SOL    HW223592   3.549   1.608  10.349  0.2792  0.7524  0.2258
 4044SOL     OW23593   1.153   3.077   4.629  0.0678  0.4420  1.1061
 4044SOL    HW123594   1.246   3.056   4.640 -0.2776 -0.9792  1.3874
 4044SOL    HW223595   1.153   3.172   4.633  2.3988  0.4843  0.1598
 4045SOL     OW23596   2.621   0.118   8.542 -0.4073  0.4406  0.3947
 4045SOL    HW123597   2.704   0.073   8.527 -1.6276 -1.2397 -1.3231
 4045SOL    HW223598   2.651   0.208   8.535 -1.7110  0.7735 -0.8338
 4046SOL     OW23599   1.014   4.290  14.995 -0.1246 -0.2494  0.2915
 4046SOL    HW123600   1.073   4.365  14.993 -0.1721 -0.2216 -0.1123
 4046SOL    HW223601   1.078   4.219  15.003  1.5176  1.2361  0.3585
 4047SOL     OW23602   2.643   4.590   7.303 -0.4592 -0.3185  0.0785
 4047SOL    HW123603   2.648   4.686   7.304  2.0857 -0.4581  1.8286
 4047SOL    HW223604   2.554   4.583   7.269  1.2243  0.6707 -4.4386
 4048SOL     OW23605   1.768   2.068   6.667 -0.8859 -0.4719  0.1198
 4048SOL    HW123606   1.693   2.089   6.612 -1.2127  1.1102  1.1701
 4048SOL    HW223607   1.815   2.151   6.673 -0.2230 -0.7385 -1.2432
 4049SOL     OW23608   3.917   0.925  10.447  0.1196  0.3871 -0.3276
 4049SOL    HW123609   3.951   0.874  10.373 -0.2564 -1.8043  1.0042
 4049SOL    HW223610   3.838   0.960  10.405 -0.8614 -0.4224  0.8496
 4050SOL     OW23611   2.974   0.158   2.796  0.2902  0.4521 -0.2211
 4050SOL    HW123612   2.918   0.234   2.783 -0.9567 -0.5292 -0.6905
 4050SOL    HW223613   3.061   0.183   2.766  0.3053 -0.7470 -1.1910
 4051SOL     OW23614   1.939   3.747   9.859  0.2534 -0.0111 -0.2793
 4051SOL    HW123615   2.009   3.803   9.893 -0.0059 -0.2739  0.6956
 4051SOL    HW223616   1.860   3.795   9.882  0.4072 -0.2136  0.6697
 4052SOL     OW23617   0.256   4.666   3.873  0.0343 -0.3595 -0.6230
 4052SOL    HW123618   0.270   0.006   3.802 -1.8639  0.7542  0.0232
 4052SOL    HW223619   0.181   4.692   3.926  1.0235 -1.8146  1.4719
 4053SOL     OW23620   1.117   3.413   9.748 -0.3144  0.0031  0.3052
 4053SOL    HW123621   1.178   3.341   9.732  1.7246  1.3853  1.8300
 4053SOL    HW223622   1.075   3.401   9.663  0.0834 -0.6452  0.2070
 4054SOL     OW23623   0.178   3.990   3.527 -0.0735 -0.4128 -0.2425
 4054SOL    HW123624   0.256   3.938   3.510 -0.2867 -1.0083  0.6126
 4054SOL    HW223625   0.129   3.969   3.447  0.5739 -2.7420 -0.0135
 4055SOL     OW23626   3.954   4.172   2.128 -0.1143  0.0314  0.3036
 4055SOL    HW123627   3.939   4.113   2.053  0.5939 -1.1383  1.0789
 4055SOL    HW223628   4.027   4.219   2.088  0.0480 -1.6467 -1.3905
 4056SOL     OW23629   0.956   4.134   3.672 -0.1823 -0.3821  0.1577
 4056SOL    HW123630   0.940   4.227   3.662  2.3392 -0.0344 -0.5328
 4056SOL    HW223631   1.018   4.139   3.745 -0.2372 -1.4560  0.2853
 4057SOL     OW23632   3.386   0.944  10.038  0.5058 -0.1128 -0.0862
 4057SOL    HW123633   3.440   0.972   9.964  1.3317 -1.6973 -0.0783
 4057SOL    HW223634   3.420   0.858  10.062 -0.3639 -1.1896 -2.6755
 4058SOL     OW23635   0.104   3.395  11.242  0.7251 -0.1195 -0.2404
 4058SOL    HW123636   0.122   3.474  11.293  1.6109  0.2385 -1.1005
 4058SOL    HW223637   0.136   3.325  11.299 -0.8927 -2.2647 -1.9883
 4059SOL     OW23638   3.396   0.969   5.240  0.4261 -0.0721 -0.1677
 4059SOL    HW123639   3.472   1.028   5.244  0.8235 -0.6592  1.1716
 4059SOL    HW223640   3.423   0.916   5.164  2.4485  1.6523 -0.6540
 4060SOL     OW23641   3.319   3.734   8.637 -0.0073 -0.4627  0.3141
 4060SOL    HW123642   3.392   3.777   8.682  0.8271 -1.7712  0.2197
 4060SOL    HW223643   3.265   3.809   8.611 -0.6075 -1.0024  0.0019
 4061SOL     OW23644   0.405   1.498  16.260  0.1645  0.3780  0.0053
 4061SOL    HW123645   0.455   1.578  16.280  1.4234 -0.8272  1.7492
 4061SOL    HW223646   0.363   1.490  16.346  0.8116  0.9955  0.3836
 4062SOL     OW23647   2.919   2.708   6.083 -0.3859  0.4597  0.6122
 4062SOL    HW123648   2.888   2.713   6.173  0.9163  0.5876  1.0550
 4062SOL    HW223649   3.014   2.701   6.095 -0.3955 -0.4521  0.1315
 4063SOL     OW23650   2.734   0.577   8.056  0.7637 -0.0202  0.0098
 4063SOL    HW123651   2.759   0.485   8.070  0.7510  0.1315  1.0835
 4063SOL    HW223652   2.654   0.585   8.108 -1.7004 -1.6607 -3.5771
 4064SOL     OW23653   2.143   3.650   3.600  0.4103 -1.0980 -0.1980
 4064SOL    HW123654   2.102   3.722   3.647  0.5272  0.3799 -2.3970
 4064SOL    HW223655   2.155   3.701   3.521  3.5251 -1.5903 -0.0419
 4065SOL     OW23656   3.927   2.754  13.742  0.6862  0.4119  0.4055
 4065SOL    HW123657   4.001   2.694  13.753  0.6820  0.5403  1.1689
 4065SOL    HW223658   3.895   2.758  13.832 -0.6425  0.3324 -0.0626
 4066SOL     OW23659   4.504   3.902   2.297  0.2596  0.0044 -0.2815
 4066SOL    HW123660   4.480   3.907   2.390 -0.6877 -0.0851 -0.5229
 4066SOL    HW223661   4.599   3.907   2.301  0.1677  0.9508  0.8729
 4067SOL     OW23662   0.248   0.264   7.693 -0.1894 -0.1883 -0.4753
 4067SOL    HW123663   0.297   0.295   7.618  0.2285 -1.9964 -0.9588
 4067SOL    HW223664   0.160   0.278   7.657 -1.5063 -0.8794  2.4050
 4068SOL     OW23665   3.354   0.216   1.190 -0.0634 -0.9417  0.5146
 4068SOL    HW123666   3.397   0.235   1.274  0.7923  0.0355 -0.1498
 4068SOL    HW223667   3.406   0.146   1.151 -0.4822 -0.0297 -1.6368
 4069SOL     OW23668   4.503   2.308   8.922  0.1794  0.1372  0.2498
 4069SOL    HW123669   4.590   2.289   8.887  0.7173 -1.5482  2.5298
 4069SOL    HW223670   4.468   2.220   8.932 -0.4314  0.6314  2.4099
 4070SOL     OW23671   2.506   0.895   2.861 -0.0945 -0.1319  0.5030
 4070SOL    HW123672   2.416   0.891   2.827 -0.6410  0.9881  1.8474
 4070SOL    HW223673   2.558   0.844   2.799 -0.3942  1.0597 -0.7419
 4071SOL     OW23674   1.637   1.032   7.249  0.4482 -0.2538  0.3486
 4071SOL    HW123675   1.627   1.117   7.206 -0.9462 -0.4659  0.2299
 4071SOL    HW223676   1.657   0.976   7.173 -0.6749  1.4642 -1.2330
 4072SOL     OW23677   4.305   1.322   1.668 -0.4590  0.3442  0.4130
 4072SOL    HW123678   4.360   1.399   1.656 -1.0802  1.2609  3.7387
 4072SOL    HW223679   4.299   1.301   1.574  1.3244 -1.6637  0.7476
 4073SOL     OW23680   1.814   3.342   2.868  0.3477  0.5018  0.0461
 4073SOL    HW123681   1.781   3.259   2.902  0.1089  0.3381 -0.5756
 4073SOL    HW223682   1.892   3.321   2.817  0.6596 -0.9475  1.1123
 4074SOL     OW23683   3.742   1.349   5.145  0.1822 -0.5280 -0.2572
 4074SOL    HW123684   3.824   1.358   5.194 -1.3835 -1.1602  2.4973
 4074SOL    HW223685   3.771   1.317   5.060 -1.3089 -0.9694 -0.5846
 4075SOL     OW23686   3.281   2.222  11.253  0.5187  0.4420 -0.4205
 4075SOL    HW123687   3.261   2.296  11.196  2.9787  1.6848  0.3061
 4075SOL    HW223688   3.202   2.169  11.263  1.5907 -0.5468  2.7193
 4076SOL     OW23689   2.304   3.484   2.775  0.5286 -0.2294  0.2887
 4076SOL    HW123690   2.362   3.414   2.807  0.9104  0.3407  0.8572
 4076SOL    HW223691   2.322   3.563   2.827 -0.4968  0.0210  0.2644
 4077SOL     OW23692   0.901   1.343   7.880 -0.2247 -0.0335  0.2440
 4077SOL    HW123693   0.822   1.373   7.925  0.5790  0.5161  1.2829
 4077SOL    HW223694   0.962   1.360   7.952  0.5453  0.6641 -0.5711
 4078SOL     OW23695   2.178   1.172  16.484  0.3494 -0.3874 -0.4472
 4078SOL    HW123696   2.240   1.238  16.455  0.9503 -1.1602 -0.9385
 4078SOL    HW223697   2.197   1.096  16.428  2.2036 -1.0477  1.1105
 4079SOL     OW23698   2.516   4.520   4.939 -0.7415  0.4501 -0.6578
 4079SOL    HW123699   2.578   4.451   4.916 -0.9775  0.8143 -2.3343
 4079SOL    HW223700   2.571   4.598   4.936  0.6039 -0.5085 -0.7459
 4080SOL     OW23701   2.220   1.136   6.248  0.2460 -0.0810 -0.2019
 4080SOL    HW123702   2.197   1.082   6.323  0.2392 -0.3029 -0.3650
 4080SOL    HW223703   2.305   1.106   6.216 -0.5465 -1.0688 -1.3828
 4081SOL     OW23704   3.351   1.859  12.593  0.1298 -0.1643 -0.3850
 4081SOL    HW123705   3.396   1.872  12.677  1.0051 -3.1696 -0.3986
 4081SOL    HW223706   3.265   1.828  12.621  0.1258 -0.2856 -0.5303
 4082SOL     OW23707   0.656   0.710   1.405  0.1494 -0.3697  0.1059
 4082SOL    HW123708   0.616   0.767   1.339  0.0671  0.0623  0.5293
 4082SOL    HW223709   0.581   0.660   1.435  0.5920 -0.3570  1.2436
 4083SOL     OW23710   2.936   0.853   5.166 -0.0082  0.2198 -0.0681
 4083SOL    HW123711   2.943   0.937   5.211 -0.3458 -0.2512  0.8633
 4083SOL    HW223712   2.936   0.885   5.076 -1.5905  1.4845  0.3793
 4084SOL     OW23713   4.324   0.812   7.314  0.1986  0.3261 -0.3192
 4084SOL    HW123714   4.401   0.794   7.368 -2.9559 -0.7638  3.8686
 4084SOL    HW223715   4.356   0.765   7.237 -2.2160  2.0127 -2.3410
 4085SOL     OW23716   0.390   3.233  13.155 -0.0849  0.2266 -0.2162
 4085SOL    HW123717   0.360   3.318  13.124 -3.2624 -0.8269 -0.0462
 4085SOL    HW223718   0.414   3.181  13.078 -0.3916 -1.4621  0.8187
 4086SOL     OW23719   0.650   1.592   8.765 -0.1781 -0.3455 -0.6533
 4086SOL    HW123720   0.678   1.549   8.684 -1.9548 -1.8809 -0.4650
 4086SOL    HW223721   0.675   1.679   8.737 -0.7720  0.1447  0.3427
 4087SOL     OW23722   1.332   4.359   8.928  0.0881  0.6108  0.9290
 4087SOL    HW123723   1.364   4.447   8.908  0.4505  0.5819  1.3832
 4087SOL    HW223724   1.276   4.381   9.003  1.6685  0.3254  2.1908
 4088SOL     OW23725   1.470   4.442  10.331 -0.6483  0.3931  0.0486
 4088SOL    HW123726   1.547   4.494  10.354 -0.4515  0.2421 -0.2717
 4088SOL    HW223727   1.477   4.357  10.374  0.1029  0.5957  0.3296
 4089SOL     OW23728   1.086   3.055   3.061 -0.3353 -0.1201 -0.2300
 4089SOL    HW123729   1.029   2.981   3.081 -0.7998 -0.2132 -1.9215
 4089SOL    HW223730   1.122   3.032   2.975 -0.8749  2.1455 -1.0492
 4090SOL     OW23731   1.604   3.776  13.690  0.3575  0.2428 -0.4683
 4090SOL    HW123732   1.589   3.864  13.725 -1.8347 -0.0510 -0.6200
 4090SOL    HW223733   1.641   3.726  13.762  0.4573  2.4189  0.9953
 4091SOL     OW23734   1.213   4.509  10.382  0.2312  0.0086  0.4632
 4091SOL    HW123735   1.299   4.473  10.363  0.9670  0.2338  3.3061
 4091SOL    HW223736   1.200   4.473  10.470  0.3944  2.7376  1.5996
 4092SOL     OW23737   4.616   1.367  15.843  0.3061 -0.2519 -0.2422
 4092SOL    HW123738   4.600   1.317  15.762  2.6347  2.0553 -2.1354
 4092SOL    HW223739   4.661   1.295  15.888  1.5521 -0.5236 -1.8989
 4093SOL     OW23740   3.708   1.600   4.245  0.0188  0.1278 -0.0471
 4093SOL    HW123741   3.782   1.635   4.195 -0.2094  2.8473  1.4993
 4093SOL    HW223742   3.672   1.684   4.275  2.1014  1.5693 -1.5704
 4094SOL     OW23743   0.479   1.574  17.143 -0.0455 -0.6291  0.2477
 4094SOL    HW123744   0.536   1.632  17.194 -0.0724 -0.3939  0.0089
 4094SOL    HW223745   0.521   1.489  17.155  0.0270 -0.6150  0.0981
 4095SOL     OW23746   1.726   0.212  15.618  0.1913 -0.1059 -0.1502
 4095SOL    HW123747   1.737   0.207  15.713  0.6220 -1.5339 -0.2644
 4095SOL    HW223748   1.679   0.295  15.614  1.6070  0.7500  0.9350
 4096SOL     OW23749   2.102   1.340   7.423  0.4248  0.0771 -0.0187
 4096SOL    HW123750   2.021   1.362   7.470  1.2254  1.5364  0.6684
 4096SOL    HW223751   2.113   1.416   7.365  0.4581  0.6124  0.6905
 4097SOL     OW23752   2.617   1.685   6.372 -0.6002  0.3113  0.5337
 4097SOL    HW123753   2.588   1.611   6.425  1.6578 -0.8133  0.2139
 4097SOL    HW223754   2.599   1.671   6.279 -0.9371 -2.3984  0.9933
 4098SOL     OW23755   1.949   2.659  15.597  0.4836  0.0679  0.5479
 4098SOL    HW123756   1.990   2.715  15.531 -1.0067  0.6978  0.1428
 4098SOL    HW223757   1.992   2.575  15.582 -0.5870 -0.7257  1.9379
 4099SOL     OW23758   2.260   1.486   7.130 -0.2369 -0.2461  0.1710
 4099SOL    HW123759   2.230   1.396   7.120 -0.4400 -0.0831 -0.6963
 4099SOL    HW223760   2.195   1.527   7.188 -0.1318  1.0690 -0.6359
 4100SOL     OW23761   3.534   0.968   3.263  0.0969  0.0100  0.7388
 4100SOL    HW123762   3.526   1.052   3.217 -3.0001 -1.4754 -1.4810
 4100SOL    HW223763   3.454   0.965   3.315  0.7521 -1.2239  1.6563
 4101SOL     OW23764   4.074   1.545   8.624  0.7111 -0.0487 -0.2599
 4101SOL    HW123765   4.002   1.600   8.593  2.2462  1.1034 -1.7754
 4101SOL    HW223766   4.110   1.506   8.544 -1.0216 -2.0936 -0.0375
 4102SOL     OW23767   3.105   1.569   8.311 -0.0615 -0.5560  0.1816
 4102SOL    HW123768   3.131   1.484   8.347 -0.9213  1.1824  4.7581
 4102SOL    HW223769   3.052   1.540   8.236 -0.2674 -3.6263  1.5245
 4103SOL     OW23770   4.354   2.409   4.461  0.1147  0.1864  0.1311
 4103SOL    HW123771   4.295   2.482   4.446  0.7399  0.5302 -0.6692
 4103SOL    HW223772   4.403   2.410   4.379  0.3517  2.0086  0.3063
 4104SOL     OW23773   3.899   1.900  13.823 -0.0760  0.1770 -0.4515
 4104SOL    HW123774   3.852   1.955  13.761  0.2268  1.2532  0.2703
 4104SOL    HW223775   3.869   1.813  13.798 -0.6192 -0.8108  3.6614
 4105SOL     OW23776   4.003   0.774  10.239 -1.0493 -0.2241  0.1664
 4105SOL    HW123777   4.096   0.779  10.214 -2.0841  1.4758 -3.3419
 4105SOL    HW223778   3.961   0.804  10.158 -0.0607 -0.9399 -0.6207
 4106SOL     OW23779   3.624   4.498   2.331 -0.3241  0.4692 -0.1732
 4106SOL    HW123780   3.675   4.424   2.298 -1.2220  0.3363 -1.2413
 4106SOL    HW223781   3.671   4.508   2.414 -0.4581  2.1982 -0.3045
 4107SOL     OW23782   3.577   1.906   4.976  0.1818  0.0826 -0.1978
 4107SOL    HW123783   3.549   1.839   4.914 -0.4651 -1.8684  2.2213
 4107SOL    HW223784   3.516   1.901   5.050 -1.5427 -1.4653 -1.7357
 4108SOL     OW23785   2.829   1.561   4.234  0.6245 -0.1294 -0.1348
 4108SOL    HW123786   2.784   1.630   4.282 -0.7379  0.8538 -2.7861
 4108SOL    HW223787   2.868   1.512   4.306  1.8320  0.2253 -0.5385
 4109SOL     OW23788   0.349   2.968  16.944 -0.0508  0.7548 -0.3025
 4109SOL    HW123789   0.312   2.973  17.032 -2.4754 -1.2010 -1.2042
 4109SOL    HW223790   0.441   2.994  16.947  0.6067 -1.7133  1.1282
 4110SOL     OW23791   1.063   2.642   5.058  0.0708  0.4865  0.3238
 4110SOL    HW123792   1.097   2.727   5.030  0.1559 -0.4159 -2.3205
 4110SOL    HW223793   0.990   2.656   5.118  0.4223 -0.5849  1.0028
 4111SOL     OW23794   4.096   0.383   8.209  0.2637  0.4059  0.6555
 4111SOL    HW123795   4.019   0.327   8.214 -0.0534  0.7181 -0.6261
 4111SOL    HW223796   4.085   0.407   8.301  0.7053  0.4754  0.6915
 4112SOL     OW23797   3.349   0.635   3.265  0.0527 -0.2136  0.6917
 4112SOL    HW123798   3.340   0.727   3.290  1.9686  0.1902 -0.1066
 4112SOL    HW223799   3.268   0.628   3.213  0.1841 -1.8583  0.7092
 4113SOL     OW23800   2.068   2.863  15.378  0.3168 -0.5263  0.4239
 4113SOL    HW123801   2.091   2.939  15.431  0.1839  0.7119 -1.3059
 4113SOL    HW223802   2.000   2.893  15.318  1.1255 -1.8033 -1.1349
 4114SOL     OW23803   4.256   0.101   5.974  0.1919 -0.4762 -0.0906
 4114SOL    HW123804   4.311   0.104   6.052 -1.0908  1.2874  0.7451
 4114SOL    HW223805   4.246   0.006   5.971 -1.8422 -0.3191  1.2686
 4115SOL     OW23806   1.737   0.858  11.832  0.1622  0.0612  0.2466
 4115SOL    HW123807   1.646   0.833  11.817  0.5477 -0.4408 -1.1637
 4115SOL    HW223808   1.785   0.821  11.758  1.4560  0.9627  0.6407
 4116SOL     OW23809   3.216   1.466   6.056  0.8364 -0.3112  0.0925
 4116SOL    HW123810   3.312   1.472   6.058  0.7460  1.3833 -1.1252
 4116SOL    HW223811   3.198   1.550   6.097 -0.9320 -1.7397  2.3108
 4117SOL     OW23812   1.431   3.652   7.620  0.2205 -0.2214 -0.6586
 4117SOL    HW123813   1.499   3.714   7.596  0.6000 -1.8358 -3.7241
 4117SOL    HW223814   1.466   3.617   7.702  0.3629  1.4244 -0.0241
 4118SOL     OW23815   4.508   4.032   8.901 -0.6649  0.3695  0.3115
 4118SOL    HW123816   4.536   4.043   8.810 -2.8330  2.8380 -0.0382
 4118SOL    HW223817   4.558   4.101   8.944 -0.8084  0.8065 -0.2237
 4119SOL     OW23818   2.798   0.258   0.873  0.6205 -0.2369  1.0127
 4119SOL    HW123819   2.892   0.261   0.855 -0.0427  0.3291 -2.3239
 4119SOL    HW223820   2.797   0.291   0.963 -0.4975 -0.1667  0.9690
 4120SOL     OW23821   2.843   3.858  15.317  0.3730 -0.3903 -0.2319
 4120SOL    HW123822   2.915   3.889  15.372 -0.2580 -2.6787  1.9225
 4120SOL    HW223823   2.851   3.901  15.232  1.0166  1.4941  0.7971
 4121SOL     OW23824   3.906   3.596   3.369 -0.4581  0.1861  1.1023
 4121SOL    HW123825   3.877   3.521   3.318 -0.8959  1.0575  0.0679
 4121SOL    HW223826   3.981   3.552   3.408 -2.0885 -2.6016  1.0824
 4122SOL     OW23827   2.615   1.696   2.609  0.3290  0.0359  0.1795
 4122SOL    HW123828   2.599   1.602   2.613  0.4691 -0.0121 -0.4401
 4122SOL    HW223829   2.637   1.718   2.700 -0.2092  1.1691  0.0335
 4123SOL     OW23830   3.550   1.539   5.143  0.3730  0.4195 -0.3743
 4123SOL    HW123831   3.617   1.592   5.187  0.7197 -0.7623  0.5229
 4123SOL    HW223832   3.604   1.460   5.146 -1.3946 -0.7830 -0.5308
 4124SOL     OW23833   0.728   0.521   4.142 -0.0989 -0.1936 -0.1876
 4124SOL    HW123834   0.672   0.505   4.217  0.0401  1.0056  0.1696
 4124SOL    HW223835   0.670   0.506   4.067 -1.7954  0.1563  1.0658
 4125SOL     OW23836   3.591   3.447  15.728 -0.6292  0.2887 -0.2597
 4125SOL    HW123837   3.537   3.430  15.651  0.7160 -1.0600 -0.8964
 4125SOL    HW223838   3.548   3.526  15.760  1.4954  1.5860 -0.6131
 4126SOL     OW23839   4.083   0.183   6.736  0.7814 -0.4207  0.5048
 4126SOL    HW123840   4.109   0.180   6.828 -1.7276 -1.6391  1.1625
 4126SOL    HW223841   4.019   0.114   6.721  0.2944  0.3387 -0.9037
 4127SOL     OW23842   4.560   0.124   3.582 -0.1344 -0.2275  0.5102
 4127SOL    HW123843   4.482   0.075   3.609  0.6934 -1.8627 -0.0803
 4127SOL    HW223844   4.629   0.059   3.567  1.5707  1.3745  1.4308
 4128SOL     OW23845   1.689   1.785   3.032  0.1364 -0.3215 -0.0420
 4128SOL    HW123846   1.694   1.772   3.126 -0.6581  0.6363  0.1411
 4128SOL    HW223847   1.677   1.878   3.014 -2.8438 -1.2679 -3.1114
 4129SOL     OW23848   4.115   0.977  13.936  0.2805 -0.5013  0.3056
 4129SOL    HW123849   4.079   0.896  13.970 -2.3002  0.5552  0.0864
 4129SOL    HW223850   4.146   0.945  13.851 -1.5522 -1.7694  0.1267
 4130SOL     OW23851   1.068   4.053   0.472  0.5738  0.8602 -0.3111
 4130SOL    HW123852   1.075   4.039   0.566  0.4572  0.7295 -0.3212
 4130SOL    HW223853   0.991   4.005   0.440  1.6144 -0.6236 -0.5634
 4131SOL     OW23854   3.459   0.419   2.693  0.6380 -0.4993 -0.4072
 4131SOL    HW123855   3.497   0.394   2.778  2.3519 -0.0463 -1.0286
 4131SOL    HW223856   3.447   0.334   2.652 -0.4266  0.2218 -1.5874
 4132SOL     OW23857   3.815   4.718   6.495  0.4241 -0.1804 -0.3960
 4132SOL    HW123858   3.875   4.654   6.531  0.5956  1.5136  2.3273
 4132SOL    HW223859   3.743   4.655   6.493  1.4972 -1.3430 -2.2433
 4133SOL     OW23860   2.001   0.601   6.458  0.6432  0.3638  0.2653
 4133SOL    HW123861   1.955   0.649   6.527  2.0341  0.7417  0.9138
 4133SOL    HW223862   1.976   0.656   6.383 -0.8480 -0.5375  0.0974
 4134SOL     OW23863   0.615   0.266   3.321 -0.5102 -0.5922  0.0271
 4134SOL    HW123864   0.580   0.181   3.295  2.2664 -1.9244  0.6427
 4134SOL    HW223865   0.705   0.244   3.297 -1.4468 -1.8630 -2.3572
 4135SOL     OW23866   2.838   0.929   7.117  0.2829  0.1100  0.5854
 4135SOL    HW123867   2.931   0.928   7.139  0.6833 -1.0317 -1.1352
 4135SOL    HW223868   2.812   1.011   7.158  0.2762  0.1532  0.4931
 4136SOL     OW23869   4.634   1.530  16.142  0.0887  0.3363  0.5313
 4136SOL    HW123870   4.652   1.436  16.150  0.5581  0.3228 -0.7503
 4136SOL    HW223871   4.595   1.548  16.228  3.1811  0.0012  2.0237
 4137SOL     OW23872   1.484   3.990   7.982  0.8497  0.3528 -0.8517
 4137SOL    HW123873   1.467   3.896   7.974 -0.3554  0.5105 -0.1225
 4137SOL    HW223874   1.425   4.034   7.921  0.0121 -0.2998 -0.5203
 4138SOL     OW23875   2.414   0.569   8.959  0.3112 -0.4893 -0.3515
 4138SOL    HW123876   2.390   0.574   9.052 -0.7918 -1.6809 -0.5866
 4138SOL    HW223877   2.435   0.476   8.955  0.6789 -0.5400  2.8844
 4139SOL     OW23878   2.574   1.612  11.745  0.1334 -0.1533 -0.1503
 4139SOL    HW123879   2.638   1.678  11.772 -0.2512  0.7451 -1.4242
 4139SOL    HW223880   2.503   1.654  11.793  0.6734  2.3937 -1.5656
 4140SOL     OW23881   3.312   3.373   0.195  0.2141 -0.8010 -0.4396
 4140SOL    HW123882   3.280   3.407   0.111  0.5093 -0.3266 -0.3599
 4140SOL    HW223883   3.246   3.306   0.210 -1.8106  1.3463  0.3914
 4141SOL     OW23884   3.614   2.843  12.931  0.4568 -0.1744  0.8870
 4141SOL    HW123885   3.698   2.799  12.946  0.6617  0.4017  1.3849
 4141SOL    HW223886   3.595   2.851  13.024  0.1677  2.5244  0.5824
 4142SOL     OW23887   3.026   2.604  12.424 -0.2340  0.5485  0.3424
 4142SOL    HW123888   2.967   2.530  12.415 -1.0214  1.0622  1.3055
 4142SOL    HW223889   3.011   2.626  12.516  1.2582  1.6725  0.3312
 4143SOL     OW23890   2.873   1.473  15.850  0.7518 -0.0100 -0.3851
 4143SOL    HW123891   2.853   1.563  15.876  0.7996 -0.5857  1.6538
 4143SOL    HW223892   2.849   1.418  15.925  0.0881  2.5276  1.2634
 4144SOL     OW23893   2.454   3.971  14.409 -0.2657 -0.3745  0.1011
 4144SOL    HW123894   2.460   3.945  14.501 -1.1293 -0.9397 -0.0009
 4144SOL    HW223895   2.464   4.066  14.417 -1.4058 -0.5859  3.9113
 4145SOL     OW23896   3.059   2.007   2.787  0.3496  0.0886  0.0836
 4145SOL    HW123897   3.076   1.927   2.835 -0.3169 -0.5385 -0.7272
 4145SOL    HW223898   2.987   2.041   2.840  0.1013 -3.3260  1.9009
 4146SOL     OW23899   3.393   4.629   6.619  0.1978  0.7538 -0.0638
 4146SOL    HW123900   3.348   4.566   6.675  1.0388  0.3815  0.1949
 4146SOL    HW223901   3.334   4.704   6.626  0.2340  0.8563 -0.7644
 4147SOL     OW23902   3.927   2.150   3.138  0.1268  0.7911 -0.3261
 4147SOL    HW123903   3.868   2.202   3.082  1.0932 -0.9914 -2.9977
 4147SOL    HW223904   3.967   2.093   3.073 -0.5126 -0.0469  0.0147
 4148SOL     OW23905   1.930   0.198   2.823 -0.4482 -0.0878  0.6192
 4148SOL    HW123906   1.878   0.215   2.902 -0.7985 -2.3060  0.8659
 4148SOL    HW223907   1.991   0.133   2.857  1.0422  0.5154 -0.9429
 4149SOL     OW23908   0.095   3.483   7.349  0.5985  0.4164  0.1598
 4149SOL    HW123909   0.005   3.463   7.326  0.6660 -0.5839  0.7166
 4149SOL    HW223910   0.122   3.549   7.286  1.1898  0.4343  0.4211
 4150SOL     OW23911   2.025   3.520   6.219  0.2807 -0.0973 -0.6912
 4150SOL    HW123912   2.039   3.528   6.124  1.1525  0.3770 -0.5298
 4150SOL    HW223913   2.113   3.494   6.248  0.1060 -1.8146 -1.7034
 4151SOL     OW23914   3.619   4.412   2.627 -0.0300 -0.8189 -0.2573
 4151SOL    HW123915   3.632   4.386   2.718 -0.7675 -3.3220 -0.8721
 4151SOL    HW223916   3.527   4.399   2.606  0.9795 -3.2221 -3.1749
 4152SOL     OW23917   1.872   2.956  17.552 -0.0286 -0.2980 -0.3996
 4152SOL    HW123918   1.876   3.044  17.590 -0.3592 -0.5472  0.2148
 4152SOL    HW223919   1.819   2.925  17.626 -1.8267  0.6587 -1.3167
 4153SOL     OW23920   1.683   3.158  12.887  0.0617  0.1019 -0.1049
 4153SOL    HW123921   1.649   3.069  12.894  0.4958 -0.1438 -1.0286
 4153SOL    HW223922   1.703   3.157  12.980 -1.6913 -0.5575  0.2648
 4154SOL     OW23923   2.259   2.866   3.498  0.4933  0.3731  0.0968
 4154SOL    HW123924   2.288   2.957   3.505  1.4516  0.1184 -0.4392
 4154SOL    HW223925   2.336   2.818   3.466  0.6119  0.6885 -0.0849
 4155SOL     OW23926   2.438   0.511   5.967  0.3212 -0.2404  0.0880
 4155SOL    HW123927   2.464   0.587   5.915  0.3571  2.1260  3.4799
 4155SOL    HW223928   2.412   0.555   6.049  1.8340  2.2137 -0.7347
 4156SOL     OW23929   3.077   0.901   4.058  0.4633  0.1228  0.1406
 4156SOL    HW123930   3.122   0.977   4.022  0.1297 -0.3565 -1.2710
 4156SOL    HW223931   2.997   0.907   4.006 -1.4719 -1.5075  2.9012
 4157SOL     OW23932   2.625   1.072   6.405 -0.6354  0.0119  0.0953
 4157SOL    HW123933   2.575   1.022   6.469  1.3616 -1.0128  0.8245
 4157SOL    HW223934   2.703   1.097   6.453 -0.9809 -1.5494  1.4565
 4158SOL     OW23935   2.562   0.989   1.345 -0.2425 -0.7720 -0.2298
 4158SOL    HW123936   2.481   1.001   1.396  0.0139 -0.3106  0.0673
 4158SOL    HW223937   2.619   1.007   1.420  0.8999  0.5238 -1.4188
 4159SOL     OW23938   1.750   2.048   8.167  0.3610 -0.0325 -0.3885
 4159SOL    HW123939   1.830   2.042   8.116  0.1071 -2.0389 -0.5350
 4159SOL    HW223940   1.784   2.054   8.256  3.3097  1.1806 -1.5890
 4160SOL     OW23941   3.825   1.716   7.398  0.3152  0.0324  0.1370
 4160SOL    HW123942   3.783   1.636   7.431 -1.4152  0.9345  0.1094
 4160SOL    HW223943   3.769   1.781   7.440  0.3286  1.1011 -1.5028
 4161SOL     OW23944   2.032   2.046   6.449 -0.0783  0.1398 -0.8679
 4161SOL    HW123945   1.965   2.097   6.494  2.0591 -0.2784  2.7591
 4161SOL    HW223946   2.069   2.119   6.399  1.6824  0.4094  0.8398
 4162SOL     OW23947   2.202   3.644   8.427  0.2711 -0.3336  0.2751
 4162SOL    HW123948   2.181   3.690   8.346 -2.8205  1.9779  2.4026
 4162SOL    HW223949   2.294   3.671   8.435  0.2218  0.3260 -1.3587
 4163SOL     OW23950   0.532   1.876   4.371  0.1232  0.2914 -0.0814
 4163SOL    HW123951   0.494   1.896   4.285  0.1115 -2.9317 -0.8391
 4163SOL    HW223952   0.480   1.804   4.408 -0.0681 -0.7614 -2.3892
 4164SOL     OW23953   2.955   0.517   4.389 -0.9004 -0.2917  0.2440
 4164SOL    HW123954   2.862   0.542   4.391 -0.5876  0.7264  2.0596
 4164SOL    HW223955   2.988   0.561   4.311  1.6786 -0.3600  1.2941
 4165SOL     OW23956   3.260   1.750  10.354 -0.2935  0.0466  0.4854
 4165SOL    HW123957   3.266   1.824  10.293  2.6771 -0.4264  0.1638
 4165SOL    HW223958   3.353   1.730  10.364 -0.1730  0.2459 -0.1865
 4166SOL     OW23959   4.565   0.474  10.711  0.0256 -0.1848 -0.5865
 4166SOL    HW123960   4.560   0.386  10.750 -0.4903  0.1322  0.0630
 4166SOL    HW223961   4.550   0.443  10.622 -0.2914 -1.5633 -0.0500
 4167SOL     OW23962   2.579   4.508  13.501  0.3032  0.6961  0.5968
 4167SOL    HW123963   2.591   4.587  13.448  1.1037  1.3020  1.6974
 4167SOL    HW223964   2.641   4.449  13.458 -0.9151 -0.3799  0.3047
 4168SOL     OW23965   2.571   3.022   4.809 -0.4554 -0.3162 -0.6231
 4168SOL    HW123966   2.614   3.065   4.883 -2.5259  0.4934  0.0954
 4168SOL    HW223967   2.642   2.972   4.768  0.1748 -0.1698  0.2782
 4169SOL     OW23968   3.197   3.047   5.932  0.1428 -0.0564  0.8431
 4169SOL    HW123969   3.180   3.073   6.022 -0.8729  0.8200  0.3998
 4169SOL    HW223970   3.211   2.953   5.946  1.9907 -0.0819 -1.1590
 4170SOL     OW23971   0.900   2.737   6.353  0.3521  0.4551 -0.2190
 4170SOL    HW123972   0.925   2.653   6.392  1.2510  0.8376  0.0324
 4170SOL    HW223973   0.806   2.736   6.332  0.8699 -0.0451 -2.4796
 4171SOL     OW23974   3.904   1.899   7.243 -0.4807  0.6334  0.1866
 4171SOL    HW123975   3.972   1.900   7.309  0.5544  2.4488 -0.9157
 4171SOL    HW223976   3.855   1.826   7.281  1.9020 -0.5413  0.9767
 4172SOL     OW23977   3.564   1.379  12.830 -0.5710 -0.2038 -0.3158
 4172SOL    HW123978   3.541   1.291  12.861  0.1346 -1.2374 -2.6793
 4172SOL    HW223979   3.481   1.412  12.796  0.5662  1.0688 -1.8355
 4173SOL     OW23980   4.560   1.697   6.357 -0.1545  0.0292  0.5180
 4173SOL    HW123981   4.645   1.698   6.401  0.3064 -2.6168 -0.3308
 4173SOL    HW223982   4.505   1.696   6.436 -1.7546 -3.7405 -0.6322
 4174SOL     OW23983   3.327   3.350   6.715  0.2794 -0.4011 -0.3991
 4174SOL    HW123984   3.409   3.303   6.734  1.6462  1.5960 -1.3186
 4174SOL    HW223985   3.272   3.272   6.718  0.9587 -0.9064 -1.1038
 4175SOL     OW23986   2.566   3.137   7.190 -0.3203 -0.3661  0.1145
 4175SOL    HW123987   2.583   3.152   7.283 -2.4971  0.1470  0.4311
 4175SOL    HW223988   2.649   3.136   7.143 -0.0553  0.3941  0.5576
 4176SOL     OW23989   2.642   4.651   9.562 -0.1609  0.1484 -0.1313
 4176SOL    HW123990   2.630   0.018   9.589 -1.7405  0.2309 -1.1130
 4176SOL    HW223991   2.605   4.650   9.474  1.7121 -1.6129 -0.9046
 4177SOL     OW23992   2.882   1.369   2.869 -0.4703  0.2414  0.5421
 4177SOL    HW123993   2.913   1.279   2.877 -1.0021 -0.0689 -0.9593
 4177SOL    HW223994   2.795   1.340   2.839 -0.3081 -0.6289  0.9161
 4178SOL     OW23995   4.052   3.830  14.232  0.3787 -0.2923 -0.7608
 4178SOL    HW123996   4.064   3.744  14.272  0.3118 -0.0012 -0.1128
 4178SOL    HW223997   4.085   3.877  14.309 -2.0523  0.8010 -0.3842
 4179SOL     OW23998   2.023   1.456   6.801 -1.0573  0.1578  0.1387
 4179SOL    HW123999   2.028   1.403   6.880  0.6814  0.1201  0.0062
 4179SOL    HW224000   2.088   1.413   6.744 -0.3843  1.1792  0.1325
 4180SOL     OW24001   2.946   3.113   1.229  0.2734  0.6524 -0.2032
 4180SOL    HW124002   2.929   3.086   1.138 -0.8148  0.3185  0.0916
 4180SOL    HW224003   2.858   3.149   1.243  0.1462  1.0750 -1.9945
 4181SOL     OW24004   0.271   2.263   6.976 -0.5598  0.3647 -0.3280
 4181SOL    HW124005   0.350   2.271   6.923 -0.9664 -1.0141 -1.1586
 4181SOL    HW224006   0.272   2.338   7.035  2.3292 -1.2860  1.6729
 4182SOL     OW24007   0.228   3.691  12.943  0.3160  0.9822  0.1595
 4182SOL    HW124008   0.264   3.632  13.009 -1.3826 -0.9135 -0.6083
 4182SOL    HW224009   0.220   3.779  12.980  0.4779  1.1339 -0.1619
 4183SOL     OW24010   4.237   0.219   2.377  0.2389  0.2311  0.7381
 4183SOL    HW124011   4.327   0.215   2.408  1.3693  0.1178 -2.5085
 4183SOL    HW224012   4.227   0.314   2.372 -1.6249  0.0079  0.3544
 4184SOL     OW24013   3.324   0.220  13.965  0.1987  0.1253 -0.4252
 4184SOL    HW124014   3.416   0.244  13.957 -0.2307  1.7925 -0.2612
 4184SOL    HW224015   3.305   0.192  13.876 -2.2195 -0.6577  0.3282
 4185SOL     OW24016   2.277   0.156   7.661  0.0945 -0.5503  0.0012
 4185SOL    HW124017   2.249   0.164   7.570 -1.1546 -0.2889  0.4071
 4185SOL    HW224018   2.347   0.220   7.658  1.9048 -2.4871  0.9706
 4186SOL     OW24019   0.482   0.529   8.182 -0.3202  0.0749  0.2537
 4186SOL    HW124020   0.498   0.563   8.269 -1.6288  1.1949  0.0542
 4186SOL    HW224021   0.569   0.532   8.141 -0.5188 -1.3397 -0.2816
 4187SOL     OW24022   3.318   1.093  10.235  0.0727  0.1332 -0.5338
 4187SOL    HW124023   3.312   1.056  10.147 -0.7118 -2.6344  0.6763
 4187SOL    HW224024   3.360   1.018  10.277 -0.7545 -1.1510 -2.0071
 4188SOL     OW24025   0.814   0.129   6.646  0.5461 -0.0550  0.1701
 4188SOL    HW124026   0.858   0.062   6.595 -0.4636  0.4980 -1.4406
 4188SOL    HW224027   0.852   0.205   6.602 -0.9324  1.0306  0.7438
 4189SOL     OW24028   2.301   0.095   3.882  0.3305 -0.1696 -0.3328
 4189SOL    HW124029   2.289   0.133   3.969 -0.8903 -0.7335 -0.2628
 4189SOL    HW224030   2.386   0.053   3.895  0.8939  1.5062  1.4608
 4190SOL     OW24031   1.270   0.064   0.842  0.7128 -0.6398  0.4150
 4190SOL    HW124032   1.338   0.068   0.774  2.3746 -0.5532  2.0690
 4190SOL    HW224033   1.207   0.016   0.788  1.8555 -1.1825 -0.4503
 4191SOL     OW24034   1.485   0.235   1.670 -0.4084  0.0429  0.1932
 4191SOL    HW124035   1.438   0.294   1.728 -3.2122 -1.1665 -0.8666
 4191SOL    HW224036   1.512   0.302   1.607 -0.4263 -0.3399 -0.2220
 4192SOL     OW24037   3.598   2.257   8.218  0.8789 -0.0210  0.4764
 4192SOL    HW124038   3.672   2.313   8.242 -0.8020  2.2266  0.5338
 4192SOL    HW224039   3.568   2.316   8.148  2.0048  0.8050  0.6915
 4193SOL     OW24040   2.438   4.679   4.637  0.0628  0.4517 -0.2038
 4193SOL    HW124041   2.530   4.653   4.628 -0.2849 -0.6429 -0.5874
 4193SOL    HW224042   2.401   4.696   4.551 -1.1813 -1.6450 -0.0853
 4194SOL     OW24043   1.010   0.300  17.572 -0.4821 -0.0912 -0.0450
 4194SOL    HW124044   1.038   0.332  17.486  1.2109  0.2388  0.6333
 4194SOL    HW224045   1.017   0.204  17.569  1.0260  0.0442 -1.3517
 4195SOL     OW24046   0.146   0.104   4.732 -0.2694  0.2576 -0.1720
 4195SOL    HW124047   0.125   0.166   4.802  0.2664  0.3321 -0.0809
 4195SOL    HW224048   0.239   0.115   4.750  0.2983 -2.6396 -1.3479
 4196SOL     OW24049   3.877   4.622  12.145  0.0003  0.0045 -0.2801
 4196SOL    HW124050   3.907   4.598  12.057  1.8299 -0.3719  0.4532
 4196SOL    HW224051   3.946   4.686  12.162 -1.3727  0.9822  1.5748
 4197SOL     OW24052   4.505   4.264  14.514  0.2839 -0.1441  0.4419
 4197SOL    HW124053   4.441   4.200  14.545 -0.0948 -0.1119 -0.2966
 4197SOL    HW224054   4.589   4.219  14.509  0.4859  0.2451  0.3915
 4198SOL     OW24055   0.469   4.368   8.215 -0.0395 -0.1236 -0.4421
 4198SOL    HW124056   0.511   4.426   8.151 -0.1708  1.7500  1.1783
 4198SOL    HW224057   0.482   4.425   8.291 -1.6163 -2.6969  1.7959
 4199SOL     OW24058   1.600   3.900   5.734 -0.1664 -0.3720  0.4363
 4199SOL    HW124059   1.550   3.830   5.692  2.8392 -1.8489 -0.7018
 4199SOL    HW224060   1.689   3.867   5.721  0.0498  1.1696 -1.9030
 4200SOL     OW24061   0.764   4.528   3.089  0.1372 -0.0162 -0.3134
 4200SOL    HW124062   0.713   4.503   3.012 -0.0518 -1.5728  0.3163
 4200SOL    HW224063   0.831   4.461   3.098 -0.7676 -0.7446  0.9106
 4201SOL     OW24064   1.224   3.706  16.486  0.3005 -0.1773  0.3959
 4201SOL    HW124065   1.305   3.757  16.492  1.4062 -1.8633 -0.1410
 4201SOL    HW224066   1.250   3.642  16.420  0.8595 -1.2465  1.6596
 4202SOL     OW24067   3.599   2.346  15.139 -0.7449  0.9022  0.0231
 4202SOL    HW124068   3.629   2.259  15.115 -2.8322 -0.4187  2.1810
 4202SOL    HW224069   3.615   2.359  15.232 -0.0921  2.2745 -0.2805
 4203SOL     OW24070   1.608   0.971   5.367 -0.5754  0.1512  0.3607
 4203SOL    HW124071   1.584   0.901   5.427  0.1029  1.1358  1.7660
 4203SOL    HW224072   1.672   1.019   5.419  2.7574 -1.9122 -1.8716
 4204SOL     OW24073   0.612   2.488  13.966  0.3245 -0.0398 -0.0168
 4204SOL    HW124074   0.597   2.452  14.054  1.4638  0.1207  0.2446
 4204SOL    HW224075   0.666   2.416  13.932  1.6164  0.1131  1.7094
 4205SOL     OW24076   3.967   3.694   5.923  0.2870  0.1296 -0.3285
 4205SOL    HW124077   3.940   3.770   5.975 -0.9712 -1.0607  0.7593
 4205SOL    HW224078   3.919   3.712   5.842 -0.9256 -0.0926  0.3394
 4206SOL     OW24079   3.851   3.424   5.065 -0.1360 -0.2650 -0.0849
 4206SOL    HW124080   3.791   3.496   5.043  2.3187  2.1098  0.9948
 4206SOL    HW224081   3.868   3.454   5.155 -0.3783  0.1478 -0.1750
 4207SOL     OW24082   4.116   2.507   7.652 -0.2775 -0.0717  0.2675
 4207SOL    HW124083   4.211   2.508   7.643 -0.6709 -0.7073 -3.7667
 4207SOL    HW224084   4.104   2.572   7.722  0.8411 -0.9587  1.2810
 4208SOL     OW24085   2.128   1.527   4.140  0.2888  0.5540 -0.1250
 4208SOL    HW124086   2.055   1.589   4.146  0.6126  0.6134  3.3326
 4208SOL    HW224087   2.190   1.562   4.204 -0.2969 -0.5172  1.0260
 4209SOL     OW24088   1.312   0.927   5.015  0.5045  0.1705 -0.2730
 4209SOL    HW124089   1.343   0.856   5.072 -1.9967 -0.5725  0.1764
 4209SOL    HW224090   1.228   0.888   4.989  0.1318  1.4620 -0.9888
 4210SOL     OW24091   3.461   0.685   0.215  0.4428 -0.3227 -0.0813
 4210SOL    HW124092   3.444   0.591   0.209  1.4894 -0.6381  2.0112
 4210SOL    HW224093   3.375   0.708   0.251 -0.1019  0.6106 -1.9627
 4211SOL     OW24094   4.585   1.278   8.343 -0.4271  0.2725  0.1883
 4211SOL    HW124095   4.623   1.294   8.257  0.1977  0.8084  0.5589
 4211SOL    HW224096   4.658   1.294   8.403  0.0373 -0.9123 -0.0649
 4212SOL     OW24097   1.937   3.108   3.523  0.4526  0.4973  0.0085
 4212SOL    HW124098   1.942   3.169   3.597  1.8166  2.7042 -1.8998
 4212SOL    HW224099   1.904   3.164   3.452 -1.0222  0.3693  0.5966
 4213SOL     OW24100   1.827   3.187   7.209 -0.3043 -0.2956 -0.0333
 4213SOL    HW124101   1.820   3.279   7.186  0.3441  0.1548  1.5802
 4213SOL    HW224102   1.766   3.184   7.283 -1.1263 -0.5131 -0.7176
 4214SOL     OW24103   0.325   1.396   1.451 -0.3350 -0.0082  0.2832
 4214SOL    HW124104   0.371   1.365   1.373  1.1051  1.8969  0.3823
 4214SOL    HW224105   0.294   1.484   1.434  1.3318  0.5243 -0.0543
 4215SOL     OW24106   0.406   2.993   8.940 -0.1784  0.2086  0.3048
 4215SOL    HW124107   0.437   2.979   9.029 -1.2717 -1.3764  0.4353
 4215SOL    HW224108   0.474   3.045   8.897 -0.9041  1.6837  0.9167
 4216SOL     OW24109   2.685   1.544   7.003 -0.2678 -0.0904  0.6516
 4216SOL    HW124110   2.638   1.489   7.066  0.0005 -0.4533  0.5316
 4216SOL    HW224111   2.671   1.631   7.041 -2.7471 -0.7588  1.2592
 4217SOL     OW24112   0.377   4.598   4.124  0.2863  0.6129  0.0990
 4217SOL    HW124113   0.322   4.649   4.065 -0.2815 -0.0399  0.0669
 4217SOL    HW224114   0.403   4.538   4.054  0.7222  2.1265 -1.0481
 4218SOL     OW24115   4.422   2.747   6.629  0.0726  0.5416 -0.0207
 4218SOL    HW124116   4.443   2.654   6.619 -0.9171  0.3359 -0.2376
 4218SOL    HW224117   4.510   2.782   6.616  0.1976  1.7830  4.1869
 4219SOL     OW24118   2.572   4.219   5.939  0.1714 -0.0582  0.5891
 4219SOL    HW124119   2.477   4.212   5.950  0.0481  2.7542  1.3631
 4219SOL    HW224120   2.577   4.155   5.869  0.6349  2.0023 -1.2503
 4220SOL     OW24121   0.767   1.818  16.361 -0.0686 -0.7533  0.0721
 4220SOL    HW124122   0.841   1.777  16.316  0.1918 -0.0742 -0.1199
 4220SOL    HW224123   0.784   1.904  16.322 -1.3349 -0.5586 -0.0402
 4221SOL     OW24124   1.367   0.549  16.871 -0.0521 -0.5017  0.0564
 4221SOL    HW124125   1.397   0.632  16.834  1.8771  1.4067  5.8686
 4221SOL    HW224126   1.433   0.483  16.848  1.6267  2.1537 -2.7102
 4222SOL     OW24127   1.274   2.720   9.413 -0.4066  0.3580  0.1053
 4222SOL    HW124128   1.242   2.804   9.443  3.6589  1.3766  1.5627
 4222SOL    HW224129   1.193   2.669   9.410 -1.3695  1.9781 -1.1428
 4223SOL     OW24130   2.764   3.461   3.923 -0.0944 -0.1938 -0.0568
 4223SOL    HW124131   2.779   3.554   3.910  1.5446 -0.3061  0.9256
 4223SOL    HW224132   2.680   3.458   3.877 -0.1201 -1.6132  0.0701
 4224SOL     OW24133   2.255   0.506   2.389 -0.1878 -0.7210  0.4661
 4224SOL    HW124134   2.171   0.466   2.368 -1.3182  2.7762 -1.6408
 4224SOL    HW224135   2.314   0.470   2.322 -0.2100 -3.3956  1.8636
 4225SOL     OW24136   4.555   0.507   5.368 -0.2972  0.3640  0.3529
 4225SOL    HW124137   4.542   0.596   5.337 -3.5264  0.2938  1.5199
 4225SOL    HW224138   4.473   0.479   5.408 -0.1540  2.0273  1.7843
 4226SOL     OW24139   2.039   4.205   6.621 -0.0684  0.0590 -0.7161
 4226SOL    HW124140   1.981   4.255   6.564 -0.8596  0.1702  0.1677
 4226SOL    HW224141   1.975   4.167   6.682 -0.0063 -0.8141 -1.1893
 4227SOL     OW24142   0.828   0.625   8.536 -0.1373  0.0840  0.2641
 4227SOL    HW124143   0.882   0.686   8.586  2.3513  0.2620 -2.6302
 4227SOL    HW224144   0.895   0.581   8.483 -0.6066 -0.4400  0.1037
 4228SOL     OW24145   1.076   3.775   3.953 -0.0255  0.0157 -0.0255
 4228SOL    HW124146   1.106   3.685   3.949  0.8242  0.1343  3.5937
 4228SOL    HW224147   1.091   3.804   3.863  0.3600 -0.1588 -0.0169
 4229SOL     OW24148   2.439   4.159   2.571 -0.5165  0.0001  0.0299
 4229SOL    HW124149   2.508   4.174   2.507  1.6225  0.7889  2.5550
 4229SOL    HW224150   2.427   4.248   2.605 -0.0828  0.4135 -0.9026
 4230SOL     OW24151   2.377   3.566  14.134 -0.4763 -0.2329 -0.5852
 4230SOL    HW124152   2.363   3.496  14.197  1.9349 -1.0029 -0.9109
 4230SOL    HW224153   2.378   3.635  14.200  0.9181  1.1771 -2.0537
 4231SOL     OW24154   2.454   4.561   0.328  0.0147 -0.1522 -0.1751
 4231SOL    HW124155   2.415   4.562   0.415  0.9788  0.9004  0.2390
 4231SOL    HW224156   2.375   4.534   0.280 -0.5447  1.6428 -0.2653
 4232SOL     OW24157   0.291   4.459   5.776 -0.1598 -0.1678 -0.4911
 4232SOL    HW124158   0.267   4.532   5.719 -1.2997  0.1038  0.3391
 4232SOL    HW224159   0.327   4.514   5.846  0.3855  0.5870 -1.3710
 4233SOL     OW24160   1.499   4.129   3.593  0.6041 -0.5752  0.7762
 4233SOL    HW124161   1.466   4.185   3.522 -1.6123 -1.9191  0.7371
 4233SOL    HW224162   1.432   4.061   3.599 -1.7872  1.7054  0.1952
 4234SOL     OW24163   3.140   1.317   3.579 -0.3667  0.4260  0.4678
 4234SOL    HW124164   3.160   1.338   3.670 -0.9351 -1.3333  0.9969
 4234SOL    HW224165   3.044   1.311   3.582 -0.3488  0.6334  1.2393
 4235SOL     OW24166   2.516   0.597  15.936  0.2439 -0.5855  1.1361
 4235SOL    HW124167   2.435   0.611  15.985  0.5128  1.2702  1.0503
 4235SOL    HW224168   2.474   0.555  15.861  0.4294  0.7942  0.2565
 4236SOL     OW24169   0.988   4.252  14.649  0.2280  0.6371  0.0275
 4236SOL    HW124170   1.067   4.218  14.691  0.1956  0.4330 -0.0811
 4236SOL    HW224171   1.012   4.343  14.628 -1.9430  1.0686 -0.5057
 4237SOL     OW24172   2.881   2.850  14.321  0.0561 -0.4145 -0.3100
 4237SOL    HW124173   2.889   2.762  14.285 -0.5024  0.2589 -2.0672
 4237SOL    HW224174   2.924   2.905  14.256  0.4618  0.5964  0.7914
 4238SOL     OW24175   4.508   3.851   5.960  0.4271 -0.8040 -0.5393
 4238SOL    HW124176   4.479   3.760   5.962  0.6983 -0.8959 -0.7295
 4238SOL    HW224177   4.484   3.876   6.049 -1.0272  2.2266 -1.8121
 4239SOL     OW24178   1.091   3.651   5.519 -0.3060  0.3407 -0.9009
 4239SOL    HW124179   1.082   3.619   5.608  1.5255  0.9056 -0.5201
 4239SOL    HW224180   1.017   3.712   5.509  0.2442  1.2309  0.4376
 4240SOL     OW24181   2.678   0.229   6.356 -0.2506  0.0610 -0.0999
 4240SOL    HW124182   2.604   0.279   6.390 -0.6248 -0.8847  0.4931
 4240SOL    HW224183   2.732   0.301   6.325 -0.1374 -0.0805 -0.2267
 4241SOL     OW24184   1.300   2.952   3.274  0.0874  0.1937  0.5817
 4241SOL    HW124185   1.297   2.982   3.183 -2.4172  0.4417  0.7352
 4241SOL    HW224186   1.243   2.875   3.270  1.5053 -0.7141 -2.6071
 4242SOL     OW24187   3.234   1.691   9.178  0.5199  0.3932  0.0384
 4242SOL    HW124188   3.209   1.669   9.088 -0.0159  1.9808 -0.2008
 4242SOL    HW224189   3.163   1.749   9.207 -0.8950 -0.0905 -2.4559
 4243SOL     OW24190   2.087   3.150   8.516 -0.7255  0.1126 -0.2013
 4243SOL    HW124191   2.092   3.163   8.611  0.3956 -0.4707 -0.1877
 4243SOL    HW224192   2.035   3.223   8.483  1.2843  0.8640 -1.6969
 4244SOL     OW24193   4.671   2.970   6.268 -0.0268  0.3296 -0.6862
 4244SOL    HW124194   4.583   2.933   6.256 -0.3566  1.2422 -1.0869
 4244SOL    HW224195   4.688   3.022   6.189 -0.7745 -0.0542 -1.1034
 4245SOL     OW24196   1.200   4.460   4.469  0.4083  0.3861  0.2667
 4245SOL    HW124197   1.121   4.410   4.493  0.0846  0.9891  0.4462
 4245SOL    HW224198   1.167   4.509   4.394 -1.7074 -1.4030  0.0345
 4246SOL     OW24199   1.986   0.706  11.305  0.5584 -0.2238  0.0966
 4246SOL    HW124200   2.045   0.745  11.369  1.3455 -0.1438 -0.6740
 4246SOL    HW224201   2.010   0.614  11.320 -0.3512 -0.4009  0.4635
 4247SOL     OW24202   0.410   0.048   5.766  0.0083 -0.3536 -0.0370
 4247SOL    HW124203   0.462   0.100   5.828 -0.2805 -0.4249  0.2612
 4247SOL    HW224204   0.333   0.029   5.819 -0.9904 -1.3356 -1.8684
 4248SOL     OW24205   2.736   0.216   4.116  0.3984  0.2353  0.1974
 4248SOL    HW124206   2.701   0.254   4.197 -1.4947  1.2515 -1.0885
 4248SOL    HW224207   2.661   0.176   4.072  0.2645  1.2756 -0.5082
 4249SOL     OW24208   0.688   2.828  10.707  0.2180 -0.7683 -0.0389
 4249SOL    HW124209   0.760   2.873  10.751 -2.1936  0.8322  2.3073
 4249SOL    HW224210   0.730   2.774  10.640 -0.0695 -0.2064 -0.6778
 4250SOL     OW24211   2.107   1.715   6.818  0.5237 -0.0915 -0.1792
 4250SOL    HW124212   2.046   1.642   6.818 -0.0132  0.3745 -2.1321
 4250SOL    HW224213   2.072   1.775   6.752  2.6604  0.0361 -1.1895
 4251SOL     OW24214   1.630   4.545  12.160  0.1788  0.1848  0.2588
 4251SOL    HW124215   1.717   4.516  12.132  0.1479  0.9470 -0.6214
 4251SOL    HW224216   1.594   4.562  12.073 -1.4748  0.8519  1.0780
 4252SOL     OW24217   2.774   0.759   6.362  0.1097  0.0295  0.2755
 4252SOL    HW124218   2.867   0.779   6.357  0.1250  0.0481  0.6965
 4252SOL    HW224219   2.723   0.793   6.288 -1.0634  0.1289  1.1371
 4253SOL     OW24220   2.645   3.202   3.434 -0.0514  0.6503 -0.1253
 4253SOL    HW124221   2.672   3.124   3.482  0.5176  1.3376  0.6807
 4253SOL    HW224222   2.640   3.270   3.501 -1.3913 -0.2270  0.6638
 4254SOL     OW24223   4.389   0.456   8.532 -0.1907 -0.1681 -0.0617
 4254SOL    HW124224   4.469   0.462   8.478 -1.5183  0.4548 -1.9526
 4254SOL    HW224225   4.390   0.361   8.538  1.0475 -0.2870 -1.8452
 4255SOL     OW24226   1.524   3.544   8.709 -0.5394  0.3338  0.1530
 4255SOL    HW124227   1.500   3.568   8.620 -1.5039 -1.4530 -0.0580
 4255SOL    HW224228   1.469   3.602   8.763 -2.6944 -1.0404 -0.5481
 4256SOL     OW24229   0.461   4.250  10.900  0.0835  0.2682 -0.0335
 4256SOL    HW124230   0.450   4.203  10.983 -4.2037  0.3943 -0.5436
 4256SOL    HW224231   0.367   4.251  10.883  0.3965  0.7073 -1.7579
 4257SOL     OW24232   4.207   1.838   5.108 -0.5786 -0.5195  0.5615
 4257SOL    HW124233   4.285   1.881   5.143  1.0625 -2.0349 -1.2478
 4257SOL    HW224234   4.247   1.754   5.082  2.1871  0.7320  0.8057
 4258SOL     OW24235   2.318   4.504  14.720 -0.3732 -0.2471 -0.2178
 4258SOL    HW124236   2.257   4.441  14.759  0.5159 -1.9169 -1.5159
 4258SOL    HW224237   2.396   4.464  14.759 -0.4430  0.2426  0.4245
 4259SOL     OW24238   0.338   4.482   9.954  0.2135 -0.3606 -0.1370
 4259SOL    HW124239   0.266   4.420   9.942  1.8726 -2.4439  0.6425
 4259SOL    HW224240   0.401   4.438  10.011  0.0298 -0.8484 -0.3059
 4260SOL     OW24241   1.037   1.816   7.062 -0.0989 -0.1261 -0.8405
 4260SOL    HW124242   0.969   1.776   7.117  1.1961  0.2068  1.0015
 4260SOL    HW224243   1.106   1.847   7.120 -1.0636 -0.5307  0.5283
 4261SOL     OW24244   0.140   2.670   5.484 -0.1745  0.0783  0.1844
 4261SOL    HW124245   0.165   2.706   5.399  2.5902 -1.9110  0.1722
 4261SOL    HW224246   0.077   2.601   5.464  1.8864 -1.3824 -1.2791
 4262SOL     OW24247   0.372   1.383   2.561  0.2046 -0.1237 -0.1485
 4262SOL    HW124248   0.324   1.448   2.611  0.8955  0.2928 -0.0242
 4262SOL    HW224249   0.302   1.341   2.511  1.2837 -1.5605 -0.4652
 4263SOL     OW24250   1.483   0.821   7.371 -0.1606 -0.5253 -0.8888
 4263SOL    HW124251   1.546   0.783   7.432  2.5224  2.6958 -1.6559
 4263SOL    HW224252   1.522   0.899   7.332 -0.2651  0.2697  0.5905
 4264SOL     OW24253   0.813   2.363   3.556 -0.0973  0.1623  0.2871
 4264SOL    HW124254   0.907   2.371   3.565 -0.2938  0.9669  1.4719
 4264SOL    HW224255   0.805   2.269   3.540  3.3784 -0.6623  3.5588
 4265SOL     OW24256   4.440   4.437   5.719 -0.4400  0.5901  0.6906
 4265SOL    HW124257   4.401   4.492   5.652  2.6402  0.4308 -1.2383
 4265SOL    HW224258   4.523   4.483   5.727 -0.5212  0.7829  0.3970
 4266SOL     OW24259   1.040   0.061   0.364  0.1114  0.0320  0.2801
 4266SOL    HW124260   1.100   0.015   0.305 -1.6162 -0.7205 -0.8595
 4266SOL    HW224261   1.062   0.150   0.338 -0.2780 -0.2047 -0.8264
 4267SOL     OW24262   2.026   0.844   2.351  0.5633  1.0374  0.4092
 4267SOL    HW124263   2.116   0.827   2.379  0.2139 -0.4794  0.6234
 4267SOL    HW224264   1.968   0.786   2.401  0.7443  0.3953 -0.1285
 4268SOL     OW24265   3.624   2.615  15.404 -0.4944  0.1040  0.6920
 4268SOL    HW124266   3.578   2.531  15.402  1.2273 -0.8029 -1.7530
 4268SOL    HW224267   3.717   2.594  15.415 -0.3726  0.6776  0.7746
 4269SOL     OW24268   0.878   2.453   1.157  0.4485 -0.1023  0.0901
 4269SOL    HW124269   0.881   2.457   1.062 -0.3677 -0.9229  0.0304
 4269SOL    HW224270   0.913   2.364   1.164 -0.0062 -0.1278  2.1134
 4270SOL     OW24271   3.275   1.362  10.344 -0.0334 -0.2697  0.2298
 4270SOL    HW124272   3.363   1.392  10.365  0.6839 -1.7710 -0.6555
 4270SOL    HW224273   3.287   1.271  10.318  1.9111 -0.2632  1.1039
 4271SOL     OW24274   4.237   2.307  17.017  0.1997 -0.0988 -0.5296
 4271SOL    HW124275   4.272   2.396  17.014 -2.6083  1.0059 -0.1351
 4271SOL    HW224276   4.152   2.322  17.059  0.2958 -1.6725  0.2184
 4272SOL     OW24277   3.356   0.688   8.249  0.7717 -0.3255 -0.4537
 4272SOL    HW124278   3.400   0.772   8.261  0.6687 -0.3886  0.3649
 4272SOL    HW224279   3.270   0.699   8.291  1.7903  4.6318  0.4268
 4273SOL     OW24280   3.632   1.152   0.351  0.2002  0.4135  0.1040
 4273SOL    HW124281   3.588   1.076   0.311 -0.2039 -0.4437  2.1843
 4273SOL    HW224282   3.617   1.220   0.285  1.8520 -0.0625 -0.7680
 4274SOL     OW24283   3.948   1.193  11.725  0.0590  0.0456  0.0280
 4274SOL    HW124284   4.002   1.222  11.652  2.9232  0.1218  2.1512
 4274SOL    HW224285   3.857   1.214  11.707 -0.2082 -1.9620 -1.0406
 4275SOL     OW24286   3.458   4.127   5.156  0.1200  0.2394  0.0483
 4275SOL    HW124287   3.458   4.216   5.119 -0.7306  0.3494  0.3247
 4275SOL    HW224288   3.386   4.081   5.115 -0.4040  2.0666 -1.1097
 4276SOL     OW24289   1.503   4.385  13.667 -0.5456  0.3385  0.7189
 4276SOL    HW124290   1.598   4.380  13.657 -0.6621  1.8387 -0.9654
 4276SOL    HW224291   1.491   4.477  13.687 -2.3586  0.0076  1.1835
 4277SOL     OW24292   3.579   0.931   1.932 -0.1431  0.4574 -0.0880
 4277SOL    HW124293   3.545   0.855   1.886 -0.9604  1.0386 -0.4437
 4277SOL    HW224294   3.591   0.895   2.020  1.1456  3.1602  0.8555
 4278SOL     OW24295   2.586   4.223   8.448 -0.3808 -0.1099  0.0324
 4278SOL    HW124296   2.619   4.305   8.410 -0.4035  1.0064  2.4042
 4278SOL    HW224297   2.658   4.195   8.504 -2.9115 -0.9038  2.8687
 4279SOL     OW24298   3.352   3.831   2.548 -0.0077 -0.1203  0.1936
 4279SOL    HW124299   3.338   3.739   2.570  1.3654  0.0019  1.5864
 4279SOL    HW224300   3.446   3.840   2.562 -0.3299  2.8453  0.5683
 4280SOL     OW24301   1.748   2.406   5.436 -0.3234  0.1205 -0.3398
 4280SOL    HW124302   1.661   2.435   5.462 -0.5116  0.5060 -1.4095
 4280SOL    HW224303   1.805   2.478   5.462 -0.8902 -0.2041  1.8029
 4281SOL     OW24304   3.560   0.335   7.475  0.1271  0.1741  0.0735
 4281SOL    HW124305   3.504   0.258   7.479  1.7163 -0.9131  1.4446
 4281SOL    HW224306   3.639   0.289   7.445  1.4157  1.1535  1.9727
 4282SOL     OW24307   4.234   3.441   2.826 -0.4363 -0.0558  0.2284
 4282SOL    HW124308   4.316   3.483   2.854 -0.7203  0.8208 -0.2491
 4282SOL    HW224309   4.169   3.481   2.885 -1.3331  0.1301 -0.8791
 4283SOL     OW24310   0.503   0.793  13.237 -0.9613 -0.1807 -0.3216
 4283SOL    HW124311   0.590   0.828  13.255 -1.6614  1.8782 -1.0120
 4283SOL    HW224312   0.464   0.785  13.324 -0.6552  1.4135 -0.0462
 4284SOL     OW24313   4.637   1.789  16.087 -0.8715 -0.3339 -0.2671
 4284SOL    HW124314   4.632   1.694  16.087 -0.4606 -0.3701 -2.3701
 4284SOL    HW224315   4.547   1.804  16.057 -0.6199 -0.3979 -1.0637
 4285SOL     OW24316   0.258   4.150   8.454  0.6485  0.4794 -0.0448
 4285SOL    HW124317   0.192   4.214   8.428 -0.1090 -0.4376 -0.4151
 4285SOL    HW224318   0.282   4.119   8.367  0.7799 -0.9642  0.4931
 4286SOL     OW24319   3.771   0.114   5.792 -0.2159 -0.4055 -0.3772
 4286SOL    HW124320   3.833   0.181   5.820 -0.8095 -0.2710  0.6153
 4286SOL    HW224321   3.821   0.033   5.803 -0.3219  0.0812  3.6801
 4287SOL     OW24322   2.224   0.759   2.756 -0.7102  0.1062 -0.3929
 4287SOL    HW124323   2.150   0.705   2.728 -1.3953  0.2568  1.1160
 4287SOL    HW224324   2.206   0.765   2.849  0.9383  0.6949 -0.0988
 4288SOL     OW24325   2.418   2.265   8.043  0.2928  0.0490 -0.1511
 4288SOL    HW124326   2.499   2.303   8.078  0.4636 -0.0936 -0.3879
 4288SOL    HW224327   2.397   2.213   8.120 -0.1694  1.4193  0.6391
 4289SOL     OW24328   2.801   2.614  10.638 -0.3263 -0.1345 -0.0881
 4289SOL    HW124329   2.767   2.528  10.663 -1.2467 -0.4333 -2.3490
 4289SOL    HW224330   2.891   2.624  10.668 -0.3637 -2.2016  0.6871
 4290SOL     OW24331   1.522   2.268   2.831 -0.1223 -1.1801 -0.0233
 4290SOL    HW124332   1.589   2.252   2.764  2.7733  0.8090  2.4086
 4290SOL    HW224333   1.442   2.259   2.779 -1.1002  1.6567  0.9895
 4291SOL     OW24334   3.799   1.202   1.372 -0.0813 -0.4842  0.4238
 4291SOL    HW124335   3.757   1.242   1.295  1.6081 -0.8074 -0.6797
 4291SOL    HW224336   3.734   1.215   1.441  1.2933  1.4089  1.3757
 4292SOL     OW24337   4.298   4.594   5.528  0.3851 -0.1653  0.4605
 4292SOL    HW124338   4.269   4.684   5.545  1.0206  0.2188 -0.4609
 4292SOL    HW224339   4.211   4.555   5.523  0.5662 -0.6415  1.0690
 4293SOL     OW24340   3.973   0.536   4.434  0.1106  0.3546 -0.4763
 4293SOL    HW124341   3.958   0.622   4.394  0.4043  0.2376 -0.8267
 4293SOL    HW224342   4.055   0.514   4.391  1.3653  0.7703  1.7271
 4294SOL     OW24343   2.873   3.011   2.814 -0.0258  0.3365  0.0319
 4294SOL    HW124344   2.894   2.954   2.740 -0.6405 -0.5978  0.5763
 4294SOL    HW224345   2.960   3.051   2.819  0.7804 -1.6338  1.4741
 4295SOL     OW24346   4.174   2.389   7.007  0.1260 -0.2684 -0.0217
 4295SOL    HW124347   4.175   2.301   7.046  1.6061  1.0597  2.8999
 4295SOL    HW224348   4.260   2.408   7.044  0.8435 -0.7862 -1.3962
 4296SOL     OW24349   0.145   2.177   1.564 -0.4039  1.4109 -0.1220
 4296SOL    HW124350   0.208   2.235   1.608 -0.6870  1.1824  0.5964
 4296SOL    HW224351   0.063   2.188   1.612 -0.6790 -1.4343  0.0800
 4297SOL     OW24352   2.207   2.118   3.002 -0.3820  0.2908  0.2217
 4297SOL    HW124353   2.128   2.080   2.963  0.1030 -1.0213  0.5019
 4297SOL    HW224354   2.187   2.211   3.006 -0.3513  0.2069  2.7102
 4298SOL     OW24355   0.755   2.535  13.687  0.2623  0.3712 -0.1773
 4298SOL    HW124356   0.756   2.462  13.750 -1.0944  1.3801  1.0155
 4298SOL    HW224357   0.836   2.578  13.714 -1.7414  2.4463  2.5523
 4299SOL     OW24358   3.845   0.333   0.472  0.2869 -0.8110 -0.9243
 4299SOL    HW124359   3.814   0.423   0.461 -1.3504 -0.9405  2.7446
 4299SOL    HW224360   3.827   0.328   0.565 -1.4079 -1.9081 -1.3177
 4300SOL     OW24361   0.632   3.514   3.349 -0.6498 -0.5599  0.2132
 4300SOL    HW124362   0.642   3.556   3.435  1.9033  1.1679 -0.9166
 4300SOL    HW224363   0.561   3.565   3.311  1.2639  0.5856 -1.8150
 4301SOL     OW24364   3.037   1.210   7.685  0.1237 -0.3535 -0.2963
 4301SOL    HW124365   3.119   1.245   7.652 -0.1372 -0.3280 -0.9048
 4301SOL    HW224366   3.059   1.170   7.770 -0.5304 -1.6285 -0.7310
 4302SOL     OW24367   4.399   1.796   0.858 -0.1392  0.1627  0.0421
 4302SOL    HW124368   4.421   1.779   0.766 -0.5491 -0.9619  0.1606
 4302SOL    HW224369   4.476   1.845   0.889 -0.5962  0.0062  1.4111
 4303SOL     OW24370   0.831   2.473   0.883 -0.0142  0.1321 -0.0539
 4303SOL    HW124371   0.737   2.472   0.865  0.3538 -0.3821 -1.9310
 4303SOL    HW224372   0.874   2.436   0.807 -0.1822 -1.3957  0.5941
 4304SOL     OW24373   4.377   3.114   6.959 -0.1094 -0.6386 -0.7749
 4304SOL    HW124374   4.348   3.029   6.927  0.6758 -0.9451 -0.6687
 4304SOL    HW224375   4.379   3.165   6.878  2.6031 -0.7912 -0.8102
 4305SOL     OW24376   0.705   1.240  14.966  0.0778 -0.4800  0.1810
 4305SOL    HW124377   0.775   1.303  14.948  0.6737 -0.8661  1.1149
 4305SOL    HW224378   0.663   1.240  14.880  3.2916  0.0300 -1.4183
 4306SOL     OW24379   2.036   3.393   2.693  0.5065  0.1477 -0.0171
 4306SOL    HW124380   2.130   3.412   2.701 -0.0261  1.9957  1.9758
 4306SOL    HW224381   2.022   3.446   2.616 -1.1291 -1.0211 -0.5110
 4307SOL     OW24382   3.833   0.504  14.448  0.1510 -0.5637 -0.0923
 4307SOL    HW124383   3.902   0.571  14.450 -0.2997 -0.1196  0.7426
 4307SOL    HW224384   3.820   0.486  14.355  1.5411 -2.1079  0.0148
 4308SOL     OW24385   0.020   3.902   1.110 -0.5489  0.0474 -0.1871
 4308SOL    HW124386   4.716   3.811   1.122 -1.2899  0.0170 -2.0783
 4308SOL    HW224387   0.058   3.899   1.022  0.0546 -0.0989  0.0813
 4309SOL     OW24388   1.519   1.496   3.825 -0.0469 -0.3660  0.4213
 4309SOL    HW124389   1.460   1.456   3.761 -0.0088  0.5817 -0.2087
 4309SOL    HW224390   1.453   1.523   3.889  0.0856  0.7523  0.0922
 4310SOL     OW24391   4.192   2.447   5.814 -0.0584 -0.4094 -0.6782
 4310SOL    HW124392   4.152   2.529   5.784 -0.2953 -0.1032  0.4868
 4310SOL    HW224393   4.224   2.462   5.903 -1.2232  1.5118 -0.5849
 4311SOL     OW24394   3.739   0.593   3.975  0.4635  0.1668 -0.6873
 4311SOL    HW124395   3.727   0.597   3.880  1.1393 -0.3625 -0.7903
 4311SOL    HW224396   3.833   0.611   3.977  0.2131  1.7420 -2.5154
 4312SOL     OW24397   3.606   1.180   2.439  0.4470 -0.4288  0.2377
 4312SOL    HW124398   3.513   1.162   2.425  0.3620 -0.1033  0.3911
 4312SOL    HW224399   3.593   1.275   2.440  0.3512 -0.4483  0.6216
 4313SOL     OW24400   0.918   0.221  11.678 -0.2257  0.3300 -0.7111
 4313SOL    HW124401   0.904   0.167  11.756  1.9304  2.8451  1.4331
 4313SOL    HW224402   1.013   0.231  11.678 -0.1160 -0.7752  2.0085
 4314SOL     OW24403   0.026   0.495  17.429 -0.3052 -0.0508  0.6641
 4314SOL    HW124404   0.080   0.418  17.413 -0.5780  0.2840 -1.9898
 4314SOL    HW224405   4.696   0.494  17.349 -0.9597 -1.7460  1.1336
 4315SOL     OW24406   2.232   2.893   9.824  0.1310  0.0446  0.2070
 4315SOL    HW124407   2.313   2.844   9.817  0.5850  0.6416  1.3309
 4315SOL    HW224408   2.259   2.961   9.885  0.4271 -0.5659  0.7485
 4316SOL     OW24409   3.447   3.441  15.047  0.3543  0.4229 -0.6414
 4316SOL    HW124410   3.379   3.477  14.992  0.8560  1.5867 -0.5077
 4316SOL    HW224411   3.394   3.402  15.116 -2.0995  1.2368 -2.1035
 4317SOL     OW24412   2.800   0.417   1.584 -0.1120  0.9385 -0.3261
 4317SOL    HW124413   2.815   0.323   1.571 -2.3116  0.7168 -1.3272
 4317SOL    HW224414   2.853   0.457   1.516  1.3249  1.3234  1.0096
 4318SOL     OW24415   2.261   2.731  12.223 -0.3780  0.0592 -0.2339
 4318SOL    HW124416   2.226   2.660  12.277  3.2637 -0.9652  0.8168
 4318SOL    HW224417   2.350   2.719  12.257  0.6310  1.1529 -2.4972
 4319SOL     OW24418   4.493   0.476   4.232 -0.1471  0.0636 -0.0674
 4319SOL    HW124419   4.531   0.502   4.316 -0.9257 -1.8330  0.8780
 4319SOL    HW224420   4.525   0.551   4.181 -1.5324  0.9005  0.3103
 4320SOL     OW24421   4.704   4.315  13.703  0.5618  0.9935 -0.3644
 4320SOL    HW124422   0.020   4.283  13.784 -0.3088  1.6168  0.3062
 4320SOL    HW224423   4.624   4.263  13.697  0.3848  1.4048 -1.4113
 4321SOL     OW24424   1.120   3.254   3.275 -0.3603 -1.0967 -0.1113
 4321SOL    HW124425   1.115   3.179   3.215  1.3059 -2.3928  1.4040
 4321SOL    HW224426   1.201   3.283   3.234  0.1157  0.0137  1.6111
 4322SOL     OW24427   4.533   3.601   6.685 -0.3480 -0.2005 -0.5748
 4322SOL    HW124428   4.538   3.622   6.592  1.1853 -0.6529 -0.6005
 4322SOL    HW224429   4.569   3.513   6.681 -0.5549 -0.3171  0.1427
 4323SOL     OW24430   0.310   0.665   7.315 -0.4208  0.3208  0.5796
 4323SOL    HW124431   0.323   0.597   7.249  2.2403  2.7687 -1.4337
 4323SOL    HW224432   0.380   0.725   7.287 -0.8061  0.9286  0.9394
 4324SOL     OW24433   1.657   3.767  17.121 -0.1567 -0.5062  0.2338
 4324SOL    HW124434   1.610   3.758  17.205 -2.3244  0.9626 -0.8130
 4324SOL    HW224435   1.723   3.831  17.150 -0.7698  0.0928  0.3180
 4325SOL     OW24436   1.067   0.291   6.760 -0.2350 -0.8587  0.2873
 4325SOL    HW124437   1.093   0.377   6.728  0.1623 -1.1029 -0.0559
 4325SOL    HW224438   1.122   0.228   6.713 -2.4991 -1.9404 -0.8610
 4326SOL     OW24439   2.987   0.921   4.898  0.3610  0.3529  0.2446
 4326SOL    HW124440   2.982   0.959   4.811 -1.0195  0.0775  0.2130
 4326SOL    HW224441   3.081   0.903   4.892 -0.3232 -3.0950  0.0499
 4327SOL     OW24442   4.303   0.523   7.024  0.4192  0.1862 -0.7969
 4327SOL    HW124443   4.296   0.619   7.027  1.4241  0.2160  0.3824
 4327SOL    HW224444   4.322   0.512   6.931 -0.2612  1.6642 -1.1102
 4328SOL     OW24445   2.046   3.072   5.817  0.3523  0.2002 -0.2424
 4328SOL    HW124446   1.972   3.014   5.833  0.0998  0.7824  0.7021
 4328SOL    HW224447   2.109   3.000   5.822 -1.6649 -1.4906  1.1562
 4329SOL     OW24448   3.667   2.963   7.210  0.4413  0.1732 -0.1891
 4329SOL    HW124449   3.683   2.920   7.294  1.1822  0.4016 -0.2108
 4329SOL    HW224450   3.656   3.055   7.234  0.5032 -0.1637  1.1097
 4330SOL     OW24451   2.715   4.380   0.852  0.8223  0.1531  0.5831
 4330SOL    HW124452   2.810   4.388   0.845  0.8550  0.1350  1.0476
 4330SOL    HW224453   2.715   4.324   0.930  1.7182 -0.5123  0.1060
 4331SOL     OW24454   1.488   1.771   0.687 -0.0996 -0.1484 -0.2672
 4331SOL    HW124455   1.522   1.794   0.601  1.0113 -2.0271 -0.3238
 4331SOL    HW224456   1.547   1.702   0.719 -0.6089 -0.1506  0.6810
 4332SOL     OW24457   2.413   1.565  11.329  0.0177 -0.1181  0.0735
 4332SOL    HW124458   2.440   1.473  11.318  1.4114  0.3797 -0.6373
 4332SOL    HW224459   2.480   1.589  11.393 -1.2157  0.5102  1.1327
 4333SOL     OW24460   3.361   2.999   7.660  0.1486  0.2582  0.7523
 4333SOL    HW124461   3.415   3.078   7.661 -0.6382  0.8247 -1.1538
 4333SOL    HW224462   3.416   2.939   7.710  1.5770 -0.6127 -1.8495
 4334SOL     OW24463   2.399   1.693   4.973  0.2276 -0.5181  0.0942
 4334SOL    HW124464   2.478   1.650   5.008 -0.0935 -0.1554  1.2588
 4334SOL    HW224465   2.400   1.682   4.878  1.4734 -1.0970  0.1735
 4335SOL     OW24466   0.053   4.127  14.472 -0.3796 -0.0605  0.2820
 4335SOL    HW124467   0.125   4.173  14.516 -0.2825  1.0716 -1.0713
 4335SOL    HW224468   0.106   4.122  14.392  2.3799  1.1097  2.0266
 4336SOL     OW24469   2.112   0.814   3.342  0.8346 -1.0431  0.0622
 4336SOL    HW124470   2.131   0.749   3.410  1.0092 -0.2097  0.8136
 4336SOL    HW224471   2.024   0.783   3.323 -1.0431  3.2553  1.7217
 4337SOL     OW24472   2.372   2.493   6.001 -0.3521 -0.2902  0.3117
 4337SOL    HW124473   2.360   2.418   5.941  1.0376 -0.9763  0.8878
 4337SOL    HW224474   2.368   2.571   5.946 -2.1945 -2.2641 -2.3571
 4338SOL     OW24475   2.151   2.248   6.351  0.2054  0.2865 -0.2466
 4338SOL    HW124476   2.229   2.289   6.312  1.1782 -0.1004  1.2972
 4338SOL    HW224477   2.152   2.292   6.436 -0.8856 -2.0292  0.9564
 4339SOL     OW24478   2.760   4.216   4.597 -0.0776  0.0088 -0.0554
 4339SOL    HW124479   2.768   4.187   4.506  2.6521  2.3155 -0.5178
 4339SOL    HW224480   2.847   4.206   4.635  0.0152 -2.6594 -0.9093
 4340SOL     OW24481   1.579   2.727   4.178 -0.3029  0.5143  0.1875
 4340SOL    HW124482   1.517   2.657   4.156 -1.8543  1.7786  0.5458
 4340SOL    HW224483   1.656   2.703   4.126  0.1002 -1.4962  1.6959
 4341SOL     OW24484   2.425   4.341  11.321 -0.1216 -0.0221  0.3943
 4341SOL    HW124485   2.388   4.395  11.251  1.9144  2.1507  1.0195
 4341SOL    HW224486   2.517   4.358  11.306 -0.2857 -0.2628 -0.8390
 4342SOL     OW24487   4.228   2.227  14.941 -0.9773  0.4382 -0.3779
 4342SOL    HW124488   4.243   2.185  15.025 -1.0736  0.8499 -0.1513
 4342SOL    HW224489   4.134   2.236  14.955 -1.1836  0.0723 -1.5192
 4343SOL     OW24490   4.451   3.955   9.343  0.0806  0.7874  0.2052
 4343SOL    HW124491   4.524   3.897   9.367 -0.6333 -0.6889 -1.2044
 4343SOL    HW224492   4.390   3.934   9.413  0.3223  0.4312  0.3122
 4344SOL     OW24493   4.580   4.319   9.381 -0.0234  0.2454  0.2237
 4344SOL    HW124494   4.516   4.248   9.379  0.0829  0.0989  2.8811
 4344SOL    HW224495   4.529   4.388   9.422 -0.8919 -0.3068  0.0698
 4345SOL     OW24496   4.600   3.263   8.697  0.0694  0.1248  0.0675
 4345SOL    HW124497   4.684   3.300   8.722  0.4099 -0.6054 -0.0131
 4345SOL    HW224498   4.603   3.269   8.601  3.5371  2.6558  0.3481
 4346SOL     OW24499   3.636   1.268   5.795 -0.3408  0.1718  0.6646
 4346SOL    HW124500   3.659   1.337   5.858 -1.0228 -0.7995  1.9766
 4346SOL    HW224501   3.561   1.230   5.840 -1.3505  2.5966  1.0311
 4347SOL     OW24502   0.033   1.514  13.605 -0.3670 -0.3924 -0.5175
 4347SOL    HW124503   0.010   1.512  13.512 -2.6483 -0.3140  0.0587
 4347SOL    HW224504   4.678   1.483  13.648  1.2375 -2.7454  0.7775
 4348SOL     OW24505   1.730   2.620   8.882 -0.0751  0.5363 -0.3001
 4348SOL    HW124506   1.744   2.549   8.944  1.5938 -0.8107 -2.2271
 4348SOL    HW224507   1.813   2.665   8.895 -0.5028  1.5030 -0.8420
 4349SOL     OW24508   3.575   0.234   4.432 -0.2873  0.3482  0.2830
 4349SOL    HW124509   3.615   0.317   4.408 -0.3457  0.4735  0.6143
 4349SOL    HW224510   3.567   0.259   4.524 -1.0933 -2.7945  1.0735
 4350SOL     OW24511   4.400   2.230   8.139  0.0174 -0.0094 -0.0903
 4350SOL    HW124512   4.424   2.143   8.108 -0.1265 -0.7358  1.8739
 4350SOL    HW224513   4.460   2.287   8.091 -0.9070 -0.1092 -1.3708
 4351SOL     OW24514   4.323   2.037   7.577  0.2619  0.3185  0.6659
 4351SOL    HW124515   4.344   2.054   7.485  0.5067 -2.8342  0.1490
 4351SOL    HW224516   4.412   2.057   7.607  1.1235 -2.3247 -0.1582
 4352SOL     OW24517   1.953   1.777   5.559  0.6064 -0.2437  0.0805
 4352SOL    HW124518   1.978   1.811   5.644 -0.5783  0.6568  0.0671
 4352SOL    HW224519   2.020   1.818   5.503  0.7325  0.1193  0.5017
 4353SOL     OW24520   0.510   3.335   7.261  0.6633 -0.5567 -0.0820
 4353SOL    HW124521   0.577   3.275   7.227  0.4158 -1.3648  0.8493
 4353SOL    HW224522   0.451   3.320   7.187 -0.5299  2.1668  0.3123
 4354SOL     OW24523   0.181   1.815   7.161 -0.1352  0.0416 -0.2377
 4354SOL    HW124524   0.151   1.868   7.235  1.4938 -2.3335  2.1181
 4354SOL    HW224525   0.103   1.763   7.144 -0.6043  0.0872  1.8439
 4355SOL     OW24526   3.800   3.986   4.070  0.3885  0.6246  0.2023
 4355SOL    HW124527   3.721   3.996   4.123  0.7505  0.4813  0.7662
 4355SOL    HW224528   3.772   3.937   3.992 -1.7568  1.0753  0.6855
 4356SOL     OW24529   0.981   0.426   5.536  0.4099  0.4510  0.4739
 4356SOL    HW124530   1.037   0.353   5.562  0.9643  0.3733 -0.9281
 4356SOL    HW224531   0.936   0.446   5.618  0.3641 -0.2491  0.6185
 4357SOL     OW24532   0.582   0.949  14.840  0.2013 -0.0141  0.0199
 4357SOL    HW124533   0.565   0.861  14.874 -0.7892  0.1930  0.0468
 4357SOL    HW224534   0.663   0.971  14.886  1.1869 -2.7511 -0.4097
 4358SOL     OW24535   3.893   1.125   6.675 -0.7073 -0.0932 -0.6058
 4358SOL    HW124536   3.816   1.088   6.631 -1.5410  0.2892  0.5430
 4358SOL    HW224537   3.939   1.153   6.596  0.2185  1.8500  0.6337
 4359SOL     OW24538   1.317   0.573   5.580  0.7000  0.3457  0.1006
 4359SOL    HW124539   1.391   0.619   5.620  0.4831  1.3237 -0.6113
 4359SOL    HW224540   1.362   0.505   5.530 -0.2582  1.7031 -2.6585
 4360SOL     OW24541   1.612   0.293   5.105 -0.4079  0.5334 -0.7307
 4360SOL    HW124542   1.675   0.291   5.034  1.4090 -0.3878  0.9270
 4360SOL    HW224543   1.532   0.274   5.056  1.2144 -2.0819 -2.3188
 4361SOL     OW24544   3.556   1.170   6.420  0.8881 -0.1974  0.0674
 4361SOL    HW124545   3.514   1.128   6.495  0.1001  0.0812 -0.2150
 4361SOL    HW224546   3.540   1.261   6.443 -0.0134 -0.3967  0.2425
 4362SOL     OW24547   1.584   2.165   7.977  0.2185 -0.2463  0.5331
 4362SOL    HW124548   1.521   2.210   8.033 -0.2846  0.3186 -0.4963
 4362SOL    HW224549   1.655   2.138   8.036  0.7625 -0.4169 -0.2010
 4363SOL     OW24550   3.812   0.043   4.716  0.2084 -0.4695 -0.5426
 4363SOL    HW124551   3.824   0.056   4.622  2.1140  1.9311  0.0663
 4363SOL    HW224552   3.832   0.124   4.762  0.6904 -1.1742  0.4742
 4364SOL     OW24553   4.442   2.944   7.522 -0.8854  0.0487  0.4302
 4364SOL    HW124554   4.515   2.967   7.465 -0.3220  1.3047  1.6696
 4364SOL    HW224555   4.420   3.025   7.567 -1.6094 -0.3345  0.7744
 4365SOL     OW24556   0.236   1.865   2.730  0.2836 -0.3984  0.1073
 4365SOL    HW124557   0.310   1.925   2.738  0.5047 -0.8313  1.2813
 4365SOL    HW224558   0.175   1.922   2.684  3.0713  1.9351 -0.6821
 4366SOL     OW24559   0.168   1.956  12.911 -0.1678  0.1624 -0.3454
 4366SOL    HW124560   0.137   2.020  12.847  0.9991  0.4019 -0.6852
 4366SOL    HW224561   0.100   1.951  12.977  1.0165  0.8223  0.9157
 4367SOL     OW24562   1.522   0.306   3.174  0.0428 -0.0364  0.4275
 4367SOL    HW124563   1.506   0.388   3.222 -0.7443 -1.2542  2.2273
 4367SOL    HW224564   1.459   0.240   3.205  0.6450 -1.1902 -0.8322
 4368SOL     OW24565   4.674   1.930  16.330  0.8052 -0.2458  0.0736
 4368SOL    HW124566   0.022   1.880  16.369  2.8915  2.5397 -0.2132
 4368SOL    HW224567   4.663   1.887  16.245  0.6223  0.3460 -0.2009
 4369SOL     OW24568   1.706   2.017  15.876  0.1605  0.3746 -0.1871
 4369SOL    HW124569   1.699   2.055  15.964 -2.0109 -2.3296  0.8059
 4369SOL    HW224570   1.737   2.087  15.819 -0.5385 -0.0773 -1.1101
 4370SOL     OW24571   0.995   2.854   9.212  0.2076 -0.3153  0.4680
 4370SOL    HW124572   0.946   2.933   9.192  0.2810 -0.9512 -2.1840
 4370SOL    HW224573   1.085   2.872   9.184 -0.6210 -1.1921 -2.7141
 4371SOL     OW24574   3.111   4.260   5.016 -0.1430  0.1330  0.4684
 4371SOL    HW124575   3.186   4.206   5.043  0.0618 -0.1890 -0.7273
 4371SOL    HW224576   3.034   4.210   5.043 -0.5835  0.7121  0.2923
 4372SOL     OW24577   4.013   2.704   4.905 -0.0267  0.4889 -0.0248
 4372SOL    HW124578   3.949   2.757   4.952 -2.0086 -1.4864 -0.5159
 4372SOL    HW224579   3.962   2.656   4.839 -2.2602  2.2388  0.4305
 4373SOL     OW24580   3.872   1.830   9.735  0.7665 -0.0211  0.5928
 4373SOL    HW124581   3.886   1.851   9.828 -2.4968  1.5778  0.7093
 4373SOL    HW224582   3.796   1.771   9.736  1.9441 -1.5565 -0.7431
 4374SOL     OW24583   4.664   1.117   5.753 -0.1065  0.0756 -0.2674
 4374SOL    HW124584   4.605   1.054   5.794  1.9032 -0.5073  1.7426
 4374SOL    HW224585   4.622   1.201   5.770  0.8696  0.5811 -0.3218
 4375SOL     OW24586   3.188   1.727   6.170  0.0304 -0.4847 -0.0053
 4375SOL    HW124587   3.102   1.707   6.209 -1.0248  3.0561 -0.5677
 4375SOL    HW224588   3.247   1.716   6.244 -0.3478  1.2761  0.5379
 4376SOL     OW24589   2.563   1.820   3.833 -0.0777 -0.0394  0.2380
 4376SOL    HW124590   2.491   1.838   3.894  0.2870  0.5689  0.4842
 4376SOL    HW224591   2.632   1.880   3.859  0.6549  0.1683 -2.1853
 4377SOL     OW24592   2.879   0.913   1.206  0.3250 -0.1720  0.1024
 4377SOL    HW124593   2.955   0.855   1.203  1.6923  1.6930 -1.1324
 4377SOL    HW224594   2.909   0.969   1.277 -0.0913  1.7455 -1.2339
 4378SOL     OW24595   3.158   1.278   2.310 -0.0696  0.3029  0.0250
 4378SOL    HW124596   3.135   1.361   2.269 -1.0276 -0.1172 -0.2905
 4378SOL    HW224597   3.102   1.213   2.267  0.4652 -0.6676  0.7964
 4379SOL     OW24598   1.773   0.229   3.080  0.2955 -0.0612  0.2982
 4379SOL    HW124599   1.750   0.143   3.114  1.0337  0.9741  3.3856
 4379SOL    HW224600   1.689   0.275   3.090  0.8444  1.3079 -1.3589
 4380SOL     OW24601   1.669   1.921   6.866 -0.1655  0.2122  0.3714
 4380SOL    HW124602   1.722   1.964   6.799  0.0790  1.5603  1.4258
 4380SOL    HW224603   1.680   1.979   6.942  0.1018 -0.4468  0.8445
 4381SOL     OW24604   3.542   2.594   8.591 -0.5643  0.1914 -0.5221
 4381SOL    HW124605   3.599   2.538   8.539 -2.7870 -0.4475 -2.2817
 4381SOL    HW224606   3.590   2.592   8.674  0.0063  1.4102 -0.8307
 4382SOL     OW24607   2.161   2.468  15.559 -0.1245  0.2802  0.8020
 4382SOL    HW124608   2.228   2.432  15.501 -0.1347 -0.6410  1.3621
 4382SOL    HW224609   2.200   2.457  15.646  0.1563 -1.7193  0.4287
 4383SOL     OW24610   4.622   2.433   4.916 -0.3768  0.6626  0.0965
 4383SOL    HW124611   4.654   2.521   4.893 -0.1730  0.5363 -0.1000
 4383SOL    HW224612   4.545   2.426   4.859  0.6134  1.5048 -1.3594
 4384SOL     OW24613   3.497   4.364   8.530 -0.0917 -0.0687 -0.3018
 4384SOL    HW124614   3.548   4.421   8.589  0.4192 -0.4754 -0.3598
 4384SOL    HW224615   3.422   4.422   8.514  0.0162  1.1728  3.5826
 4385SOL     OW24616   1.670   2.827   6.798 -0.0313 -0.1776 -0.5539
 4385SOL    HW124617   1.591   2.784   6.831 -0.1643  0.2539 -0.2995
 4385SOL    HW224618   1.712   2.842   6.883 -0.3190  3.1901 -0.9854
 4386SOL     OW24619   0.330   0.651  16.406  0.1629  0.0306 -0.1218
 4386SOL    HW124620   0.282   0.574  16.436  2.5683 -2.1655 -1.9946
 4386SOL    HW224621   0.417   0.621  16.380 -0.1819 -0.1172 -1.0818
 4387SOL     OW24622   1.504   3.989   0.153  0.4803 -0.5798  0.1071
 4387SOL    HW124623   1.491   3.924   0.222 -0.5931 -0.7678 -0.2719
 4387SOL    HW224624   1.573   4.045   0.189  0.1145 -0.2353  0.2759
 4388SOL     OW24625   4.681   2.244   0.864  0.1336 -0.5254 -0.1344
 4388SOL    HW124626   0.002   2.224   0.946  1.4149 -2.0930 -1.2119
 4388SOL    HW224627   4.588   2.237   0.887  0.2655 -1.5450  0.0474
 4389SOL     OW24628   2.689   1.932   4.692  0.1507 -0.5364  0.2161
 4389SOL    HW124629   2.758   1.966   4.635  0.0295 -0.3751  0.1649
 4389SOL    HW224630   2.613   1.982   4.662 -0.4916 -3.0700 -2.3510
 4390SOL     OW24631   2.243   1.698   0.961 -0.2898 -0.4349 -0.7993
 4390SOL    HW124632   2.176   1.726   1.023  0.9026 -0.6265  0.5823
 4390SOL    HW224633   2.192   1.652   0.895 -0.3315 -1.2003 -0.2280
 4391SOL     OW24634   2.873   3.686   2.078 -0.0771  0.4538 -0.4504
 4391SOL    HW124635   2.838   3.688   2.167 -0.9269  0.7261 -0.7876
 4391SOL    HW224636   2.963   3.714   2.096 -0.3911  0.7295  0.6910
 4392SOL     OW24637   3.776   4.358  15.941  0.1244  0.1598  0.2649
 4392SOL    HW124638   3.715   4.419  15.898  0.3113  1.5724  2.0102
 4392SOL    HW224639   3.831   4.329  15.868 -2.6958 -0.8512 -1.4420
 4393SOL     OW24640   4.160   3.564   7.217 -0.3540  0.0826 -0.0049
 4393SOL    HW124641   4.245   3.608   7.212  0.0593 -0.7981 -0.8152
 4393SOL    HW224642   4.148   3.528   7.129  1.1663  2.1973 -1.0937
 4394SOL     OW24643   4.704   1.124  14.510  0.2045  0.1736  0.7210
 4394SOL    HW124644   0.019   1.200  14.552 -0.8419  0.5324  1.0430
 4394SOL    HW224645   4.614   1.123  14.542 -0.2656 -0.7875 -0.6069
 4395SOL     OW24646   0.134   4.690   6.636  0.3322 -0.1862 -0.0752
 4395SOL    HW124647   0.139   4.652   6.723 -1.6966  0.8344  0.4949
 4395SOL    HW224648   0.198   0.036   6.650 -0.0558  0.6281 -2.2412
 4396SOL     OW24649   4.110   2.074  15.834  0.0121 -0.0664 -0.3717
 4396SOL    HW124650   4.040   2.070  15.769 -0.6448  1.9730  0.2186
 4396SOL    HW224651   4.110   2.167  15.857 -3.0806 -0.0113 -0.5570
 4397SOL     OW24652   1.764   3.074   8.871  0.2547  0.3449 -0.1053
 4397SOL    HW124653   1.786   3.109   8.785  2.8256  1.4350  0.9909
 4397SOL    HW224654   1.686   3.018   8.863 -1.4133  2.9405 -2.0448
 4398SOL     OW24655   4.699   1.718   3.341  0.4096  0.2484 -0.3149
 4398SOL    HW124656   4.651   1.647   3.384  1.6262  0.3547  1.2133
 4398SOL    HW224657   0.053   1.684   3.296  0.1322  0.1767 -0.7372
 4399SOL     OW24658   0.500   3.277   4.614  0.3252 -0.0292  0.9508
 4399SOL    HW124659   0.436   3.341   4.584  1.6799 -0.4951 -2.8293
 4399SOL    HW224660   0.577   3.332   4.626  1.0503 -1.1105  1.2864
 4400SOL     OW24661   4.631   2.996  14.443  0.3563  0.1736  0.0630
 4400SOL    HW124662   4.704   2.997  14.381 -0.7273 -0.5573 -1.2171
 4400SOL    HW224663   4.676   3.013  14.526  0.5748 -1.0163  0.1957
 4401SOL     OW24664   2.647   4.460   5.797  0.1905 -0.7705  0.0017
 4401SOL    HW124665   2.586   4.533   5.805  0.0217 -1.0557  1.4002
 4401SOL    HW224666   2.616   4.411   5.874  0.0823  1.1877  1.2161
 4402SOL     OW24667   3.137   1.499   2.157  0.4018 -0.0383  0.2393
 4402SOL    HW124668   3.222   1.521   2.121  1.6898 -2.4747  1.7618
 4402SOL    HW224669   3.113   1.585   2.190  2.1503  0.4490  0.2285
 4403SOL     OW24670   2.497   2.072  11.708  0.5383 -0.0837  0.2658
 4403SOL    HW124671   2.579   2.024  11.692  0.7361  0.6870 -0.9879
 4403SOL    HW224672   2.497   2.058  11.803 -0.7674  0.4493  0.3421
 4404SOL     OW24673   3.290   3.611   4.792 -0.1225  0.6198  0.9197
 4404SOL    HW124674   3.222   3.666   4.755  0.0751  1.3765  1.6742
 4404SOL    HW224675   3.254   3.523   4.801 -0.3243  0.5351 -0.7978
 4405SOL     OW24676   1.193   1.390  12.505 -0.0742 -0.0346  0.0962
 4405SOL    HW124677   1.283   1.362  12.520  0.1004  0.5997  0.2365
 4405SOL    HW224678   1.203   1.463  12.444  1.7998 -1.6350 -1.4975
 4406SOL     OW24679   3.779   0.389   1.583  0.1446  0.2010  0.2795
 4406SOL    HW124680   3.753   0.477   1.558 -0.2324  0.5230  1.7850
 4406SOL    HW224681   3.839   0.409   1.655  0.1257  1.0443  0.0574
 4407SOL     OW24682   1.934   0.033   1.682 -0.5994 -0.7227 -0.2061
 4407SOL    HW124683   1.910   0.077   1.601  1.9057 -0.1784 -0.6376
 4407SOL    HW224684   1.859   0.052   1.738  0.7082  2.1914  0.5526
 4408SOL     OW24685   3.153   0.425  10.244  0.4280 -0.0634 -0.1541
 4408SOL    HW124686   3.126   0.333  10.243 -1.6322  0.5483 -0.6818
 4408SOL    HW224687   3.180   0.429  10.336 -1.2108  1.6100  0.2378
 4409SOL     OW24688   3.565   3.114   2.135  0.1457  0.2081 -0.5878
 4409SOL    HW124689   3.494   3.154   2.185 -0.8609 -0.0527 -1.7893
 4409SOL    HW224690   3.586   3.188   2.078  1.2104 -0.5871 -1.2063
 4410SOL     OW24691   4.028   1.205   5.923 -0.0070 -0.0280 -0.5122
 4410SOL    HW124692   4.052   1.253   5.844 -1.6669  0.4059 -0.7566
 4410SOL    HW224693   3.995   1.122   5.888 -0.3103 -0.5571  1.0377
 4411SOL     OW24694   1.678   4.026   7.146  0.3166 -0.5195 -0.4784
 4411SOL    HW124695   1.693   4.106   7.096 -1.9553 -1.3503 -2.5339
 4411SOL    HW224696   1.588   3.998   7.125  0.0333  0.8107 -1.0008
 4412SOL     OW24697   1.686   4.509  17.021  0.1080  0.1743 -0.0145
 4412SOL    HW124698   1.780   4.504  17.039  0.2538 -1.4479 -1.2006
 4412SOL    HW224699   1.670   4.596  17.057  1.1620  0.1827  0.4149
 4413SOL     OW24700   4.145   3.921  14.467  0.0544  0.0165 -0.0341
 4413SOL    HW124701   4.235   3.948  14.486  0.0540 -1.1190  1.6209
 4413SOL    HW224702   4.101   3.999  14.502  0.6838  0.5624 -0.4692
 4414SOL     OW24703   0.009   3.591   4.490 -0.1004  0.3351 -0.1786
 4414SOL    HW124704   4.698   3.619   4.574  0.6374  0.3936  0.1124
 4414SOL    HW224705   0.081   3.534   4.520  0.8486  0.8257 -1.4842
 4415SOL     OW24706   3.451   2.934   7.039  0.4533 -0.2697 -0.2051
 4415SOL    HW124707   3.464   2.840   7.030 -0.6156 -0.5692  1.5218
 4415SOL    HW224708   3.526   2.956   7.095  1.1275 -4.0540  0.3690
 4416SOL     OW24709   0.078   1.435   4.862 -0.2141  0.1773  0.4634
 4416SOL    HW124710   0.166   1.454   4.894 -0.2195  1.0636 -0.0421
 4416SOL    HW224711   0.084   1.393   4.776  0.0642  0.7219  0.2210
 4417SOL     OW24712   2.930   2.661   0.165 -0.1311  0.2580 -0.2136
 4417SOL    HW124713   3.010   2.609   0.177  1.2461  2.0557 -1.6372
 4417SOL    HW224714   2.953   2.726   0.232  1.0392 -0.6084  0.2394
 4418SOL     OW24715   1.662   0.317   2.301  0.1547  0.2065  0.4942
 4418SOL    HW124716   1.699   0.396   2.262 -1.0023  0.0655 -0.8803
 4418SOL    HW224717   1.587   0.357   2.346  0.0644 -0.8610  1.3071
 4419SOL     OW24718   0.971   3.263   6.764  0.0574 -0.4610  0.3406
 4419SOL    HW124719   0.903   3.230   6.705  0.1552  0.5839 -0.3706
 4419SOL    HW224720   1.047   3.238   6.713 -0.7642  0.3845 -1.2868
 4420SOL     OW24721   3.537   0.296   2.405 -0.3271 -0.1981 -0.0650
 4420SOL    HW124722   3.539   0.391   2.397 -1.1650 -0.1892 -0.1237
 4420SOL    HW224723   3.541   0.272   2.312  3.1741  2.1626 -0.5232
 4421SOL     OW24724   4.033   3.530   4.384 -0.0953  0.8762 -0.4504
 4421SOL    HW124725   4.000   3.583   4.312 -2.3636 -0.4834 -0.3907
 4421SOL    HW224726   4.127   3.521   4.367 -0.1203  0.8127 -0.5561
 4422SOL     OW24727   3.740   3.417   8.682 -0.3478  0.1174 -0.6458
 4422SOL    HW124728   3.785   3.353   8.627  1.7239  1.2098 -0.2175
 4422SOL    HW224729   3.704   3.363   8.752  1.3775  0.2792  0.3505
 4423SOL     OW24730   3.155   0.316   3.296  0.2167  0.6530  0.6392
 4423SOL    HW124731   3.103   0.375   3.350  0.9998  0.8058  1.2285
 4423SOL    HW224732   3.237   0.324   3.345  0.0560 -1.8485  1.3036
 4424SOL     OW24733   3.141   1.687   2.401  0.4872 -0.4283 -0.1014
 4424SOL    HW124734   3.114   1.616   2.459 -0.4773 -0.0982 -0.1510
 4424SOL    HW224735   3.110   1.760   2.454  4.7020  2.3375 -1.3907
 4425SOL     OW24736   3.057   1.894  10.087  0.6643 -0.1978 -0.4166
 4425SOL    HW124737   2.971   1.894  10.128  1.0968  0.8278  0.5037
 4425SOL    HW224738   3.080   1.984  10.111  0.7683 -0.5861  0.9366
 4426SOL     OW24739   3.549   4.287  13.377 -0.0698 -0.3697  0.1777
 4426SOL    HW124740   3.494   4.210  13.362  0.1759 -0.0292 -2.5180
 4426SOL    HW224741   3.579   4.308  13.288  2.9830 -1.5662  0.9179
 4427SOL     OW24742   0.927   3.920   4.330  0.0817 -0.1200 -0.4193
 4427SOL    HW124743   0.941   3.997   4.385  1.4450  0.6089 -1.7632
 4427SOL    HW224744   1.000   3.936   4.270 -0.8345 -2.4403 -2.1372
 4428SOL     OW24745   4.419   2.168   6.052 -0.1500 -0.2328 -0.0019
 4428SOL    HW124746   4.408   2.208   6.139  1.6298  0.8439 -0.2674
 4428SOL    HW224747   4.354   2.099   6.047 -0.8840  0.3924  0.9444
 4429SOL     OW24748   2.357   2.215   5.436 -0.6054  0.1131  0.2452
 4429SOL    HW124749   2.293   2.171   5.492  0.4480 -0.4949  0.9477
 4429SOL    HW224750   2.332   2.308   5.438  0.1942  0.3070  0.9954
 4430SOL     OW24751   0.090   2.551   2.066  0.1757  0.0362  0.7080
 4430SOL    HW124752   0.045   2.499   2.132  0.6745 -0.5349  0.5931
 4430SOL    HW224753   0.108   2.491   1.994 -2.3297  2.1725 -1.7041
 4431SOL     OW24754   1.416   2.328   9.692 -0.0342  0.0661 -0.2313
 4431SOL    HW124755   1.349   2.271   9.729 -1.4846  0.9630 -1.4737
 4431SOL    HW224756   1.411   2.316   9.598  0.5382 -1.5009 -0.0630
 4432SOL     OW24757   4.529   2.884   7.958  0.8101  0.2315  0.1385
 4432SOL    HW124758   4.537   2.835   7.876  1.5446 -2.8713  2.0836
 4432SOL    HW224759   4.470   2.953   7.926  0.0643  0.2874  1.6182
 4433SOL     OW24760   1.817   4.038  17.133  0.4964  1.0289  0.3192
 4433SOL    HW124761   1.758   4.111  17.115 -0.9935 -0.1208  0.5697
 4433SOL    HW224762   1.881   4.077  17.192  0.9084  0.9920 -0.1080
 4434SOL     OW24763   4.044   3.720   9.749 -0.0308 -0.4252 -0.4883
 4434SOL    HW124764   3.967   3.677   9.710 -0.4542 -0.8916  0.8838
 4434SOL    HW224765   4.074   3.650   9.807  3.0067 -0.5958 -2.2835
 4435SOL     OW24766   0.784   1.039  15.266 -0.0207 -0.1636 -0.5810
 4435SOL    HW124767   0.844   1.049  15.192  0.0506  1.0131 -0.3593
 4435SOL    HW224768   0.824   1.086  15.339  2.0684 -0.2539 -1.6434
 4436SOL     OW24769   0.563   1.786   6.338  0.1348  0.0144  0.2495
 4436SOL    HW124770   0.579   1.698   6.304 -3.3478  0.8400 -3.6021
 4436SOL    HW224771   0.560   1.834   6.255  2.3307 -1.3262 -0.6194
 4437SOL     OW24772   4.698   2.630   7.941 -0.5921  0.7640  0.4406
 4437SOL    HW124773   0.059   2.665   7.967  1.0228  0.1249 -4.1431
 4437SOL    HW224774   4.682   2.683   7.864  0.2639  1.3869  0.6946
 4438SOL     OW24775   3.450   1.410   8.196 -0.2168 -0.5403  0.5310
 4438SOL    HW124776   3.372   1.358   8.178 -1.8131  2.1009 -0.1404
 4438SOL    HW224777   3.406   1.494   8.208 -2.2386 -1.6798  1.1320
 4439SOL     OW24778   0.169   0.976   2.474 -0.4790  0.5949  0.7424
 4439SOL    HW124779   0.146   0.907   2.412  1.6804  0.8114 -0.3129
 4439SOL    HW224780   0.263   0.968   2.459 -0.6869 -0.3419 -0.0717
 4440SOL     OW24781   0.379   3.224   2.299  0.4269 -0.4514 -0.4258
 4440SOL    HW124782   0.409   3.214   2.209 -2.9730 -2.2438 -1.3543
 4440SOL    HW224783   0.334   3.308   2.308 -0.9988 -1.2639  0.1521
 4441SOL     OW24784   1.465   1.227   2.907  0.0123 -0.5624 -0.8104
 4441SOL    HW124785   1.478   1.151   2.964  0.6213  0.6222  0.6275
 4441SOL    HW224786   1.551   1.266   2.895 -0.4810  0.1480 -2.1137
 4442SOL     OW24787   3.537   0.780   2.833  0.4254 -0.1185  0.2023
 4442SOL    HW124788   3.629   0.807   2.836  0.3007  0.4406 -0.8773
 4442SOL    HW224789   3.543   0.703   2.890 -1.4184  0.3576  1.0126
 4443SOL     OW24790   1.069   3.478   8.298 -0.9886 -0.1714  0.0855
 4443SOL    HW124791   0.974   3.488   8.292 -0.8996  1.1847  0.9741
 4443SOL    HW224792   1.095   3.448   8.211  3.5768  0.2729  1.2533
 4444SOL     OW24793   4.153   1.771   8.444  0.0355 -0.2609  0.2756
 4444SOL    HW124794   4.218   1.820   8.393  1.7413 -2.9854 -0.1852
 4444SOL    HW224795   4.172   1.803   8.532  1.6197  1.0640 -0.5431
 4445SOL     OW24796   2.944   4.699   7.333  0.3155  0.0982  0.3821
 4445SOL    HW124797   2.937   4.604   7.318 -0.4438  0.2318 -0.1121
 4445SOL    HW224798   2.966   4.722   7.243  0.7280 -1.8349 -0.0166
 4446SOL     OW24799   3.171   4.106   6.752  0.3961 -0.4152  0.2807
 4446SOL    HW124800   3.194   4.120   6.843 -1.3159  1.0357  0.4910
 4446SOL    HW224801   3.078   4.088   6.768  0.7694 -1.6039  1.0653
 4447SOL     OW24802   0.984   4.195   6.657 -0.0582 -0.3185 -0.7471
 4447SOL    HW124803   0.947   4.246   6.585 -0.8669  1.5216  0.9672
 4447SOL    HW224804   1.073   4.227   6.645 -0.2985 -0.3157 -2.4248
 4448SOL     OW24805   3.092   0.218  17.099 -0.2596  0.0921  0.2989
 4448SOL    HW124806   3.024   0.229  17.166 -1.8069 -1.3233 -1.0423
 4448SOL    HW224807   3.078   0.287  17.034 -1.8426 -0.3826  0.1197
 4449SOL     OW24808   0.373   0.170   2.697 -0.3787 -0.1175 -0.4930
 4449SOL    HW124809   0.364   0.076   2.711  1.5135 -0.5413 -2.0083
 4449SOL    HW224810   0.454   0.167   2.645  2.2762  0.7619  3.5603
 4450SOL     OW24811   0.307   1.830  11.102 -0.6196  0.0642  0.5764
 4450SOL    HW124812   0.365   1.758  11.126 -2.2942 -1.1745  0.8565
 4450SOL    HW224813   0.218   1.795  11.101 -0.7626  0.3714  2.4672
 4451SOL     OW24814   3.683   1.331   1.144  0.0709  0.5237 -0.2259
 4451SOL    HW124815   3.669   1.271   1.071 -2.1908 -2.0712  2.3849
 4451SOL    HW224816   3.617   1.396   1.121 -2.0215 -2.3151 -2.2218
 4452SOL     OW24817   2.438   2.413  16.091 -0.2993  0.6773 -0.2296
 4452SOL    HW124818   2.366   2.471  16.114 -0.4982  0.2475  0.1940
 4452SOL    HW224819   2.419   2.327  16.128 -0.4164  0.0530 -1.7444
 4453SOL     OW24820   1.413   3.383  10.114  0.0919  0.0591  0.1769
 4453SOL    HW124821   1.445   3.388  10.024  1.3591 -2.5387  0.4987
 4453SOL    HW224822   1.326   3.346  10.097  1.9675 -3.6308 -1.1931
 4454SOL     OW24823   4.652   1.371   2.301 -0.3067 -0.3363  0.1359
 4454SOL    HW124824   4.559   1.360   2.317 -0.2505 -0.2816  0.5081
 4454SOL    HW224825   4.695   1.343   2.382  1.2945 -1.0179 -0.9433
 4455SOL     OW24826   0.469   0.741  10.820  0.6550 -1.0002  0.2715
 4455SOL    HW124827   0.537   0.716  10.883  1.8493  0.2500 -0.5518
 4455SOL    HW224828   0.400   0.688  10.861 -0.2125  0.6448  0.9669
 4456SOL     OW24829   1.275   4.113  17.240  0.0078  0.1398  0.0028
 4456SOL    HW124830   1.241   4.086  17.325  1.1653 -2.3625 -0.3186
 4456SOL    HW224831   1.357   4.155  17.267  0.2769  0.4173 -1.2615
 4457SOL     OW24832   3.739   3.397   6.551  0.7926 -0.1840 -0.3170
 4457SOL    HW124833   3.665   3.456   6.544  2.1381  1.5204 -0.2971
 4457SOL    HW224834   3.786   3.432   6.475  2.5071  0.2717  0.9478
 4458SOL     OW24835   2.836   3.508   9.642 -0.0813  0.3207  0.2060
 4458SOL    HW124836   2.853   3.446   9.713 -1.5021  0.7226  0.8886
 4458SOL    HW224837   2.918   3.556   9.639  0.1648 -0.0861  0.4080
 4459SOL     OW24838   4.032   3.446   3.919  0.0063 -0.2635  0.2082
 4459SOL    HW124839   3.971   3.407   3.857  0.2292  3.4423 -2.3258
 4459SOL    HW224840   4.026   3.401   4.004  0.1083  1.0112  0.8939
 4460SOL     OW24841   1.893   3.650   4.050 -0.2454 -0.0144  0.4107
 4460SOL    HW124842   1.956   3.584   4.078 -1.5060 -0.9108  1.1375
 4460SOL    HW224843   1.953   3.716   4.016  0.5978 -0.8687  0.2422
 4461SOL     OW24844   4.463   1.454   4.557  0.1767 -0.5935  0.2413
 4461SOL    HW124845   4.410   1.433   4.634  0.7083 -0.1579  0.7272
 4461SOL    HW224846   4.454   1.549   4.557 -1.0673 -0.7283 -1.0042
 4462SOL     OW24847   1.307   3.227  13.282  0.0776 -0.2429 -0.1128
 4462SOL    HW124848   1.378   3.184  13.234 -0.1429 -1.9127  1.0733
 4462SOL    HW224849   1.270   3.270  13.205  0.4643 -0.4294 -0.4023
 4463SOL     OW24850   3.775   4.368   3.496  0.3576 -0.1578 -0.7824
 4463SOL    HW124851   3.797   4.283   3.534  1.7474  0.4168 -0.2951
 4463SOL    HW224852   3.814   4.438   3.548 -0.3737 -0.6397  0.4025
 4464SOL     OW24853   1.747   2.885   3.490 -0.1334  0.2507 -0.3827
 4464SOL    HW124854   1.732   2.921   3.403  0.0662  0.9237 -0.1439
 4464SOL    HW224855   1.807   2.955   3.517  0.0957  0.2123 -0.8017
 4465SOL     OW24856   2.936   1.004   9.107 -0.3512  0.5156 -0.8664
 4465SOL    HW124857   3.007   0.940   9.113  0.5998  1.7554  0.9479
 4465SOL    HW224858   2.968   1.042   9.025 -0.9877 -1.6705 -2.1335
 4466SOL     OW24859   0.422   4.307  16.076  0.2272  0.0845  0.7253
 4466SOL    HW124860   0.349   4.261  16.117 -1.0532  0.6930 -0.9089
 4466SOL    HW224861   0.394   4.306  15.985  1.3903 -1.4958  0.3841
 4467SOL     OW24862   4.551   2.462  12.387 -0.1191 -0.1718 -0.2527
 4467SOL    HW124863   4.610   2.436  12.316 -0.0406 -0.7369  0.0154
 4467SOL    HW224864   4.465   2.430  12.358 -0.6602 -0.1556  1.3270
 4468SOL     OW24865   3.055   3.238   6.087 -0.1064  0.2626  0.3373
 4468SOL    HW124866   2.981   3.269   6.034 -0.7353 -1.2050  0.3482
 4468SOL    HW224867   3.060   3.306   6.155  0.9075 -0.5589  1.0763
 4469SOL     OW24868   3.974   0.601   6.330 -0.2274  0.3614  0.1535
 4469SOL    HW124869   3.959   0.620   6.422  3.0641 -1.7060  1.1318
 4469SOL    HW224870   4.028   0.522   6.329 -2.2251 -0.9773 -0.0660
 4470SOL     OW24871   0.963   3.103  10.050 -0.0031 -0.0980 -0.2227
 4470SOL    HW124872   0.878   3.133  10.082  1.3501  0.2286  2.9911
 4470SOL    HW224873   1.020   3.180  10.049  2.8203 -2.1951  0.1524
 4471SOL     OW24874   2.839   4.701   6.656 -0.3078 -0.6892 -0.2268
 4471SOL    HW124875   2.835   0.070   6.632 -1.1808 -0.4705  0.7702
 4471SOL    HW224876   2.803   4.704   6.744 -1.6317 -0.5858 -0.7568
 4472SOL     OW24877   3.220   4.358   7.271  0.2647 -0.3280  0.2059
 4472SOL    HW124878   3.248   4.442   7.235 -0.4178 -0.1057  0.1949
 4472SOL    HW224879   3.125   4.363   7.260 -0.0480 -0.2725  2.7794
 4473SOL     OW24880   1.746   2.677   3.957 -0.1800 -0.3712  0.1611
 4473SOL    HW124881   1.791   2.678   3.872 -0.4727  0.5343  0.0159
 4473SOL    HW224882   1.663   2.638   3.929  0.3121  0.2899 -2.1848
 4474SOL     OW24883   3.080   3.866   6.047  0.0181 -0.1204  0.6331
 4474SOL    HW124884   3.062   3.866   6.141 -0.0054 -0.9624  0.6292
 4474SOL    HW224885   2.996   3.856   6.001 -0.6899  1.0191  1.6753
 4475SOL     OW24886   1.158   2.156   4.851  0.5668 -0.2247  0.1834
 4475SOL    HW124887   1.148   2.223   4.919  1.8464 -0.6457  0.7866
 4475SOL    HW224888   1.202   2.203   4.780  3.7462 -2.6230  0.6057
 4476SOL     OW24889   0.674   3.058   8.076 -0.0878 -0.5071 -0.2685
 4476SOL    HW124890   0.594   3.098   8.110 -0.5017 -1.7302  0.2075
 4476SOL    HW224891   0.727   3.054   8.155 -0.4258 -0.4274 -0.0367
 4477SOL     OW24892   1.884   1.331   0.869 -0.1248  0.0997 -0.2187
 4477SOL    HW124893   1.927   1.303   0.949  1.4735 -0.6179 -1.3388
 4477SOL    HW224894   1.859   1.419   0.898  1.8268  0.9238 -1.0433
 4478SOL     OW24895   4.051   3.820   4.816 -0.0662  0.2220 -0.5903
 4478SOL    HW124896   4.012   3.832   4.903  0.9867 -0.4246 -0.0254
 4478SOL    HW224897   4.049   3.724   4.815  3.5020  0.1364 -0.9481
 4479SOL     OW24898   2.666   2.765   4.105 -0.3009 -0.1400 -0.0217
 4479SOL    HW124899   2.685   2.676   4.133  0.1769 -0.3873 -1.1461
 4479SOL    HW224900   2.618   2.811   4.174 -0.6256 -2.0056  0.9852
 4480SOL     OW24901   2.864   2.932   3.982  0.2589  0.2622  0.1266
 4480SOL    HW124902   2.863   3.021   4.017  2.7474  0.9000 -1.3652
 4480SOL    HW224903   2.776   2.900   4.000  0.6047 -0.8912 -0.2427
 4481SOL     OW24904   2.118   0.063   6.131  0.0674 -0.0354  0.3250
 4481SOL    HW124905   2.208   0.041   6.155  0.2742  0.0714 -0.3703
 4481SOL    HW224906   2.113   0.150   6.092 -0.3776 -0.8955 -1.5213
 4482SOL     OW24907   0.553   0.786   7.250  0.1172 -0.4083 -0.0956
 4482SOL    HW124908   0.572   0.693   7.260  2.4696  0.3369  2.2463
 4482SOL    HW224909   0.522   0.801   7.161 -1.0660  0.5167  0.4617
 4483SOL     OW24910   2.436   3.488   7.684  0.6213  0.4269 -0.5554
 4483SOL    HW124911   2.468   3.485   7.774  0.9871  2.4984 -0.6143
 4483SOL    HW224912   2.473   3.406   7.651 -2.2316 -1.6913  1.5522
 4484SOL     OW24913   0.992   0.719  10.711  0.1086  0.7013 -0.5518
 4484SOL    HW124914   0.936   0.641  10.706 -0.5954  1.1421  0.4745
 4484SOL    HW224915   0.950   0.770  10.642 -1.3854  1.9457  1.2992
 4485SOL     OW24916   4.019   0.018   6.116  0.2807  0.4641 -0.1923
 4485SOL    HW124917   3.937   4.716   6.073  0.8308 -1.2323 -0.2289
 4485SOL    HW224918   4.009   0.113   6.112  3.0740  0.8243  1.5313
 4486SOL     OW24919   4.250   1.647   2.297 -0.3435 -0.2025 -0.0378
 4486SOL    HW124920   4.223   1.738   2.304  1.5519  0.3430  0.1864
 4486SOL    HW224921   4.219   1.610   2.380 -0.2480 -2.3547 -0.9508
 4487SOL     OW24922   0.805   0.940   8.728 -0.3243 -0.2561  0.6055
 4487SOL    HW124923   0.899   0.925   8.726 -0.3027 -0.0662 -0.0252
 4487SOL    HW224924   0.764   0.856   8.711  2.1231 -1.4145  0.4831
 4488SOL     OW24925   1.078   0.235   4.013  0.1074 -0.4378 -0.0978
 4488SOL    HW124926   0.995   0.188   4.008  0.1714 -0.5021 -0.5782
 4488SOL    HW224927   1.054   0.317   3.969  0.1913 -0.0574  0.5651
 4489SOL     OW24928   2.959   0.898   2.641  0.4963  0.1221 -0.1752
 4489SOL    HW124929   2.912   0.859   2.567 -1.1771 -0.3155  1.1072
 4489SOL    HW224930   2.980   0.984   2.604  1.7295  0.0723  0.4465
 4490SOL     OW24931   0.030   3.850   3.362  0.2162 -0.1550  0.3715
 4490SOL    HW124932   4.680   3.795   3.336 -2.2440  3.3981 -0.1484
 4490SOL    HW224933   0.101   3.802   3.320  1.1298 -0.4317  2.2346
 4491SOL     OW24934   2.455   3.022   0.486  0.1151  0.9658  0.3673
 4491SOL    HW124935   2.385   3.066   0.438 -0.3764  1.7265  1.8001
 4491SOL    HW224936   2.415   2.969   0.555  0.7039  0.1414  0.0839
 4492SOL     OW24937   0.499   1.173   7.775  0.0840 -0.0331  0.4554
 4492SOL    HW124938   0.461   1.166   7.688  0.0317  1.0046  0.3986
 4492SOL    HW224939   0.514   1.266   7.789 -0.8432  0.1256  0.3882
 4493SOL     OW24940   3.151   3.930   9.869  0.6153  0.0095 -0.1972
 4493SOL    HW124941   3.148   3.961   9.779 -0.5826  0.5977  0.0545
 4493SOL    HW224942   3.066   3.954   9.906 -0.5587 -5.2542  0.5353
 4494SOL     OW24943   2.835   3.460  11.410 -0.2305 -0.0360 -0.6743
 4494SOL    HW124944   2.798   3.372  11.401  0.2994 -0.2837 -0.4278
 4494SOL    HW224945   2.914   3.459  11.356 -0.1259 -1.0263 -0.5157
 4495SOL     OW24946   3.283   0.974   0.294  0.0438  0.4445  0.1938
 4495SOL    HW124947   3.372   0.975   0.260 -0.1902 -0.6886 -0.4606
 4495SOL    HW224948   3.287   0.929   0.378  1.2874  1.6379  0.7605
 4496SOL     OW24949   3.353   1.648   6.918 -0.2581 -0.0726 -0.0497
 4496SOL    HW124950   3.300   1.725   6.895  0.2919  0.3435  0.0884
 4496SOL    HW224951   3.430   1.684   6.961 -0.0569 -0.0824 -0.4031
 4497SOL     OW24952   0.124   4.491   7.454 -0.4977 -0.3910  0.0434
 4497SOL    HW124953   0.117   4.494   7.549 -2.1035  2.3345 -0.1639
 4497SOL    HW224954   0.074   4.416   7.424  2.5306 -2.1618 -0.5870
 4498SOL     OW24955   1.210   1.558  16.237  0.3588  0.5008 -0.0817
 4498SOL    HW124956   1.172   1.472  16.223  1.9991 -0.1465 -0.6434
 4498SOL    HW224957   1.136   1.602  16.278 -0.8595 -0.0911 -1.6614
 4499SOL     OW24958   2.264   2.350   0.061 -0.0396  0.3225  0.0583
 4499SOL    HW124959   2.253   2.283   0.129  0.7843 -0.5428 -0.6492
 4499SOL    HW224960   2.359   2.359   0.066 -0.1309  1.1351  0.2139
 4500SOL     OW24961   2.400   4.708  15.998 -0.6217  0.0529  0.3181
 4500SOL    HW124962   2.306   4.708  16.017 -0.5621 -0.8021  0.6020
 4500SOL    HW224963   2.420   0.076  15.980 -1.5247  0.4497  1.3528
 4501SOL     OW24964   1.023   0.396   6.219 -0.0897 -0.0429 -0.2351
 4501SOL    HW124965   1.049   0.472   6.272 -2.0721 -0.2114  0.9842
 4501SOL    HW224966   1.099   0.390   6.161  1.1751 -1.5481  1.5713
 4502SOL     OW24967   4.510   0.495  17.580 -0.0627  0.0626  0.1634
 4502SOL    HW124968   4.500   0.558  17.651 -2.7838  1.0724 -1.1171
 4502SOL    HW224969   4.593   0.528  17.546  0.4436  0.4043  1.7613
 4503SOL     OW24970   4.300   3.561  10.190  0.2100  0.5554  0.4814
 4503SOL    HW124971   4.299   3.466  10.204  1.9188  0.3376 -0.9176
 4503SOL    HW224972   4.205   3.575  10.192  0.2537  0.8982  0.1696
 4504SOL     OW24973   1.396   0.497   2.080  0.2436  0.1286 -0.0504
 4504SOL    HW124974   1.328   0.502   2.147 -0.1624  1.4366 -0.5462
 4504SOL    HW224975   1.439   0.581   2.094  1.6000 -0.3513 -1.3178
 4505SOL     OW24976   0.496   4.074   5.901 -0.2900  0.8806  0.1242
 4505SOL    HW124977   0.552   4.003   5.868 -2.0077 -0.5911  0.4219
 4505SOL    HW224978   0.525   4.150   5.850  0.2755 -0.5517 -1.7007
 4506SOL     OW24979   0.566   1.848   7.101 -0.2652 -0.2705  0.0549
 4506SOL    HW124980   0.590   1.898   7.023 -2.7127  0.9812  0.0832
 4506SOL    HW224981   0.537   1.919   7.160  1.4319  0.9597 -0.5924
 4507SOL     OW24982   0.634   0.846  10.643  0.1264 -0.0149 -0.3107
 4507SOL    HW124983   0.572   0.791  10.692 -1.2870 -0.1092 -2.2131
 4507SOL    HW224984   0.707   0.785  10.631 -0.1838  0.0953 -2.6285
 4508SOL     OW24985   1.555   1.553   0.203 -0.3583  0.2461 -0.4706
 4508SOL    HW124986   1.522   1.531   0.116 -0.1712 -1.1687 -0.1869
 4508SOL    HW224987   1.503   1.494   0.258 -0.8514  0.9895 -0.1338
 4509SOL     OW24988   1.360   0.760   7.736 -0.8704  0.1826 -0.1939
 4509SOL    HW124989   1.287   0.801   7.689 -1.6939  0.0730  0.9707
 4509SOL    HW224990   1.441   0.793   7.697 -0.6871 -0.1546 -0.0939
 4510SOL     OW24991   0.859   0.758   1.560 -0.3272  0.5948 -0.0752
 4510SOL    HW124992   0.893   0.670   1.545  0.3284  0.9851 -0.9201
 4510SOL    HW224993   0.782   0.750   1.504 -0.5496  1.9720  0.0268
 4511SOL     OW24994   4.028   3.648   6.674  0.3582 -0.3173  0.8167
 4511SOL    HW124995   3.979   3.667   6.593  0.0685  2.3944  1.6470
 4511SOL    HW224996   3.969   3.581   6.709  0.6556 -1.2110 -0.3787
 4512SOL     OW24997   1.882   3.149  11.944  0.3198  0.3087  0.1474
 4512SOL    HW124998   1.902   3.075  12.002  0.0434 -0.2387 -0.4566
 4512SOL    HW224999   1.961   3.194  11.972  0.8952 -0.5399 -0.0976
 4513SOL     OW25000   0.639   2.770   3.215 -0.4090 -0.3642 -0.1853
 4513SOL    HW125001   0.554   2.730   3.196  0.6328 -1.5855 -2.2703
 4513SOL    HW225002   0.685   2.696   3.253 -1.4794 -1.4280 -0.9475
 4514SOL     OW25003   0.703   2.161  13.470 -0.2100 -0.2590 -0.1605
 4514SOL    HW125004   0.693   2.256  13.469  0.3432 -0.1869  0.9527
 4514SOL    HW225005   0.777   2.151  13.409 -0.3147  2.0289 -0.6677
 4515SOL     OW25006   4.258   2.918  16.069 -0.0017 -0.1478 -0.1118
 4515SOL    HW125007   4.270   2.989  16.131  0.2945 -1.5123  1.3878
 4515SOL    HW225008   4.206   2.950  15.995  0.5471  1.1512  0.0774
 4516SOL     OW25009   4.306   3.627   4.037 -1.1073 -0.3130  0.0440
 4516SOL    HW125010   4.385   3.618   3.983 -0.1926  2.9773  0.8373
 4516SOL    HW225011   4.336   3.581   4.115  0.9474  3.3370  1.3842
 4517SOL     OW25012   2.180   2.899  17.559  0.0689 -0.2666  0.5811
 4517SOL    HW125013   2.123   2.937  17.626 -0.7216 -0.2878 -0.0771
 4517SOL    HW225014   2.243   2.970  17.547  1.8000 -1.8376  0.3022
 4518SOL     OW25015   1.955   1.723   2.734  0.0561 -0.2649 -0.5148
 4518SOL    HW125016   1.920   1.811   2.728 -0.2764 -0.3434  0.2953
 4518SOL    HW225017   2.049   1.733   2.752 -0.4085  1.8651  0.7000
 4519SOL     OW25018   0.977   3.677   7.063 -0.1429 -0.5026 -0.0840
 4519SOL    HW125019   0.993   3.618   7.136 -0.5879  0.5656  0.8761
 4519SOL    HW225020   0.940   3.620   6.995 -2.9348  1.2362 -0.0498
 4520SOL     OW25021   1.592   2.819   6.535 -0.4216  0.1454 -0.4992
 4520SOL    HW125022   1.518   2.810   6.595 -1.3044  0.7394 -1.4956
 4520SOL    HW225023   1.665   2.850   6.589  0.8173  0.6012 -2.4125
 4521SOL     OW25024   4.436   3.405  15.072  0.0094 -0.4233 -0.0155
 4521SOL    HW125025   4.347   3.417  15.040  1.1766  0.4229 -2.8858
 4521SOL    HW225026   4.437   3.464  15.147  1.1803  1.6582 -1.6933
 4522SOL     OW25027   3.597   3.713   8.428  0.1497 -0.7747 -0.4894
 4522SOL    HW125028   3.653   3.773   8.379 -0.0596 -2.0044 -2.2627
 4522SOL    HW225029   3.666   3.663   8.472 -1.2569 -0.5780  1.9271
 4523SOL     OW25030   0.490   0.607   9.158  0.1564  0.4770 -1.2055
 4523SOL    HW125031   0.567   0.608   9.214 -1.2046  0.3937  0.6635
 4523SOL    HW225032   0.500   0.687   9.107 -0.5720  1.7819  0.7058
 4524SOL     OW25033   0.561   3.407  10.905 -0.3067 -0.1692  0.2696
 4524SOL    HW125034   0.642   3.418  10.955 -0.6225 -0.9666  0.9575
 4524SOL    HW225035   0.502   3.468  10.948 -1.3888 -1.5120  0.6803
 4525SOL     OW25036   3.828   3.883   7.722 -0.3196  0.7363 -0.5673
 4525SOL    HW125037   3.866   3.908   7.806 -2.2331 -0.2231  0.6112
 4525SOL    HW225038   3.881   3.932   7.659  1.6970  0.0806  0.6201
 4526SOL     OW25039   0.771   3.422   0.180  0.1458  0.2403  0.1808
 4526SOL    HW125040   0.755   3.373   0.260 -1.8086 -0.9252 -0.9319
 4526SOL    HW225041   0.716   3.497   0.202  1.2723  0.6581  1.5576
 4527SOL     OW25042   4.568   3.443   0.956  0.4429 -0.1466  0.3678
 4527SOL    HW125043   4.480   3.477   0.943  0.9068  0.5808 -0.9409
 4527SOL    HW225044   4.549   3.351   0.974 -1.7307  0.5136  1.3567
 4528SOL     OW25045   1.810   0.331   7.875  0.0529 -0.0488 -0.2282
 4528SOL    HW125046   1.812   0.255   7.933 -0.2018  1.7865  2.2217
 4528SOL    HW225047   1.887   0.373   7.914 -0.9203 -0.3456  1.9998
 4529SOL     OW25048   4.385   1.706  15.288 -0.4382 -0.4075 -0.0298
 4529SOL    HW125049   4.343   1.789  15.312 -2.5032 -1.7796  1.1124
 4529SOL    HW225050   4.310   1.652  15.262 -0.2598 -1.9955  2.8102
 4530SOL     OW25051   2.303   1.434   5.315  0.1822 -0.1249 -0.0138
 4530SOL    HW125052   2.287   1.464   5.225  0.2457 -1.2936 -0.4152
 4530SOL    HW225053   2.383   1.381   5.312  0.5291  0.2585  2.7504
 4531SOL     OW25054   4.200   0.903   1.290 -0.2721  0.0570 -0.4817
 4531SOL    HW125055   4.216   0.822   1.337  0.0642  0.9988  1.0426
 4531SOL    HW225056   4.286   0.947   1.288 -0.2636  0.0348 -0.6331
 4532SOL     OW25057   1.258   1.610  17.103  0.2615  0.0433 -0.8059
 4532SOL    HW125058   1.350   1.588  17.118  0.2438 -0.1532 -0.9882
 4532SOL    HW225059   1.249   1.673  17.174 -0.3466 -2.5184  1.3410
 4533SOL     OW25060   2.250   4.394  17.335 -0.4725  0.4228  0.2685
 4533SOL    HW125061   2.279   4.353  17.416 -0.6420  0.6123  0.4260
 4533SOL    HW225062   2.336   4.376  17.295 -0.0813  0.6638  1.0012
 4534SOL     OW25063   2.517   4.581   1.725  0.7510 -0.1777 -0.6039
 4534SOL    HW125064   2.514   4.509   1.662 -1.7560  0.6646 -1.4940
 4534SOL    HW225065   2.443   4.557   1.781 -1.3905  4.8860 -1.2043
 4535SOL     OW25066   4.419   1.845  15.971  0.6583  0.0972  0.6207
 4535SOL    HW125067   4.449   1.867  15.883  0.4369 -2.6888 -0.1683
 4535SOL    HW225068   4.396   1.754  15.952 -0.4309  0.1670  1.5921
 4536SOL     OW25069   4.446   1.488   5.681  0.2080  0.0294 -0.2909
 4536SOL    HW125070   4.508   1.557   5.656 -0.6106  0.8447 -0.0782
 4536SOL    HW225071   4.478   1.453   5.764  0.1128 -2.7292 -1.4130
 4537SOL     OW25072   4.006   3.909   1.721 -0.0834 -0.1946 -1.2380
 4537SOL    HW125073   3.970   3.822   1.701  2.3969 -0.9421 -2.5026
 4537SOL    HW225074   4.014   3.902   1.816  0.0098  1.6337 -1.1119
 4538SOL     OW25075   0.193   1.146  13.757 -0.1645  0.2402 -0.2778
 4538SOL    HW125076   0.235   1.123  13.840 -4.0476 -0.7387  1.3914
 4538SOL    HW225077   0.102   1.120  13.766 -0.6789  1.8373 -0.9207
 4539SOL     OW25078   3.823   2.716   6.135 -0.3456  0.0042 -1.1952
 4539SOL    HW125079   3.882   2.765   6.192 -0.2904  0.8770 -1.9846
 4539SOL    HW225080   3.867   2.632   6.145  1.6563  1.0208 -1.3572
 4540SOL     OW25081   2.860   4.059   6.397  0.0490  0.9246 -0.5638
 4540SOL    HW125082   2.792   4.125   6.410 -1.7657 -1.1978  0.6865
 4540SOL    HW225083   2.841   4.032   6.307 -0.9346  0.7224 -0.2896
 4541SOL     OW25084   0.433   1.097   6.910 -0.7381  0.4001  0.5334
 4541SOL    HW125085   0.381   1.034   6.959 -0.2355 -0.1995  0.2907
 4541SOL    HW225086   0.434   1.167   6.976  0.3083 -0.5345  1.5077
 4542SOL     OW25087   1.631   2.101   9.158  0.1208  0.3273  0.4700
 4542SOL    HW125088   1.689   2.072   9.228 -0.6603  0.8433  1.3326
 4542SOL    HW225089   1.617   2.191   9.190 -0.1724 -0.0143  1.2986
 4543SOL     OW25090   1.891   1.413   5.467  0.1876 -0.2945  0.0920
 4543SOL    HW125091   1.911   1.479   5.401  1.9335  1.3946  2.3091
 4543SOL    HW225092   1.978   1.406   5.506 -0.1218  2.0409  1.2209
 4544SOL     OW25093   3.947   3.154  15.732 -0.4543 -0.0049 -0.5274
 4544SOL    HW125094   3.884   3.174  15.801 -1.3320 -1.5576 -0.8847
 4544SOL    HW225095   3.882   3.111  15.676 -0.4921  0.4139 -0.8002
 4545SOL     OW25096   1.213   2.768   5.881  0.3461 -0.4547 -0.4794
 4545SOL    HW125097   1.212   2.772   5.977 -1.8476  1.2463 -0.5646
 4545SOL    HW225098   1.134   2.715   5.874 -0.7480  0.9747  0.7874
 4546SOL     OW25099   0.311   3.808  11.823  0.1274 -0.0398 -0.0630
 4546SOL    HW125100   0.392   3.852  11.847  0.3826  0.2080 -1.3350
 4546SOL    HW225101   0.266   3.888  11.795  1.0657  0.6618  0.4137
 4547SOL     OW25102   4.262   4.102   4.395 -0.2076 -0.3528  0.1101
 4547SOL    HW125103   4.350   4.136   4.378  0.7886 -2.4051  1.1594
 4547SOL    HW225104   4.282   4.064   4.480 -0.1014  1.3544  0.8546
 4548SOL     OW25105   0.928   4.337   2.420  0.5010 -0.2350  0.7680
 4548SOL    HW125106   1.019   4.307   2.429  0.1745 -0.7892  2.3579
 4548SOL    HW225107   0.874   4.289   2.483  1.1529 -1.9644  0.0093
 4549SOL     OW25108   4.114   3.481   5.612  0.2499  0.5335 -0.3663
 4549SOL    HW125109   4.166   3.545   5.660 -1.2231  0.5472  1.1926
 4549SOL    HW225110   4.174   3.409   5.629 -2.6225 -1.6139  0.6636
 4550SOL     OW25111   1.171   2.222   6.696 -0.4044  0.4926 -0.3710
 4550SOL    HW125112   1.243   2.280   6.719  0.5970 -1.3646  1.2000
 4550SOL    HW225113   1.190   2.151   6.757  2.9947  2.2309  0.5824
 4551SOL     OW25114   3.684   2.494   4.101 -0.1028  0.6125  0.4994
 4551SOL    HW125115   3.754   2.430   4.111 -1.6459 -1.1773  0.0082
 4551SOL    HW225116   3.664   2.481   4.008 -1.4792 -1.4221  1.0688
 4552SOL     OW25117   3.469   0.709   5.503 -0.2947  0.3414 -0.6168
 4552SOL    HW125118   3.556   0.692   5.467 -0.7223  0.3424 -1.6422
 4552SOL    HW225119   3.458   0.638   5.567  2.3948  0.7955  0.3282
 4553SOL     OW25120   3.917   4.666  17.449 -0.4850  0.2356  0.5012
 4553SOL    HW125121   3.925   0.031  17.486 -2.2042  0.3647  0.5493
 4553SOL    HW225122   3.846   4.669  17.385 -1.3077  0.7234  1.4216
 4554SOL     OW25123   0.021   0.732   3.727  0.0817  0.6590  0.3362
 4554SOL    HW125124   0.018   0.788   3.649 -1.9731 -0.0386 -0.0981
 4554SOL    HW225125   0.084   0.663   3.708 -0.8399  0.2172 -1.1852
 4555SOL     OW25126   3.955   1.815   5.807  0.2127 -0.2388  0.5710
 4555SOL    HW125127   3.869   1.785   5.777 -0.0149  2.8791 -1.9097
 4555SOL    HW225128   3.975   1.864   5.727  3.1513 -1.6963  0.4213
 4556SOL     OW25129   0.705   0.504  16.731 -0.1036  0.0046  0.1162
 4556SOL    HW125130   0.773   0.564  16.760  0.4703  0.0260 -1.2771
 4556SOL    HW225131   0.677   0.449  16.804  3.1416 -1.1618  0.4497
 4557SOL     OW25132   1.780   0.807  16.672  0.5838 -0.4144 -0.0455
 4557SOL    HW125133   1.851   0.742  16.678  0.4748 -0.4461  1.0323
 4557SOL    HW225134   1.724   0.773  16.742  0.2290 -0.7218 -0.4789
 4558SOL     OW25135   4.083   1.281   5.642 -0.1260  0.8534  0.1066
 4558SOL    HW125136   4.137   1.326   5.577 -1.4282  2.8113  0.3573
 4558SOL    HW225137   4.000   1.281   5.593 -0.0351  1.2546 -0.0469
 4559SOL     OW25138   0.018   1.030   3.366 -0.0863 -0.5662 -0.2295
 4559SOL    HW125139   0.052   1.082   3.439  0.1801 -2.6913  1.1797
 4559SOL    HW225140   0.075   1.050   3.292 -0.3490 -3.6515 -1.2717
 4560SOL     OW25141   3.303   2.901   6.659 -0.1570 -0.0149  0.0016
 4560SOL    HW125142   3.236   2.963   6.628  0.3339  0.3792 -0.2639
 4560SOL    HW225143   3.289   2.816   6.619 -2.0951  0.6102 -0.6604
 4561SOL     OW25144   0.002   2.069   5.125 -0.0673 -0.1956  0.1214
 4561SOL    HW125145   4.710   2.163   5.115  1.6395  0.3239  2.3415
 4561SOL    HW225146   4.695   2.041   5.039 -1.2142 -1.3855  0.9275
 4562SOL     OW25147   2.464   4.539  15.205  0.0855  0.0477  0.1997
 4562SOL    HW125148   2.490   4.461  15.157  1.7905  0.4066  0.5413
 4562SOL    HW225149   2.547   4.581  15.228 -0.5696  1.4085  0.0978
 4563SOL     OW25150   3.504   3.466   2.192  0.2697  0.3779 -0.4244
 4563SOL    HW125151   3.499   3.465   2.097 -1.1791 -2.9170 -0.3212
 4563SOL    HW225152   3.472   3.376   2.204  3.0885 -0.4042  1.2379
 4564SOL     OW25153   0.983   2.620   5.856 -0.3593  0.6696  0.2882
 4564SOL    HW125154   0.973   2.627   5.761 -1.9308  1.8290  0.5311
 4564SOL    HW225155   0.926   2.551   5.890  2.0535 -1.3123  0.3214
 4565SOL     OW25156   1.600   0.834   5.822 -0.2086  0.1360 -0.7430
 4565SOL    HW125157   1.522   0.799   5.865  1.4309 -0.6678  1.5886
 4565SOL    HW225158   1.574   0.926   5.832 -0.0078  0.1559 -0.3671
 4566SOL     OW25159   2.234   2.963   6.827 -0.0923  0.4565 -0.0781
 4566SOL    HW125160   2.211   2.986   6.736 -2.8950 -2.6723 -0.1671
 4566SOL    HW225161   2.308   3.020   6.847 -0.0654  0.1818  0.5847
 4567SOL     OW25162   1.973   1.893   6.682 -0.0349  0.2640  0.0527
 4567SOL    HW125163   1.898   1.952   6.680 -1.0276 -0.9432  1.8711
 4567SOL    HW225164   2.035   1.934   6.621  1.3078  0.8508  1.8029
 4568SOL     OW25165   3.554   0.073  10.483 -0.5193  0.3126 -0.0483
 4568SOL    HW125166   3.603   0.024  10.549 -0.7418 -0.7873 -0.6969
 4568SOL    HW225167   3.534   4.722  10.427  0.9082 -0.5037  0.5250
 4569SOL     OW25168   2.460   4.661   0.701  0.2264 -0.7069 -0.2883
 4569SOL    HW125169   2.522   4.720   0.745  1.5695 -2.4792  0.1754
 4569SOL    HW225170   2.397   4.720   0.661  0.7651 -0.2457 -0.4655
 4570SOL     OW25171   1.726   3.167   7.694  0.1843  0.7619 -0.3279
 4570SOL    HW125172   1.809   3.170   7.742 -0.1484  0.4261  0.2619
 4570SOL    HW225173   1.682   3.115   7.761 -1.1906 -1.6939 -3.1095
 4571SOL     OW25174   4.637   3.447   5.628 -0.0159  0.2132 -0.3639
 4571SOL    HW125175   4.594   3.440   5.542  1.1709  1.7073 -1.0827
 4571SOL    HW225176   4.624   3.539   5.652  1.2696 -0.1203  1.5945
 4572SOL     OW25177   1.088   2.421   3.546  0.0444 -0.1186 -0.0696
 4572SOL    HW125178   1.158   2.389   3.603  1.7615  0.0774 -2.0382
 4572SOL    HW225179   1.134   2.499   3.515 -1.3544  0.5790 -0.3613
 4573SOL     OW25180   0.805   3.536   9.243  0.3119 -0.0080 -0.8498
 4573SOL    HW125181   0.845   3.595   9.308 -3.0215 -0.8641  1.9988
 4573SOL    HW225182   0.734   3.594   9.216  1.6735  2.1830  0.2410
 4574SOL     OW25183   1.026   0.114   5.381  0.2472 -0.0958  0.3589
 4574SOL    HW125184   0.947   0.167   5.372 -0.8489 -1.9858 -1.1455
 4574SOL    HW225185   1.058   0.141   5.467 -1.0920 -1.1463  1.1915
 4575SOL     OW25186   1.573   1.853   7.186  0.0178  0.1142 -0.1871
 4575SOL    HW125187   1.642   1.917   7.169 -0.8551  1.4488  1.3344
 4575SOL    HW225188   1.605   1.769   7.153 -0.6032 -0.2328  0.0927
 4576SOL     OW25189   0.181   2.325   6.641  0.2054 -0.4199 -0.0426
 4576SOL    HW125190   0.195   2.349   6.549 -2.4261  0.8159 -0.1277
 4576SOL    HW225191   0.270   2.333   6.674 -0.7313 -1.6631  2.7144
 4577SOL     OW25192   0.464   1.687   3.526  0.1092  0.0531 -0.0455
 4577SOL    HW125193   0.373   1.686   3.554 -0.1756 -1.4164 -1.0161
 4577SOL    HW225194   0.447   1.675   3.433  1.5543  0.6017 -0.3749
 4578SOL     OW25195   0.331   2.933  10.232 -0.2262  0.6215  0.0642
 4578SOL    HW125196   0.399   2.865  10.229 -0.8266  0.0565 -0.9047
 4578SOL    HW225197   0.254   2.876  10.225 -0.9318  1.2625  2.5525
 4579SOL     OW25198   1.162   1.557   7.758 -0.2130 -0.7316 -0.0627
 4579SOL    HW125199   1.130   1.559   7.668 -0.4483 -0.9716  0.0145
 4579SOL    HW225200   1.182   1.463   7.765 -0.7134 -0.8181  0.1914
 4580SOL     OW25201   2.313   2.049   5.206 -0.0305 -0.4132 -0.1113
 4580SOL    HW125202   2.368   1.996   5.265  0.0225  0.7668  0.9083
 4580SOL    HW225203   2.335   2.128   5.255  0.6769 -2.0939  2.3111
 4581SOL     OW25204   3.233   3.468   9.748 -0.5195 -0.0993 -0.2925
 4581SOL    HW125205   3.199   3.529   9.813  3.0287 -1.0181  2.4286
 4581SOL    HW225206   3.219   3.511   9.663  0.1393  1.0170  0.1673
 4582SOL     OW25207   0.081   0.978  12.908 -0.2834 -0.0554  0.3168
 4582SOL    HW125208   4.717   0.979  12.872  0.6510  1.8801 -1.9323
 4582SOL    HW225209   0.128   1.043  12.857  0.4874  0.7812  2.0710
 4583SOL     OW25210   3.604   1.850   6.654 -0.3750 -0.0917 -0.0657
 4583SOL    HW125211   3.680   1.908   6.663  0.6469 -1.3950 -0.2993
 4583SOL    HW225212   3.525   1.901   6.670 -0.5211 -0.4141  0.2298
 4584SOL     OW25213   0.791   0.254  10.850  0.3787  0.4153 -0.0740
 4584SOL    HW125214   0.732   0.278  10.779  0.8261  1.8445  0.0338
 4584SOL    HW225215   0.783   0.334  10.901  1.1567  0.9167 -0.7461
 4585SOL     OW25216   4.013   2.168  11.620  0.1274 -0.3982  0.3938
 4585SOL    HW125217   3.956   2.245  11.623  0.6110 -0.0445  0.3775
 4585SOL    HW225218   3.950   2.101  11.593  2.3141 -1.8425 -1.0968
 4586SOL     OW25219   2.831   0.928   3.058 -0.1161 -0.1005  0.6507
 4586SOL    HW125220   2.738   0.905   3.069  0.4224 -2.5631  0.0284
 4586SOL    HW225221   2.873   0.845   3.082 -2.4401 -1.3749  0.3816
 4587SOL     OW25222   1.239   2.694   1.333  0.4719  0.4293 -0.4967
 4587SOL    HW125223   1.238   2.633   1.407  0.0777 -1.2605 -1.8733
 4587SOL    HW225224   1.303   2.760   1.359 -2.3607  2.5449  1.1188
 4588SOL     OW25225   1.583   3.029  11.891  0.4848 -0.2066  0.3307
 4588SOL    HW125226   1.620   3.018  11.804 -1.2466  3.5388 -0.8801
 4588SOL    HW225227   1.655   3.068  11.942 -0.3802  0.8975  0.7218
 4589SOL     OW25228   3.345   4.157   8.343 -0.0667 -0.4816  0.1596
 4589SOL    HW125229   3.293   4.221   8.295 -0.8870 -1.2633 -0.0095
 4589SOL    HW225230   3.389   4.204   8.414 -2.7391 -0.7409  1.9546
 4590SOL     OW25231   4.244   1.623   7.284 -0.9421  0.3153 -0.6994
 4590SOL    HW125232   4.318   1.595   7.338  0.8109  1.8017 -2.2837
 4590SOL    HW225233   4.237   1.546   7.228  3.0470  0.5466 -1.5128
 4591SOL     OW25234   2.762   1.826   4.950  0.4357  0.1350  0.1090
 4591SOL    HW125235   2.745   1.855   4.860 -0.7512 -1.3674 -0.1519
 4591SOL    HW225236   2.736   1.901   5.003 -0.8884 -0.0402 -0.3078
 4592SOL     OW25237   0.574   3.836  17.492  0.1060  0.2505 -0.2384
 4592SOL    HW125238   0.516   3.800  17.426 -2.1089  0.0042  1.8413
 4592SOL    HW225239   0.626   3.903  17.447 -0.5122  1.1672  0.4235
 4593SOL     OW25240   4.588   4.228   9.095  0.2384 -0.0307 -0.3092
 4593SOL    HW125241   4.575   4.287   9.169  1.5569 -1.1105  0.7691
 4593SOL    HW225242   4.682   4.211   9.097  0.0136 -0.8922  2.8123
 4594SOL     OW25243   0.195   3.682   7.191 -0.2259  0.2564  0.6100
 4594SOL    HW125244   0.255   3.711   7.122 -0.5063 -1.2452 -0.2695
 4594SOL    HW225245   0.178   3.768   7.228  2.4225  1.2616 -0.4784
 4595SOL     OW25246   0.166   4.178   5.330  0.0466 -0.3155  0.4028
 4595SOL    HW125247   0.096   4.235   5.363 -1.3578 -0.8488 -1.6909
 4595SOL    HW225248   0.134   4.159   5.242  2.0566 -0.5868 -0.2696
 4596SOL     OW25249   0.042   2.225  17.534 -0.0258 -0.2500  0.0606
 4596SOL    HW125250   4.702   2.246  17.603 -0.5769 -2.2894  0.1658
 4596SOL    HW225251   0.121   2.274  17.558  0.6253 -0.0868 -2.4370
 4597SOL     OW25252   2.983   0.728  10.428  0.0384 -0.8458  0.0369
 4597SOL    HW125253   2.996   0.639  10.459 -0.5534 -1.2462 -0.8858
 4597SOL    HW225254   3.065   0.773  10.449 -0.7887  0.5600  0.2509
 4598SOL     OW25255   2.473   0.837  12.296  0.1866 -0.0450 -0.3038
 4598SOL    HW125256   2.396   0.793  12.333  0.6986 -0.8869 -0.2269
 4598SOL    HW225257   2.508   0.865  12.381  0.5693 -1.4081 -0.0126
 4599SOL     OW25258   0.960   3.441   9.046  0.0078  0.1890 -0.4919
 4599SOL    HW125259   0.904   3.474   9.116 -0.4761 -0.5401 -0.5455
 4599SOL    HW225260   0.981   3.350   9.065 -1.6582 -0.1836 -0.4974
 4600SOL     OW25261   1.920   2.936  15.166 -0.0620 -0.1348  0.0653
 4600SOL    HW125262   1.935   2.883  15.088 -1.6257 -1.6199  0.7549
 4600SOL    HW225263   1.934   3.025  15.134  1.3694 -0.3791  0.0292
 4601SOL     OW25264   3.793   3.076  11.541 -0.5219  0.2112  0.1182
 4601SOL    HW125265   3.834   3.099  11.624 -1.7055  1.9812  0.2046
 4601SOL    HW225266   3.859   3.012  11.514  0.6675  0.7912  1.6691
 4602SOL     OW25267   2.755   3.806   4.680  0.0439  0.2113 -0.1480
 4602SOL    HW125268   2.829   3.865   4.696 -0.7153  0.7289  1.4127
 4602SOL    HW225269   2.742   3.756   4.760  0.2575  0.5486  0.1011
 4603SOL     OW25270   2.911   3.214   9.240 -0.3352  0.1108  0.0600
 4603SOL    HW125271   2.877   3.234   9.328  0.9958 -0.4806  0.7218
 4603SOL    HW225272   2.937   3.122   9.243  2.2607  0.7857 -2.4941
 4604SOL     OW25273   1.603   2.417   4.596 -0.1158 -0.2019 -0.0259
 4604SOL    HW125274   1.650   2.338   4.620 -2.6257 -1.4918  0.6952
 4604SOL    HW225275   1.591   2.462   4.679 -1.2868 -0.6463  0.0529
 4605SOL     OW25276   0.820   1.617   6.139 -0.1155  0.3898 -0.3022
 4605SOL    HW125277   0.731   1.586   6.123 -0.0728 -0.5762  1.3707
 4605SOL    HW225278   0.831   1.573   6.223 -0.8514  2.0838  0.6883
 4606SOL     OW25279   2.035   3.419   8.412  0.1650  0.3921  0.7945
 4606SOL    HW125280   2.074   3.370   8.340 -0.5913  0.4533  0.3399
 4606SOL    HW225281   2.104   3.483   8.429 -1.0788  2.0007 -0.2544
 4607SOL     OW25282   3.809   3.607  14.151 -0.7992  0.0839  0.4298
 4607SOL    HW125283   3.719   3.601  14.183 -0.6962  0.3359  0.7700
 4607SOL    HW225284   3.803   3.683  14.093 -1.4569  0.2835  0.7555
 4608SOL     OW25285   3.205   2.565  17.634 -0.1752  0.7083 -0.1488
 4608SOL    HW125286   3.293   2.535  17.657 -0.0337  1.6320  0.5285
 4608SOL    HW225287   3.205   2.660  17.618  1.0131  0.9353  1.1438
 4609SOL     OW25288   3.618   4.252   6.544 -0.3124 -0.6219 -0.1687
 4609SOL    HW125289   3.568   4.235   6.464  0.8201  0.6356 -1.1200
 4609SOL    HW225290   3.709   4.244   6.516  0.4059  1.8343  1.4653
 4610SOL     OW25291   2.351   3.717  14.349 -0.4961  0.2308  0.6562
 4610SOL    HW125292   2.403   3.797  14.346  1.0230 -0.7251  1.0702
 4610SOL    HW225293   2.303   3.723  14.432 -1.2870 -0.7898  0.2696
 4611SOL     OW25294   0.560   2.733   6.277  0.7389 -0.0949 -0.2272
 4611SOL    HW125295   0.510   2.677   6.217  0.8748 -0.1475 -0.2907
 4611SOL    HW225296   0.554   2.818   6.234 -0.2188  0.1380  0.3611
 4612SOL     OW25297   3.875   0.359   4.051  0.5506  0.0860 -0.0503
 4612SOL    HW125298   3.810   0.298   4.086 -0.6262  0.6683 -1.2047
 4612SOL    HW225299   3.827   0.438   4.074 -1.6423 -1.7010  1.4546
 4613SOL     OW25300   0.427   2.716   8.891 -0.3210 -0.3671  0.0842
 4613SOL    HW125301   0.519   2.722   8.868 -0.3598 -2.4700 -0.6075
 4613SOL    HW225302   0.410   2.796   8.940  2.1322 -0.0432  0.3744
 4614SOL     OW25303   0.058   0.256   8.242 -0.6608  0.0294  0.3748
 4614SOL    HW125304   0.075   0.350   8.249  1.9073 -0.3516 -0.7396
 4614SOL    HW225305   4.717   0.240   8.311 -1.5604  1.2536 -0.1791
 4615SOL     OW25306   4.195   1.235   2.457 -0.1915  0.2819 -0.4076
 4615SOL    HW125307   4.219   1.170   2.391  2.1176 -0.1233  0.8105
 4615SOL    HW225308   4.248   1.195   2.526  0.1091  0.7964 -0.3342
 4616SOL     OW25309   1.437   1.739   5.596  0.0106  0.3905 -0.2545
 4616SOL    HW125310   1.443   1.703   5.685 -1.4747  3.0345  0.9130
 4616SOL    HW225311   1.531   1.741   5.576  0.3345 -1.7083  0.9926
 4617SOL     OW25312   0.859   4.254   8.110 -0.3788  0.4275 -0.0115
 4617SOL    HW125313   0.790   4.312   8.078  1.8552  2.8131 -0.5604
 4617SOL    HW225314   0.935   4.286   8.062  0.6582 -0.8094  0.8078
 4618SOL     OW25315   3.751   0.419   8.818  0.0236  0.5360  0.0621
 4618SOL    HW125316   3.676   0.475   8.838 -0.9194 -0.9905  0.8017
 4618SOL    HW225317   3.800   0.434   8.899 -1.6118  0.8124  1.0133
 4619SOL     OW25318   1.474   2.567   9.569 -0.0621  0.0069 -0.4557
 4619SOL    HW125319   1.407   2.598   9.509 -0.7024 -1.9478 -0.7550
 4619SOL    HW225320   1.427   2.524   9.641  0.1370  1.4487  0.5446
 4620SOL     OW25321   4.656   2.610  10.339  0.0568  0.0436 -0.2774
 4620SOL    HW125322   4.578   2.615  10.393  0.4869 -2.3492  0.5633
 4620SOL    HW225323   4.677   2.518  10.356  0.8236 -0.1129 -1.9975
 4621SOL     OW25324   2.179   1.943   4.351 -0.8192  0.2269 -0.2615
 4621SOL    HW125325   2.236   1.895   4.411  0.3335  1.5676 -0.2656
 4621SOL    HW225326   2.232   2.018   4.324  1.8906 -1.4609  0.3457
 4622SOL     OW25327   3.269   3.879  12.335 -0.4065  0.3350  0.3723
 4622SOL    HW125328   3.333   3.897  12.265  1.5992  1.7207  2.5523
 4622SOL    HW225329   3.332   3.895  12.405 -0.0885  1.3940 -0.1576
 4623SOL     OW25330   0.664   0.104   6.881  0.2456  0.6860 -0.0486
 4623SOL    HW125331   0.699   0.094   6.792  0.9021 -0.2269  0.3072
 4623SOL    HW225332   0.621   0.189   6.882 -0.3086  0.4017  0.3041
 4624SOL     OW25333   4.155   2.744  17.608 -0.0802 -0.5963 -0.4391
 4624SOL    HW125334   4.233   2.691  17.597  0.1741 -0.0469 -1.2835
 4624SOL    HW225335   4.091   2.699  17.553 -1.2493 -0.8773  1.1418
 4625SOL     OW25336   3.722   0.646   5.426 -0.0854 -0.4138  0.2581
 4625SOL    HW125337   3.796   0.694   5.389 -0.2212 -1.2124 -1.0313
 4625SOL    HW225338   3.688   0.586   5.360 -2.2400  0.3488  0.6631
 4626SOL     OW25339   2.507   0.226   4.716 -0.2793  0.2906  0.1481
 4626SOL    HW125340   2.596   0.198   4.740 -0.5337  0.1288  0.9059
 4626SOL    HW225341   2.462   0.142   4.709 -1.3375  0.9425 -0.7114
 4627SOL     OW25342   0.947   2.045   8.957  0.2888 -0.0409 -0.0684
 4627SOL    HW125343   1.024   2.096   8.984  0.1124 -0.6824  1.6656
 4627SOL    HW225344   0.878   2.072   9.017 -0.6979 -1.6555 -0.4939
 4628SOL     OW25345   1.596   2.063  15.249  0.3260  0.2021  0.2386
 4628SOL    HW125346   1.598   1.969  15.233  0.7077  0.1459  0.6078
 4628SOL    HW225347   1.664   2.095  15.190  0.3595  0.1420  0.2445
 4629SOL     OW25348   0.390   1.013   1.053 -0.4840 -0.0421  0.5451
 4629SOL    HW125349   0.429   1.032   0.967 -2.9009  0.0527 -0.5171
 4629SOL    HW225350   0.302   0.984   1.031 -0.3792  0.7692 -0.9434
 4630SOL     OW25351   3.257   3.436   4.467 -0.1846 -0.1221  0.1355
 4630SOL    HW125352   3.225   3.429   4.377 -1.1798  1.1085  0.3882
 4630SOL    HW225353   3.208   3.366   4.511 -1.2585 -0.0072 -0.8661
 4631SOL     OW25354   0.359   1.362   8.437 -0.1748  0.8707  0.5370
 4631SOL    HW125355   0.320   1.289   8.486 -1.3806  1.5033  0.5133
 4631SOL    HW225356   0.412   1.314   8.373 -1.6234 -2.1469  1.5613
 4632SOL     OW25357   1.811   4.294   9.421 -0.1904  0.1238  0.0597
 4632SOL    HW125358   1.741   4.332   9.368  0.7938  0.4159 -1.0441
 4632SOL    HW225359   1.774   4.206   9.430  1.0000 -0.5001 -1.1798
 4633SOL     OW25360   0.634   4.308   3.398  0.5534 -0.3137  0.4634
 4633SOL    HW125361   0.577   4.368   3.350  2.4109  2.1070  1.3317
 4633SOL    HW225362   0.700   4.366   3.435  1.3181 -0.7316 -0.2274
 4634SOL     OW25363   2.275   4.710  13.116  0.3284 -0.1630  0.6284
 4634SOL    HW125364   2.223   4.675  13.043  0.1186  0.1959  0.6094
 4634SOL    HW225365   2.257   0.080  13.109 -1.3175 -0.4769  0.6862
 4635SOL     OW25366   1.722   1.522   4.135 -0.2036  0.2484 -0.0277
 4635SOL    HW125367   1.663   1.452   4.109 -1.8005  1.7804 -0.5683
 4635SOL    HW225368   1.691   1.524   4.226 -0.3091 -0.5239 -0.0498
 4636SOL     OW25369   2.806   1.416   7.338 -0.1177 -0.8177  0.8250
 4636SOL    HW125370   2.854   1.491   7.372 -0.0670 -0.4053 -0.1508
 4636SOL    HW225371   2.881   1.357   7.332 -0.3841 -1.0126 -0.5750
 4637SOL     OW25372   1.156   1.381   2.225 -0.0082  0.1695 -0.6186
 4637SOL    HW125373   1.231   1.370   2.283 -2.0510 -1.7102  1.6807
 4637SOL    HW225374   1.092   1.426   2.280  0.7953  1.5655 -0.8429
 4638SOL     OW25375   2.925   4.437  14.324  0.1719 -0.3841 -0.0675
 4638SOL    HW125376   2.966   4.358  14.289  2.1706  1.0982 -1.0456
 4638SOL    HW225377   2.919   4.479  14.239 -0.7602 -1.5117 -0.5556
 4639SOL     OW25378   0.168   2.952   7.604 -0.3098 -0.2210 -0.0317
 4639SOL    HW125379   0.130   3.013   7.541  0.4584 -2.2574 -2.4831
 4639SOL    HW225380   0.175   3.015   7.675  0.6382 -0.0362 -0.2893
 4640SOL     OW25381   2.084   3.195  10.470 -0.3211 -0.3083  0.4610
 4640SOL    HW125382   2.118   3.209  10.381 -1.1721 -3.1943 -0.3243
 4640SOL    HW225383   2.088   3.287  10.495  1.1687  0.3494 -2.1604
 4641SOL     OW25384   4.105   3.219   5.450 -0.1763 -0.5416 -0.1191
 4641SOL    HW125385   4.151   3.292   5.409 -3.8511  2.3507  0.9264
 4641SOL    HW225386   4.142   3.143   5.404 -1.9591 -0.5069 -1.5854
 4642SOL     OW25387   1.117   4.658   8.162  0.3951 -0.1063  0.0723
 4642SOL    HW125388   1.196   4.680   8.113 -0.6579  0.3858 -1.4047
 4642SOL    HW225389   1.058   4.722   8.122  2.4839  0.7822 -1.5987
 4643SOL     OW25390   0.999   3.222   6.224 -0.8988  0.8258 -0.3230
 4643SOL    HW125391   1.018   3.153   6.287 -1.1060  0.8836 -0.1996
 4643SOL    HW225392   1.056   3.200   6.149 -0.7465 -0.2772  0.1195
 4644SOL     OW25393   4.217   4.276   6.982  0.0646  0.4787 -0.3020
 4644SOL    HW125394   4.163   4.353   6.993  1.1084  1.1649  0.0212
 4644SOL    HW225395   4.149   4.229   6.934 -1.1604 -0.7199  2.6177
 4645SOL     OW25396   3.593   4.342   2.900 -0.3819  0.1197  0.2953
 4645SOL    HW125397   3.628   4.427   2.928 -1.6132  0.8077 -0.2531
 4645SOL    HW225398   3.645   4.289   2.961  2.9544  0.5715 -2.2059
 4646SOL     OW25399   0.235   2.102  16.424  0.3545 -0.2207 -0.4684
 4646SOL    HW125400   0.263   2.081  16.335  0.5046  1.4084 -0.7945
 4646SOL    HW225401   0.165   2.164  16.404  0.0999 -0.1717  0.5716
 4647SOL     OW25402   1.565   2.793   9.681 -1.0970  0.0297  0.1323
 4647SOL    HW125403   1.504   2.730   9.643  0.3635 -1.8068  0.8089
 4647SOL    HW225404   1.526   2.815   9.765 -2.5508  1.0708 -0.8194
 4648SOL     OW25405   1.726   3.406   3.671  0.1822  0.5772 -0.4480
 4648SOL    HW125406   1.693   3.450   3.592  2.3745  1.2088 -1.0201
 4648SOL    HW225407   1.731   3.482   3.730  5.1181 -0.5908  0.6122
 4649SOL     OW25408   2.158   3.331   5.905 -0.0287 -0.3093 -0.1884
 4649SOL    HW125409   2.233   3.280   5.873  0.4491  0.5037 -0.3576
 4649SOL    HW225410   2.088   3.272   5.879 -0.4810  0.8527 -1.5525
 4650SOL     OW25411   0.805   0.700   3.825 -0.1644  0.1642 -0.7431
 4650SOL    HW125412   0.750   0.646   3.768 -0.5051 -1.0844  0.7493
 4650SOL    HW225413   0.745   0.713   3.899 -2.1549 -0.8841 -2.1455
 4651SOL     OW25414   1.654   0.549   7.917  0.5410  0.2934  0.4803
 4651SOL    HW125415   1.686   0.459   7.911  0.7605  0.4257 -0.3586
 4651SOL    HW225416   1.725   0.585   7.971  0.4510  0.1367  0.7037
 4652SOL     OW25417   4.090   2.540  14.783  1.0869 -0.7256  0.0890
 4652SOL    HW125418   4.163   2.567  14.838 -0.6521 -0.9744  2.5541
 4652SOL    HW225419   4.062   2.451  14.809  3.1013 -0.8111  1.9964
 4653SOL     OW25420   4.338   4.079   2.513 -0.2172 -0.1745 -0.0747
 4653SOL    HW125421   4.262   4.136   2.500  0.0595  0.6445  1.9084
 4653SOL    HW225422   4.305   4.003   2.466 -0.4915 -1.0744  1.5980
 4654SOL     OW25423   2.917   1.720   3.840 -0.2927  0.4859  0.1611
 4654SOL    HW125424   2.854   1.662   3.882 -1.1406  0.9426 -0.4763
 4654SOL    HW225425   2.874   1.806   3.846 -1.4571  0.1409 -3.1137
 4655SOL     OW25426   1.903   4.055   3.285  0.3524 -0.6065  0.6347
 4655SOL    HW125427   1.928   4.089   3.199 -0.3483 -1.1497  0.2225
 4655SOL    HW225428   1.878   3.964   3.269  0.0655 -0.6678  1.4221
 4656SOL     OW25429   3.218   1.038  17.550  0.4155  0.3177  0.1850
 4656SOL    HW125430   3.220   1.095  17.472  1.3579  0.0195 -0.0055
 4656SOL    HW225431   3.275   0.967  17.524 -3.1601 -2.0355 -1.3102
 4657SOL     OW25432   1.129   1.218  15.142 -0.2029  0.4146 -0.3922
 4657SOL    HW125433   1.072   1.265  15.202 -0.4519  0.9636 -1.0571
 4657SOL    HW225434   1.080   1.136  15.138 -0.6536  0.6613  0.1971
 4658SOL     OW25435   3.045   3.440   5.613  0.0129  0.0945  0.3315
 4658SOL    HW125436   3.130   3.455   5.572  0.3870  0.3186  1.1839
 4658SOL    HW225437   3.058   3.354   5.653  2.8683  0.9627  1.2842
 4659SOL     OW25438   2.853   4.138   5.332 -0.2948 -0.1580  0.0016
 4659SOL    HW125439   2.836   4.213   5.388  4.9920  0.6556  0.4664
 4659SOL    HW225440   2.823   4.078   5.400 -0.4563  1.2143  1.1280
 4660SOL     OW25441   3.962   0.498   9.002  0.0877 -0.3437 -0.4636
 4660SOL    HW125442   3.947   0.519   9.094  2.0754  1.1011 -0.4737
 4660SOL    HW225443   4.035   0.560   8.997  1.2853 -1.6346  1.1861
 4661SOL     OW25444   0.876   3.053   9.763 -0.5297 -0.0183 -0.4651
 4661SOL    HW125445   0.927   3.064   9.843 -0.2340 -2.2974 -0.3200
 4661SOL    HW225446   0.798   3.105   9.779 -1.0322 -1.1841  0.9180
 4662SOL     OW25447   2.345   2.229   3.400 -0.0576  0.6038 -0.2612
 4662SOL    HW125448   2.328   2.177   3.478  1.2912  0.5964  0.0392
 4662SOL    HW225449   2.440   2.244   3.393  0.4439 -1.9605  0.7966
 4663SOL     OW25450   0.459   2.392   2.017  0.7016 -0.1878 -0.5109
 4663SOL    HW125451   0.458   2.300   1.990 -2.9981 -0.0561 -0.9242
 4663SOL    HW225452   0.367   2.405   2.042  0.7748  1.6791 -1.2407
 4664SOL     OW25453   1.865   0.596   5.601 -0.0527 -0.4053  0.5271
 4664SOL    HW125454   1.914   0.669   5.563 -1.8073 -0.4166 -1.7283
 4664SOL    HW225455   1.868   0.535   5.527 -1.2701 -0.2536  0.3581
 4665SOL     OW25456   0.068   4.404   0.401  0.1842 -0.3974 -0.1577
 4665SOL    HW125457   0.141   4.357   0.361 -0.2439  0.2502 -1.7134
 4665SOL    HW225458   0.024   4.324   0.430 -1.4124  0.5896  0.1027
 4666SOL     OW25459   1.133   0.647  16.729  0.1843  0.6574 -0.2329
 4666SOL    HW125460   1.216   0.612  16.759 -0.7886 -1.5548 -0.1802
 4666SOL    HW225461   1.077   0.594  16.784 -0.9088  3.2967  1.2142
 4667SOL     OW25462   4.476   3.756   3.117 -0.2184 -0.4451  0.0893
 4667SOL    HW125463   4.518   3.705   3.186  0.2059 -1.3374 -0.8282
 4667SOL    HW225464   4.458   3.833   3.171 -1.1575 -1.9200  1.8467
 4668SOL     OW25465   0.847   2.708   4.531 -0.0627 -0.3606  0.3333
 4668SOL    HW125466   0.831   2.684   4.439  1.0050  1.4298 -0.3246
 4668SOL    HW225467   0.905   2.782   4.511 -1.4686  1.0278  1.3239
 4669SOL     OW25468   3.956   2.642  17.440 -0.0139  0.3388 -0.2928
 4669SOL    HW125469   3.876   2.694  17.452 -0.5218 -0.6435  0.6116
 4669SOL    HW225470   3.929   2.552  17.457 -2.9947  1.1901 -0.4509
 4670SOL     OW25471   2.258   0.601   4.715  0.6587 -0.7436  0.2992
 4670SOL    HW125472   2.166   0.602   4.687  0.0498  3.0794  2.3201
 4670SOL    HW225473   2.288   0.692   4.706 -2.4024  0.2366  0.0314
 4671SOL     OW25474   2.169   0.120   6.431 -0.1333  0.0503  0.2256
 4671SOL    HW125475   2.147   0.213   6.428 -1.9545 -0.4651 -2.6737
 4671SOL    HW225476   2.176   0.108   6.336 -2.1227 -0.6348  0.1515
 4672SOL     OW25477   4.209   1.947   8.984 -0.3709 -0.1025  0.3409
 4672SOL    HW125478   4.144   1.945   8.914 -0.2894 -1.0668  0.2902
 4672SOL    HW225479   4.231   1.854   8.979  2.0119  0.4580  0.4717
 4673SOL     OW25480   0.872   4.005   7.792 -0.0725  0.6158 -0.0586
 4673SOL    HW125481   0.943   3.953   7.755 -0.4621 -0.4135  0.6466
 4673SOL    HW225482   0.847   3.958   7.872 -2.1842 -1.2910 -1.8869
 4674SOL     OW25483   4.309   0.637   6.174 -0.2725 -0.9083  0.4304
 4674SOL    HW125484   4.266   0.560   6.211 -1.8304  0.4265  1.3881
 4674SOL    HW225485   4.397   0.618   6.208 -0.4286 -3.3887 -0.5723
 4675SOL     OW25486   4.628   1.584   8.216 -0.1140  0.2939  0.4449
 4675SOL    HW125487   4.711   1.545   8.246 -1.0110 -0.0220  2.5206
 4675SOL    HW225488   4.631   1.676   8.243 -0.6447  0.3323  0.3757
 4676SOL     OW25489   4.554   4.228  15.935 -0.4270 -0.1162  0.2254
 4676SOL    HW125490   4.582   4.250  16.024 -1.0370 -0.4379  0.4965
 4676SOL    HW225491   4.618   4.287  15.896 -0.8656  0.4000  0.2876
 4677SOL     OW25492   0.614   0.862   4.058  0.9343  0.1320 -0.0197
 4677SOL    HW125493   0.544   0.814   4.102  2.2765  0.1014  2.1250
 4677SOL    HW225494   0.604   0.949   4.096 -1.3634  0.1958 -0.8320
 4678SOL     OW25495   2.328   2.844   8.103 -0.2620  0.5358 -0.8448
 4678SOL    HW125496   2.288   2.863   8.188 -0.5326  1.4334 -1.1742
 4678SOL    HW225497   2.406   2.898   8.116 -0.0768  0.5036 -1.8818
 4679SOL     OW25498   3.199   1.794   0.576 -0.2409  0.0625  0.8181
 4679SOL    HW125499   3.275   1.851   0.569  1.1654 -1.8652  0.4238
 4679SOL    HW225500   3.153   1.827   0.498  1.6777  0.2831 -0.2216
 4680SOL     OW25501   1.249   3.891   8.503  0.0078  0.1797 -0.2110
 4680SOL    HW125502   1.254   3.796   8.500 -1.2985  0.1455 -1.4727
 4680SOL    HW225503   1.178   3.906   8.566  0.6522 -2.5919  1.1869
 4681SOL     OW25504   1.949   1.725   4.770  0.3752  0.3298  0.1263
 4681SOL    HW125505   1.896   1.676   4.832  2.4788 -1.3418  0.6229
 4681SOL    HW225506   1.885   1.749   4.703  0.4411  3.3712  1.1600
 4682SOL     OW25507   3.192   3.610  13.849 -0.0055  0.0964  0.6035
 4682SOL    HW125508   3.121   3.670  13.827 -0.0573 -0.0578  0.3538
 4682SOL    HW225509   3.240   3.668  13.908  1.1821  0.1560 -0.4238
 4683SOL     OW25510   3.292   2.048   7.734  0.7019  0.9474  0.0769
 4683SOL    HW125511   3.229   2.048   7.806 -0.8553  0.9908 -1.2788
 4683SOL    HW225512   3.356   1.984   7.762 -0.4457  0.4202  1.4977
 4684SOL     OW25513   3.888   2.433   6.123 -0.1186  0.5326  0.0859
 4684SOL    HW125514   3.832   2.355   6.129 -0.9073  1.2963  2.6226
 4684SOL    HW225515   3.909   2.432   6.030  0.2795 -0.4223  0.1844
 4685SOL     OW25516   4.565   3.542   4.266  0.2032 -0.0463 -0.3541
 4685SOL    HW125517   4.595   3.456   4.237 -1.1661 -0.3863 -0.7598
 4685SOL    HW225518   4.637   3.558   4.328 -1.6257  0.0241  1.7413
 4686SOL     OW25519   0.216   0.319   5.850 -0.0642 -0.5778  0.5046
 4686SOL    HW125520   0.138   0.264   5.861  1.1208 -2.3912 -0.2063
 4686SOL    HW225521   0.221   0.329   5.755  1.4611 -0.5466  0.5872
 4687SOL     OW25522   0.178   1.582  17.517 -0.0221 -0.1584  1.0711
 4687SOL    HW125523   0.120   1.632  17.574 -1.2537  0.0032 -0.3151
 4687SOL    HW225524   0.108   1.552  17.459 -0.0723  0.3473  0.8752
 4688SOL     OW25525   3.930   0.640   1.365  0.2354  0.0340 -0.2273
 4688SOL    HW125526   3.896   0.727   1.345 -0.1579 -0.9484 -3.8372
 4688SOL    HW225527   4.025   0.648   1.370  0.3715 -1.6197 -0.0898
 4689SOL     OW25528   4.496   0.974  14.386 -0.5217  0.2214 -0.5074
 4689SOL    HW125529   4.528   0.946  14.472 -0.4633  0.4196 -0.4654
 4689SOL    HW225530   4.528   0.906  14.326 -0.1370  1.2580 -1.4703
 4690SOL     OW25531   4.148   2.269  11.916 -0.1521  0.2324 -0.4429
 4690SOL    HW125532   4.056   2.288  11.929 -0.4405 -2.4429  1.5841
 4690SOL    HW225533   4.176   2.253  12.006 -2.7129  1.5236  0.5723
 4691SOL     OW25534   4.540   1.910   3.876 -0.4289  0.3896 -0.2053
 4691SOL    HW125535   4.587   1.983   3.917 -1.3941  1.3008 -0.7449
 4691SOL    HW225536   4.507   1.958   3.801  0.7893 -1.6785 -2.0538
 4692SOL     OW25537   4.446   4.465   6.571 -0.2711  0.5558  0.3653
 4692SOL    HW125538   4.422   4.373   6.586  0.4200  0.5151  1.2364
 4692SOL    HW225539   4.400   4.509   6.642  0.1739  0.4820  0.6994
 4693SOL     OW25540   1.781   4.629   8.222  0.3662  0.4142 -0.2989
 4693SOL    HW125541   1.760   4.577   8.300  0.7299  1.4586  0.4953
 4693SOL    HW225542   1.824   4.698   8.272  0.3777  0.8017 -0.8445
 4694SOL     OW25543   4.375   2.464   6.791  0.1965  0.1445  0.1749
 4694SOL    HW125544   4.304   2.462   6.855  0.3740 -0.2752  0.3583
 4694SOL    HW225545   4.327   2.465   6.708  1.5099 -0.6921 -0.6023
 4695SOL     OW25546   1.746   0.086   2.440  0.1482 -0.1795 -0.2174
 4695SOL    HW125547   1.714   0.065   2.352 -0.9626  0.2487  0.0868
 4695SOL    HW225548   1.723   0.179   2.438 -1.4136 -0.4613  3.2190
 4696SOL     OW25549   1.727   2.119  11.061 -0.2968  0.3033  0.1305
 4696SOL    HW125550   1.782   2.077  11.127 -0.9607  0.1247  0.5726
 4696SOL    HW225551   1.760   2.070  10.986  0.9971  2.1314 -0.4781
 4697SOL     OW25552   2.774   3.268   7.424  0.0323  0.0631  0.1876
 4697SOL    HW125553   2.692   3.280   7.473 -1.1147 -1.7344 -1.3319
 4697SOL    HW225554   2.783   3.174   7.415  1.4671  0.4995 -2.8439
 4698SOL     OW25555   2.383   1.809   1.179  0.2483 -0.3825  0.1547
 4698SOL    HW125556   2.405   1.729   1.227  2.5424 -0.0527 -0.3385
 4698SOL    HW225557   2.322   1.763   1.121 -0.6274 -0.9637  1.5160
 4699SOL     OW25558   1.327   0.483  11.720  0.1555 -0.0450  0.7667
 4699SOL    HW125559   1.380   0.527  11.787  0.5907  0.5837  0.0146
 4699SOL    HW225560   1.392   0.453  11.657 -1.4921 -0.4124 -0.7354
 4700SOL     OW25561   3.302   3.046  11.653  0.6066 -0.3261  0.1743
 4700SOL    HW125562   3.209   3.032  11.668  0.7213  0.7123  1.8023
 4700SOL    HW225563   3.337   2.982  11.714 -0.7278 -0.8494  0.3762
 4701SOL     OW25564   3.669   0.380  10.254  0.7227 -0.1169  0.2209
 4701SOL    HW125565   3.664   0.291  10.222 -1.1824 -0.6222  1.9034
 4701SOL    HW225566   3.587   0.386  10.303 -0.6103  0.2223 -2.0508
 4702SOL     OW25567   2.430   4.146   3.668 -0.5797  0.0023 -0.0130
 4702SOL    HW125568   2.352   4.191   3.638  0.3248  1.1398 -0.6359
 4702SOL    HW225569   2.443   4.188   3.753 -2.7106 -0.5842  0.6136
 4703SOL     OW25570   3.038   2.365  11.716 -0.1721  0.1130  0.5515
 4703SOL    HW125571   3.031   2.271  11.732  0.7851 -0.2660 -1.2432
 4703SOL    HW225572   2.949   2.388  11.688 -0.1847  0.5730  0.9803
 4704SOL     OW25573   3.606   0.262  12.264 -0.2585 -0.4055  0.2435
 4704SOL    HW125574   3.589   0.188  12.322 -1.5812 -1.1452 -1.0867
 4704SOL    HW225575   3.654   0.319  12.325  1.2076 -0.5574 -0.7650
 4705SOL     OW25576   0.401   3.822   7.029  0.1740  0.3073 -0.1906
 4705SOL    HW125577   0.461   3.775   7.086 -1.1140 -1.2145 -0.0976
 4705SOL    HW225578   0.399   3.775   6.946  0.6669  2.0872 -1.2128
 4706SOL     OW25579   0.246   1.259   1.133  0.1933 -0.2534 -0.4349
 4706SOL    HW125580   0.312   1.329   1.133 -2.2764  2.0662  0.7299
 4706SOL    HW225581   0.293   1.189   1.087 -0.7130  0.6369 -2.7036
 4707SOL     OW25582   3.937   2.956   8.197  0.3926  0.4776  0.2228
 4707SOL    HW125583   4.006   2.900   8.161 -0.7039 -0.8531  0.2223
 4707SOL    HW225584   3.906   3.005   8.121 -1.2461 -2.3831 -0.9350
 4708SOL     OW25585   0.733   1.637   6.956 -0.2049  0.4852  0.4446
 4708SOL    HW125586   0.665   1.673   7.012 -0.0653  0.4204  0.6537
 4708SOL    HW225587   0.798   1.608   7.019  1.0565  2.0147 -0.1568
 4709SOL     OW25588   2.444   0.680   7.625  0.7312  0.3911  0.2093
 4709SOL    HW125589   2.475   0.608   7.680 -1.3551 -1.7443 -1.4461
 4709SOL    HW225590   2.519   0.739   7.621  1.1069 -0.0839  0.3849
 4710SOL     OW25591   1.939   3.727   3.132 -0.3967  0.1872 -0.1189
 4710SOL    HW125592   1.882   3.802   3.110 -0.1842  1.0500  2.2815
 4710SOL    HW225593   1.988   3.722   3.050 -1.3692 -1.7867 -0.5763
 4711SOL     OW25594   3.303   1.581  16.513 -0.6264 -0.5192 -0.6153
 4711SOL    HW125595   3.311   1.664  16.466 -1.8887 -0.7165 -1.2037
 4711SOL    HW225596   3.358   1.518  16.466 -0.1635 -1.0902  0.6932
 4712SOL     OW25597   3.990   1.511   5.047  0.4839  0.1645  0.2585
 4712SOL    HW125598   3.949   1.521   4.961  1.0766 -1.8822 -0.2523
 4712SOL    HW225599   3.984   1.602   5.077 -0.8358  0.1141  0.1598
 4713SOL     OW25600   1.405   0.073   7.257 -0.2258 -0.4090 -0.5335
 4713SOL    HW125601   1.472   0.048   7.320 -1.9071 -0.9586  1.0143
 4713SOL    HW225602   1.449   0.151   7.222  0.1083 -0.1794  0.4015
 4714SOL     OW25603   3.844   4.183   6.359 -0.3021 -0.3926  0.1434
 4714SOL    HW125604   3.763   4.146   6.324 -1.2158 -1.0378  2.9858
 4714SOL    HW225605   3.850   4.268   6.315  1.5257  0.5740  2.2873
 4715SOL     OW25606   4.527   3.295   9.115  0.2493 -0.4986 -0.3050
 4715SOL    HW125607   4.481   3.211   9.118  3.4606 -2.2702  0.0830
 4715SOL    HW225608   4.600   3.269   9.171 -1.6882 -3.5875  0.7877
 4716SOL     OW25609   2.282   4.279   6.004 -0.7365 -0.1129 -0.5733
 4716SOL    HW125610   2.269   4.192   5.965 -1.5933  0.4771 -1.6299
 4716SOL    HW225611   2.247   4.342   5.941 -1.5391 -1.8305 -1.8486
 4717SOL     OW25612   0.338   0.526   7.809  0.1611  0.0101  0.0358
 4717SOL    HW125613   0.353   0.521   7.714  0.1572 -1.9094  0.1404
 4717SOL    HW225614   0.425   0.501   7.838  0.4107  1.8236  0.8611
 4718SOL     OW25615   2.839   0.355   7.844  0.0453  0.3543  0.3666
 4718SOL    HW125616   2.897   0.334   7.771  0.3168 -0.4810  0.8323
 4718SOL    HW225617   2.905   0.393   7.903 -0.5055  1.2792  0.3977
 4719SOL     OW25618   1.973   0.079  17.537 -0.1574 -0.4727 -0.8124
 4719SOL    HW125619   1.982   0.148  17.471 -0.9001 -0.9663 -1.4283
 4719SOL    HW225620   2.032   0.011  17.505  0.2249 -0.8183  0.6302
 4720SOL     OW25621   3.171   3.930   7.042  0.8970 -0.2747  0.4644
 4720SOL    HW125622   3.175   3.871   7.117  2.0122  0.5143  1.0398
 4720SOL    HW225623   3.142   3.867   6.977  0.4056  0.4620 -0.0347
 4721SOL     OW25624   3.097   1.690   4.339 -0.2293 -0.1738 -0.3995
 4721SOL    HW125625   3.184   1.729   4.328 -1.2813  1.8627 -1.5021
 4721SOL    HW225626   3.100   1.638   4.258  0.0020  0.1205 -0.5828
 4722SOL     OW25627   2.661   4.032   7.977 -0.2354  0.0304 -0.0385
 4722SOL    HW125628   2.685   4.122   7.954  4.1734 -1.0739  0.1497
 4722SOL    HW225629   2.687   4.025   8.068 -1.0055  0.2839  0.1971
 4723SOL     OW25630   1.745   1.217   7.797  0.0351  0.0452 -0.4708
 4723SOL    HW125631   1.669   1.274   7.784 -1.1665 -1.7343 -1.3401
 4723SOL    HW225632   1.810   1.287   7.801 -0.3176  0.3545 -0.1255
 4724SOL     OW25633   0.218   3.440  10.779  0.0963 -0.4076  0.2582
 4724SOL    HW125634   0.249   3.409  10.864  0.5586  0.1568  0.2939
 4724SOL    HW225635   0.156   3.509  10.805 -1.7460 -2.3372  0.9402
 4725SOL     OW25636   3.574   4.284  12.448  0.3292  0.1573 -0.6547
 4725SOL    HW125637   3.612   4.204  12.412 -0.9320 -0.7472  0.0185
 4725SOL    HW225638   3.495   4.245  12.486  0.4724  0.6165  0.1186
 4726SOL     OW25639   1.738   1.131   6.898  0.0971  0.7830  0.3143
 4726SOL    HW125640   1.710   1.041   6.918  0.9818  0.5817  0.6762
 4726SOL    HW225641   1.764   1.128   6.806  0.3762 -0.4880  0.4360
 4727SOL     OW25642   0.559   3.703   3.631  0.1590  0.7471  0.1962
 4727SOL    HW125643   0.491   3.665   3.685  0.9751 -0.1902  0.5637
 4727SOL    HW225644   0.633   3.642   3.640 -0.1755  0.3212  0.0679
 4728SOL     OW25645   0.229   1.216   7.938  0.2148 -0.2651 -0.4313
 4728SOL    HW125646   0.254   1.292   7.886  2.0091 -0.6515 -0.1397
 4728SOL    HW225647   0.213   1.147   7.874 -0.8561 -0.5108  0.0954
 4729SOL     OW25648   0.642   1.701   3.730 -0.2856 -0.9812  0.1937
 4729SOL    HW125649   0.574   1.681   3.793  0.3038 -0.1705  1.0871
 4729SOL    HW225650   0.590   1.705   3.650  1.5564 -2.9381 -1.1214
 4730SOL     OW25651   2.415   2.840   5.012 -0.2262  0.0585  0.0616
 4730SOL    HW125652   2.488   2.813   5.067  0.2646  0.4155 -0.4112
 4730SOL    HW225653   2.456   2.918   4.976  1.4857 -0.6323  0.5514
 4731SOL     OW25654   0.133   0.578   7.075 -0.5508  0.2569  0.1299
 4731SOL    HW125655   0.111   0.671   7.077 -0.7486  0.1816  1.0789
 4731SOL    HW225656   0.045   0.551   7.101 -0.4400 -0.7248 -0.5242
 4732SOL     OW25657   4.342   1.302   2.760 -0.4165 -0.1090 -0.4357
 4732SOL    HW125658   4.252   1.271   2.775 -0.8849  0.3960 -2.0910
 4732SOL    HW225659   4.367   1.339   2.844 -0.2626 -1.4446  0.1009
 4733SOL     OW25660   1.519   1.440   4.859 -0.0074 -0.3042  0.4171
 4733SOL    HW125661   1.477   1.486   4.932 -0.9039 -2.5320  1.3191
 4733SOL    HW225662   1.447   1.413   4.802 -0.4845  0.9131  0.4500
 4734SOL     OW25663   3.405   1.936   4.422  0.3953  0.4121 -0.8861
 4734SOL    HW125664   3.420   1.913   4.513 -0.0241  0.7674 -0.7237
 4734SOL    HW225665   3.487   1.908   4.381  0.4007  1.2690 -1.4578
 4735SOL     OW25666   0.101   3.615   7.601  0.3949  0.0294 -0.2615
 4735SOL    HW125667   0.114   3.580   7.513 -1.1896  0.2565 -0.5942
 4735SOL    HW225668   0.034   3.554   7.633  0.3440 -0.1581 -0.7194
 4736SOL     OW25669   0.180   1.669   5.471  0.8483 -0.0436 -0.1161
 4736SOL    HW125670   0.243   1.706   5.409 -1.0791  0.6284 -1.6765
 4736SOL    HW225671   0.125   1.615   5.413 -2.0208  0.6058  2.0243
 4737SOL     OW25672   3.761   1.596  12.493  0.2209  0.1362  0.0961
 4737SOL    HW125673   3.846   1.603  12.449  0.0742 -0.9806 -0.3647
 4737SOL    HW225674   3.717   1.678  12.473  0.5953  0.1246 -0.7649
 4738SOL     OW25675   4.324   4.453   4.268  0.1590  0.3900 -0.5958
 4738SOL    HW125676   4.401   4.415   4.225  1.8714  2.6471  0.4179
 4738SOL    HW225677   4.275   4.480   4.190  0.3226 -2.2637 -1.6218
 4739SOL     OW25678   2.092   3.924   5.680 -0.8793 -0.4550  0.2535
 4739SOL    HW125679   2.127   4.013   5.675  2.6506 -1.8875 -0.9293
 4739SOL    HW225680   2.172   3.885   5.716 -1.0643 -0.8393  0.2475
 4740SOL     OW25681   1.044   1.692   8.220  0.3011  0.1848 -0.1473
 4740SOL    HW125682   1.002   1.742   8.150 -0.6524  1.5852  1.4415
 4740SOL    HW225683   1.065   1.760   8.283 -0.8657 -0.0955  0.5391
 4741SOL     OW25684   1.099   4.458   4.031  0.0700  0.0227  0.2330
 4741SOL    HW125685   1.089   4.516   4.106 -1.1724  1.4289 -1.0226
 4741SOL    HW225686   1.066   4.520   3.966  0.7626  0.4037  0.2414
 4742SOL     OW25687   1.479   3.724   8.009  0.3250  0.0815 -0.1277
 4742SOL    HW125688   1.524   3.653   7.962 -0.9454 -0.4441 -0.5290
 4742SOL    HW225689   1.457   3.676   8.089  1.1775 -1.0715 -0.5800
 4743SOL     OW25690   4.179   3.295  17.043  0.1964  0.5223  0.0240
 4743SOL    HW125691   4.174   3.390  17.040  1.0826  0.5075 -1.8025
 4743SOL    HW225692   4.088   3.274  17.062  0.2637  1.0496  0.9021
 4744SOL     OW25693   0.295   1.503  16.931  0.1089 -0.4115 -0.1769
 4744SOL    HW125694   0.360   1.547  16.987 -1.2638 -0.8424  1.7496
 4744SOL    HW225695   0.323   1.532  16.844 -1.6311 -1.7031 -1.1670
 4745SOL     OW25696   2.483   4.442  10.014  0.5490 -0.4040 -0.3530
 4745SOL    HW125697   2.543   4.507   9.979  0.7496 -0.5088 -0.2005
 4745SOL    HW225698   2.410   4.501  10.034  0.9009  0.0465 -0.4099
 4746SOL     OW25699   1.479   4.696   1.604  0.2166 -0.0190  0.3428
 4746SOL    HW125700   1.473   4.683   1.509  1.0416 -1.1874  0.4485
 4746SOL    HW225701   1.492   0.067   1.608  1.9547 -0.2499  0.0477
 4747SOL     OW25702   4.203   4.600   8.755  0.2379 -0.9399  0.2405
 4747SOL    HW125703   4.202   4.694   8.740 -1.7440 -1.3292 -2.0235
 4747SOL    HW225704   4.110   4.586   8.774  0.1942 -1.2712 -0.2308
 4748SOL     OW25705   3.400   1.159   3.123  0.0627 -0.3669 -0.4166
 4748SOL    HW125706   3.331   1.217   3.091  0.6252  1.6981  2.0736
 4748SOL    HW225707   3.414   1.115   3.039 -1.8998  2.2435 -2.0818
 4749SOL     OW25708   4.633   2.985   7.317  0.0550  0.1053 -1.0518
 4749SOL    HW125709   4.602   2.984   7.227 -1.0078  0.0181 -0.6811
 4749SOL    HW225710   4.715   3.031   7.299 -0.0771  0.6406 -0.2863
 4750SOL     OW25711   2.223   4.700  17.140 -0.3695 -0.7092  0.3500
 4750SOL    HW125712   2.282   4.641  17.092  0.2180 -1.8978  2.4998
 4750SOL    HW225713   2.285   0.042  17.173  0.8423 -0.8697 -1.5647
 4751SOL     OW25714   2.312   4.649  15.671 -0.2762  0.0061  0.1856
 4751SOL    HW125715   2.369   4.578  15.703 -1.0078 -0.0195  1.4200
 4751SOL    HW225716   2.258   4.600  15.609  0.1156 -0.1327 -0.0463
 4752SOL     OW25717   4.494   1.211   0.465  0.3787 -0.4483 -0.5226
 4752SOL    HW125718   4.421   1.255   0.424 -0.8288 -0.9761  1.0497
 4752SOL    HW225719   4.565   1.217   0.402  1.2826 -0.8247  0.4521
 4753SOL     OW25720   1.008   4.482  10.213  1.1359  0.3833 -0.1207
 4753SOL    HW125721   0.979   4.573  10.217  2.2883  0.6939  0.9968
 4753SOL    HW225722   1.090   4.481  10.264  0.6344  0.1621  0.6841
 4754SOL     OW25723   4.536   1.692   1.862  0.3209 -0.1666  0.3144
 4754SOL    HW125724   4.457   1.663   1.907  0.4412  0.3348  0.8437
 4754SOL    HW225725   4.592   1.615   1.855 -0.2480 -0.6517  1.1094
 4755SOL     OW25726   2.070   2.310   9.308  0.0776 -0.1838 -0.0301
 4755SOL    HW125727   2.030   2.260   9.237  2.7955 -1.7085 -0.4896
 4755SOL    HW225728   2.146   2.255   9.328  0.5110  0.3614 -0.1800
 4756SOL     OW25729   0.086   2.004  15.962  0.2753  0.0117  0.2233
 4756SOL    HW125730   0.110   1.937  15.898 -0.9494 -1.3374  1.1720
 4756SOL    HW225731   0.026   1.950  16.013  0.4186 -0.9312 -0.6197
 4757SOL     OW25732   1.505   1.530   9.774 -0.5658 -0.1249  0.0688
 4757SOL    HW125733   1.571   1.493   9.833 -1.4942 -1.9180 -0.0462
 4757SOL    HW225734   1.547   1.603   9.728 -0.5188  0.1711  0.5709
 4758SOL     OW25735   3.326   3.684   1.912 -0.2414  0.0059 -0.5645
 4758SOL    HW125736   3.392   3.615   1.910 -0.3991 -0.1561 -0.2075
 4758SOL    HW225737   3.386   3.756   1.896 -1.1120  1.0963  0.9635
 4759SOL     OW25738   0.863   3.107   2.367 -0.3184 -0.0034 -0.5395
 4759SOL    HW125739   0.827   3.045   2.304  2.8224 -0.3304 -2.0365
 4759SOL    HW225740   0.782   3.112   2.418  0.3506  2.4770  0.2922
 4760SOL     OW25741   0.961   3.245  15.651 -0.5674  0.6730 -0.2962
 4760SOL    HW125742   0.938   3.219  15.740  0.0381 -2.5410 -1.0945
 4760SOL    HW225743   0.887   3.208  15.603  0.4818  1.0839 -2.2550
 4761SOL     OW25744   2.131   1.271   0.787  0.9214 -0.3584 -0.0559
 4761SOL    HW125745   2.036   1.275   0.800  0.8424 -0.8335 -0.4824
 4761SOL    HW225746   2.152   1.241   0.875 -0.5094  0.9742  0.7365
 4762SOL     OW25747   1.430   2.391   4.361  0.1003 -0.0204  0.2018
 4762SOL    HW125748   1.487   2.411   4.436  0.8458 -0.3737 -0.2658
 4762SOL    HW225749   1.346   2.434   4.373 -0.4057 -0.9855  0.1194
 4763SOL     OW25750   4.437   4.052   8.182 -0.2702  0.0798 -0.2026
 4763SOL    HW125751   4.502   4.094   8.125  0.6996  0.6599  1.3297
 4763SOL    HW225752   4.423   4.127   8.241  2.0616 -0.5757  1.1763
 4764SOL     OW25753   4.049   1.619   2.886 -0.2544  0.5701  0.7184
 4764SOL    HW125754   4.003   1.619   2.802  1.2922 -2.3160 -0.1576
 4764SOL    HW225755   4.031   1.528   2.909  0.1076  0.2096 -0.4245
 4765SOL     OW25756   1.600   2.790   3.054 -0.7293  0.7699  0.1853
 4765SOL    HW125757   1.664   2.743   3.001  0.6449  1.7555  0.9805
 4765SOL    HW225758   1.512   2.765   3.026 -0.8400  0.9428  0.3793
 4766SOL     OW25759   4.514   1.774   9.913 -0.2055 -0.6063 -0.5196
 4766SOL    HW125760   4.431   1.746   9.875 -0.8291  3.8716 -2.3461
 4766SOL    HW225761   4.541   1.805   9.827 -1.7091 -1.0816 -1.1617
 4767SOL     OW25762   2.911   1.882   7.013 -0.2689 -0.4321  0.2582
 4767SOL    HW125763   2.934   1.842   6.930 -0.7531  0.2035 -0.1838
 4767SOL    HW225764   2.818   1.861   7.025  0.1401 -1.8918  0.8293
 4768SOL     OW25765   2.030   4.675   7.662  0.0716  0.2370  0.3196
 4768SOL    HW125766   2.042   4.583   7.683 -2.0349 -0.3478 -1.0498
 4768SOL    HW225767   2.090   4.719   7.723  0.6406 -1.5227  1.0088
 4769SOL     OW25768   4.231   0.198   1.698 -0.2499  0.2898  0.1673
 4769SOL    HW125769   4.249   0.166   1.786 -0.7688  0.6397  0.3945
 4769SOL    HW225770   4.156   0.141   1.682  0.4473 -1.0240  1.5801
 4770SOL     OW25771   3.962   1.185  13.089 -0.4088 -0.0846  0.2956
 4770SOL    HW125772   3.867   1.200  13.083 -0.4921 -1.0954 -0.8052
 4770SOL    HW225773   3.975   1.120  13.020 -1.9001 -0.1209  0.0497
 4771SOL     OW25774   4.609   0.818   6.171 -0.1792 -0.1983  0.0030
 4771SOL    HW125775   4.684   0.788   6.222 -0.6714  1.6585  1.8026
 4771SOL    HW225776   4.618   0.763   6.093  0.5127 -0.6032  0.3746
 4772SOL     OW25777   0.775   1.574   5.535 -0.2016 -0.0168  0.1103
 4772SOL    HW125778   0.766   1.608   5.624  0.7721  2.1877 -0.6385
 4772SOL    HW225779   0.849   1.627   5.504  1.4714 -2.2011  0.3775
 4773SOL     OW25780   2.017   3.819   9.227  0.6054 -0.1396  0.4570
 4773SOL    HW125781   2.063   3.759   9.169 -0.2210  0.4677 -0.8102
 4773SOL    HW225782   2.063   3.902   9.210  1.6279 -0.1774  2.9298
 4774SOL     OW25783   1.317   1.058   7.902  0.4475  0.0235 -0.6259
 4774SOL    HW125784   1.261   1.011   7.840  1.9766 -0.2762 -1.7910
 4774SOL    HW225785   1.256   1.103   7.960 -0.1017 -1.4502 -0.0673
 4775SOL     OW25786   2.411   2.259   7.197 -0.2263  0.4793 -0.0141
 4775SOL    HW125787   2.505   2.243   7.184 -0.4373  0.6370 -1.7556
 4775SOL    HW225788   2.399   2.241   7.290  0.8358  0.9549  0.2221
 4776SOL     OW25789   1.546   4.363   9.316  0.2762  0.6991 -0.8111
 4776SOL    HW125790   1.461   4.319   9.315  0.5958  0.1454 -3.2991
 4776SOL    HW225791   1.521   4.432   9.377 -1.0604  0.8063 -1.4704
 4777SOL     OW25792   2.976   3.274   3.800 -0.3025 -0.2821  1.0281
 4777SOL    HW125793   3.051   3.328   3.823 -0.0461 -1.0789  2.0457
 4777SOL    HW225794   2.904   3.333   3.777 -0.5083 -0.3874  1.3925
 4778SOL     OW25795   3.980   0.591   8.035 -0.2430 -0.3321 -0.3529
 4778SOL    HW125796   3.895   0.552   8.015 -1.5204  3.2353 -2.0342
 4778SOL    HW225797   4.046   0.534   7.997  0.0610 -0.6118  0.5755
 4779SOL     OW25798   3.993   0.009   2.444 -0.2318  0.2088 -0.0583
 4779SOL    HW125799   3.898   0.006   2.433  0.0330  1.0001 -2.5713
 4779SOL    HW225800   4.027   0.048   2.364  0.3677 -0.1066  0.0422
 4780SOL     OW25801   4.262   0.379   2.916 -0.1057  0.4208  0.5108
 4780SOL    HW125802   4.349   0.345   2.936  0.0034 -0.2849 -1.1077
 4780SOL    HW225803   4.274   0.415   2.828  0.3305 -2.1628 -0.4687
 4781SOL     OW25804   0.941   2.256   7.620  0.0607 -0.0037  0.3081
 4781SOL    HW125805   0.874   2.204   7.577  0.8955 -0.3364 -0.5900
 4781SOL    HW225806   0.992   2.183   7.655  0.5445 -1.3662 -3.2240
 4782SOL     OW25807   3.061   2.198   5.052  0.3281  0.4592  0.0243
 4782SOL    HW125808   3.071   2.103   5.040 -0.6782  0.2981  0.5041
 4782SOL    HW225809   3.000   2.201   5.125 -0.6393  0.8502 -0.7872
 4783SOL     OW25810   3.778   3.358  12.349 -0.3167  0.1662  0.4611
 4783SOL    HW125811   3.784   3.429  12.286 -0.5630  2.3158  2.8882
 4783SOL    HW225812   3.793   3.283  12.290  2.6635  2.3200 -1.5256
 4784SOL     OW25813   2.552   3.915   4.235  0.2521  0.5354 -0.3121
 4784SOL    HW125814   2.542   3.837   4.180  2.3728  0.1873 -0.2264
 4784SOL    HW225815   2.585   3.873   4.314 -1.2673  0.1102  0.0938
 4785SOL     OW25816   3.627   1.588  12.996 -0.1585 -0.0141 -0.0022
 4785SOL    HW125817   3.621   1.521  12.928  0.6347 -0.4232  0.3267
 4785SOL    HW225818   3.592   1.540  13.071  1.9111 -0.6931  0.5318
 4786SOL     OW25819   4.543   1.516   3.419 -0.1077 -0.2394 -0.4008
 4786SOL    HW125820   4.458   1.544   3.386 -0.3996 -1.4752 -0.6815
 4786SOL    HW225821   4.534   1.425   3.392  1.8372 -0.1237 -1.4065
 4787SOL     OW25822   4.433   1.847  15.687  0.7484  0.3048 -0.3695
 4787SOL    HW125823   4.388   1.763  15.687 -1.1206  1.3138  1.5872
 4787SOL    HW225824   4.509   1.841  15.629  1.0852 -1.4989  0.2470
 4788SOL     OW25825   3.916   2.589   8.700  0.0824  0.1171  0.1798
 4788SOL    HW125826   3.867   2.582   8.617  0.6141  1.8033 -0.2823
 4788SOL    HW225827   3.839   2.575   8.755 -0.0217 -0.0905 -0.0156
 4789SOL     OW25828   3.768   0.057   8.171  0.8601  0.0952 -0.1443
 4789SOL    HW125829   3.754   0.085   8.080 -2.4103 -0.4820  0.1705
 4789SOL    HW225830   3.771   0.144   8.211  3.0248 -0.0166 -0.0503
 4790SOL     OW25831   2.117   3.897   6.669 -0.4617 -0.1819 -0.3021
 4790SOL    HW125832   2.056   3.830   6.638  0.2005 -0.6712 -0.5269
 4790SOL    HW225833   2.068   3.958   6.726  2.3163 -0.1672  2.0688
 4791SOL     OW25834   0.274   3.626   5.792  0.0800 -0.1669  0.1908
 4791SOL    HW125835   0.238   3.715   5.789 -1.6049 -0.9333 -2.6431
 4791SOL    HW225836   0.339   3.620   5.721 -1.1670 -0.5475 -0.9170
 4792SOL     OW25837   3.447   4.061   6.417  0.0565 -0.0735  0.3923
 4792SOL    HW125838   3.353   4.047   6.412 -0.0393  0.4660  0.7535
 4792SOL    HW225839   3.441   4.135   6.357  1.3914 -0.5344 -0.3220
 4793SOL     OW25840   0.601   2.919   2.279 -0.0862 -0.2410  0.2652
 4793SOL    HW125841   0.547   2.854   2.324 -1.4269 -0.7112 -2.0128
 4793SOL    HW225842   0.608   2.973   2.358  0.3171  0.3304 -0.1540
 4794SOL     OW25843   0.438   2.532   9.256  0.2259 -0.3381 -0.2840
 4794SOL    HW125844   0.444   2.615   9.304 -2.7940 -0.3300  0.0474
 4794SOL    HW225845   0.494   2.479   9.313  0.4411  0.4281  0.2263
 4795SOL     OW25846   0.488   1.874  14.409  0.3040  0.5308 -0.4020
 4795SOL    HW125847   0.500   1.862  14.315 -0.6526  0.9426 -0.5865
 4795SOL    HW225848   0.479   1.783  14.437  0.9490  1.1668  1.8401
 4796SOL     OW25849   2.899   0.959  11.251  0.0583 -0.3921 -0.0214
 4796SOL    HW125850   2.818   0.985  11.206  1.1020  0.1446 -1.6026
 4796SOL    HW225851   2.946   1.042  11.241  3.7357 -2.4128  0.5788
 4797SOL     OW25852   2.295   3.686   3.857  0.8471  0.1052 -0.2964
 4797SOL    HW125853   2.205   3.713   3.840  0.8078  0.0209 -0.2211
 4797SOL    HW225854   2.342   3.755   3.811 -0.8266  2.3712  1.4158
 4798SOL     OW25855   4.182   3.252   6.143  0.3780 -0.1598  0.2869
 4798SOL    HW125856   4.255   3.312   6.153  0.6152 -0.4975  0.5874
 4798SOL    HW225857   4.158   3.271   6.052  1.6249 -1.6093 -0.3674
 4799SOL     OW25858   3.167   0.080   4.022 -0.1939  0.1307  0.1145
 4799SOL    HW125859   3.238   0.106   4.080 -1.3221 -0.1270  1.6076
 4799SOL    HW225860   3.206   0.034   3.947  1.7737  0.0876  1.1707
 4800SOL     OW25861   0.955   0.605   6.474  0.2539 -0.5059 -0.3557
 4800SOL    HW125862   0.912   0.686   6.444 -0.4543 -1.2247 -1.2768
 4800SOL    HW225863   0.889   0.564   6.530  0.7962 -0.8043  0.0585
 4801SOL     OW25864   1.332   2.019   8.074  0.5559 -0.0159 -0.2386
 4801SOL    HW125865   1.380   1.946   8.034 -0.4362  0.1063 -1.6383
 4801SOL    HW225866   1.365   2.013   8.164 -0.7782  0.9301  0.3045
 4802SOL     OW25867   4.668   0.949   2.655 -0.1700  0.1030  0.7220
 4802SOL    HW125868   0.011   1.009   2.624  1.1181 -1.3069  0.7935
 4802SOL    HW225869   4.701   0.872   2.610 -0.0274  0.0035  0.9941
 4803SOL     OW25870   3.645   3.610   0.529 -0.4042 -0.6515 -0.8478
 4803SOL    HW125871   3.597   3.657   0.597 -0.3769  0.7807 -1.8392
 4803SOL    HW225872   3.586   3.616   0.454 -2.7942  0.7247  1.1396
 4804SOL     OW25873   2.842   1.510   2.004  0.1633 -0.3830  0.3254
 4804SOL    HW125874   2.857   1.440   1.940 -0.5649 -0.1605 -0.0801
 4804SOL    HW225875   2.923   1.554   2.029  0.7362  0.2371 -2.6194
 4805SOL     OW25876   1.634   0.948   3.836 -0.0987  0.1511  0.2505
 4805SOL    HW125877   1.618   1.039   3.811  1.2620  0.4688  0.5486
 4805SOL    HW225878   1.635   0.908   3.750 -1.6190  0.2044  0.2121
 4806SOL     OW25879   4.387   0.398   0.302  0.2160  0.1380 -0.2921
 4806SOL    HW125880   4.308   0.452   0.301 -0.9920 -1.6288 -0.3951
 4806SOL    HW225881   4.365   0.325   0.244  0.9099 -1.7788  1.8353
 4807SOL     OW25882   0.232   2.041   1.319  0.0284  0.1998  0.8562
 4807SOL    HW125883   0.183   2.085   1.388  0.8671 -0.7765  2.0979
 4807SOL    HW225884   0.321   2.073   1.336  0.7678 -0.9698 -0.8098
 4808SOL     OW25885   0.470   4.230  13.172 -0.2463 -0.2190 -0.0284
 4808SOL    HW125886   0.436   4.310  13.213  0.5459  0.7996 -1.3324
 4808SOL    HW225887   0.527   4.264  13.102  1.8340 -1.2403  1.1473
 4809SOL     OW25888   3.888   1.985   6.608 -0.1820 -0.1230  0.0089
 4809SOL    HW125889   3.906   1.951   6.695 -2.2094 -1.9098 -0.2761
 4809SOL    HW225890   3.954   2.054   6.609 -1.1357  0.7673  0.9112
 4810SOL     OW25891   0.248   3.251  10.463  0.4351  0.3613 -0.3244
 4810SOL    HW125892   0.289   3.320  10.515  0.1350 -0.5371  1.0920
 4810SOL    HW225893   0.167   3.229  10.509 -0.1104  0.3224 -1.2972
 4811SOL     OW25894   2.950   1.943   1.440  0.1565  0.2861 -0.0684
 4811SOL    HW125895   2.961   2.013   1.504  0.2117  0.7818 -0.6217
 4811SOL    HW225896   2.944   1.985   1.355 -0.5519 -0.0725 -0.1949
 4812SOL     OW25897   0.013   0.953  12.498 -0.4075 -0.4714  0.1190
 4812SOL    HW125898   0.084   1.018  12.497  0.4471 -1.4049  0.4754
 4812SOL    HW225899   0.065   0.882  12.535 -0.2038  0.5264  1.7672
 4813SOL     OW25900   4.308   0.356   9.275  0.4252 -0.0102  0.0050
 4813SOL    HW125901   4.216   0.383   9.274  1.4088  3.3193 -0.4791
 4813SOL    HW225902   4.322   0.332   9.183 -0.6463  1.0172 -0.4324
 4814SOL     OW25903   1.295   0.355  12.027  0.1767  0.1689 -0.1741
 4814SOL    HW125904   1.202   0.336  12.041  0.0926  2.4865  2.2294
 4814SOL    HW225905   1.285   0.445  11.997 -0.0235  0.0807 -0.3713
 4815SOL     OW25906   2.335   2.713   3.790  0.8352 -0.2025 -0.1327
 4815SOL    HW125907   2.319   2.689   3.881  0.5086 -1.1996 -0.4518
 4815SOL    HW225908   2.279   2.791   3.782  0.1983 -0.4845  1.6487
 4816SOL     OW25909   1.495   1.016   3.065  0.1694  0.2749  0.7652
 4816SOL    HW125910   1.448   0.932   3.063  0.5205  0.1273 -1.2676
 4816SOL    HW225911   1.581   0.976   3.058  1.1833  2.3453  1.4987
 4817SOL     OW25912   3.646   3.183  13.166 -0.5365 -0.3145  0.4241
 4817SOL    HW125913   3.701   3.112  13.198  1.5549  1.4011  0.6370
 4817SOL    HW225914   3.670   3.173  13.074 -0.5414  0.1197  0.3782
 4818SOL     OW25915   2.349   3.147  11.794 -0.0794 -0.2724  0.3813
 4818SOL    HW125916   2.353   3.066  11.744  0.6461  0.1496 -0.2513
 4818SOL    HW225917   2.377   3.201  11.719 -1.2740 -0.2272 -0.0290
 4819SOL     OW25918   2.849   1.255   0.839 -0.3085 -0.0625 -0.2218
 4819SOL    HW125919   2.893   1.175   0.866  0.8685  0.1125 -1.6413
 4819SOL    HW225920   2.916   1.316   0.871 -0.6584  0.3728 -0.3101
 4820SOL     OW25921   3.757   0.050   3.214  0.1190 -0.2663 -0.6028
 4820SOL    HW125922   3.825   0.110   3.244 -0.7626 -0.1475  1.1669
 4820SOL    HW225923   3.805   0.002   3.147  1.2375 -0.1350  0.1068
 4821SOL     OW25924   4.395   1.972   4.559 -0.7849  0.7934  0.0109
 4821SOL    HW125925   4.476   2.022   4.572 -0.2307 -0.4122  1.1942
 4821SOL    HW225926   4.338   2.001   4.630 -0.3292  3.5570 -0.7588
 4822SOL     OW25927   0.844   2.789   2.308 -0.5625  0.0162  0.1681
 4822SOL    HW125928   0.761   2.830   2.287 -0.1853  0.4915 -0.3982
 4822SOL    HW225929   0.804   2.705   2.284 -0.4227 -0.1150  0.3845
 4823SOL     OW25930   1.171   4.675  11.843  0.7489 -0.0993 -0.2388
 4823SOL    HW125931   1.202   4.650  11.756  0.0332  3.2586 -1.4742
 4823SOL    HW225932   1.179   0.046  11.835  1.6774 -0.1619  0.0443
 4824SOL     OW25933   0.249   0.904  16.244 -0.0431  0.0540  0.6668
 4824SOL    HW125934   0.227   0.929  16.334  0.8541  0.6045  0.7295
 4824SOL    HW225935   0.290   0.819  16.259  0.5917  0.1281 -0.6386
 4825SOL     OW25936   3.259   0.651   5.817 -0.0897 -0.0044  0.2952
 4825SOL    HW125937   3.327   0.599   5.774 -0.8228 -1.1929  0.5899
 4825SOL    HW225938   3.188   0.590   5.796  0.5100 -0.7641  0.5110
 4826SOL     OW25939   2.623   3.336   4.892  0.4832  0.2831 -0.2772
 4826SOL    HW125940   2.692   3.319   4.827  2.0152  1.1285  1.1142
 4826SOL    HW225941   2.590   3.414   4.848 -0.9244 -0.1549  0.0132
 4827SOL     OW25942   3.349   3.652   7.501  0.1281  0.2530 -0.4284
 4827SOL    HW125943   3.302   3.677   7.421 -0.6535 -0.6287 -0.2478
 4827SOL    HW225944   3.291   3.589   7.543  0.0712  0.7889  0.2919
 4828SOL     OW25945   1.290   4.617  11.625  0.1448  0.2118  0.5305
 4828SOL    HW125946   1.347   4.625  11.549 -3.5318  1.0677 -2.1250
 4828SOL    HW225947   1.261   4.526  11.621  0.1428  0.1920  1.0386
 4829SOL     OW25948   0.775   2.734   6.732 -0.7422 -0.0735  0.2544
 4829SOL    HW125949   0.735   2.751   6.818 -1.4207  1.1349 -0.3018
 4829SOL    HW225950   0.698   2.713   6.680 -0.7159  0.1476  0.1292
 4830SOL     OW25951   0.001   1.610   0.466 -0.0305  0.3531  0.6132
 4830SOL    HW125952   4.701   1.593   0.375 -0.5113  2.2729  0.3768
 4830SOL    HW225953   0.085   1.565   0.475 -1.1080 -1.8254 -0.2383
 4831SOL     OW25954   0.506   1.252   3.168 -1.1333 -0.6708 -0.0878
 4831SOL    HW125955   0.443   1.287   3.105  0.8832  1.0446 -1.1534
 4831SOL    HW225956   0.495   1.159   3.152  0.2992 -0.7192 -0.7533
 4832SOL     OW25957   0.281   3.183   6.124  0.6205 -0.1951 -0.2924
 4832SOL    HW125958   0.358   3.152   6.172 -0.2950  0.1393  1.3983
 4832SOL    HW225959   0.309   3.236   6.049 -0.6228  1.2554  0.2772
 4833SOL     OW25960   3.186   4.685   7.633 -0.4121  0.0285  0.4925
 4833SOL    HW125961   3.214   4.630   7.706 -1.3313  0.3341  1.0826
 4833SOL    HW225962   3.094   4.661   7.619 -0.4488  1.0532 -1.0836
 4834SOL     OW25963   0.526   0.429  11.816 -0.1776  0.4675 -0.1664
 4834SOL    HW125964   0.606   0.416  11.765 -0.1666  0.4554 -0.1462
 4834SOL    HW225965   0.524   0.345  11.862 -1.6695 -0.4661 -1.9370
 4835SOL     OW25966   2.424   1.617   8.206 -0.5575  0.1317  0.2090
 4835SOL    HW125967   2.463   1.687   8.259  0.0597 -0.8169  1.0286
 4835SOL    HW225968   2.462   1.541   8.250  5.0520  1.6744 -1.9066
 4836SOL     OW25969   3.439   2.189   6.266 -0.2258 -0.0755  0.3703
 4836SOL    HW125970   3.352   2.148   6.264  0.8921 -2.5081  1.2683
 4836SOL    HW225971   3.450   2.204   6.172 -0.5295  0.7546  0.4685
 4837SOL     OW25972   1.027   1.349  13.705 -0.0082  0.3918  0.0972
 4837SOL    HW125973   1.051   1.436  13.673 -2.0960  0.6205 -0.8838
 4837SOL    HW225974   1.111   1.320  13.741  0.5848 -0.4174 -1.9713
 4838SOL     OW25975   2.233   3.043   4.530 -0.2799 -0.1235  0.4859
 4838SOL    HW125976   2.138   3.031   4.523 -0.3471 -0.6026  2.1588
 4838SOL    HW225977   2.263   3.003   4.448 -1.6854 -1.4226  0.6071
 4839SOL     OW25978   1.069   0.204  12.869 -0.1423 -0.2964 -0.2556
 4839SOL    HW125979   1.058   0.139  12.800  0.6318  0.2024 -0.8432
 4839SOL    HW225980   1.148   0.256  12.860  0.4206 -1.3585 -1.5041
 4840SOL     OW25981   2.198   2.095  12.507 -0.6562 -0.1331 -0.1186
 4840SOL    HW125982   2.228   2.182  12.479 -0.2023  0.3897  1.9767
 4840SOL    HW225983   2.254   2.037  12.455  3.1671  2.2175  1.2947
 4841SOL     OW25984   1.159   4.296   4.889  0.2927  0.3600  0.5204
 4841SOL    HW125985   1.134   4.290   4.797  0.7250  1.8312  0.3079
 4841SOL    HW225986   1.139   4.388   4.904 -0.4321  0.4379 -0.9416
 4842SOL     OW25987   3.864   3.956  17.005 -0.2690  0.1056 -0.1790
 4842SOL    HW125988   3.841   3.866  17.025 -1.8360  1.1002  2.5494
 4842SOL    HW225989   3.960   3.956  17.004 -0.2524 -1.5967  1.3079
 4843SOL     OW25990   4.504   1.260   7.037 -0.2171 -0.3147  0.6748
 4843SOL    HW125991   4.532   1.347   7.068  1.5012 -0.6426  0.0121
 4843SOL    HW225992   4.581   1.224   6.994 -0.2212 -1.0941  1.3238
 4844SOL     OW25993   2.112   3.494   4.150 -0.4871  0.3355 -0.0064
 4844SOL    HW125994   2.167   3.475   4.074 -1.9532  0.2242 -1.0323
 4844SOL    HW225995   2.115   3.410   4.197  0.3021 -0.2977 -1.1803
 4845SOL     OW25996   3.590   4.463   7.874 -0.4261  0.2882  0.4877
 4845SOL    HW125997   3.566   4.371   7.886 -2.1911  0.5425 -1.1100
 4845SOL    HW225998   3.594   4.463   7.779 -1.3130 -2.2755  0.4457
 4846SOL     OW25999   1.434   0.423   8.532 -0.6512  0.3327 -0.4202
 4846SOL    HW126000   1.447   0.406   8.625  2.1238  0.9356 -0.7003
 4846SOL    HW226001   1.493   0.355   8.499 -1.0906 -1.4235  2.4391
 4847SOL     OW26002   2.025   0.304   3.804 -0.1707  0.5057  0.5093
 4847SOL    HW126003   1.983   0.255   3.734  0.6318  0.0073  0.3775
 4847SOL    HW226004   2.005   0.252   3.881  1.3864 -0.8361 -0.0022
 4848SOL     OW26005   0.772   3.869   5.403 -0.2424 -0.6277  0.8795
 4848SOL    HW126006   0.678   3.887   5.391 -0.0693 -1.0797 -1.2694
 4848SOL    HW226007   0.782   3.786   5.355  1.7274  0.4281 -0.5248
 4849SOL     OW26008   3.303   2.385   6.758  0.0586  0.1076  0.1331
 4849SOL    HW126009   3.324   2.319   6.692  1.6834  0.5056  0.2626
 4849SOL    HW226010   3.211   2.402   6.736 -0.0163  0.9489  1.1030
 4850SOL     OW26011   0.268   2.304   2.822  0.4602 -0.1387  0.0917
 4850SOL    HW126012   0.172   2.300   2.819  0.5058 -0.1344 -1.4114
 4850SOL    HW226013   0.274   2.332   2.913  3.9779  1.6534 -0.7224
 4851SOL     OW26014   1.612   4.361  17.670 -0.0740  0.5303  0.0236
 4851SOL    HW126015   1.525   4.336   0.003 -0.1283  1.6170  0.7471
 4851SOL    HW226016   1.645   4.403   0.052 -0.2894 -0.8499  0.8523
 4852SOL     OW26017   4.580   1.329  16.896 -0.4657 -0.7358 -0.7528
 4852SOL    HW126018   4.534   1.249  16.919  1.5760 -1.0253  2.2994
 4852SOL    HW226019   4.613   1.314  16.808  2.6557 -2.3524  0.7118
 4853SOL     OW26020   1.735   2.112   7.085  0.5357  0.0488  0.4073
 4853SOL    HW126021   1.822   2.093   7.049 -0.3055 -1.3909 -0.8538
 4853SOL    HW226022   1.750   2.141   7.175 -0.4758 -0.8768  0.8580
 4854SOL     OW26023   1.875   1.336   1.846 -0.4065 -0.2019  0.5577
 4854SOL    HW126024   1.802   1.397   1.843 -0.9329 -0.8369  0.3266
 4854SOL    HW226025   1.937   1.381   1.789 -0.3076 -0.3320  0.5610
 4855SOL     OW26026   3.513   0.245   3.987  0.0368 -0.1162 -0.1179
 4855SOL    HW126027   3.529   0.207   3.901  1.1148  0.8399 -0.3380
 4855SOL    HW226028   3.502   0.337   3.960 -0.0686  0.6389  2.4447
 4856SOL     OW26029   2.448   3.466  10.400  0.3985 -0.2380 -0.1090
 4856SOL    HW126030   2.522   3.406  10.409 -1.2435 -2.2532 -0.0321
 4856SOL    HW226031   2.489   3.552  10.390 -1.9852  1.0437  1.0387
 4857SOL     OW26032   3.896   0.971   5.822  0.3395 -0.4946 -0.6229
 4857SOL    HW126033   3.857   0.891   5.858  0.7390  0.4911  2.0503
 4857SOL    HW226034   3.855   0.970   5.736 -0.9850 -0.9803  0.0059
 4858SOL     OW26035   3.114   4.326   2.823 -0.6746  0.0682  0.9648
 4858SOL    HW126036   3.089   4.242   2.861 -2.6662  0.9417  1.5906
 4858SOL    HW226037   3.042   4.374   2.865 -2.0844 -1.4076  0.2521
 4859SOL     OW26038   2.464   2.761   9.537  0.2541 -0.2360 -0.3722
 4859SOL    HW126039   2.480   2.731   9.626  1.6696  2.1864  0.2007
 4859SOL    HW226040   2.506   2.684   9.498 -1.6461 -1.2495 -0.4302
 4860SOL     OW26041   1.988   3.118   5.562 -0.3123  0.1978  1.2532
 4860SOL    HW126042   2.071   3.076   5.541  0.0641  0.4003  2.3759
 4860SOL    HW226043   1.985   3.098   5.655 -1.1643  0.2480  1.2413
 4861SOL     OW26044   2.964   2.183   7.850 -0.2267 -0.4476  0.0995
 4861SOL    HW126045   3.005   2.100   7.871 -0.3179 -0.1380  1.4951
 4861SOL    HW226046   2.951   2.213   7.940 -1.6868 -2.3236  0.5316
 4862SOL     OW26047   2.884   0.163   5.841 -0.0650  0.0830  0.0546
 4862SOL    HW126048   2.966   0.158   5.889  0.5095 -0.1176 -0.9433
 4862SOL    HW226049   2.868   0.069   5.830 -1.6479  0.4595 -0.9343
 4863SOL     OW26050   2.089   3.259  14.801 -0.6616 -0.2926  0.4294
 4863SOL    HW126051   2.143   3.180  14.796  1.8133  1.4715 -1.2643
 4863SOL    HW226052   2.012   3.223  14.757  0.6217 -1.6489 -0.6806
 4864SOL     OW26053   0.776   0.549   4.518  0.5026  0.0290  0.5118
 4864SOL    HW126054   0.759   0.455   4.517 -1.0701  0.3435 -2.7955
 4864SOL    HW226055   0.712   0.572   4.585 -1.4108 -2.4677 -0.5021
 4865SOL     OW26056   4.539   1.422   3.704 -0.2838 -0.3776 -0.5757
 4865SOL    HW126057   4.485   1.358   3.657 -1.0491  0.4725 -0.8397
 4865SOL    HW226058   4.566   1.476   3.630 -0.2304  1.7977  1.0547
 4866SOL     OW26059   0.346   0.635   5.053 -0.3582 -0.3312  0.4201
 4866SOL    HW126060   0.392   0.696   5.111  0.0800 -0.4135  0.1566
 4866SOL    HW226061   0.334   0.684   4.973 -0.2378 -1.0393 -0.0347
 4867SOL     OW26062   1.270   3.194   9.246 -0.4077 -0.4902 -0.0104
 4867SOL    HW126063   1.338   3.140   9.206 -0.2903  0.3437 -0.9625
 4867SOL    HW226064   1.322   3.274   9.252 -0.0941 -0.6992  0.0535
 4868SOL     OW26065   3.465   1.621   5.697 -0.1106 -0.5791 -0.6323
 4868SOL    HW126066   3.543   1.614   5.643 -0.2600  1.5345 -1.0970
 4868SOL    HW226067   3.467   1.713   5.722  1.6891 -0.7231 -0.2512
 4869SOL     OW26068   0.082   1.035   1.822 -0.0566 -0.1017 -0.5369
 4869SOL    HW126069   0.049   0.959   1.869  0.2955  0.0613 -0.0306
 4869SOL    HW226070   4.720   1.077   1.814  0.3292  0.9774  1.1909
 4870SOL     OW26071   3.725   0.271   6.235 -0.4318  0.5967 -0.0881
 4870SOL    HW126072   3.672   0.343   6.201 -0.7430  1.0774  1.3885
 4870SOL    HW226073   3.663   0.202   6.258  0.8700 -0.0288  1.6130
 4871SOL     OW26074   4.538   3.457   5.386 -0.4250 -0.0427 -0.0423
 4871SOL    HW126075   4.509   3.533   5.335  0.9233 -0.8399 -1.9977
 4871SOL    HW226076   4.516   3.381   5.333 -1.3723  0.1681  0.0520
 4872SOL     OW26077   2.251   3.610  16.209  0.4119  0.1621 -0.7213
 4872SOL    HW126078   2.271   3.528  16.163  0.8955 -0.8281  1.2489
 4872SOL    HW226079   2.322   3.671  16.185  1.5227 -1.0110 -0.4360
 4873SOL     OW26080   3.774   3.595   7.149  0.3605  0.2898 -0.3468
 4873SOL    HW126081   3.700   3.592   7.209 -0.4000  0.8717 -1.2723
 4873SOL    HW226082   3.731   3.626   7.070  0.2577 -0.8110 -0.7307
 4874SOL     OW26083   0.861   1.247   5.417 -0.4709 -0.4636  0.4517
 4874SOL    HW126084   0.903   1.309   5.357  1.1047 -2.4093 -0.4579
 4874SOL    HW226085   0.806   1.200   5.355  0.1828 -0.1110 -0.4106
 4875SOL     OW26086   1.210   4.289   6.577  0.1108 -0.0146 -0.4282
 4875SOL    HW126087   1.261   4.341   6.514  0.1760 -0.7678 -1.0044
 4875SOL    HW226088   1.223   4.346   6.653 -0.1482 -0.0232 -0.3801
 4876SOL     OW26089   3.703   0.025   2.689 -0.4255 -0.5400  0.1410
 4876SOL    HW126090   3.756   0.099   2.717 -3.4643  1.5807  0.2753
 4876SOL    HW226091   3.712   0.028   2.594 -2.6834 -2.1024 -0.1109
 4877SOL     OW26092   1.816   4.031   2.822  0.8451 -0.1612 -0.0179
 4877SOL    HW126093   1.788   4.122   2.814 -0.1445 -0.4215  0.4166
 4877SOL    HW226094   1.829   4.015   2.729 -1.3495  0.3286 -0.4171
 4878SOL     OW26095   4.366   4.685   3.672  0.3391  0.5566  0.1368
 4878SOL    HW126096   4.271   4.686   3.681  0.5170  1.0110  1.9118
 4878SOL    HW226097   4.386   4.593   3.654 -1.3491  0.2879 -0.3320
 4879SOL     OW26098   2.748   1.119   7.252  0.0200  0.0048  0.2070
 4879SOL    HW126099   2.794   1.200   7.230  1.6105 -0.7702  0.6544
 4879SOL    HW226100   2.706   1.137   7.336 -0.7912  0.7772 -0.3718
 4880SOL     OW26101   1.421   3.051  10.985  0.0193  0.6439  0.6855
 4880SOL    HW126102   1.491   3.051  10.920 -0.1407  0.5203  0.5161
 4880SOL    HW226103   1.425   2.963  11.022  4.0454  0.9400  0.9998
 4881SOL     OW26104   4.652   2.335   7.003  0.0686 -0.4942  0.4787
 4881SOL    HW126105   4.696   2.261   6.962  0.8128  0.0387  0.3280
 4881SOL    HW226106   4.706   2.404   6.966  1.5849 -1.9485 -0.0023
 4882SOL     OW26107   3.740   2.440   4.892 -0.0134  0.7583 -0.5199
 4882SOL    HW126108   3.793   2.492   4.832 -1.2515  2.7237  0.0823
 4882SOL    HW226109   3.655   2.449   4.850  0.1448 -0.2336 -1.0423
 4883SOL     OW26110   2.761   0.019   2.379  0.1494  0.1236  0.6199
 4883SOL    HW126111   2.853   0.012   2.405  1.3334  1.1106 -3.2506
 4883SOL    HW226112   2.748   0.114   2.386 -0.8443 -0.0446  1.0456
 4884SOL     OW26113   0.280   3.920   8.086  0.6509  0.2501  0.2326
 4884SOL    HW126114   0.368   3.925   8.050  0.4520 -3.9566 -0.8227
 4884SOL    HW226115   0.277   3.998   8.142 -0.6387  1.7460 -1.9074
 4885SOL     OW26116   4.497   3.488  15.538 -0.4257 -0.0565 -0.0002
 4885SOL    HW126117   4.590   3.497  15.557 -0.3624  0.2762 -0.4620
 4885SOL    HW226118   4.467   3.553  15.602  0.5793 -0.8604  1.2876
 4886SOL     OW26119   4.248   4.503  16.418 -0.6102  0.2239  0.3601
 4886SOL    HW126120   4.266   4.555  16.496  1.4371 -1.1407  0.7926
 4886SOL    HW226121   4.155   4.522  16.404 -0.9823 -0.6839  1.6215
 4887SOL     OW26122   3.895   1.697   4.610  0.6566 -0.1865 -0.5867
 4887SOL    HW126123   3.864   1.779   4.571  1.5485 -0.7669 -2.4773
 4887SOL    HW226124   3.874   1.702   4.704 -2.8196  2.0752 -1.5041
 4888SOL     OW26125   2.739   3.981   1.597  0.2370  0.3327 -0.1017
 4888SOL    HW126126   2.703   3.957   1.683  1.7578  0.8091  0.6758
 4888SOL    HW226127   2.792   4.055   1.627  1.3343 -0.3311 -0.4294
 4889SOL     OW26128   3.847   0.166   4.958  0.1375 -0.1003  0.2984
 4889SOL    HW126129   3.940   0.152   4.979  0.3064  1.3257  0.5183
 4889SOL    HW226130   3.819   0.078   4.983  1.8694 -0.3642  1.3587
 4890SOL     OW26131   3.016   2.951   4.309  0.5862  0.1543  0.4980
 4890SOL    HW126132   2.933   2.990   4.282  0.4822 -1.0597 -0.9619
 4890SOL    HW226133   3.064   2.968   4.228 -1.0588  1.1191 -0.2621
 4891SOL     OW26134   4.660   3.847   4.043 -0.3602  0.2397  0.4705
 4891SOL    HW126135   4.577   3.853   4.089 -0.2329 -0.4342  0.7858
 4891SOL    HW226136   4.700   3.766   4.076 -0.2308 -0.3139 -1.0257
 4892SOL     OW26137   2.725   2.885   5.490 -0.2210 -0.0332 -0.4027
 4892SOL    HW126138   2.786   2.918   5.424 -2.3001  4.1603 -0.2303
 4892SOL    HW226139   2.766   2.915   5.571 -0.5518 -1.0512  0.1510
 4893SOL     OW26140   0.452   2.954  17.610  0.4903 -0.1516  0.2520
 4893SOL    HW126141   0.479   2.960  17.518 -0.9443  0.3202 -0.1309
 4893SOL    HW226142   0.384   3.021  17.602  0.7939  0.2879  1.4550
 4894SOL     OW26143   2.051   3.280  12.306 -0.0348 -0.1414  0.5115
 4894SOL    HW126144   2.134   3.279  12.354  0.8422 -3.3844 -1.0631
 4894SOL    HW226145   2.072   3.234  12.224 -0.0336  2.3161 -0.8631
 4895SOL     OW26146   1.672   0.677   1.459  0.5485 -0.1554 -1.2036
 4895SOL    HW126147   1.764   0.657   1.438  1.6268  0.3771  3.1580
 4895SOL    HW226148   1.659   0.760   1.414 -0.3161  0.7866  0.7989
 4896SOL     OW26149   2.942   3.684   3.275  0.6225 -0.6214 -0.0833
 4896SOL    HW126150   3.003   3.719   3.211  0.7251  1.9779  1.4261
 4896SOL    HW226151   2.858   3.699   3.232  1.5216  0.8927 -1.3311
 4897SOL     OW26152   0.305   1.664   7.412 -0.0389  0.1570 -0.1676
 4897SOL    HW126153   0.215   1.641   7.390  0.4639 -0.2982 -1.7959
 4897SOL    HW226154   0.300   1.756   7.437 -1.1068 -0.3717  1.5373
 4898SOL     OW26155   3.835   2.787   6.582  0.1291 -0.2196  0.2488
 4898SOL    HW126156   3.878   2.866   6.548 -2.2425  2.3556  3.2187
 4898SOL    HW226157   3.878   2.793   6.667  1.2118  0.2381 -0.3255
 4899SOL     OW26158   2.345   1.695   1.882 -1.0337 -0.5453  0.2501
 4899SOL    HW126159   2.298   1.762   1.832  2.1511  1.0186 -0.6100
 4899SOL    HW226160   2.268   1.647   1.913 -1.4354 -0.8351 -1.1974
 4900SOL     OW26161   3.196   1.702   9.988  0.8831 -0.1375  0.4620
 4900SOL    HW126162   3.287   1.726  10.008  0.0991  1.4238  2.1011
 4900SOL    HW226163   3.141   1.771  10.024  0.3864 -1.3202  1.9669
 4901SOL     OW26164   0.867   4.350  14.227 -0.0919 -0.1920  0.4936
 4901SOL    HW126165   0.792   4.407  14.242  0.9709  1.6359 -1.0257
 4901SOL    HW226166   0.948   4.401  14.239 -0.2294  0.4207 -1.1231
 4902SOL     OW26167   1.456   3.917   6.065 -0.5646  0.3703  0.4843
 4902SOL    HW126168   1.506   3.839   6.042 -0.1902  1.1218 -1.2377
 4902SOL    HW226169   1.505   3.965   6.131  0.0258  1.6748 -0.9067
 4903SOL     OW26170   4.185   4.575   3.109 -0.0009  0.5904 -0.4179
 4903SOL    HW126171   4.224   4.612   3.188  0.6593 -0.0728 -0.4342
 4903SOL    HW226172   4.254   4.608   3.051  0.1728 -1.5237 -1.4239
 4904SOL     OW26173   4.013   2.247   0.303  0.2600  0.4829  0.4160
 4904SOL    HW126174   4.100   2.207   0.300 -0.2460 -0.4164 -2.1702
 4904SOL    HW226175   4.015   2.283   0.392 -0.3263  1.4085  0.0559
 4905SOL     OW26176   2.886   2.662  15.820 -0.0604 -0.6327 -0.2985
 4905SOL    HW126177   2.899   2.696  15.908  1.2225 -1.9472  0.0192
 4905SOL    HW226178   2.892   2.741  15.766  1.5770  1.7087  3.3432
 4906SOL     OW26179   0.243   1.444   1.873  0.0533 -0.1720 -0.3894
 4906SOL    HW126180   0.247   1.377   1.942  0.1181  0.9897  0.7153
 4906SOL    HW226181   0.151   1.466   1.887  0.2696  0.5458 -0.1083
 4907SOL     OW26182   2.559   0.045   7.918  0.8788  0.2013  0.7717
 4907SOL    HW126183   2.618   4.699   7.889  0.3477 -0.0575  0.3287
 4907SOL    HW226184   2.471   0.008   7.917  0.1909  1.7908  1.5744
 4908SOL     OW26185   2.445   3.343  17.508  0.7326  0.6293 -0.0742
 4908SOL    HW126186   2.407   3.424  17.472 -0.9894  0.5050  1.4830
 4908SOL    HW226187   2.417   3.347  17.599 -1.2566 -0.8623 -0.6170
 4909SOL     OW26188   3.987   3.872  13.362 -0.6585  0.4010  0.7882
 4909SOL    HW126189   3.930   3.795  13.370 -1.2445  0.7766  0.1848
 4909SOL    HW226190   3.922   3.941  13.361 -2.0171 -0.8876 -1.6047
 4910SOL     OW26191   3.198   1.199   6.537 -0.0386 -0.8257  0.1063
 4910SOL    HW126192   3.220   1.227   6.448 -1.1651  0.3227  0.1990
 4910SOL    HW226193   3.282   1.159   6.559 -0.0272 -2.0168 -2.0556
 4911SOL     OW26194   3.823   1.957  11.575 -0.4578  0.2328  0.2894
 4911SOL    HW126195   3.857   1.870  11.593  0.6468  0.5042 -0.4644
 4911SOL    HW226196   3.799   1.937  11.485 -2.2896  1.7545  0.4290
 4912SOL     OW26197   0.280   0.980  15.979 -0.1956  0.2554 -0.2367
 4912SOL    HW126198   0.334   1.057  15.996 -1.0290  0.6670  0.5193
 4912SOL    HW226199   0.271   0.950  16.070 -0.9239  2.6134  0.4587
 4913SOL     OW26200   1.210   3.818  14.501 -0.2071  0.5133  0.2953
 4913SOL    HW126201   1.140   3.880  14.480 -0.3983 -0.0677 -0.7952
 4913SOL    HW226202   1.177   3.768  14.577 -0.2002  2.2272  1.4246
 4914SOL     OW26203   3.951   2.666  17.008 -0.2731  0.1091 -0.0403
 4914SOL    HW126204   3.993   2.697  16.928  0.9075 -0.3165  0.4010
 4914SOL    HW226205   4.007   2.718  17.067 -2.1023 -0.0000  1.7830
 4915SOL     OW26206   4.377   1.896   2.550  0.2922  0.1916  0.0365
 4915SOL    HW126207   4.386   1.991   2.547  0.2183  0.1515 -1.3328
 4915SOL    HW226208   4.386   1.864   2.460  0.5202 -3.3994  1.3580
 4916SOL     OW26209   2.783   3.377   3.616 -0.5713 -0.6907  0.2279
 4916SOL    HW126210   2.867   3.377   3.571 -1.2719  0.3072 -1.0961
 4916SOL    HW226211   2.738   3.445   3.565  0.0982 -1.5210 -1.4598
 4917SOL     OW26212   1.223   0.215  11.730  0.5852 -0.9731  0.6326
 4917SOL    HW126213   1.262   0.201  11.644 -0.7332  0.6959 -0.2264
 4917SOL    HW226214   1.236   0.309  11.741  0.0640 -1.1356  2.6757
 4918SOL     OW26215   3.300   3.105   7.268  0.0996 -0.4457  0.3300
 4918SOL    HW126216   3.271   3.088   7.178  0.5854  0.3574  0.0139
 4918SOL    HW226217   3.259   3.034   7.317  0.1772 -2.1177 -2.0611
 4919SOL     OW26218   2.662   2.561  14.351 -0.5081  0.1137 -0.0616
 4919SOL    HW126219   2.664   2.478  14.304  1.9203 -0.8783  1.8317
 4919SOL    HW226220   2.578   2.590  14.314 -1.0385 -1.5609 -0.1390
 4920SOL     OW26221   2.142   3.674   0.805 -0.8524 -0.4461 -0.9931
 4920SOL    HW126222   2.150   3.646   0.896  1.3624 -0.4422 -1.1773
 4920SOL    HW226223   2.075   3.612   0.776 -0.9592 -0.8403  0.1068
 4921SOL     OW26224   3.250   3.121  16.003 -0.1004  0.6665  0.0209
 4921SOL    HW126225   3.181   3.128  16.069  1.7664  0.7461  1.9578
 4921SOL    HW226226   3.198   3.117  15.923  2.0342 -0.4662 -1.3027
 4922SOL     OW26227   2.701   0.613   2.520  0.3956  0.5854  0.0703
 4922SOL    HW126228   2.634   0.561   2.564  1.3922  1.0482  2.1003
 4922SOL    HW226229   2.706   0.555   2.444  2.2492 -1.8608  2.1029
 4923SOL     OW26230   0.115   2.374  14.811 -0.2480  0.5190 -0.0048
 4923SOL    HW126231   0.021   2.357  14.822 -0.2303  0.6694  0.3681
 4923SOL    HW226232   0.147   2.309  14.873 -1.2061  1.6880  1.7029
 4924SOL     OW26233   3.978   0.284  11.047 -0.0884 -0.9169 -0.4191
 4924SOL    HW126234   3.952   0.275  10.956 -0.7058  0.7256 -0.4174
 4924SOL    HW226235   3.933   0.365  11.071 -0.7677 -1.3715 -0.1720
 4925SOL     OW26236   3.020   1.888  16.187  0.2976  0.0551  0.3392
 4925SOL    HW126237   2.927   1.887  16.211 -0.1906 -0.4492 -1.6292
 4925SOL    HW226238   3.056   1.976  16.184  1.5034 -0.3567  2.3414
 4926SOL     OW26239   3.981   1.190  14.136 -0.2452 -0.9208 -1.2037
 4926SOL    HW126240   3.961   1.163  14.047  0.7988  2.4665 -2.4768
 4926SOL    HW226241   3.921   1.135  14.186  2.3547 -1.0639  1.7863
 4927SOL     OW26242   2.484   4.270   7.272 -0.0707 -0.2482  0.3040
 4927SOL    HW126243   2.404   4.230   7.237  0.4392  0.2352 -1.4046
 4927SOL    HW226244   2.438   4.353   7.279 -0.5955 -0.6194  1.2467
 4928SOL     OW26245   3.778   4.200   5.284 -0.1624 -0.1718  0.5034
 4928SOL    HW126246   3.837   4.197   5.208 -1.5812 -1.9725 -0.5134
 4928SOL    HW226247   3.695   4.216   5.240 -1.0458  1.2927  2.7024
 4929SOL     OW26248   0.942   2.198   1.073  0.3290  0.2263 -0.1369
 4929SOL    HW126249   1.032   2.164   1.073  0.6642  1.1172 -0.3623
 4929SOL    HW226250   0.920   2.201   0.980  0.4531 -0.1938 -0.1793
 4930SOL     OW26251   0.737   1.246   7.614  0.3073 -0.4168  0.0741
 4930SOL    HW126252   0.662   1.306   7.611 -0.5956 -1.5905 -0.8217
 4930SOL    HW226253   0.771   1.277   7.698  2.8932 -0.0979 -1.0995
 4931SOL     OW26254   3.003   3.661  15.659 -0.6333  0.5449 -0.1172
 4931SOL    HW126255   3.053   3.620  15.730  0.0421  0.3502 -0.7005
 4931SOL    HW226256   2.935   3.595  15.645 -1.3966  1.1726  0.6269
 4932SOL     OW26257   4.161   4.277   1.306 -0.1722 -0.0598 -0.0521
 4932SOL    HW126258   4.229   4.237   1.360  0.4812  0.5233 -0.4395
 4932SOL    HW226259   4.089   4.214   1.306 -1.4065  1.3494 -0.8270
 4933SOL     OW26260   4.109   0.800   6.552  0.1894 -0.4079 -0.0503
 4933SOL    HW126261   4.169   0.733   6.519 -0.1066 -1.7518  2.1558
 4933SOL    HW226262   4.068   0.829   6.470  0.7435  1.1460  0.2213
 4934SOL     OW26263   0.237   0.834  15.541 -0.3830  0.1520  0.0305
 4934SOL    HW126264   0.312   0.879  15.581  0.4605  0.2836 -1.7244
 4934SOL    HW226265   0.195   0.783  15.610 -2.7794 -0.1389 -1.6608
 4935SOL     OW26266   1.149   4.658   4.258 -0.0373 -0.0537  0.0426
 4935SOL    HW126267   1.115   0.022   4.272 -0.9709 -0.5193  0.6878
 4935SOL    HW226268   1.234   4.671   4.215 -0.1355 -0.1037 -0.1648
 4936SOL     OW26269   4.315   0.981   2.998 -0.0999 -0.0364 -0.4035
 4936SOL    HW126270   4.283   0.906   3.049 -0.7074  0.7376  0.3545
 4936SOL    HW226271   4.285   0.960   2.910 -0.9651 -1.8322  0.3267
 4937SOL     OW26272   3.224   1.067   4.472  0.1100  0.4077  0.2267
 4937SOL    HW126273   3.227   1.100   4.382 -1.6911  0.4702  0.2034
 4937SOL    HW226274   3.289   1.126   4.512  0.3042  0.9222 -0.8298
 4938SOL     OW26275   1.913   0.211   6.644  0.3610  0.3212 -0.6143
 4938SOL    HW126276   2.006   0.218   6.667  0.0520 -2.4038  1.4191
 4938SOL    HW226277   1.897   0.298   6.679  1.1338 -0.4156  1.5740
 4939SOL     OW26278   2.490   2.888   4.313  0.1370  0.1186  0.4940
 4939SOL    HW126279   2.442   2.855   4.389 -0.8160  1.5502  0.5114
 4939SOL    HW226280   2.422   2.929   4.260 -0.5035  0.3144  1.4696
 4940SOL     OW26281   1.404   2.162  16.836 -0.3415 -0.4759 -0.5016
 4940SOL    HW126282   1.499   2.158  16.835 -0.3561 -0.9265  0.1218
 4940SOL    HW226283   1.389   2.135  16.926  0.9039  1.8271  0.4071
 4941SOL     OW26284   3.265   2.619   7.855 -0.6752  0.5036 -0.1976
 4941SOL    HW126285   3.177   2.657   7.863 -0.5984  0.6660 -0.1289
 4941SOL    HW226286   3.288   2.594   7.944 -0.5657 -0.1797 -0.4196
 4942SOL     OW26287   1.190   4.478   6.826 -0.2052 -0.3800  0.0740
 4942SOL    HW126288   1.195   4.565   6.786 -0.8270  0.9087  2.7370
 4942SOL    HW226289   1.282   4.459   6.844  0.1701  0.1518 -1.2911
 4943SOL     OW26290   3.531   0.373   7.844 -0.2996 -0.2754  0.0240
 4943SOL    HW126291   3.508   0.429   7.917  1.4829 -0.8471  1.0323
 4943SOL    HW226292   3.623   0.370   7.870 -0.6664 -3.2277  0.9609
 4944SOL     OW26293   4.370   2.709   4.744  0.3682  0.5373  0.5927
 4944SOL    HW126294   4.391   2.617   4.758  1.9172  0.4887 -2.1877
 4944SOL    HW226295   4.409   2.711   4.657  0.0674 -1.0473  0.4255
 4945SOL     OW26296   1.854   4.067   0.734 -0.0201  0.3338 -0.3444
 4945SOL    HW126297   1.759   4.051   0.731 -0.2595  1.4294  1.8306
 4945SOL    HW226298   1.864   4.130   0.662 -0.7614  2.4642  1.4210
 4946SOL     OW26299   1.252   1.512   0.744 -0.4421 -0.3129  0.1497
 4946SOL    HW126300   1.332   1.464   0.724 -1.0216 -0.2672 -2.2162
 4946SOL    HW226301   1.226   1.544   0.658  0.7407  0.4366  0.0809
 4947SOL     OW26302   4.359   3.354   5.714 -0.2237 -0.1530 -0.3680
 4947SOL    HW126303   4.416   3.381   5.786  0.3399 -0.3808 -0.7290
 4947SOL    HW226304   4.415   3.292   5.668 -1.3079 -1.5376  0.1334
 4948SOL     OW26305   3.140   2.593   2.762 -0.0923  0.2512 -0.4921
 4948SOL    HW126306   3.114   2.502   2.763  0.8561 -0.0076  0.4059
 4948SOL    HW226307   3.105   2.619   2.676  2.4469 -2.0578 -2.2108
 4949SOL     OW26308   4.105   4.460   6.199 -0.4003  0.2545 -0.2016
 4949SOL    HW126309   4.028   4.465   6.256  0.0225  0.2046  0.3743
 4949SOL    HW226310   4.103   4.541   6.149  0.1413  0.2182 -0.2826
 4950SOL     OW26311   2.224   3.425   9.319  0.2544  0.5541 -0.3999
 4950SOL    HW126312   2.276   3.454   9.245  2.7231  1.6397  1.7676
 4950SOL    HW226313   2.287   3.440   9.390  0.5543 -1.0746 -0.3084
 4951SOL     OW26314   3.543   1.480   4.070 -0.1713 -0.2316  0.0287
 4951SOL    HW126315   3.595   1.514   4.143  1.0065  1.3576 -1.5611
 4951SOL    HW226316   3.608   1.436   4.016 -0.3649  1.7566 -1.8258
 4952SOL     OW26317   0.872   4.387   3.535  0.1356 -0.0440 -0.0290
 4952SOL    HW126318   0.929   4.451   3.578 -1.1918 -0.3016  2.1099
 4952SOL    HW226319   0.805   4.381   3.603  0.5131  0.7635  0.4145
 4953SOL     OW26320   2.103   2.632   3.442  0.2758  0.2473  0.3502
 4953SOL    HW126321   2.061   2.636   3.528  2.9271 -1.3604  1.7336
 4953SOL    HW226322   2.174   2.696   3.451  0.6823 -0.2432  0.6387
 4954SOL     OW26323   3.723   3.134  12.885 -0.0583  0.3642  0.2712
 4954SOL    HW126324   3.674   3.073  12.830  0.3575 -0.1806  0.4925
 4954SOL    HW226325   3.706   3.219  12.845  0.2586  0.1940 -0.2293
 4955SOL     OW26326   2.794   4.719   0.104 -1.1096 -0.2477  0.0098
 4955SOL    HW126327   2.710   4.705   0.060 -2.2243 -0.2555  2.1516
 4955SOL    HW226328   2.782   4.675   0.188  4.2691 -1.5989  0.0929
 4956SOL     OW26329   3.037   4.701   4.377  0.4379 -0.6644 -0.2784
 4956SOL    HW126330   3.002   4.707   4.288  1.5592  0.2301 -0.6534
 4956SOL    HW226331   2.959   4.662   4.417 -1.3976  1.6473 -1.6261
 4957SOL     OW26332   2.089   0.939   7.693 -0.4532  0.2701  0.3387
 4957SOL    HW126333   2.136   0.856   7.693 -2.6890 -0.9991 -0.3302
 4957SOL    HW226334   2.060   0.949   7.783  0.1403  0.6254  0.4894
 4958SOL     OW26335   0.820   1.525  14.181 -0.3697 -0.1074  0.2205
 4958SOL    HW126336   0.872   1.497  14.106  0.2426 -1.5416  1.1625
 4958SOL    HW226337   0.758   1.452  14.180  0.6450 -0.9521 -1.3577
 4959SOL     OW26338   1.781   0.186   6.092  0.0982 -0.1964  0.1999
 4959SOL    HW126339   1.818   0.098   6.082  1.0577  0.2171  0.0631
 4959SOL    HW226340   1.836   0.208   6.168  0.4452  0.4565 -0.2398
 4960SOL     OW26341   3.276   0.902   2.258 -0.0934 -0.2520  0.4981
 4960SOL    HW126342   3.247   0.940   2.175  1.8350  0.7204  0.2657
 4960SOL    HW226343   3.198   0.850   2.279 -1.5741  1.2598 -1.3216
 4961SOL     OW26344   2.768   3.461  16.071 -0.7354 -0.9627  0.1420
 4961SOL    HW126345   2.852   3.506  16.064 -1.4227  0.7950  2.7379
 4961SOL    HW226346   2.700   3.527  16.091 -0.3955 -0.9482  1.2749
 4962SOL     OW26347   1.568   0.340   6.125 -0.2634  0.3663  0.3730
 4962SOL    HW126348   1.589   0.421   6.078 -0.6516  0.2786  0.0506
 4962SOL    HW226349   1.648   0.288   6.119 -0.5819 -0.2415  1.3557
 4963SOL     OW26350   0.933   3.157  14.513  0.0078 -0.3465 -0.6308
 4963SOL    HW126351   0.864   3.156  14.447 -0.0720 -2.1433 -0.5054
 4963SOL    HW226352   0.974   3.072  14.497 -0.1096 -0.3449 -0.9331
 4964SOL     OW26353   3.263   1.098   4.907 -0.5270 -0.2679 -0.5539
 4964SOL    HW126354   3.235   1.007   4.916 -0.2535 -0.1567  1.5843
 4964SOL    HW226355   3.188   1.146   4.941 -0.2197  0.9719 -1.6565
 4965SOL     OW26356   3.909   2.680   7.197 -0.1319 -0.1089  0.4601
 4965SOL    HW126357   3.834   2.622   7.212  0.4923 -1.1311 -0.3717
 4965SOL    HW226358   3.972   2.634   7.253  0.5609  1.3529  0.8611
 4966SOL     OW26359   0.174   0.226   4.470 -0.9522 -0.9758  0.2087
 4966SOL    HW126360   0.211   0.168   4.404  0.3026  0.1791 -0.0981
 4966SOL    HW226361   0.172   0.171   4.548 -2.3967 -0.7730  0.3259
 4967SOL     OW26362   2.722   3.874   9.470  0.3546  0.7907  0.7528
 4967SOL    HW126363   2.635   3.902   9.442 -0.3428 -0.4991  1.5938
 4967SOL    HW226364   2.774   3.864   9.390  1.2375  1.9314  1.1889
 4968SOL     OW26365   2.353   3.070  17.455 -0.3483  0.1181  0.2506
 4968SOL    HW126366   2.417   3.004  17.430  1.8947  0.4378  5.1951
 4968SOL    HW226367   2.401   3.153  17.461  0.4665 -0.1766 -2.4471
 4969SOL     OW26368   1.681   2.724   7.225  0.9438 -0.2797  0.4527
 4969SOL    HW126369   1.776   2.724   7.209  0.8153 -0.5862 -0.3028
 4969SOL    HW226370   1.669   2.800   7.169  1.2755 -1.2884 -0.9660
 4970SOL     OW26371   3.326   3.999  11.063  0.4946 -0.2443  0.4723
 4970SOL    HW126372   3.325   3.906  11.043 -0.7764 -0.1895  0.2707
 4970SOL    HW226373   3.231   4.008  11.064  0.6370  1.2051  1.0856
 4971SOL     OW26374   2.764   1.199   3.094 -0.2063  0.2273  0.5303
 4971SOL    HW126375   2.808   1.122   3.059  1.1029  1.3768 -0.3207
 4971SOL    HW226376   2.834   1.256   3.126 -0.2286  0.3503  0.3611
 4972SOL     OW26377   2.159   0.859  14.967  0.2369  0.0819 -0.0565
 4972SOL    HW126378   2.139   0.785  15.024 -1.7360  2.2442  2.0391
 4972SOL    HW226379   2.146   0.817  14.882 -0.1030  2.8848 -1.3776
 4973SOL     OW26380   4.163   1.269  11.572  0.1036  0.3552 -0.1678
 4973SOL    HW126381   4.125   1.207  11.509 -2.5620  1.0513  0.7731
 4973SOL    HW226382   4.243   1.222  11.594 -0.5721  0.0534  1.6200
 4974SOL     OW26383   2.465   0.791   1.166 -0.4484 -0.1598  0.2409
 4974SOL    HW126384   2.534   0.730   1.139  0.1062  0.1869  0.8847
 4974SOL    HW226385   2.513   0.858   1.215 -0.4112  1.5964 -2.2121
 4975SOL     OW26386   4.718   3.933   7.560  0.0765  0.8397 -0.3891
 4975SOL    HW126387   0.052   3.908   7.488 -0.2688  1.3124 -0.8378
 4975SOL    HW226388   4.669   3.854   7.582 -1.4840  1.6771 -0.7933
 4976SOL     OW26389   0.996   4.321  10.519 -0.3398  0.3990  0.5501
 4976SOL    HW126390   0.993   4.227  10.501 -1.7289  0.4186  0.6567
 4976SOL    HW226391   1.012   4.356  10.431 -1.0651  0.1703  0.3224
 4977SOL     OW26392   0.266   1.469   7.756 -0.2246  0.3201  0.9105
 4977SOL    HW126393   0.175   1.494   7.741 -0.0355  0.9486  0.8162
 4977SOL    HW226394   0.307   1.555   7.761  1.1124 -0.3090  0.7924
 4978SOL     OW26395   1.776   4.345  13.625  0.4636  0.4170  0.1881
 4978SOL    HW126396   1.812   4.261  13.653  0.8685  0.5183 -0.0284
 4978SOL    HW226397   1.830   4.402  13.679  0.2889  1.0751 -0.3166
 4979SOL     OW26398   0.059   1.257  16.409  0.4420 -0.2245  0.3128
 4979SOL    HW126399   0.011   1.245  16.328 -0.2682 -0.9290  0.8329
 4979SOL    HW226400   0.148   1.277  16.380  0.0943  2.0426  0.8267
 4980SOL     OW26401   2.519   3.306   3.699 -0.0587  0.3339 -0.3683
 4980SOL    HW126402   2.520   3.402   3.710 -1.3920  0.3234 -0.1216
 4980SOL    HW226403   2.446   3.301   3.637  0.1195  0.5612 -0.5973
 4981SOL     OW26404   3.930   4.675   3.507  0.1246  0.4658 -0.3880
 4981SOL    HW126405   3.853   4.724   3.477 -0.4698 -0.0959  0.2305
 4981SOL    HW226406   3.999   4.709   3.450 -1.0520  1.5229 -1.2056
 4982SOL     OW26407   1.540   4.563   3.718  0.1289 -0.5280 -0.4974
 4982SOL    HW126408   1.467   4.569   3.656  0.5682  0.1099 -0.9584
 4982SOL    HW226409   1.586   4.496   3.667  0.2053 -0.5904 -0.3462
 4983SOL     OW26410   0.266   4.492  17.381  0.1866  0.0079 -0.4888
 4983SOL    HW126411   0.258   4.396  17.381 -1.5820  0.1491  1.2940
 4983SOL    HW226412   0.360   4.499  17.398 -0.0555  0.8570  0.5196
 4984SOL     OW26413   1.421   3.039   1.165 -0.3926  0.6598 -0.7893
 4984SOL    HW126414   1.419   3.001   1.078  0.1440  1.6350 -1.2331
 4984SOL    HW226415   1.455   2.963   1.211  1.9690  2.2880  0.1450
 4985SOL     OW26416   3.832   0.605  11.574  0.4774 -0.6275  0.3648
 4985SOL    HW126417   3.742   0.592  11.603  0.6563  0.9506  1.6392
 4985SOL    HW226418   3.867   0.518  11.591  1.0549  0.0708  2.7932
 4986SOL     OW26419   2.930   3.359   7.782  0.3347  0.2571 -0.4815
 4986SOL    HW126420   2.995   3.300   7.743 -0.9137 -0.3945 -1.6093
 4986SOL    HW226421   2.852   3.306   7.765 -0.2012  0.2629  1.9780
 4987SOL     OW26422   3.150   3.090   4.080  0.0043  0.2323 -0.2944
 4987SOL    HW126423   3.221   3.152   4.062  0.0336 -0.5364 -2.8949
 4987SOL    HW226424   3.116   3.079   3.991 -1.8044  1.8443  0.1873
 4988SOL     OW26425   4.671   4.622   8.600  0.4414 -0.5811 -0.0326
 4988SOL    HW126426   4.680   4.713   8.571  2.5745 -0.9295 -0.4657
 4988SOL    HW226427   4.661   4.630   8.695 -0.4654 -2.9732  0.0726
 4989SOL     OW26428   0.823   3.277  10.760 -0.3911 -0.3539 -0.3247
 4989SOL    HW126429   0.835   3.182  10.752  1.0501 -0.2351  0.4310
 4989SOL    HW226430   0.770   3.291  10.681 -0.6730  0.5102  0.0260
 4990SOL     OW26431   3.200   3.362   7.015 -0.0147  0.0293  0.1206
 4990SOL    HW126432   3.222   3.269   7.017 -0.8757 -0.1438  1.3896
 4990SOL    HW226433   3.105   3.350   7.008 -0.2837  1.5634  1.2771
 4991SOL     OW26434   2.091   1.985   5.061  0.3072 -0.1297 -0.1247
 4991SOL    HW126435   2.159   1.985   5.128 -0.9608 -0.4646  1.1582
 4991SOL    HW226436   2.079   1.890   5.052 -0.6475 -0.1172  0.9958
 4992SOL     OW26437   2.656   1.036   4.884 -0.3749 -0.0219 -0.3437
 4992SOL    HW126438   2.713   1.103   4.922 -0.8320  0.6263 -0.8185
 4992SOL    HW226439   2.613   1.012   4.966 -1.0159 -1.4897 -1.1043
 4993SOL     OW26440   4.244   3.363   7.384 -0.0478  0.4720 -0.2578
 4993SOL    HW126441   4.258   3.301   7.313 -0.8972 -0.5579  0.4779
 4993SOL    HW226442   4.201   3.439   7.345 -2.6114 -0.2434  1.1555
 4994SOL     OW26443   3.444   0.321   5.947  1.1911 -0.2309 -0.1678
 4994SOL    HW126444   3.504   0.365   6.007  0.5844 -1.4899  1.3663
 4994SOL    HW226445   3.484   0.235   5.960  0.7655 -0.6713 -1.8188
 4995SOL     OW26446   2.364   4.587   3.314 -0.1132 -0.3671  0.0280
 4995SOL    HW126447   2.430   4.642   3.272 -2.6496  0.9169 -2.3393
 4995SOL    HW226448   2.385   4.611   3.404 -0.0090  0.4964 -0.2210
 4996SOL     OW26449   1.608   1.815   8.709  0.1813 -0.5015 -0.1423
 4996SOL    HW126450   1.559   1.890   8.675 -0.8051 -0.1724  2.0086
 4996SOL    HW226451   1.662   1.865   8.771 -1.1711  0.3164  0.3689
 4997SOL     OW26452   2.886   0.898  12.272  0.1485  0.5265  0.0406
 4997SOL    HW126453   2.860   0.970  12.329  0.4937 -2.2491  3.7019
 4997SOL    HW226454   2.801   0.877  12.235  0.3045  0.2851 -0.1774
 4998SOL     OW26455   2.860   0.032   8.511 -0.6051  0.1660  0.1640
 4998SOL    HW126456   2.951   0.028   8.541 -0.5956 -1.6183 -0.0577
 4998SOL    HW226457   2.880   4.679   8.457  1.1288  0.2286  0.7271
 4999SOL     OW26458   2.142   4.340   7.686  0.0728  1.1411  0.2856
 4999SOL    HW126459   2.110   4.372   7.770 -1.3326  0.1136  0.1254
 4999SOL    HW226460   2.096   4.259   7.667  1.3763  0.3574  0.4575
 5000SOL     OW26461   3.891   2.658   2.803  0.2504 -0.8058 -0.3365
 5000SOL    HW126462   3.905   2.620   2.717 -2.7844 -0.3124 -1.0375
 5000SOL    HW226463   3.809   2.617   2.831 -0.0854  0.0628 -0.0290
 5001SOL     OW26464   0.542   0.067   4.534  0.2303 -0.1585  0.1707
 5001SOL    HW126465   0.510   0.010   4.465  0.9679 -0.1820 -0.1587
 5001SOL    HW226466   0.595   0.002   4.581 -0.2668 -0.7027 -0.0259
 5002SOL     OW26467   2.183   1.687   1.452  0.8604  0.0099 -0.5024
 5002SOL    HW126468   2.248   1.745   1.491  1.6771  0.4326 -2.5089
 5002SOL    HW226469   2.242   1.632   1.401  1.4751  0.7167 -0.5552
 5003SOL     OW26470   4.525   2.936   8.442  0.2445 -0.0077 -0.7972
 5003SOL    HW126471   4.557   2.922   8.353 -1.8292  2.4699 -1.9526
 5003SOL    HW226472   4.497   2.849   8.469 -0.4107 -0.0393 -1.5963
 5004SOL     OW26473   4.416   0.228   4.104  0.0272  0.3949 -0.0681
 5004SOL    HW126474   4.481   0.237   4.173 -0.2810 -1.0023  0.3908
 5004SOL    HW226475   4.385   0.319   4.100 -0.7743  0.1892  1.4964
 5005SOL     OW26476   3.866   1.542   6.016  0.0239  0.1525 -0.3567
 5005SOL    HW126477   3.939   1.598   6.043 -1.3001  0.8028  1.8956
 5005SOL    HW226478   3.875   1.465   6.071  2.4950  0.9405  0.3383
 5006SOL     OW26479   3.301   3.343   3.540 -0.3063  0.0235  0.2085
 5006SOL    HW126480   3.315   3.435   3.560  2.2695 -0.2458 -0.4325
 5006SOL    HW226481   3.378   3.331   3.485 -1.1043 -1.3895 -0.6248
 5007SOL     OW26482   0.681   1.556   5.214 -0.5913  0.2990 -0.4352
 5007SOL    HW126483   0.748   1.616   5.181 -0.5791  2.4928  3.6357
 5007SOL    HW226484   0.714   1.506   5.288  0.9127  0.2077 -1.1705
 5008SOL     OW26485   2.756   2.943  17.150  0.2395 -0.4661 -0.5696
 5008SOL    HW126486   2.717   2.941  17.063 -1.5123 -1.3998  0.2298
 5008SOL    HW226487   2.773   3.034  17.175 -0.1028 -0.3005 -0.9561
 5009SOL     OW26488   1.365   2.099   2.617  0.2264  0.3219  0.5402
 5009SOL    HW126489   1.303   2.037   2.579  0.0231  0.3569  0.8180
 5009SOL    HW226490   1.307   2.132   2.686 -1.9432 -1.0770 -0.6153
 5010SOL     OW26491   1.217   4.283   2.452 -0.0214  0.0576 -0.2846
 5010SOL    HW126492   1.230   4.260   2.545  1.4417  2.4545  0.0915
 5010SOL    HW226493   1.309   4.287   2.424  0.8448  1.4259  2.8003
 5011SOL     OW26494   1.474   2.130   3.271  0.2533  0.2835 -0.1778
 5011SOL    HW126495   1.563   2.096   3.267 -0.1630 -0.6206 -1.9121
 5011SOL    HW226496   1.433   2.087   3.197  3.1231  0.2424 -1.7459
 5012SOL     OW26497   0.480   2.338   0.044 -0.1232  0.2743 -0.0931
 5012SOL    HW126498   0.427   2.360   0.121  1.4941  1.3616  0.7016
 5012SOL    HW226499   0.552   2.399   0.054  0.3937 -0.0933 -1.5428
 5013SOL     OW26500   0.951   0.817   7.217 -0.7476  0.1337 -0.0197
 5013SOL    HW126501   0.878   0.858   7.170  0.1196 -0.7694 -2.1525
 5013SOL    HW226502   0.915   0.834   7.304 -0.9052 -0.0146 -0.0547
 5014SOL     OW26503   3.006   4.148   4.751 -0.8372 -0.5709 -0.2080
 5014SOL    HW126504   3.010   4.169   4.844 -0.8279 -2.2439  0.1712
 5014SOL    HW226505   3.050   4.226   4.717  0.0196 -1.5229 -1.3004
 5015SOL     OW26506   2.455   2.195   6.485  0.3657 -0.0797 -0.5897
 5015SOL    HW126507   2.391   2.137   6.443  1.0290 -0.3443 -1.2276
 5015SOL    HW226508   2.533   2.152   6.449  0.3163 -0.4031 -0.3175
 5016SOL     OW26509   0.044   1.924   2.403 -0.4611 -0.4642  0.2625
 5016SOL    HW126510   4.711   1.968   2.339 -1.1638  0.8783  1.8060
 5016SOL    HW226511   4.720   1.841   2.395 -0.5648 -0.1910 -2.1011
 5017SOL     OW26512   3.591   2.105   8.899  0.3699 -0.1742  0.0031
 5017SOL    HW126513   3.619   2.014   8.888  1.7616  0.2731 -0.2080
 5017SOL    HW226514   3.641   2.148   8.829  1.3560 -0.1269  0.7327
 5018SOL     OW26515   0.585   3.129   2.477  0.1708 -0.4518 -0.3705
 5018SOL    HW126516   0.525   3.111   2.549 -0.8535 -1.3630 -1.4616
 5018SOL    HW226517   0.521   3.170   2.417 -0.6268 -1.7365 -0.3922
 5019SOL     OW26518   1.972   4.715   3.237 -0.0363 -0.3785  0.0013
 5019SOL    HW126519   1.994   4.697   3.328 -1.1036  0.5069  0.4211
 5019SOL    HW226520   1.879   4.696   3.232 -0.4644  2.4229 -2.1219
 5020SOL     OW26521   2.699   2.458   7.714 -0.2869  0.1145  1.0968
 5020SOL    HW126522   2.760   2.384   7.711  0.8192  1.0999 -0.8194
 5020SOL    HW226523   2.760   2.525   7.683 -1.7986  1.5314  1.1883
 5021SOL     OW26524   2.815   0.691  12.671 -0.1029  0.9162 -0.5577
 5021SOL    HW126525   2.746   0.632  12.700 -0.1110 -0.5498 -3.5207
 5021SOL    HW226526   2.834   0.665  12.580 -1.0872 -2.7742  0.2855
 5022SOL     OW26527   4.201   0.075   2.615  0.0966 -0.8564 -0.1562
 5022SOL    HW126528   4.216   0.146   2.552 -2.5974 -0.9121 -0.8573
 5022SOL    HW226529   4.124   0.031   2.580 -0.2854  0.6199 -1.1491
 5023SOL     OW26530   4.476   4.412   6.298  0.3137 -0.3945  0.3982
 5023SOL    HW126531   4.471   4.429   6.392 -0.5164 -0.9249  0.4444
 5023SOL    HW226532   4.563   4.450   6.288 -1.1735  2.7095 -0.7550
 5024SOL     OW26533   0.327   1.068   2.118 -0.2371  0.3616 -0.1255
 5024SOL    HW126534   0.391   1.064   2.189 -1.1885 -1.3829  0.6376
 5024SOL    HW226535   0.242   1.066   2.163 -0.8433  1.2945 -1.2438
 5025SOL     OW26536   3.556   1.419   0.316  0.3947 -0.1705  0.9930
 5025SOL    HW126537   3.639   1.467   0.307  0.9416 -1.1349  0.8882
 5025SOL    HW226538   3.504   1.485   0.362  1.3530  2.5786 -1.8753
 5026SOL     OW26539   0.738   4.242   2.962 -0.6283  0.1432  1.0309
 5026SOL    HW126540   0.748   4.217   3.054 -2.2867  1.9462  1.6786
 5026SOL    HW226541   0.646   4.267   2.957 -0.5489  0.0960 -0.5367
 5027SOL     OW26542   4.113   1.139   1.750 -0.0201 -0.1606 -0.2934
 5027SOL    HW126543   4.039   1.199   1.758  1.0504  1.6894 -4.0327
 5027SOL    HW226544   4.186   1.197   1.729 -0.5250  2.0381  4.0405
 5028SOL     OW26545   3.371   3.908   7.653 -0.0698  0.2746 -0.6200
 5028SOL    HW126546   3.314   3.984   7.663 -2.2156 -1.9808  4.2450
 5028SOL    HW226547   3.353   3.874   7.566 -0.6578  1.8037 -1.1038
 5029SOL     OW26548   0.722   2.158   8.120 -0.1264  0.2161 -0.0227
 5029SOL    HW126549   0.767   2.198   8.194  2.9645 -0.3278 -1.6015
 5029SOL    HW226550   0.648   2.219   8.115  0.4786  1.0218  0.8833
 5030SOL     OW26551   1.984   4.140   7.151 -0.2876  0.3384  0.7286
 5030SOL    HW126552   1.941   4.195   7.084 -1.2141 -0.9050  0.2964
 5030SOL    HW226553   1.950   4.179   7.231  0.9779  1.7380  0.5837
 5031SOL     OW26554   1.649   0.853   7.680  0.4523 -0.5194 -0.3548
 5031SOL    HW126555   1.664   0.929   7.624 -1.1608 -0.8813 -1.2683
 5031SOL    HW226556   1.714   0.858   7.751 -0.3396  0.4913  0.2984
 5032SOL     OW26557   2.317   3.773   6.357 -0.0439  0.2757 -0.1091
 5032SOL    HW126558   2.238   3.819   6.384 -1.0465 -1.9176  0.7466
 5032SOL    HW226559   2.384   3.817   6.409  0.8742 -2.4812  1.0692
 5033SOL     OW26560   0.284   4.233   7.924 -0.1101 -0.1707  0.0521
 5033SOL    HW126561   0.374   4.238   7.892 -0.0244 -0.2592  0.2782
 5033SOL    HW226562   0.265   4.145   7.890 -1.5713  0.4489 -0.7319
 5034SOL     OW26563   2.836   2.044   9.913 -0.8098 -0.0443 -0.5621
 5034SOL    HW126564   2.795   2.101   9.848 -4.0547 -0.9814  0.6488
 5034SOL    HW226565   2.776   1.970   9.903  0.6255 -1.3408  0.3894
 5035SOL     OW26566   0.608   1.312  16.274 -0.3045  0.2552  0.1083
 5035SOL    HW126567   0.686   1.362  16.250 -0.0958 -0.3791 -0.5312
 5035SOL    HW226568   0.544   1.366  16.228  0.8201  0.5629 -1.0899
 5036SOL     OW26569   3.781   3.628   2.710  0.3294  0.0162 -0.0732
 5036SOL    HW126570   3.771   3.565   2.782  0.6385 -0.4168 -0.4047
 5036SOL    HW226571   3.861   3.586   2.677  0.1632  0.1543 -0.6526
 5037SOL     OW26572   4.226   3.670   5.786  0.2517  0.6121 -0.1572
 5037SOL    HW126573   4.242   3.761   5.763  1.5354  0.3084 -0.4961
 5037SOL    HW226574   4.143   3.679   5.833 -0.4780  0.4254 -1.4184
 5038SOL     OW26575   2.298   0.510   5.425  0.7449  0.4194 -0.2751
 5038SOL    HW126576   2.238   0.474   5.360 -0.1532  1.2387  0.0996
 5038SOL    HW226577   2.385   0.510   5.384 -0.3410 -1.6351 -2.5773
 5039SOL     OW26578   3.463   3.341   3.062 -0.6624  0.8375  0.7447
 5039SOL    HW126579   3.485   3.254   3.028 -1.3509  0.8510  0.2683
 5039SOL    HW226580   3.420   3.372   2.983  1.1736 -0.0543 -0.6181
 5040SOL     OW26581   2.723   2.778   8.448  0.1443  0.4288 -0.2377
 5040SOL    HW126582   2.785   2.735   8.389 -1.6279 -0.7179 -1.2735
 5040SOL    HW226583   2.784   2.846   8.477  0.3438  1.0905 -2.1795
 5041SOL     OW26584   3.705   3.626   3.878 -0.2245 -0.1507 -0.2505
 5041SOL    HW126585   3.752   3.638   3.796 -1.3158 -1.5332 -1.0745
 5041SOL    HW226586   3.625   3.669   3.848 -0.3797 -1.3243 -1.5023
 5042SOL     OW26587   4.530   2.574   8.878 -0.2734  0.0598  0.7135
 5042SOL    HW126588   4.561   2.595   8.790 -0.2763  0.4231  0.8002
 5042SOL    HW226589   4.507   2.481   8.884  0.6178 -0.1374  1.0273
 5043SOL     OW26590   0.654   1.895   8.234 -0.1278  0.2178 -0.2778
 5043SOL    HW126591   0.593   1.964   8.261 -1.0253 -0.4774 -0.5215
 5043SOL    HW226592   0.706   1.946   8.172  1.3360 -0.8286  0.0760
 5044SOL     OW26593   0.580   0.139   7.296 -0.0946 -0.3834  0.2467
 5044SOL    HW126594   0.670   0.160   7.322  0.3519 -0.2707 -1.3874
 5044SOL    HW226595   0.596   0.045   7.289  2.3406 -0.0472  1.2699
 5045SOL     OW26596   3.175   1.278   6.283  0.0255  1.1656  0.0340
 5045SOL    HW126597   3.167   1.355   6.227  1.2966  0.2649 -1.3622
 5045SOL    HW226598   3.097   1.228   6.262  0.2446  0.8807 -0.0950
 5046SOL     OW26599   1.821   2.232   6.106 -0.1398  0.0831  0.1115
 5046SOL    HW126600   1.793   2.294   6.039  0.7742  0.8476  0.4359
 5046SOL    HW226601   1.810   2.275   6.191 -1.2937  1.2039 -0.6137
 5047SOL     OW26602   2.550   2.015   1.699  0.2527  0.0400 -0.2085
 5047SOL    HW126603   2.643   1.997   1.704  0.0433 -1.0123 -0.0497
 5047SOL    HW226604   2.534   2.109   1.694  1.1707  0.0100 -3.2706
 5048SOL     OW26605   1.721   0.210   1.411 -0.0580  0.6616 -0.1480
 5048SOL    HW126606   1.682   0.123   1.402 -0.6617  0.6777  2.2933
 5048SOL    HW226607   1.811   0.182   1.401 -0.8772 -2.0767  0.2065
 5049SOL     OW26608   1.388   0.550   6.923 -0.1958 -0.0487 -0.1166
 5049SOL    HW126609   1.397   0.612   6.996  0.8083 -0.5103  0.1595
 5049SOL    HW226610   1.313   0.493   6.941 -1.0845  0.5509 -1.8988
 5050SOL     OW26611   0.481   4.573   4.358  0.3312 -0.1698 -0.2521
 5050SOL    HW126612   0.436   4.581   4.274  1.7318 -2.8660 -1.2517
 5050SOL    HW226613   0.553   4.514   4.334  0.9647 -0.0990  1.4743
 5051SOL     OW26614   1.573   3.369   9.044 -0.1935  0.2309 -0.7183
 5051SOL    HW126615   1.530   3.454   9.049  0.1210  0.5483 -3.3946
 5051SOL    HW226616   1.600   3.365   9.136 -0.5276 -0.4111 -0.6502
 5052SOL     OW26617   1.959   0.604   3.024  0.1173 -0.2726 -0.6582
 5052SOL    HW126618   2.007   0.524   3.045  0.0636  0.4627  2.2416
 5052SOL    HW226619   1.878   0.578   2.980  1.4956 -1.1564 -2.6922
 5053SOL     OW26620   0.561   2.191   3.799 -0.6763  0.0014  0.1757
 5053SOL    HW126621   0.609   2.109   3.788 -1.2951 -0.3504  0.1644
 5053SOL    HW226622   0.640   2.238   3.827 -1.6056  1.8987 -0.4356
 5054SOL     OW26623   4.085   3.741   9.487 -0.0743  0.1736  0.3167
 5054SOL    HW126624   4.067   3.710   9.576 -1.1785  1.1800  0.4506
 5054SOL    HW226625   4.157   3.801   9.511 -1.9818  2.4854  0.2886
 5055SOL     OW26626   3.611   4.164   8.698 -0.0778  0.1978 -0.2834
 5055SOL    HW126627   3.651   4.228   8.758 -1.3818  1.0714 -0.3484
 5055SOL    HW226628   3.579   4.223   8.631  1.7364  3.7957  2.0323
 5056SOL     OW26629   3.234   4.441   4.516 -0.3321 -0.6620 -0.3209
 5056SOL    HW126630   3.255   4.535   4.510  1.8459 -1.2031 -0.9586
 5056SOL    HW226631   3.141   4.444   4.536 -0.2502  0.6551 -0.0745
 5057SOL     OW26632   3.806   3.415   0.337 -0.1485 -0.1899 -0.2277
 5057SOL    HW126633   3.718   3.383   0.317 -0.0101  0.4418 -1.8447
 5057SOL    HW226634   3.827   3.441   0.247  0.9391  0.6105  0.2627
 5058SOL     OW26635   4.287   0.123   0.404 -0.2751 -0.8438  0.5233
 5058SOL    HW126636   4.296   0.216   0.382 -1.7732 -0.8534 -0.0715
 5058SOL    HW226637   4.210   0.092   0.356 -1.0582  0.8846  0.6643
 5059SOL     OW26638   2.693   3.884  10.357 -0.4319 -0.2435  0.4341
 5059SOL    HW126639   2.788   3.875  10.364 -0.4390 -1.2481 -0.8451
 5059SOL    HW226640   2.671   3.957  10.415 -0.7417  0.1963 -0.2445
 5060SOL     OW26641   1.887   3.390   9.563  0.2588  0.3451 -0.0946
 5060SOL    HW126642   1.960   3.442   9.597  0.6311  0.3222 -0.8675
 5060SOL    HW226643   1.949   3.343   9.507  0.3217 -0.3443  0.5599
 5061SOL     OW26644   0.240   0.029   8.241  0.3365  0.1982  0.2217
 5061SOL    HW126645   0.156   0.049   8.284 -1.2140 -2.4201 -1.6586
 5061SOL    HW226646   0.283   0.113   8.222 -1.1130  1.0954  0.9313
 5062SOL     OW26647   1.953   2.954   3.159  0.0141 -0.0911  0.1392
 5062SOL    HW126648   1.858   2.969   3.159  0.0071 -0.1562 -0.3411
 5062SOL    HW226649   1.953   2.859   3.169 -1.8291 -0.4648 -3.6198
 5063SOL     OW26650   1.198   0.614   4.232  0.3362  0.4663 -0.3822
 5063SOL    HW126651   1.278   0.606   4.180 -1.3979  0.3140 -3.0286
 5063SOL    HW226652   1.132   0.621   4.163  2.3165 -0.3951 -2.3882
 5064SOL     OW26653   3.345   4.590   3.152 -0.4171  0.8686  0.0631
 5064SOL    HW126654   3.258   4.593   3.192 -0.6512  0.8912 -0.4401
 5064SOL    HW226655   3.345   4.516   3.091  0.5595 -1.3044  2.6879
 5065SOL     OW26656   1.617   2.038   2.645 -0.0153 -0.0473  0.2071
 5065SOL    HW126657   1.626   1.961   2.590  1.1668  0.9772 -1.0433
 5065SOL    HW226658   1.530   2.071   2.619  0.4763 -0.0454 -1.4248
 5066SOL     OW26659   3.958   1.006   7.177  0.5301 -0.7422 -0.5909
 5066SOL    HW126660   3.947   1.010   7.272  1.2633  0.8105 -0.5793
 5066SOL    HW226661   3.996   0.919   7.170 -0.1147 -0.9777 -1.1848
 5067SOL     OW26662   0.866   4.228   4.413  0.5362  0.1445  0.1041
 5067SOL    HW126663   0.800   4.171   4.451 -0.1898 -0.1301 -1.5697
 5067SOL    HW226664   0.807   4.283   4.362 -1.2878 -2.7930 -0.9173
 5068SOL     OW26665   2.483   1.619   5.474  0.3037  0.2249  0.7520
 5068SOL    HW126666   2.453   1.610   5.565 -0.4430 -1.1518  0.3585
 5068SOL    HW226667   2.435   1.552   5.427  0.1062  1.2898 -0.5669
 5069SOL     OW26668   0.174   1.257   3.977 -0.3510 -0.1196  0.0242
 5069SOL    HW126669   0.225   1.321   3.927  0.1082 -0.0497  0.5806
 5069SOL    HW226670   0.198   1.180   3.925 -0.7954 -0.7567  0.7625
 5070SOL     OW26671   3.409   0.581   0.868 -0.1150 -0.3720 -0.4241
 5070SOL    HW126672   3.494   0.579   0.911 -0.7714  0.7873  0.9298
 5070SOL    HW226673   3.436   0.570   0.777  0.3279  0.6933 -0.4152
 5071SOL     OW26674   0.170   3.110  10.902 -0.2196  0.1459 -0.4441
 5071SOL    HW126675   0.247   3.076  10.857  1.3959  2.1702  0.8197
 5071SOL    HW226676   0.214   3.190  10.931  2.1406 -1.4561  0.4138
 5072SOL     OW26677   3.999   4.296   5.980  0.2238  0.2124 -0.1005
 5072SOL    HW126678   4.086   4.259   5.992 -0.2988 -1.2332 -0.7074
 5072SOL    HW226679   3.989   4.353   6.056 -0.0087 -0.2396  0.2070
 5073SOL     OW26680   0.048   0.269   2.872 -0.2204 -0.1653 -0.5386
 5073SOL    HW126681   4.683   0.301   2.881 -0.2141 -0.4218  0.4654
 5073SOL    HW226682   0.100   0.347   2.893  2.0274 -1.8515  0.2631
 5074SOL     OW26683   4.486   1.984   0.604  0.2557 -0.8264 -0.1138
 5074SOL    HW126684   4.570   1.947   0.634 -1.3721 -2.8555  1.9315
 5074SOL    HW226685   4.442   1.908   0.568 -1.5120 -0.6207  1.5869
 5075SOL     OW26686   2.158   2.983  12.235  0.2753  0.2114 -0.5241
 5075SOL    HW126687   2.077   2.979  12.184  1.8044  1.1631 -3.0272
 5075SOL    HW226688   2.199   2.897  12.224  0.3028  0.3640 -1.6550
 5076SOL     OW26689   0.366   1.717   7.751 -0.6016 -0.9301  0.5475
 5076SOL    HW126690   0.361   1.765   7.834 -0.0009  1.5461 -0.8383
 5076SOL    HW226691   0.460   1.712   7.731 -1.2000  1.3887 -2.9516
 5077SOL     OW26692   0.549   0.453  10.329  0.4763 -0.1936  0.5665
 5077SOL    HW126693   0.522   0.409  10.410 -0.8601  1.2444  0.9280
 5077SOL    HW226694   0.533   0.542  10.362  0.2638 -0.4550  1.1814
 5078SOL     OW26695   2.060   3.543   9.708 -0.2883 -0.9239  0.2430
 5078SOL    HW126696   2.142   3.590   9.719 -0.7371 -0.4730  1.6956
 5078SOL    HW226697   2.012   3.625   9.715  1.9563  0.4877 -1.1926
 5079SOL     OW26698   1.149   2.082   0.785  0.2970 -0.2697 -0.1721
 5079SOL    HW126699   1.170   2.080   0.878  0.4600  2.0863 -0.1504
 5079SOL    HW226700   1.072   2.138   0.776  0.0730 -0.5011  0.3139
 5080SOL     OW26701   4.601   3.085   3.559 -1.1194 -0.1033  0.4078
 5080SOL    HW126702   4.558   3.171   3.563 -0.3372  0.2829  0.6263
 5080SOL    HW226703   4.550   3.025   3.506 -1.0122  0.0333  0.1493
 5081SOL     OW26704   3.567   0.737   4.769  0.4175  0.6528 -0.4019
 5081SOL    HW126705   3.474   0.713   4.764  0.5285  0.2944 -0.8235
 5081SOL    HW226706   3.565   0.830   4.791 -0.0475  0.5708 -0.1035
 5082SOL     OW26707   1.962   4.456   6.304  0.6010  0.3035  0.0084
 5082SOL    HW126708   1.948   4.362   6.311 -1.0667  0.5199 -0.5053
 5082SOL    HW226709   2.048   4.455   6.261  0.6113  0.8701  0.0149
 5083SOL     OW26710   2.240   1.755  13.998  0.4577 -0.1723 -0.5657
 5083SOL    HW126711   2.276   1.673  13.965 -1.1243  0.0963 -2.9449
 5083SOL    HW226712   2.283   1.812  13.934 -0.0240 -2.1099 -2.6028
 5084SOL     OW26713   1.301   1.776  16.453  0.3111 -0.1314 -0.0817
 5084SOL    HW126714   1.379   1.724  16.435  0.4010 -0.3224  0.8191
 5084SOL    HW226715   1.339   1.862  16.437 -1.3801  1.1563  2.7745
 5085SOL     OW26716   0.897   3.725   5.195  0.1232 -0.3418 -0.7078
 5085SOL    HW126717   0.886   3.773   5.113 -0.0439  1.0605  0.1278
 5085SOL    HW226718   0.990   3.708   5.208  0.5250  1.1909 -1.5657
 5086SOL     OW26719   4.093   3.438   8.299  0.7347  0.8519  0.5001
 5086SOL    HW126720   4.014   3.428   8.246 -0.2019 -2.2833  2.5112
 5086SOL    HW226721   4.060   3.468   8.384 -0.1949 -1.3437  0.9258
 5087SOL     OW26722   4.476   0.239   3.012 -0.5220  0.0968  0.1466
 5087SOL    HW126723   4.507   0.230   3.102 -0.0200 -0.2841 -0.0648
 5087SOL    HW226724   4.481   0.152   2.973 -0.4307 -0.6321  1.7848
 5088SOL     OW26725   0.605   1.922  16.066  0.4258  0.2351 -0.2625
 5088SOL    HW126726   0.598   1.960  15.978  1.3821  1.1906  0.0758
 5088SOL    HW226727   0.654   1.983  16.120 -0.5926  0.9524 -0.1594
 5089SOL     OW26728   2.646   2.246  15.971  0.5801  0.7148  0.6344
 5089SOL    HW126729   2.555   2.277  15.977 -0.0212 -1.0703  0.6836
 5089SOL    HW226730   2.683   2.322  15.926 -0.6450  2.1325  2.0299
 5090SOL     OW26731   0.526   0.424   8.666  0.2218  0.6211  0.3461
 5090SOL    HW126732   0.591   0.475   8.713 -1.2911  2.4766  0.4359
 5090SOL    HW226733   0.507   0.370   8.743  0.4581  0.5949  0.3850
 5091SOL     OW26734   1.918   3.743  11.279  0.2039 -0.0485  0.2956
 5091SOL    HW126735   2.000   3.748  11.328 -1.1861  1.3726  2.4405
 5091SOL    HW226736   1.894   3.651  11.289 -2.4152  0.7943  1.6025
 5092SOL     OW26737   1.984   2.853   7.798 -0.1801 -1.2135  0.5783
 5092SOL    HW126738   1.999   2.888   7.886 -0.7199 -1.2285  0.6787
 5092SOL    HW226739   2.000   2.932   7.747 -1.0576 -2.5766 -1.8215
 5093SOL     OW26740   4.362   4.006  14.606  0.2053  0.0688 -0.1650
 5093SOL    HW126741   4.338   3.999  14.698 -0.2721 -1.0679 -0.3731
 5093SOL    HW226742   4.411   3.924  14.601  0.5255  0.2150  0.6154
 5094SOL     OW26743   0.130   0.910   6.809  0.0710  0.9647 -0.3700
 5094SOL    HW126744   0.102   0.952   6.890  1.0645 -0.1604  0.5693
 5094SOL    HW226745   0.183   0.837   6.843 -1.8848 -0.0936  0.4269
 5095SOL     OW26746   0.645   0.523   6.293 -0.2036 -0.6473 -0.3790
 5095SOL    HW126747   0.602   0.568   6.221  0.9555  2.3581  0.8153
 5095SOL    HW226748   0.726   0.573   6.291 -0.4214 -0.2895 -0.1861
 5096SOL     OW26749   1.599   1.156   0.694 -0.1015  0.0616  0.1229
 5096SOL    HW126750   1.642   1.071   0.679 -0.7522 -0.2268 -0.1239
 5096SOL    HW226751   1.519   1.133   0.742 -0.2549  2.1688  0.8431
 5097SOL     OW26752   3.222   2.552   0.920  0.3316  0.2656 -0.3776
 5097SOL    HW126753   3.196   2.460   0.913  1.5249 -0.1801  1.1688
 5097SOL    HW226754   3.143   2.605   0.928  0.9652  1.0977  0.3290
 5098SOL     OW26755   2.736   0.139   2.113 -0.9828 -0.1084  0.4856
 5098SOL    HW126756   2.662   0.120   2.056 -0.0245 -1.6601 -0.2310
 5098SOL    HW226757   2.722   0.072   2.180 -0.3383  0.5635  1.2977
 5099SOL     OW26758   4.243   4.019  13.421 -0.3558 -0.4720 -0.2698
 5099SOL    HW126759   4.149   4.012  13.432 -0.3482  0.2756  0.2527
 5099SOL    HW226760   4.255   4.112  13.403  0.6617 -0.6763 -0.6847
 5100SOL     OW26761   0.853   0.522   9.163  0.3034  0.0956  0.1779
 5100SOL    HW126762   0.948   0.512   9.172  0.2487  0.0384  0.7286
 5100SOL    HW226763   0.830   0.595   9.221 -1.4800 -0.2481 -0.1054
 5101SOL     OW26764   4.149   2.488   4.969  0.1167 -0.2157 -0.4532
 5101SOL    HW126765   4.118   2.577   4.953 -1.4108 -0.4187  1.2979
 5101SOL    HW226766   4.243   2.495   4.982 -0.0563  1.4039 -0.0708
 5102SOL     OW26767   3.349   1.607  16.096  0.4295  0.2106  0.6403
 5102SOL    HW126768   3.276   1.549  16.119  0.9220 -0.4650  0.4997
 5102SOL    HW226769   3.342   1.676  16.162  0.3142  0.5291  0.2931
 5103SOL     OW26770   4.665   1.610   1.080 -0.8534  0.1356 -0.1826
 5103SOL    HW126771   4.635   1.701   1.075 -0.9754  0.1663  1.1081
 5103SOL    HW226772   4.696   1.596   0.990 -1.4668  0.7924 -0.4955
 5104SOL     OW26773   3.950   0.386   1.821  0.5259  0.0227  0.1505
 5104SOL    HW126774   3.994   0.471   1.814  0.0209  0.3664  1.1174
 5104SOL    HW226775   4.014   0.328   1.781  1.4829  1.0321  0.2055
 5105SOL     OW26776   2.706   1.292  12.207 -0.2231  0.1364 -0.5575
 5105SOL    HW126777   2.753   1.218  12.167 -0.6065  0.0672 -0.8787
 5105SOL    HW226778   2.639   1.250  12.262 -0.5666  1.8373  0.3085
 5106SOL     OW26779   0.563   4.600   5.628 -0.0529 -0.1390 -0.0712
 5106SOL    HW126780   0.630   4.604   5.696 -0.4153  0.9564  0.2186
 5106SOL    HW226781   0.498   4.652   5.676 -0.0501 -2.6734  2.6780
 5107SOL     OW26782   0.850   1.088   5.622  0.0605  0.5264  0.1550
 5107SOL    HW126783   0.832   1.144   5.547  0.0852 -0.2239 -0.4009
 5107SOL    HW226784   0.909   1.024   5.582  0.5404  0.4958  0.8994
 5108SOL     OW26785   3.672   2.230   7.666 -0.1936  0.0689 -0.1083
 5108SOL    HW126786   3.689   2.181   7.747  1.3926  0.4798 -0.1911
 5108SOL    HW226787   3.759   2.231   7.626 -0.0717 -0.2416  0.1461
 5109SOL     OW26788   2.065   0.516  14.886  0.0964 -0.4050 -0.0876
 5109SOL    HW126789   1.993   0.548  14.831  0.2067 -0.4856 -0.2766
 5109SOL    HW226790   2.012   0.468  14.950 -1.1323  0.3192 -0.5661
 5110SOL     OW26791   1.845   1.206   6.632  0.3199  0.2316  0.1464
 5110SOL    HW126792   1.800   1.288   6.611  0.5333  0.4638  0.6194
 5110SOL    HW226793   1.937   1.229   6.632  0.4987 -0.4735  0.6535
 5111SOL     OW26794   4.699   4.662   5.210  0.5724  0.4351  0.1409
 5111SOL    HW126795   4.648   4.712   5.146  0.3702 -0.6676 -0.5608
 5111SOL    HW226796   4.645   4.669   5.288 -0.3879  0.7154 -0.5449
 5112SOL     OW26797   4.505   3.511  17.409  0.1586 -0.6929  0.2971
 5112SOL    HW126798   4.500   3.509  17.314 -2.4745  0.0938  0.3982
 5112SOL    HW226799   4.504   3.418  17.431 -0.6543 -0.6868  0.3013
 5113SOL     OW26800   0.361   0.044   8.858  0.3204 -0.4239 -0.3117
 5113SOL    HW126801   0.378   0.003   8.943  0.5405  0.0509 -0.1217
 5113SOL    HW226802   0.267   0.058   8.863  0.7618  1.1927  3.4449
 5114SOL     OW26803   3.376   4.260  14.148  0.0535  0.0870  0.6619
 5114SOL    HW126804   3.461   4.292  14.177 -0.1049  2.0646 -1.0870
 5114SOL    HW226805   3.391   4.172  14.114 -1.8739  0.5685 -1.4329
 5115SOL     OW26806   2.843   1.731   9.247  0.3050  0.1708 -0.1816
 5115SOL    HW126807   2.841   1.723   9.343 -1.5232  1.4322 -0.1190
 5115SOL    HW226808   2.853   1.639   9.223 -0.0699  0.1348 -0.1991
 5116SOL     OW26809   0.513   3.232  14.524 -0.1043 -0.5374 -0.5275
 5116SOL    HW126810   0.577   3.282  14.576 -1.5467  1.2603 -0.4720
 5116SOL    HW226811   0.557   3.204  14.443 -0.6374  0.3345 -1.1279
 5117SOL     OW26812   4.076   0.118  13.284 -0.1169  0.1925  0.3881
 5117SOL    HW126813   4.086   0.082  13.372 -0.4237 -2.1264 -0.5209
 5117SOL    HW226814   4.168   0.142  13.276 -0.0542 -0.9002 -2.0513
 5118SOL     OW26815   2.883   2.519   3.008  0.3893 -0.1640 -0.3886
 5118SOL    HW126816   2.919   2.608   3.002  1.8138 -0.6431  1.1319
 5118SOL    HW226817   2.938   2.469   2.947 -0.8272 -1.8086 -0.1344
 5119SOL     OW26818   3.072   1.124  10.343  0.4652 -0.0650 -0.3673
 5119SOL    HW126819   3.132   1.132  10.269 -0.4769 -0.6591 -1.2000
 5119SOL    HW226820   3.113   1.053  10.391  0.3552  0.2882  0.2526
 5120SOL     OW26821   1.374   2.355   2.366 -0.1674 -0.3333  0.4198
 5120SOL    HW126822   1.333   2.327   2.284  0.7506  3.9636 -1.4956
 5120SOL    HW226823   1.410   2.273   2.401  1.5344  1.0276  1.7994
 5121SOL     OW26824   2.698   1.988   3.430  0.2865  0.7402  0.2651
 5121SOL    HW126825   2.751   1.990   3.350  1.1799  1.1677  0.8685
 5121SOL    HW226826   2.735   2.064   3.475  1.5394  0.3358 -0.0849
 5122SOL     OW26827   2.574   1.291   3.262 -0.0782 -0.4037  0.0994
 5122SOL    HW126828   2.639   1.278   3.193 -0.9162  1.5768 -1.0669
 5122SOL    HW226829   2.497   1.242   3.235  0.5130 -0.0014 -2.3007
 5123SOL     OW26830   1.935   2.434   6.879  0.3333  0.3416  0.1818
 5123SOL    HW126831   2.029   2.425   6.894  0.2659  2.0110  1.6543
 5123SOL    HW226832   1.895   2.450   6.964 -0.1538  2.4779 -0.4355
 5124SOL     OW26833   3.801   1.980  11.305  0.3266  0.2009  0.3022
 5124SOL    HW126834   3.882   2.028  11.285  0.7804 -0.3714  0.7315
 5124SOL    HW226835   3.765   1.974  11.217  0.7574  2.2028 -0.0210
 5125SOL     OW26836   1.576   1.277   7.129 -0.2350  0.1419 -0.7520
 5125SOL    HW126837   1.487   1.297   7.100 -0.6534 -0.1872  0.3014
 5125SOL    HW226838   1.619   1.244   7.051  0.7500  0.4443 -0.3414
 5126SOL     OW26839   2.903   4.398   4.116 -0.1238  0.4729 -0.3953
 5126SOL    HW126840   2.983   4.395   4.064  0.2709 -0.4548  0.2654
 5126SOL    HW226841   2.942   4.406   4.203  1.6956  0.3274 -1.2006
 5127SOL     OW26842   1.202   1.186   4.928  0.1838  0.5493  0.3948
 5127SOL    HW126843   1.263   1.130   4.976 -0.2707  0.1362  0.4820
 5127SOL    HW226844   1.256   1.234   4.865  0.8745  0.5272  0.9716
 5128SOL     OW26845   1.243   1.224   6.675 -0.1989 -0.0121  0.2948
 5128SOL    HW126846   1.246   1.241   6.769  1.1910  0.4673  0.1583
 5128SOL    HW226847   1.332   1.238   6.644 -0.7904  2.1968 -0.4383
 5129SOL     OW26848   0.627   0.013   8.550 -0.0297  0.3368 -0.6293
 5129SOL    HW126849   0.694   0.081   8.545 -1.3913  1.5895 -1.6886
 5129SOL    HW226850   0.601   0.022   8.642 -1.9005 -0.0964 -1.1148
 5130SOL     OW26851   4.358   1.356  11.866 -0.0148 -0.0348  0.2174
 5130SOL    HW126852   4.327   1.311  11.944  2.0567  0.6258  1.4376
 5130SOL    HW226853   4.448   1.369  11.896 -0.4804  1.5264  0.9496
 5131SOL     OW26854   2.945   4.362   6.140  0.1213  0.1643  0.1183
 5131SOL    HW126855   2.878   4.296   6.122  0.1467 -0.2000  1.4105
 5131SOL    HW226856   2.906   4.408   6.215 -2.6169 -1.5111 -0.2758
 5132SOL     OW26857   1.768   1.103   3.563  0.3926  0.0918 -0.1275
 5132SOL    HW126858   1.826   1.027   3.565 -0.7196 -0.7619  0.0448
 5132SOL    HW226859   1.822   1.156   3.621 -1.1413  0.1898  1.2262
 5133SOL     OW26860   2.635   3.779   4.438  0.3263  0.3159  0.3697
 5133SOL    HW126861   2.670   3.690   4.436 -0.0342  0.2115 -1.9457
 5133SOL    HW226862   2.682   3.823   4.508  1.2330  0.8054 -0.5382
 5134SOL     OW26863   4.461   3.589  15.265  0.6320 -0.1240 -0.1113
 5134SOL    HW126864   4.510   3.671  15.263  0.9059 -0.2632  0.9627
 5134SOL    HW226865   4.502   3.550  15.342 -0.5564 -2.7247 -0.8070
 5135SOL     OW26866   0.987   3.181   9.121  0.2281 -0.2399 -0.0006
 5135SOL    HW126867   0.958   3.146   9.036  2.3459  2.2942 -1.7760
 5135SOL    HW226868   1.083   3.182   9.120  0.2138  0.9831  0.2322
 5136SOL     OW26869   0.682   2.379  12.580  0.8781  0.2277 -0.3980
 5136SOL    HW126870   0.657   2.401  12.669 -0.5608  0.9686 -0.9800
 5136SOL    HW226871   0.596   2.349  12.551 -1.2540  0.7653  5.4688
 5137SOL     OW26872   3.654   4.366   3.995  0.2138  0.1138  0.7560
 5137SOL    HW126873   3.626   4.299   4.057 -2.6578  1.6097  1.0566
 5137SOL    HW226874   3.747   4.367   4.017  0.2688 -3.1601  0.7075
 5138SOL     OW26875   2.565   3.387   0.486 -0.6656 -0.0205  0.2089
 5138SOL    HW126876   2.517   3.442   0.548 -1.1255  0.7351 -0.8228
 5138SOL    HW226877   2.494   3.374   0.423  0.8060 -0.7638 -1.2784
 5139SOL     OW26878   0.195   3.004  12.057 -0.0985 -0.5316  0.2111
 5139SOL    HW126879   0.226   3.091  12.081  0.6666  0.0724 -3.0300
 5139SOL    HW226880   0.273   2.965  12.016 -0.3454  1.2666 -1.9065
 5140SOL     OW26881   2.780   0.256   3.649  0.0268 -0.3687  0.1889
 5140SOL    HW126882   2.739   0.324   3.702  0.6919  0.9791 -1.0371
 5140SOL    HW226883   2.837   0.225   3.720 -1.4890 -0.2639  1.4352
 5141SOL     OW26884   4.033   4.478   2.514 -0.0824  0.1613 -0.4796
 5141SOL    HW126885   4.022   4.572   2.501 -0.2227  0.0225 -1.3644
 5141SOL    HW226886   3.997   4.449   2.430  0.7934 -2.5203  0.0629
 5142SOL     OW26887   3.125   1.926   0.041  0.2758  0.3315 -0.3385
 5142SOL    HW126888   3.182   1.848   0.043 -1.0668 -0.6370  0.6779
 5142SOL    HW226889   3.118   1.937  17.644 -0.8802  1.7024 -0.0802
 5143SOL     OW26890   0.199   4.402   2.383  0.3560  0.6432  0.2635
 5143SOL    HW126891   0.156   4.362   2.458  1.6193 -0.2486  0.5146
 5143SOL    HW226892   0.165   4.346   2.313 -1.7976  1.9577  0.2717
 5144SOL     OW26893   0.308   1.194  15.359  0.2885  0.5072  0.3712
 5144SOL    HW126894   0.387   1.227  15.316 -1.5686  1.7379 -2.0951
 5144SOL    HW226895   0.306   1.206  15.454 -0.7739  1.6050  0.2194
 5145SOL     OW26896   2.752   2.113  14.298 -0.5932  0.5873  0.0751
 5145SOL    HW126897   2.792   2.069  14.373  1.3455  1.8726 -0.2213
 5145SOL    HW226898   2.713   2.043  14.245  1.0379 -0.5213  0.3615
 5146SOL     OW26899   0.918   0.571  17.244 -0.2041 -0.0152 -0.1885
 5146SOL    HW126900   0.866   0.493  17.263  2.3985 -1.4201  1.1563
 5146SOL    HW226901   0.858   0.636  17.280 -0.5366 -1.3111  1.5894
 5147SOL     OW26902   3.230   0.505   1.716  0.0282 -0.1005 -0.4521
 5147SOL    HW126903   3.303   0.443   1.718 -0.2198 -0.3714  0.1566
 5147SOL    HW226904   3.152   0.450   1.717 -0.1675  0.2317  1.5963
 5148SOL     OW26905   1.132   0.739   3.017 -0.0567 -1.2512 -0.0948
 5148SOL    HW126906   1.109   0.831   3.029  2.2826 -0.6146 -0.6117
 5148SOL    HW226907   1.044   0.709   2.994 -0.2425 -0.9802  0.2664
 5149SOL     OW26908   1.224   4.534   5.939  0.3507  0.0899 -0.3373
 5149SOL    HW126909   1.217   4.475   5.864 -0.3951 -0.7737  0.3991
 5149SOL    HW226910   1.287   4.483   5.991 -1.2782 -1.2230  0.3564
 5150SOL     OW26911   4.138   0.011  14.850 -0.3868 -0.7003  0.2468
 5150SOL    HW126912   4.113   4.708  14.761  0.3971 -0.5572 -0.0139
 5150SOL    HW226913   4.150   4.660  14.908  2.2414 -0.1501  0.4249
 5151SOL     OW26914   4.108   0.357   3.160 -0.5407  0.0581 -0.2207
 5151SOL    HW126915   4.149   0.417   3.223  1.6594 -1.9902  0.3094
 5151SOL    HW226916   4.176   0.343   3.094 -1.0056  0.0173 -0.6781
 5152SOL     OW26917   4.264   2.099   6.746 -0.6768  0.2989  0.3527
 5152SOL    HW126918   4.249   2.191   6.725 -1.0275 -0.5064 -2.9411
 5152SOL    HW226919   4.233   2.055   6.666 -1.0123 -2.9966  2.2919
 5153SOL     OW26920   2.919   3.064   0.597  0.0310  1.3942  0.0712
 5153SOL    HW126921   2.851   3.102   0.541 -0.9593 -1.5012 -0.7071
 5153SOL    HW226922   2.930   3.139   0.655  0.3058 -0.1807  2.0418
 5154SOL     OW26923   2.297   4.197   9.320 -0.2385  0.2976 -0.7073
 5154SOL    HW126924   2.218   4.247   9.339  0.0179 -0.2517  1.8542
 5154SOL    HW226925   2.363   4.266   9.319 -0.0253  0.0896 -1.1620
 5155SOL     OW26926   1.220   2.749   6.146  0.1428  0.0748 -0.6170
 5155SOL    HW126927   1.185   2.659   6.147  0.3865  0.0014  3.1727
 5155SOL    HW226928   1.215   2.775   6.238  0.1783 -1.8068 -0.0638
 5156SOL     OW26929   1.924   4.501   2.827 -0.6306 -0.8836  0.4849
 5156SOL    HW126930   1.975   4.572   2.867 -0.2537 -1.0349  0.2773
 5156SOL    HW226931   1.932   4.527   2.735 -1.1380  1.1025  1.0103
 5157SOL     OW26932   0.964   3.004   7.481 -0.1897 -0.0993 -0.0669
 5157SOL    HW126933   0.946   2.937   7.547  1.5885 -0.1602  0.3680
 5157SOL    HW226934   0.946   2.954   7.402 -0.1411  0.0356 -0.1627
 5158SOL     OW26935   2.331   1.095   7.464 -0.4333  0.1001  0.3482
 5158SOL    HW126936   2.310   1.002   7.458  2.6884 -0.5287 -1.0392
 5158SOL    HW226937   2.268   1.121   7.531  2.3525  1.6976  2.3635
 5159SOL     OW26938   3.286   1.144   7.394 -0.1546 -0.6170 -0.0443
 5159SOL    HW126939   3.196   1.113   7.389 -0.7453  1.3257 -1.4222
 5159SOL    HW226940   3.332   1.070   7.355  0.4196 -1.2815  1.9039
 5160SOL     OW26941   2.933   0.140   6.938 -0.6398  0.5290  0.2737
 5160SOL    HW126942   2.864   0.122   7.003  0.7718  1.8911  2.1397
 5160SOL    HW226943   2.890   0.167   6.857  2.5640  1.3931 -1.1424
 5161SOL     OW26944   1.335   2.305  13.252  0.5942 -0.3288 -0.3522
 5161SOL    HW126945   1.315   2.292  13.345  1.4002 -1.3915 -0.3286
 5161SOL    HW226946   1.425   2.275  13.246  0.3521 -1.0230 -0.5459
 5162SOL     OW26947   3.998   4.280  13.754 -0.0057 -0.3826  0.2775
 5162SOL    HW126948   3.964   4.241  13.674  0.5409 -0.3464  0.0292
 5162SOL    HW226949   4.082   4.308  13.718 -0.0607  0.1087  0.5273
 5163SOL     OW26950   4.649   3.736   4.753  0.9114  0.0043  0.1110
 5163SOL    HW126951   4.722   3.796   4.738  0.2933  0.5771 -0.6710
 5163SOL    HW226952   4.665   3.713   4.844 -4.4584 -0.1520  1.0467
 5164SOL     OW26953   3.074   0.870   8.397  0.1945  0.2568 -0.3283
 5164SOL    HW126954   3.091   0.837   8.486  3.9403  0.1625 -1.1020
 5164SOL    HW226955   2.993   0.830   8.365  0.2872  0.3933 -0.7320
 5165SOL     OW26956   1.673   2.324   7.769 -0.4633  0.0803 -0.3960
 5165SOL    HW126957   1.743   2.352   7.828 -1.4925 -0.8967  1.3231
 5165SOL    HW226958   1.620   2.269   7.827 -1.9460 -1.1578 -2.9433
 5166SOL     OW26959   1.604   4.260   3.002 -0.6662 -0.2909 -0.0145
 5166SOL    HW126960   1.681   4.265   2.945 -0.5140  0.7607  0.2903
 5166SOL    HW226961   1.573   4.349   2.988 -0.7707 -0.2246  0.6164
 5167SOL     OW26962   0.755   3.433   0.743 -0.1579 -0.3209  0.1224
 5167SOL    HW126963   0.810   3.479   0.806  0.6996 -1.5669  0.2664
 5167SOL    HW226964   0.739   3.351   0.790 -2.0234 -0.5262 -0.8503
 5168SOL     OW26965   3.792   0.889   5.589 -0.1697  0.0484 -0.4677
 5168SOL    HW126966   3.749   0.804   5.601 -0.6944  0.2824 -0.7096
 5168SOL    HW226967   3.862   0.865   5.529 -0.1365  1.3174 -0.9349
 5169SOL     OW26968   2.576   2.722   8.952  0.5011 -0.8146  0.6016
 5169SOL    HW126969   2.503   2.757   9.003 -1.1631 -0.4736 -2.0353
 5169SOL    HW226970   2.589   2.633   8.985 -1.6314 -1.3869 -0.1321
 5170SOL     OW26971   3.821   0.575   4.879 -0.7358  0.0540 -0.0704
 5170SOL    HW126972   3.903   0.599   4.835 -0.6495 -2.6821 -1.3971
 5170SOL    HW226973   3.759   0.644   4.856 -1.6223 -0.2563  1.3808
 5171SOL     OW26974   4.512   3.195   2.751  0.2831 -0.0911  0.0924
 5171SOL    HW126975   4.590   3.224   2.704  0.0461  0.7589  0.2247
 5171SOL    HW226976   4.540   3.220   2.839 -1.3809 -0.4303  0.7012
 5172SOL     OW26977   2.877   2.998   5.736 -0.8432  0.4654  0.1374
 5172SOL    HW126978   2.971   3.014   5.731 -0.9450  0.9527 -0.2470
 5172SOL    HW226979   2.884   2.904   5.756 -1.1366  0.2353 -0.8048
 5173SOL     OW26980   1.533   3.230   5.734  0.4356 -0.3828  0.4534
 5173SOL    HW126981   1.578   3.212   5.651 -0.2640 -0.5521  0.1171
 5173SOL    HW226982   1.586   3.202   5.810  1.7771  1.0826  0.0471
 5174SOL     OW26983   4.699   1.912   7.967  0.3406  0.2887 -0.0620
 5174SOL    HW126984   4.611   1.934   7.937  0.3294 -0.2396 -0.4239
 5174SOL    HW226985   0.025   1.984   7.929  0.2802 -0.1668 -0.9914
 5175SOL     OW26986   0.628   0.725   7.615  0.2235 -0.0917 -0.2159
 5175SOL    HW126987   0.561   0.667   7.578 -1.0373  2.2361 -1.5989
 5175SOL    HW226988   0.584   0.759   7.693 -1.2690 -0.7192 -0.7820
 5176SOL     OW26989   2.504   0.262  13.244  0.2549  0.0503 -0.7764
 5176SOL    HW126990   2.446   0.299  13.177  1.5661  1.8908 -0.9084
 5176SOL    HW226991   2.507   0.328  13.313  0.6552 -0.5878 -0.1805
 5177SOL     OW26992   4.246   0.157   5.547  0.2040  0.0875 -0.2701
 5177SOL    HW126993   4.220   0.219   5.478  3.6338  0.8932 -0.8432
 5177SOL    HW226994   4.221   0.216   5.618  2.2185 -0.7642  1.1552
 5178SOL     OW26995   2.423   3.870   9.984 -0.1842  0.1741 -0.3543
 5178SOL    HW126996   2.507   3.824   9.981 -0.4906 -0.5996  2.4392
 5178SOL    HW226997   2.436   3.917   9.902  0.3527 -1.0035 -0.9448
 5179SOL     OW26998   0.358   2.900   4.877  0.0291  0.0260  0.6611
 5179SOL    HW126999   0.419   2.972   4.894 -1.6651  1.2906  1.3914
 5179SOL    HW227000   0.284   2.943   4.919 -0.7867 -0.9563  0.2278
 5180SOL     OW27001   0.315   1.754  12.820  0.0817 -0.3401 -0.2006
 5180SOL    HW127002   0.290   1.757  12.728 -0.4108 -3.7270 -0.1536
 5180SOL    HW227003   0.265   1.827  12.858  0.3608 -0.5835  0.6436
 5181SOL     OW27004   4.260   1.358   7.968 -0.1922 -0.2475 -0.0253
 5181SOL    HW127005   4.260   1.263   7.960 -2.4506 -0.1757 -0.9583
 5181SOL    HW227006   4.178   1.391   7.932 -0.4873  0.7993  1.5841
 5182SOL     OW27007   2.160   2.670  13.853 -0.3485  0.0117 -0.1012
 5182SOL    HW127008   2.219   2.741  13.828  0.5840 -0.8323 -0.3157
 5182SOL    HW227009   2.115   2.669  13.768  1.2647  2.4764 -0.9859
 5183SOL     OW27010   0.851   0.684   6.137 -0.3028  0.3001 -0.2163
 5183SOL    HW127011   0.900   0.719   6.063 -1.7954 -0.0930 -1.4027
 5183SOL    HW227012   0.772   0.665   6.087 -1.7938 -1.7977  2.9548
 5184SOL     OW27013   2.709   4.338   4.288 -0.4572 -0.0257 -0.0314
 5184SOL    HW127014   2.719   4.426   4.322  0.9210 -0.1113 -0.1964
 5184SOL    HW227015   2.775   4.329   4.219  0.9395 -1.1513  1.4371
 5185SOL     OW27016   1.860   2.988   4.155  0.1928  0.1283  0.4268
 5185SOL    HW127017   1.838   2.974   4.247 -0.0273 -2.4704 -0.0060
 5185SOL    HW227018   1.836   3.080   4.158 -1.5126 -0.2618 -0.9359
 5186SOL     OW27019   1.429   3.060   4.703 -0.2873 -0.6343 -0.0595
 5186SOL    HW127020   1.377   3.141   4.707  1.8497  0.7996 -1.3131
 5186SOL    HW227021   1.465   3.058   4.792 -0.9385 -0.2303  0.2188
 5187SOL     OW27022   2.375   1.186   0.462  0.0438  0.0215 -1.2694
 5187SOL    HW127023   2.293   1.188   0.412  0.4091  0.4047 -1.8565
 5187SOL    HW227024   2.352   1.133   0.538  1.5522  1.9623  0.5561
 5188SOL     OW27025   4.266   4.314   3.350 -0.3694  0.8447  0.1462
 5188SOL    HW127026   4.326   4.257   3.398 -0.1799  0.8990 -0.0217
 5188SOL    HW227027   4.262   4.395   3.401  1.8588  1.9782 -1.4669
 5189SOL     OW27028   0.568   0.913   0.560  0.1221 -0.2959 -0.6411
 5189SOL    HW127029   0.603   0.874   0.480 -0.2582 -0.0508 -0.9305
 5189SOL    HW227030   0.653   0.939   0.595  0.1801  0.3929 -1.2779
 5190SOL     OW27031   2.334   0.707   9.462  0.6062 -0.0082  0.3224
 5190SOL    HW127032   2.337   0.686   9.555 -1.0243  2.3652  0.8939
 5190SOL    HW227033   2.340   0.802   9.469  1.1244  0.0783 -1.1972
 5191SOL     OW27034   4.642   1.889  14.755  0.9136 -0.3577  0.1227
 5191SOL    HW127035   4.620   1.870  14.846  0.4264 -0.5814 -0.0410
 5191SOL    HW227036   4.587   1.819  14.720  1.0521 -1.8987  3.0092
 5192SOL     OW27037   3.680   1.693   9.371  0.1124 -0.1300 -0.0128
 5192SOL    HW127038   3.726   1.690   9.455  1.3089 -2.0083 -0.7388
 5192SOL    HW227039   3.750   1.662   9.314 -0.6165 -2.0444  0.1399
 5193SOL     OW27040   2.643   4.195  15.174 -0.4855 -0.3527  0.1725
 5193SOL    HW127041   2.626   4.215  15.266 -0.9676  0.5119 -0.1087
 5193SOL    HW227042   2.713   4.258  15.155  0.1300 -0.3482  2.5359
 5194SOL     OW27043   3.440   3.458  16.568  0.3164  0.1410 -0.2021
 5194SOL    HW127044   3.455   3.400  16.494 -1.6201 -0.7847  0.1162
 5194SOL    HW227045   3.506   3.526  16.581  1.0874 -0.8071  0.8301
 5195SOL     OW27046   0.517   3.014  10.796 -0.0932 -0.1265 -0.3312
 5195SOL    HW127047   0.582   2.959  10.752 -0.4251 -2.6025  2.2586
 5195SOL    HW227048   0.528   3.103  10.762  1.1050  0.7159  2.2824
 5196SOL     OW27049   2.954   3.787   7.953  0.7498  0.2157  0.2715
 5196SOL    HW127050   2.921   3.782   8.042  0.5612 -2.3763  0.0477
 5196SOL    HW227051   3.026   3.724   7.957 -1.1979 -1.9397  0.8888
 5197SOL     OW27052   2.154   3.625  17.304  0.6928  0.3114  0.3147
 5197SOL    HW127053   2.078   3.668  17.343  0.2986 -1.0993  1.0922
 5197SOL    HW227054   2.115   3.573  17.232 -0.5817  0.1013  1.1519
 5198SOL     OW27055   1.162   2.569   8.593 -0.5367  0.7237 -0.1534
 5198SOL    HW127056   1.098   2.577   8.522 -3.1665 -1.8758  1.9591
 5198SOL    HW227057   1.110   2.581   8.672  1.1049  0.2527  0.9986
 5199SOL     OW27058   1.188   2.420   4.956 -0.4518 -0.5771  0.2654
 5199SOL    HW127059   1.175   2.442   4.864 -0.6272  0.1888  0.4687
 5199SOL    HW227060   1.162   2.505   4.993 -1.1932 -0.3714 -0.7474
 5200SOL     OW27061   4.308   3.926   5.782 -0.1635  0.9365  0.3452
 5200SOL    HW127062   4.312   4.021   5.768 -2.5756  1.0712  0.5908
 5200SOL    HW227063   4.392   3.903   5.823  1.0136 -0.6096 -2.9182
 5201SOL     OW27064   3.008   3.444   2.247 -0.4629 -0.3339  0.4837
 5201SOL    HW127065   3.087   3.438   2.194 -0.4030 -0.2223  0.5588
 5201SOL    HW227066   3.035   3.499   2.321  1.4672  0.9012 -1.1236
 5202SOL     OW27067   3.975   0.275   6.072 -0.3856  0.1190 -0.2306
 5202SOL    HW127068   3.901   0.330   6.098 -0.6710  0.7838 -2.4288
 5202SOL    HW227069   3.983   0.305   5.981  1.9524  2.0408  0.5986
 5203SOL     OW27070   3.533   1.927   0.339 -0.1194  0.0116 -0.0936
 5203SOL    HW127071   3.478   1.966   0.271 -1.1711  0.3950  0.9797
 5203SOL    HW227072   3.574   1.999   0.388  1.6639 -0.1917 -1.2630
 5204SOL     OW27073   2.087   1.877   7.295  0.2478  0.2558  0.1565
 5204SOL    HW127074   2.161   1.868   7.235 -0.6093  0.8099 -0.9695
 5204SOL    HW227075   2.129   1.909   7.375 -0.6505  1.0642  0.3002
 5205SOL     OW27076   0.544   2.525  13.510 -0.1275 -0.3988 -0.9403
 5205SOL    HW127077   0.610   2.537  13.578 -1.6526  0.2211  0.4275
 5205SOL    HW227078   0.496   2.449  13.545  2.6917 -0.1562  3.4748
 5206SOL     OW27079   2.923   2.311   2.163  0.6900 -0.4313  0.1217
 5206SOL    HW127080   2.872   2.255   2.105 -0.5695 -0.7708  1.5287
 5206SOL    HW227081   2.901   2.268   2.246  1.5550 -1.2765 -0.0966
 5207SOL     OW27082   4.538   3.253  10.449 -0.4967  0.1700  0.3206
 5207SOL    HW127083   4.451   3.243  10.489  0.3688 -2.3600  1.5422
 5207SOL    HW227084   4.589   3.193  10.503 -0.3119 -1.5560 -1.7842
 5208SOL     OW27085   0.114   0.403   4.072  0.2623 -0.2357  0.0984
 5208SOL    HW127086   0.071   0.334   4.124  2.8041 -0.4876  1.8499
 5208SOL    HW227087   0.066   0.395   3.989 -0.4913  1.6947  0.3586
 5209SOL     OW27088   1.285   0.597   2.754  0.8709  0.1508  0.1295
 5209SOL    HW127089   1.325   0.552   2.828 -0.0181 -0.6421  0.1310
 5209SOL    HW227090   1.221   0.646   2.807  1.4959 -2.1641  3.0290
 5210SOL     OW27091   2.421   1.202  13.943 -0.1260  0.3094  0.4960
 5210SOL    HW127092   2.381   1.231  13.861 -0.0895 -2.5877 -0.5537
 5210SOL    HW227093   2.375   1.263  14.001 -2.2342 -0.1701 -0.6664
 5211SOL     OW27094   0.314   1.773   1.206  0.2303 -0.2137  0.7314
 5211SOL    HW127095   0.355   1.806   1.126  0.8099 -0.7013  0.8256
 5211SOL    HW227096   0.311   1.856   1.255 -0.6920  0.3437 -0.2817
 5212SOL     OW27097   3.126   1.385  10.565 -0.4154 -0.1501 -0.3872
 5212SOL    HW127098   3.129   1.481  10.565  0.0206 -0.1711  0.6624
 5212SOL    HW227099   3.188   1.358  10.498  1.1607 -2.2927  1.9500
 5213SOL     OW27100   4.382   1.060   2.568  0.2587 -0.3430 -0.5284
 5213SOL    HW127101   4.452   1.071   2.631 -0.4483 -1.3234  0.4298
 5213SOL    HW227102   4.331   1.006   2.629 -0.4526  0.6531 -0.2538
 5214SOL     OW27103   1.586   3.031   6.023  0.4963  0.2611  0.3471
 5214SOL    HW127104   1.631   3.107   6.059  0.9487  1.0617 -1.9472
 5214SOL    HW227105   1.568   2.985   6.106  0.5202  2.6288  1.6506
 5215SOL     OW27106   3.447   0.856   3.856  0.1767 -0.2245  0.4454
 5215SOL    HW127107   3.395   0.853   3.776 -0.9539 -2.2589  1.2439
 5215SOL    HW227108   3.427   0.780   3.910  0.0826  0.6751  1.6800
 5216SOL     OW27109   0.032   3.765   6.760 -0.2346  0.5415 -0.1316
 5216SOL    HW127110   0.027   3.856   6.730 -0.6641  1.5664  3.0167
 5216SOL    HW227111   4.674   3.724   6.733  0.1916 -0.1643 -0.3504
 5217SOL     OW27112   2.614   2.643   8.141 -0.3542  0.2630  0.2179
 5217SOL    HW127113   2.560   2.677   8.213 -0.5069  2.6502 -1.0014
 5217SOL    HW227114   2.703   2.660   8.172 -0.3177  0.3407  0.0719
 5218SOL     OW27115   3.695   0.083   7.674  0.5192  0.3905  0.3351
 5218SOL    HW127116   3.713   0.126   7.590 -1.3888 -1.2586 -0.9141
 5218SOL    HW227117   3.621   0.135   7.704 -1.9766 -2.4685 -0.9474
 5219SOL     OW27118   1.635   3.293  16.294  0.5142  0.0930 -0.8257
 5219SOL    HW127119   1.562   3.256  16.246  0.0472 -1.9599  1.4287
 5219SOL    HW227120   1.667   3.210  16.331  2.1097  0.9724 -0.2390
 5220SOL     OW27121   2.677   1.782   1.337 -0.8552  0.1041  0.4776
 5220SOL    HW127122   2.679   1.729   1.257 -0.7203 -1.2341  1.3692
 5220SOL    HW227123   2.688   1.870   1.300  2.3340  0.2916  1.8682
 5221SOL     OW27124   3.735   2.991  12.559 -0.0392 -0.8740 -0.6302
 5221SOL    HW127125   3.712   2.899  12.548  0.9605 -1.0618 -1.1176
 5221SOL    HW227126   3.659   3.028  12.603  0.6791 -0.0839 -0.0409
 5222SOL     OW27127   1.234   1.268   3.053  0.0011 -0.3717 -0.4604
 5222SOL    HW127128   1.288   1.242   2.979  0.4795 -0.4325 -0.0855
 5222SOL    HW227129   1.285   1.224   3.121 -0.3426 -0.8031 -0.4800
 5223SOL     OW27130   1.400   4.598   8.819 -0.1860 -0.3607 -0.4479
 5223SOL    HW127131   1.472   4.583   8.758  1.7126  4.0916  0.7358
 5223SOL    HW227132   1.356   4.676   8.787  1.0558  1.1927  1.6548
 5224SOL     OW27133   0.918   1.780   1.716  0.7617  0.0421 -0.7039
 5224SOL    HW127134   0.882   1.778   1.627 -0.2793 -1.2415 -0.2521
 5224SOL    HW227135   0.991   1.720   1.703 -0.7180 -2.5211  3.0677
 5225SOL     OW27136   0.803   3.809   9.073  0.2264 -0.1232 -0.2944
 5225SOL    HW127137   0.741   3.871   9.111 -2.6570 -2.3470 -1.3664
 5225SOL    HW227138   0.883   3.801   9.125  0.1806 -1.9510 -0.4854
 5226SOL     OW27139   3.223   3.657  13.264 -0.2447  0.3326 -0.0767
 5226SOL    HW127140   3.317   3.641  13.271  0.2475  3.2168  0.0899
 5226SOL    HW227141   3.209   3.693  13.176  1.5932  0.4024 -0.3434
 5227SOL     OW27142   2.432   4.375  16.237  0.1263  0.2974  0.0390
 5227SOL    HW127143   2.491   4.441  16.275  1.7581 -1.0091 -0.2182
 5227SOL    HW227144   2.353   4.386  16.290  1.5878  0.2280  2.2734
 5228SOL     OW27145   2.407   1.973   6.978 -0.3342 -0.3680  0.3217
 5228SOL    HW127146   2.348   2.042   7.009 -0.1464  0.2674 -0.7352
 5228SOL    HW227147   2.383   1.892   7.024  1.7767 -0.8936  0.5238
 5229SOL     OW27148   2.989   3.520  12.549  0.5970  0.1306 -0.1317
 5229SOL    HW127149   2.911   3.541  12.498  0.5374  0.0199 -0.0860
 5229SOL    HW227150   2.994   3.592  12.612 -0.0356 -1.1142  1.3400
 5230SOL     OW27151   3.641   1.052  10.909  0.1171  0.4215 -0.4615
 5230SOL    HW127152   3.563   1.009  10.873  0.4446  1.1383 -2.0127
 5230SOL    HW227153   3.666   0.979  10.966 -0.7126  0.5032  0.0053
 5231SOL     OW27154   0.963   1.695   3.201  0.8131 -0.4222 -0.3228
 5231SOL    HW127155   1.042   1.744   3.223  0.7248 -0.6622  0.5232
 5231SOL    HW227156   0.973   1.686   3.106  0.0387 -2.2927 -0.2308
 5232SOL     OW27157   2.341   1.665   8.876  0.8711  0.0169 -0.1352
 5232SOL    HW127158   2.255   1.642   8.911  0.7406  2.0893  0.9291
 5232SOL    HW227159   2.320   1.686   8.785 -0.5512  0.4944  0.3075
 5233SOL     OW27160   3.172   1.607   7.244  0.1159 -0.4059 -0.7323
 5233SOL    HW127161   3.088   1.653   7.241 -0.2366 -1.0473 -0.8077
 5233SOL    HW227162   3.167   1.577   7.153 -0.0794 -2.1477 -0.1522
 5234SOL     OW27163   3.401   0.493   5.100  0.0243 -0.0823  0.1367
 5234SOL    HW127164   3.315   0.533   5.116  0.6303  1.6685 -1.0137
 5234SOL    HW227165   3.379   0.460   5.013  0.3542 -2.1665  0.8506
 5235SOL     OW27166   3.862   2.482  10.422 -0.0720 -0.4042 -0.1489
 5235SOL    HW127167   3.839   2.399  10.380  1.6217  0.0787 -2.0096
 5235SOL    HW227168   3.774   2.503  10.455  0.0077 -1.1759  0.5544
 5236SOL     OW27169   3.040   2.001   3.316 -0.1919 -0.5590 -0.3013
 5236SOL    HW127170   3.014   2.049   3.237  0.2800 -1.4878 -1.0305
 5236SOL    HW227171   3.094   1.931   3.279  0.1361 -0.7842  0.5973
 5237SOL     OW27172   3.606   3.818   6.714  0.5335  0.4647 -0.1528
 5237SOL    HW127173   3.625   3.813   6.620 -0.2623  0.9765 -0.3397
 5237SOL    HW227174   3.565   3.903   6.728 -0.0573 -0.0399  1.1751
 5238SOL     OW27175   2.012   4.438   8.330 -0.3562  0.4327  0.5490
 5238SOL    HW127176   2.079   4.497   8.364  0.2260 -0.7472  1.4469
 5238SOL    HW227177   1.927   4.467   8.364 -0.5886  1.8757 -1.2842
 5239SOL     OW27178   4.371   1.779   6.186  0.1096  0.0996 -0.0912
 5239SOL    HW127179   4.382   1.862   6.232  0.6292  0.4039 -0.7796
 5239SOL    HW227180   4.435   1.735   6.241  0.8865  1.0516 -0.2385
 5240SOL     OW27181   2.925   0.306   8.437  0.2051  0.5793  0.3595
 5240SOL    HW127182   2.914   0.213   8.418 -0.3069  0.8663 -0.7396
 5240SOL    HW227183   2.835   0.330   8.458 -0.1781 -0.4228 -0.1850
 5241SOL     OW27184   2.485   2.569   3.176 -0.1392  0.2369 -0.0166
 5241SOL    HW127185   2.521   2.613   3.252  0.4515 -0.6676  0.2294
 5241SOL    HW227186   2.392   2.571   3.199 -0.1968  0.2763 -0.2544
 5242SOL     OW27187   1.463   1.640   4.396  0.6569  0.4408  0.3655
 5242SOL    HW127188   1.523   1.565   4.404 -0.6676 -0.5619  0.8802
 5242SOL    HW227189   1.380   1.591   4.396  0.7873  0.1790 -1.6640
 5243SOL     OW27190   0.110   2.321   8.056  0.0505 -0.0620  0.5627
 5243SOL    HW127191   0.200   2.350   8.074 -0.4092  0.6995  1.7337
 5243SOL    HW227192   0.079   2.294   8.143  0.1169  1.2958  1.0181
 5244SOL     OW27193   1.453   1.309   8.389  0.1406  0.2516  0.7003
 5244SOL    HW127194   1.448   1.344   8.300  0.8615  1.8093  1.2686
 5244SOL    HW227195   1.427   1.391   8.432  1.7720  2.1712 -1.9854
 5245SOL     OW27196   3.682   1.486  15.298  0.3871 -0.3737  0.2389
 5245SOL    HW127197   3.731   1.442  15.368 -0.4675 -2.5713 -0.5426
 5245SOL    HW227198   3.617   1.421  15.270 -0.0313 -0.3184  1.0732
 5246SOL     OW27199   2.031   3.467   7.906 -0.3086 -0.3823  0.3082
 5246SOL    HW127200   2.113   3.483   7.954 -0.2537 -1.0394  0.4331
 5246SOL    HW227201   2.048   3.520   7.828  0.3594 -2.5778 -1.0138
 5247SOL     OW27202   3.444   0.641   4.026  0.9698 -0.2198  0.3464
 5247SOL    HW127203   3.381   0.570   4.038 -0.1114  0.6154 -0.4661
 5247SOL    HW227204   3.511   0.587   3.984 -1.0068 -2.8286  0.5445
 5248SOL     OW27205   0.786   2.000   6.084 -0.2362  0.4089  0.0418
 5248SOL    HW127206   0.709   1.945   6.100 -0.0071  0.3729  1.0720
 5248SOL    HW227207   0.763   2.062   6.016 -0.3974  0.1149 -0.1737
 5249SOL     OW27208   0.083   0.297  10.625  0.3982 -0.1237  0.9338
 5249SOL    HW127209   0.131   0.250  10.693  2.0350 -1.3840 -1.1031
 5249SOL    HW227210   4.721   0.255  10.625  1.0739 -1.4971  0.3797
 5250SOL     OW27211   4.502   0.986   0.952  0.0427  0.1161 -0.2003
 5250SOL    HW127212   4.569   1.026   0.898 -1.1323 -1.0171 -2.4982
 5250SOL    HW227213   4.456   1.066   0.977 -0.4730 -0.0294 -0.6769
 5251SOL     OW27214   0.564   2.361  17.076 -0.0204 -0.4486  0.2385
 5251SOL    HW127215   0.632   2.296  17.092 -0.6022 -1.3983 -1.1154
 5251SOL    HW227216   0.584   2.391  16.987 -1.3819  2.0381  0.7647
 5252SOL     OW27217   2.917   3.998   2.032 -0.4549  0.8147 -0.3230
 5252SOL    HW127218   2.822   3.989   2.043 -0.1438  1.0369  2.5413
 5252SOL    HW227219   2.951   3.943   2.103 -0.2115  1.5166  0.1103
 5253SOL     OW27220   2.626   1.952  10.929  0.3300  0.4405  0.0786
 5253SOL    HW127221   2.658   1.944  10.839 -0.6879  0.8739 -0.3220
 5253SOL    HW227222   2.702   1.926  10.981  1.2419  0.0958 -1.4298
 5254SOL     OW27223   2.024   1.963  16.178 -0.0598 -0.2823 -0.3024
 5254SOL    HW127224   1.948   1.908  16.160  0.8560 -0.6576 -3.0948
 5254SOL    HW227225   2.046   1.956  16.271  0.7530  0.1282 -0.4631
 5255SOL     OW27226   2.775   0.775  13.820 -0.1070  0.2262 -0.7746
 5255SOL    HW127227   2.798   0.867  13.803  3.1749 -0.4999 -0.3143
 5255SOL    HW227228   2.790   0.740  13.732  2.8474  0.7952 -0.4924
 5256SOL     OW27229   2.033   4.626   9.371 -0.5394 -0.1308 -0.2163
 5256SOL    HW127230   2.019   4.598   9.280 -2.7417  1.0057 -0.2429
 5256SOL    HW227231   2.013   4.719   9.366  0.8183  0.0865 -1.7359
 5257SOL     OW27232   1.185   2.872  16.860  0.5144  0.1307  0.0035
 5257SOL    HW127233   1.200   2.779  16.843  3.1726  0.3675  1.1342
 5257SOL    HW227234   1.162   2.886  16.952  0.2032  0.6482 -0.1531
 5258SOL     OW27235   3.957   2.250   7.634  0.9473 -0.0273 -0.1051
 5258SOL    HW127236   3.927   2.259   7.544  0.9951  2.1453  0.1048
 5258SOL    HW227237   4.011   2.328   7.637 -0.3922  0.9857 -2.4610
 5259SOL     OW27238   3.841   0.904   1.317 -0.8759 -0.5338  0.2403
 5259SOL    HW127239   3.902   0.939   1.253 -0.8677 -2.7653 -0.9941
 5259SOL    HW227240   3.809   0.989   1.345  1.3067  0.8279 -1.4267
 5260SOL     OW27241   4.410   2.575   7.354  0.0419 -0.4492  0.2974
 5260SOL    HW127242   4.388   2.560   7.446  1.7509  0.6836  0.9020
 5260SOL    HW227243   4.338   2.631   7.325  0.6924 -0.0249 -0.4941
 5261SOL     OW27244   1.265   0.666   8.806 -0.5222 -0.2941  0.4570
 5261SOL    HW127245   1.303   0.619   8.880 -0.8002 -1.1104  0.0713
 5261SOL    HW227246   1.342   0.684   8.752  0.0732  0.0317  1.4021
 5262SOL     OW27247   4.698   4.482   0.746 -0.1517  0.3709  0.3874
 5262SOL    HW127248   4.613   4.517   0.719 -1.5551 -1.7361  2.1639
 5262SOL    HW227249   0.036   4.536   0.696 -0.7257 -0.9060 -1.7240
 5263SOL     OW27250   2.758   3.134   8.166  0.1294 -0.3077 -0.1985
 5263SOL    HW127251   2.824   3.157   8.231 -2.2315  1.3275  1.6417
 5263SOL    HW227252   2.807   3.118   8.086 -1.4168  0.2564 -1.2587
 5264SOL     OW27253   4.066   2.211   4.360 -0.4207  0.4336 -0.3766
 5264SOL    HW127254   4.153   2.183   4.330  0.1602 -0.8485  2.5370
 5264SOL    HW227255   4.082   2.179   4.449  2.3479  0.1953 -0.9496
 5265SOL     OW27256   3.773   0.505   2.688 -0.0152  0.6037 -0.1836
 5265SOL    HW127257   3.757   0.441   2.758  0.2642 -0.0512 -0.7123
 5265SOL    HW227258   3.820   0.450   2.625  0.5199  1.9648 -0.9664
 5266SOL     OW27259   1.751   2.776   4.371 -0.2380 -0.2308 -0.0830
 5266SOL    HW127260   1.676   2.770   4.310  0.6540 -1.3760 -1.0708
 5266SOL    HW227261   1.719   2.729   4.448  1.9615 -0.3140  0.7477
 5267SOL     OW27262   2.996   3.525  11.161 -0.1523 -0.2113 -0.0254
 5267SOL    HW127263   3.060   3.574  11.214  0.9660 -2.2373  0.4923
 5267SOL    HW227264   2.914   3.572  11.176  0.5609  1.6048 -1.7742
 5268SOL     OW27265   3.610   0.780   0.672  1.0782 -0.7816 -0.7427
 5268SOL    HW127266   3.664   0.858   0.660 -1.3703  1.2063  1.2026
 5268SOL    HW227267   3.640   0.749   0.758 -3.0512 -0.4312  0.8538
 5269SOL     OW27268   3.563   3.041  10.972  0.3212 -0.1204 -0.3682
 5269SOL    HW127269   3.503   3.116  10.980  1.1588  0.5790 -0.6768
 5269SOL    HW227270   3.597   3.033  11.061 -0.2126  1.9291  0.0285
 5270SOL     OW27271   3.250   3.928   9.154 -0.0648  0.0778  0.1435
 5270SOL    HW127272   3.220   3.837   9.158 -0.1165  0.0985  0.2393
 5270SOL    HW227273   3.199   3.977   9.219 -0.8817 -2.0152  1.0791
 5271SOL     OW27274   3.463   3.117   6.810  0.0224 -0.2586  0.0546
 5271SOL    HW127275   3.417   3.046   6.766  1.3656 -0.1630 -1.4506
 5271SOL    HW227276   3.465   3.086   6.901 -1.1541  0.8877  0.4954
 5272SOL     OW27277   2.480   4.268   3.909 -0.4132  0.0962 -0.5466
 5272SOL    HW127278   2.433   4.310   3.980 -0.5603  0.2692 -0.7460
 5272SOL    HW227279   2.557   4.323   3.892 -1.0603  0.9842 -0.5402
 5273SOL     OW27280   3.116   3.584   2.456 -0.0386  0.8287 -0.6931
 5273SOL    HW127281   3.070   3.531   2.521  2.1222  1.3346  1.2685
 5273SOL    HW227282   3.202   3.541   2.463  0.0380  0.8079 -1.7991
 5274SOL     OW27283   1.109   0.488   9.276  0.0950 -0.0533 -0.2222
 5274SOL    HW127284   1.107   0.482   9.372 -0.7457 -0.8404 -0.2837
 5274SOL    HW227285   1.203   0.484   9.261  0.0333  0.6502 -0.7854
 5275SOL     OW27286   0.856   3.449   3.976 -0.3108 -0.4339  0.0613
 5275SOL    HW127287   0.878   3.369   4.025  0.2822  0.6516  1.5624
 5275SOL    HW227288   0.943   3.485   3.959 -0.2874  0.0495  1.2295
 5276SOL     OW27289   1.679   0.625   6.082  0.0893 -0.1154 -0.0745
 5276SOL    HW127290   1.704   0.611   5.991 -0.6566  1.2661 -0.4710
 5276SOL    HW227291   1.645   0.714   6.077 -1.5865 -0.6519  1.7116
 5277SOL     OW27292   1.394   2.850   7.867  0.3177  0.2667  0.4702
 5277SOL    HW127293   1.364   2.817   7.952 -0.6880  1.0684  0.4302
 5277SOL    HW227294   1.338   2.800   7.807 -0.4592  0.4906  1.0108
 5278SOL     OW27295   3.179   4.685   8.044  1.0009 -0.3998 -0.7292
 5278SOL    HW127296   3.198   0.049   8.012  1.2339  0.5657  2.1413
 5278SOL    HW227297   3.244   4.666   8.111 -0.7515  3.6796  2.1030
 5279SOL     OW27298   4.580   0.459   2.812 -0.5638 -0.1695 -0.2875
 5279SOL    HW127299   4.589   0.554   2.810  1.5945 -0.3064  1.2804
 5279SOL    HW227300   4.541   0.448   2.726  0.0866  4.2833 -1.1077
 5280SOL     OW27301   3.645   3.734   4.564  0.5487  0.2118  0.7811
 5280SOL    HW127302   3.692   3.816   4.544  1.7675 -0.7924 -0.4818
 5280SOL    HW227303   3.558   3.750   4.528  0.1217 -2.0886  0.8065
 5281SOL     OW27304   0.919   1.116   8.261 -0.0666 -0.1685  0.0016
 5281SOL    HW127305   0.917   1.072   8.176  1.4048  1.1242 -0.7140
 5281SOL    HW227306   0.854   1.065   8.309  0.1230 -1.0811 -0.7088
 5282SOL     OW27307   2.097   3.155   2.871  0.9297 -0.1073 -0.2334
 5282SOL    HW127308   2.135   3.142   2.958  0.8098 -1.4873 -0.3891
 5282SOL    HW227309   2.092   3.250   2.869 -0.2445 -0.1524  0.3731
 5283SOL     OW27310   0.766   4.628   5.802 -0.0349  0.1979 -0.2837
 5283SOL    HW127311   0.763   4.601   5.893  2.0238 -2.4157 -0.9863
 5283SOL    HW227312   0.859   4.641   5.784  0.4934 -1.3880  1.3748
 5284SOL     OW27313   4.455   3.921   6.283 -0.5638 -0.2887 -0.5590
 5284SOL    HW127314   4.535   3.959   6.320 -2.3778  0.4431  2.6861
 5284SOL    HW227315   4.388   3.987   6.301  0.8165  0.7005  0.9832
 5285SOL     OW27316   4.661   1.756   5.600 -0.7279  0.0495 -0.2857
 5285SOL    HW127317   0.003   1.786   5.538 -1.7744  0.0549 -1.3952
 5285SOL    HW227318   4.631   1.845   5.618 -0.5005  0.5479 -2.3022
 5286SOL     OW27319   2.017   4.402  13.299 -0.5451  0.0086 -0.2710
 5286SOL    HW127320   2.084   4.342  13.330 -0.3148  1.0532  1.2274
 5286SOL    HW227321   2.018   4.468  13.369  0.0715  1.1565 -1.3524
 5287SOL     OW27322   2.531   1.922  11.976  0.1966  0.1313  0.5407
 5287SOL    HW127323   2.460   1.857  11.981  0.3378 -0.0872 -0.3034
 5287SOL    HW227324   2.600   1.868  11.938 -0.7484  0.4088 -1.5362
 5288SOL     OW27325   0.713   2.403   8.934  0.1577 -0.3732 -0.0764
 5288SOL    HW127326   0.747   2.396   9.023 -0.2538 -1.0482  0.0272
 5288SOL    HW227327   0.640   2.345   8.952  0.7740 -1.6974 -1.9701
 5289SOL     OW27328   1.536   3.688   5.561  0.1738 -0.4094 -1.0577
 5289SOL    HW127329   1.563   3.620   5.622 -0.6101  0.3630  0.1499
 5289SOL    HW227330   1.455   3.665   5.517 -0.0671  0.5271 -1.1177
 5290SOL     OW27331   1.373   1.959   5.446 -0.1976  0.5495 -0.1103
 5290SOL    HW127332   1.390   2.001   5.531  0.7062  0.1232 -0.0770
 5290SOL    HW227333   1.388   1.866   5.461  0.3084  0.5693 -0.4966
 5291SOL     OW27334   4.222   0.801   3.170 -0.4086  0.4642  0.1231
 5291SOL    HW127335   4.231   0.866   3.240 -3.4657  1.6460 -0.5858
 5291SOL    HW227336   4.208   0.718   3.215  2.3946 -0.9643 -1.7077
 5292SOL     OW27337   2.396   1.649  14.746 -0.3044  0.1462  0.4711
 5292SOL    HW127338   2.329   1.712  14.720 -0.3688  0.6280  1.7903
 5292SOL    HW227339   2.434   1.700  14.818 -0.6032  0.0191  0.7153
 5293SOL     OW27340   1.984   1.251   1.121  0.2691  1.4936  0.6756
 5293SOL    HW127341   1.989   1.169   1.170 -3.7930  0.3177 -0.8975
 5293SOL    HW227342   1.929   1.294   1.187 -0.4730  2.1168 -0.3473
 5294SOL     OW27343   0.933   0.393   3.412  0.0285 -0.9462 -0.0374
 5294SOL    HW127344   0.903   0.343   3.336 -1.0800 -2.5545  1.4635
 5294SOL    HW227345   0.905   0.483   3.395  2.8908 -0.0412 -0.1007
 5295SOL     OW27346   1.197   1.777   8.871  0.0235  0.1528  0.0302
 5295SOL    HW127347   1.144   1.768   8.951 -1.3014 -2.6444 -1.1509
 5295SOL    HW227348   1.250   1.849   8.904  0.9768 -0.6577  0.2602
 5296SOL     OW27349   0.173   1.483   6.386  0.0489  0.1195 -0.2790
 5296SOL    HW127350   0.237   1.429   6.339  1.9607  2.6519 -0.5588
 5296SOL    HW227351   0.134   1.535   6.316  0.3666  1.6412  0.6702
 5297SOL     OW27352   3.365   0.644  10.409 -0.0751 -0.0387 -0.2001
 5297SOL    HW127353   3.298   0.580  10.433 -1.1242  1.8214  1.8825
 5297SOL    HW227354   3.391   0.616  10.321 -1.1868 -1.0794 -0.1975
 5298SOL     OW27355   1.632   2.132  16.133  0.1187 -0.3535  0.0255
 5298SOL    HW127356   1.614   2.221  16.103  2.9544  0.4393  0.6825
 5298SOL    HW227357   1.717   2.146  16.176 -1.4862  5.5857  1.2647
 5299SOL     OW27358   0.531   4.302   2.481 -0.1429 -0.1623 -0.0461
 5299SOL    HW127359   0.489   4.339   2.403  1.2109 -0.3222 -0.8524
 5299SOL    HW227360   0.451   4.281   2.529  0.2877 -1.5858  0.0507
 5300SOL     OW27361   4.629   2.192   4.731  0.2540 -0.5032 -0.3418
 5300SOL    HW127362   4.632   2.111   4.782  0.7940 -0.5010 -0.3641
 5300SOL    HW227363   4.666   2.249   4.798 -2.4895 -0.3689  1.0563
 5301SOL     OW27364   4.039   1.581   7.474 -0.1465  0.1066 -0.3605
 5301SOL    HW127365   4.107   1.614   7.415 -0.0746 -0.5998 -0.6761
 5301SOL    HW227366   3.964   1.625   7.435 -1.1980 -0.9523  0.4855
 5302SOL     OW27367   1.004   1.457   4.639  0.0009 -0.6093  0.2619
 5302SOL    HW127368   1.096   1.437   4.618  0.7165 -1.2616  4.1373
 5302SOL    HW227369   1.020   1.513   4.714 -0.2242  1.9335 -1.5780
 5303SOL     OW27370   0.344   0.403  12.196 -0.2493  0.2119  0.6418
 5303SOL    HW127371   0.332   0.430  12.287  1.8509 -1.4648  1.4083
 5303SOL    HW227372   0.382   0.315  12.199  2.6590  1.3868 -1.2189
 5304SOL     OW27373   1.434   2.547   8.544 -0.2226 -0.3316  0.0067
 5304SOL    HW127374   1.343   2.577   8.555  0.4920  1.3521  1.3534
 5304SOL    HW227375   1.459   2.559   8.452 -2.6740 -1.4984 -0.8150
 5305SOL     OW27376   2.239   1.283  10.029  0.4523  0.5148 -0.2952
 5305SOL    HW127377   2.321   1.268   9.981  1.2653  0.8591  0.9879
 5305SOL    HW227378   2.232   1.214  10.094 -0.4352  0.6175 -0.2767
 5306SOL     OW27379   3.914   3.861   1.430 -0.1031 -0.0240 -0.5662
 5306SOL    HW127380   3.842   3.802   1.449 -0.7823  1.3834  1.2095
 5306SOL    HW227381   3.949   3.828   1.347  1.6298 -0.9237  0.5215
 5307SOL     OW27382   3.974   3.305   4.547 -0.1704 -0.0050 -0.0894
 5307SOL    HW127383   3.893   3.344   4.515  0.5680 -0.0857 -2.0791
 5307SOL    HW227384   4.047   3.363   4.525  0.1764 -0.1785  0.6030
 5308SOL     OW27385   0.912   2.997   9.483 -0.5465 -0.5508  0.2089
 5308SOL    HW127386   1.007   2.983   9.492 -0.3164  0.5081 -0.6393
 5308SOL    HW227387   0.898   3.048   9.563 -1.3078  0.2856 -0.4726
 5309SOL     OW27388   3.037   2.345   2.838  0.8385  0.4179  0.1973
 5309SOL    HW127389   2.946   2.317   2.843 -0.2204  3.8459 -0.2173
 5309SOL    HW227390   3.081   2.274   2.885  1.5484 -0.2242 -1.4106
 5310SOL     OW27391   0.680   2.029   3.133  0.7422 -0.2496 -0.0726
 5310SOL    HW127392   0.703   1.958   3.194 -0.9093 -0.0725  0.7375
 5310SOL    HW227393   0.769   2.065   3.126  1.0115 -0.8343  0.3543
 5311SOL     OW27394   1.354   0.054   8.056  0.1640  0.4792 -0.3441
 5311SOL    HW127395   1.408   0.016   7.986  0.1204 -0.2618  0.0268
 5311SOL    HW227396   1.418   0.075   8.124 -1.2728  2.5254  0.3625
 5312SOL     OW27397   2.355   3.387   5.648 -0.5693 -0.2082  0.3380
 5312SOL    HW127398   2.418   3.436   5.595  0.0789  0.3256  1.5979
 5312SOL    HW227399   2.341   3.317   5.585 -0.1881 -0.7690  0.8810
 5313SOL     OW27400   1.429   3.991  16.349 -0.6640 -0.0791 -0.1285
 5313SOL    HW127401   1.395   4.021  16.265  0.9979 -0.5975 -0.9959
 5313SOL    HW227402   1.354   3.948  16.391 -0.4077  0.2126  0.6302
 5314SOL     OW27403   4.345   2.429   4.047 -0.0724  0.1630  0.1242
 5314SOL    HW127404   4.293   2.353   4.071  0.7158 -0.8417 -1.3178
 5314SOL    HW227405   4.327   2.455   3.956  0.6592 -0.5188 -0.2144
 5315SOL     OW27406   3.354   3.445   2.494  0.0026  0.1619  0.9101
 5315SOL    HW127407   3.380   3.397   2.415 -4.0269 -1.8994  0.8272
 5315SOL    HW227408   3.428   3.411   2.545 -1.0316 -1.9102  1.0514
 5316SOL     OW27409   4.173   1.481  11.734  0.8796  0.1256 -0.5550
 5316SOL    HW127410   4.153   1.408  11.676  0.2105 -0.8323  0.8745
 5316SOL    HW227411   4.236   1.441  11.794  0.1200 -0.9530 -0.4731
 5317SOL     OW27412   1.503   1.833   3.482  0.1406 -0.3919 -0.0709
 5317SOL    HW127413   1.570   1.845   3.549  0.4668  0.8478 -0.6070
 5317SOL    HW227414   1.549   1.885   3.416 -1.5772  0.1609 -0.8306
 5318SOL     OW27415   1.244   2.889   1.587  0.3387 -0.3077  0.5157
 5318SOL    HW127416   1.202   2.810   1.621 -1.0832  1.5532  3.0154
 5318SOL    HW227417   1.321   2.848   1.547 -0.3892 -1.0960 -0.0904
 5319SOL     OW27418   4.302   1.936   2.813  0.3281  0.7410 -0.0947
 5319SOL    HW127419   4.339   1.917   2.727 -2.2368 -0.5256 -0.9392
 5319SOL    HW227420   4.297   1.851   2.857 -1.3514 -0.5010 -2.6776
 5320SOL     OW27421   3.747   3.507   2.964 -0.1953 -0.1060  0.1484
 5320SOL    HW127422   3.790   3.477   3.044  1.3056 -0.7771 -0.9157
 5320SOL    HW227423   3.761   3.433   2.905  1.6724  2.4098 -2.5711
 5321SOL     OW27424   1.767   2.410   9.075 -0.4525  0.0731  0.1750
 5321SOL    HW127425   1.759   2.446   9.163  0.1302 -0.5386  0.4755
 5321SOL    HW227426   1.681   2.369   9.066 -0.3380 -0.2439  0.5634
 5322SOL     OW27427   1.380   1.458   6.149 -0.0311  0.5521  0.4255
 5322SOL    HW127428   1.339   1.380   6.112 -1.9619  1.5847  0.4167
 5322SOL    HW227429   1.350   1.526   6.089 -0.8367  0.6297  0.9127
 5323SOL     OW27430   3.176   0.894   6.662 -0.4931  0.3859  0.3038
 5323SOL    HW127431   3.185   0.970   6.605 -0.5409  0.1633  0.0009
 5323SOL    HW227432   3.101   0.929   6.709  0.9877  2.3049  1.2473
 5324SOL     OW27433   1.572   4.409   8.662 -0.0929  0.1020  0.1844
 5324SOL    HW127434   1.644   4.346   8.666  1.0133  1.3457 -0.4985
 5324SOL    HW227435   1.498   4.348   8.655 -0.6414  0.7404  0.3859
 5325SOL     OW27436   3.772   3.965   3.153 -0.0401  0.0305  0.2845
 5325SOL    HW127437   3.774   3.920   3.069  0.5552  0.0724  0.2769
 5325SOL    HW227438   3.867   3.961   3.159  0.0015 -1.9270 -1.7427
 5326SOL     OW27439   2.770   2.359   6.250 -0.1193  0.0703 -0.0980
 5326SOL    HW127440   2.741   2.421   6.183  1.1900  0.9894  0.1979
 5326SOL    HW227441   2.843   2.394   6.299 -0.0097 -2.0553  1.2761
 5327SOL     OW27442   3.721   2.141   4.850 -0.4372  0.1054  0.4765
 5327SOL    HW127443   3.706   2.208   4.917 -3.2479 -0.7004  0.6921
 5327SOL    HW227444   3.639   2.153   4.802 -0.2191 -1.9345 -0.4043
 5328SOL     OW27445   1.151   0.275  13.552 -0.0423  0.2975  0.3967
 5328SOL    HW127446   1.139   0.326  13.472  2.6849  0.6652  0.2399
 5328SOL    HW227447   1.207   0.201  13.531 -1.5144 -0.9361  0.7971
 5329SOL     OW27448   0.176   1.857  16.510  0.4137 -0.0012  0.2822
 5329SOL    HW127449   0.130   1.888  16.588 -0.9684 -0.7348 -0.2495
 5329SOL    HW227450   0.209   1.942  16.479  0.2267 -0.5440 -1.4109
 5330SOL     OW27451   0.602   3.610  13.626  0.2715  0.0746  0.4089
 5330SOL    HW127452   0.575   3.545  13.691  0.6573 -0.1053  0.3883
 5330SOL    HW227453   0.571   3.695  13.658  1.1815  0.6251 -0.1559
 5331SOL     OW27454   4.439   3.971   3.269  0.3765  0.0377 -0.1214
 5331SOL    HW127455   4.439   4.028   3.346 -1.8501  0.5882 -0.5255
 5331SOL    HW227456   4.463   4.035   3.202 -0.2356 -0.8993 -1.2382
 5332SOL     OW27457   3.108   4.499   2.569  0.3889  0.0032  0.4274
 5332SOL    HW127458   3.106   4.455   2.654  1.7614 -1.0293 -0.0755
 5332SOL    HW227459   3.022   4.469   2.540  0.3387  0.3986  0.1744
 5333SOL     OW27460   3.064   2.433   7.166 -0.3167 -0.0581  0.2781
 5333SOL    HW127461   3.110   2.352   7.188 -0.7401 -0.8781 -1.8767
 5333SOL    HW227462   3.037   2.451   7.256  0.0715  1.2034  0.1425
 5334SOL     OW27463   1.466   2.762   5.163 -0.0239 -0.0095  0.1029
 5334SOL    HW127464   1.384   2.794   5.201 -0.1408  0.3068 -0.4190
 5334SOL    HW227465   1.510   2.847   5.167  1.3395 -0.7824  1.8339
 5335SOL     OW27466   1.992   1.558  10.330  0.0445  0.5883 -0.1459
 5335SOL    HW127467   2.014   1.481  10.277  0.7977  1.1191 -0.5870
 5335SOL    HW227468   1.898   1.549  10.344  0.2925 -0.3007  0.9634
 5336SOL     OW27469   1.322   1.466  12.843  0.4855 -0.6536 -0.2947
 5336SOL    HW127470   1.299   1.405  12.913  0.3756  1.1035  1.2078
 5336SOL    HW227471   1.329   1.405  12.770 -0.3959 -1.4633  0.3010
 5337SOL     OW27472   1.626   0.113   3.917 -0.1737 -0.0889 -0.0431
 5337SOL    HW127473   1.531   0.105   3.927 -0.0648 -2.7400 -1.1253
 5337SOL    HW227474   1.644   0.044   3.853 -0.3429 -1.0681  0.9535
 5338SOL     OW27475   0.643   3.562   7.062  0.0348  0.0712  0.4985
 5338SOL    HW127476   0.711   3.525   7.007  1.6175  0.2983  2.2765
 5338SOL    HW227477   0.582   3.593   6.995 -0.1825 -0.6035  0.3898
 5339SOL     OW27478   1.436   3.356   9.843  0.0231 -0.4771  0.0583
 5339SOL    HW127479   1.455   3.263   9.860 -0.8712 -0.2718  2.0788
 5339SOL    HW227480   1.475   3.363   9.755  1.1589  0.3003  0.6175
 5340SOL     OW27481   0.620   1.259   1.895 -0.2028  0.3750 -0.3333
 5340SOL    HW127482   0.598   1.244   1.987  1.8331  2.2493  0.4772
 5340SOL    HW227483   0.589   1.347   1.876  0.9998  1.0667  0.9421
 5341SOL     OW27484   1.441   2.326   8.127 -0.1537 -0.2831  0.2728
 5341SOL    HW127485   1.351   2.357   8.127 -0.3450 -0.8284  0.4269
 5341SOL    HW227486   1.484   2.397   8.174  0.0025  1.2908 -2.2665
 5342SOL     OW27487   3.731   0.651   7.027 -0.5314  0.1808  0.1238
 5342SOL    HW127488   3.735   0.642   6.931  1.2971  0.3806  0.1897
 5342SOL    HW227489   3.662   0.585   7.037  1.0393 -1.2526  1.4373
 5343SOL     OW27490   1.456   2.578   8.817 -0.0035  0.2185 -0.4908
 5343SOL    HW127491   1.467   2.553   8.726  1.3632 -2.3823  0.3763
 5343SOL    HW227492   1.546   2.571   8.849  0.1349  0.0625 -0.9193
 5344SOL     OW27493   2.195   2.023   1.971 -0.6360  0.0462 -0.1567
 5344SOL    HW127494   2.281   1.983   1.955  0.8537  2.6357  1.3170
 5344SOL    HW227495   2.207   2.116   1.949 -2.4730  0.1039 -0.8551
 5345SOL     OW27496   2.068   0.255   3.267  0.1111  0.3452  0.3189
 5345SOL    HW127497   2.077   0.297   3.181 -0.5901  1.3087  0.7191
 5345SOL    HW227498   2.028   0.175   3.233 -1.4461  2.0835 -1.9378
 5346SOL     OW27499   3.702   1.559  16.407 -0.2808 -0.1248 -0.4405
 5346SOL    HW127500   3.615   1.524  16.423 -0.1304 -0.8521 -1.2133
 5346SOL    HW227501   3.674   1.625  16.344  0.1250  0.8025  0.3528
 5347SOL     OW27502   3.070   3.901  15.498 -0.8772 -0.1916  0.0613
 5347SOL    HW127503   3.124   3.932  15.570 -2.6568  2.2536  0.3482
 5347SOL    HW227504   3.039   3.815  15.526 -0.1334 -1.0828 -1.8776
 5348SOL     OW27505   3.068   2.720   2.980 -0.0437 -0.0565  0.3354
 5348SOL    HW127506   3.126   2.795   2.968 -1.8690  1.3954  0.6467
 5348SOL    HW227507   3.102   2.673   2.904  1.4558  0.4075  0.7173
 5349SOL     OW27508   4.208   2.514   1.947  0.2379 -0.1808 -0.5089
 5349SOL    HW127509   4.296   2.490   1.975  0.1116  0.2693  0.2871
 5349SOL    HW227510   4.226   2.563   1.867 -0.6113  1.5459  0.3515
 5350SOL     OW27511   2.715   4.403   3.898  0.5291 -0.1580 -0.0755
 5350SOL    HW127512   2.780   4.362   3.954 -0.4035  0.0698  1.1674
 5350SOL    HW227513   2.743   4.495   3.898  2.2968 -0.6955 -0.4513
 5351SOL     OW27514   2.675   2.967   7.431 -0.0392 -0.3296 -0.0087
 5351SOL    HW127515   2.689   2.872   7.431  0.9695 -0.1868  1.4589
 5351SOL    HW227516   2.579   2.964   7.438 -0.2608  2.4640 -1.6314
 5352SOL     OW27517   2.358   2.322   8.834  0.1013  0.0061  0.3000
 5352SOL    HW127518   2.380   2.415   8.827  1.8622 -0.5232 -1.0597
 5352SOL    HW227519   2.439   2.283   8.802  0.0876  1.4689 -1.4880
 5353SOL     OW27520   3.543   4.068   5.833 -0.3401 -0.6927  0.1594
 5353SOL    HW127521   3.593   4.112   5.764 -0.7887  0.0504  0.3011
 5353SOL    HW227522   3.468   4.037   5.783  0.6110 -0.5126 -1.3939
 5354SOL     OW27523   2.692   0.431   9.958 -0.2733  0.3602 -0.1958
 5354SOL    HW127524   2.638   0.486  10.015  0.0508  1.0283 -0.5293
 5354SOL    HW227525   2.778   0.447   9.997 -0.2349  2.5042 -1.1159
 5355SOL     OW27526   2.315   0.232   7.397  0.5743  0.0245 -0.2917
 5355SOL    HW127527   2.353   0.306   7.443 -0.6074  0.0579  0.6090
 5355SOL    HW227528   2.258   0.277   7.334  1.8892  1.7556 -0.2161
 5356SOL     OW27529   1.986   1.974  10.141 -0.5471 -0.1576 -0.3898
 5356SOL    HW127530   2.038   1.915  10.086 -1.5291 -0.6410 -0.8026
 5356SOL    HW227531   2.058   2.028  10.172 -0.2435 -0.9850  0.3285
 5357SOL     OW27532   1.635   2.030   6.004  0.2140  0.5652  0.2196
 5357SOL    HW127533   1.702   2.090   6.035  0.5992 -0.5148  1.4560
 5357SOL    HW227534   1.550   2.054   6.042  0.4917  2.9081 -0.6296
 5358SOL     OW27535   2.913   0.504  10.068  0.1478 -0.1269  0.8068
 5358SOL    HW127536   2.967   0.537   9.996  0.7243 -1.6791  0.5261
 5358SOL    HW227537   2.982   0.464  10.121  0.5807 -2.0170 -1.1911
 5359SOL     OW27538   3.809   2.490   2.041  0.0655  0.4061 -0.2001
 5359SOL    HW127539   3.758   2.570   2.037  0.2007  0.4718 -0.6669
 5359SOL    HW227540   3.812   2.460   1.950  0.6358  1.4810 -0.5373
 5360SOL     OW27541   1.823   3.947   6.437  0.4334  0.4723 -0.5446
 5360SOL    HW127542   1.756   3.926   6.502  0.7930  1.2631  0.0807
 5360SOL    HW227543   1.869   3.863   6.433  0.8846  0.6399  1.2566
 5361SOL     OW27544   3.370   3.036  13.533 -0.4390 -0.1242 -0.2713
 5361SOL    HW127545   3.280   3.002  13.525 -0.8074  0.6136  0.6747
 5361SOL    HW227546   3.368   3.126  13.500 -1.1071 -0.4363 -1.0898
 5362SOL     OW27547   4.645   4.202   6.475  0.5419 -0.3624 -0.3605
 5362SOL    HW127548   4.610   4.290   6.485  2.8059  0.5833 -0.7941
 5362SOL    HW227549   4.616   4.183   6.385  0.5037  0.0813 -0.4396
 5363SOL     OW27550   2.322   2.489  15.789 -0.7220 -0.0308 -0.0335
 5363SOL    HW127551   2.307   2.500  15.883  1.2346 -0.5991  0.3361
 5363SOL    HW227552   2.371   2.407  15.787 -0.4156  0.2379 -2.9546
 5364SOL     OW27553   0.733   2.380   5.863 -0.5010 -0.2588 -0.2293
 5364SOL    HW127554   0.641   2.407   5.873 -0.1172  0.9825 -0.0563
 5364SOL    HW227555   0.746   2.434   5.784 -2.3891 -1.5393 -1.4229
 5365SOL     OW27556   3.282   4.675   3.799 -0.6722 -0.0531  0.2977
 5365SOL    HW127557   3.303   4.586   3.827 -0.5821 -0.3403 -0.6777
 5365SOL    HW227558   3.228   4.660   3.721  1.1795 -1.9050 -0.6415
 5366SOL     OW27559   0.824   0.843   6.355 -0.4109 -0.3960  0.5367
 5366SOL    HW127560   0.732   0.865   6.342 -0.2635 -0.6958 -1.0699
 5366SOL    HW227561   0.837   0.791   6.276  0.5240  0.8224 -0.1119
 5367SOL     OW27562   3.154   2.515   0.245  0.0912 -0.3430 -0.0999
 5367SOL    HW127563   3.225   2.497   0.184  0.6129 -0.0323  0.4209
 5367SOL    HW227564   3.202   2.510   0.327 -1.3520  3.4500  0.9615
 5368SOL     OW27565   4.494   4.268  12.145  0.0565  0.2883  0.3286
 5368SOL    HW127566   4.570   4.323  12.127  1.6755 -1.9626  0.2892
 5368SOL    HW227567   4.430   4.340  12.148  1.3721  1.3714  2.0346
 5369SOL     OW27568   1.946   0.772   4.217 -0.2358  0.3587 -0.3548
 5369SOL    HW127569   1.893   0.749   4.140 -0.3762  0.0910 -0.1774
 5369SOL    HW227570   2.024   0.798   4.169  0.1358 -1.1488 -0.5750
 5370SOL     OW27571   4.019   4.076   7.153 -0.2599 -0.4546  0.1279
 5370SOL    HW127572   3.930   4.107   7.134  0.3201  1.2116  0.1304
 5370SOL    HW227573   4.049   4.081   7.062 -1.5501  1.6612 -0.1713
 5371SOL     OW27574   1.018   0.028   6.986  0.5861  0.1234  0.4761
 5371SOL    HW127575   1.042   0.072   6.904 -1.7998 -1.3100 -1.0244
 5371SOL    HW227576   0.957   0.091   7.024 -0.9866  0.5574 -2.7567
 5372SOL     OW27577   1.136   3.491   6.481  0.6193  0.2995 -0.3063
 5372SOL    HW127578   1.206   3.507   6.544  0.3282 -0.7240  0.2707
 5372SOL    HW227579   1.179   3.501   6.396 -1.0696 -0.0550 -1.2025
 5373SOL     OW27580   2.021   4.205   9.107 -0.4700  0.1017 -0.1178
 5373SOL    HW127581   2.091   4.141   9.125  0.4900  1.3347  0.5359
 5373SOL    HW227582   2.039   4.266   9.179  0.3304 -0.1886 -0.0674
 5374SOL     OW27583   3.101   3.181   2.830  0.4076  0.5384 -0.5940
 5374SOL    HW127584   3.155   3.224   2.763  1.2124  1.5560  0.7050
 5374SOL    HW227585   3.067   3.259   2.873 -2.0742 -0.0033 -1.6048
 5375SOL     OW27586   3.331   1.364   3.841 -0.3475  0.2853  0.0977
 5375SOL    HW127587   3.350   1.457   3.852  0.4998  0.3028 -1.4746
 5375SOL    HW227588   3.413   1.332   3.802 -0.7461 -1.1292  0.3961
 5376SOL     OW27589   3.185   0.876   9.139 -0.9425 -0.2603  0.8230
 5376SOL    HW127590   3.269   0.916   9.120  0.3320 -2.2339  2.2648
 5376SOL    HW227591   3.214   0.799   9.188 -0.4149  0.9766  2.4390
 5377SOL     OW27592   4.148   1.066   0.430  0.3734 -0.0793 -0.2316
 5377SOL    HW127593   4.209   1.085   0.359  1.0093 -1.5454 -0.0976
 5377SOL    HW227594   4.215   1.035   0.492  0.2114  1.1953  0.5888
 5378SOL     OW27595   0.865   1.389   1.833  0.1528 -0.3139 -0.4704
 5378SOL    HW127596   0.791   1.328   1.836 -0.8799  1.0921  2.9723
 5378SOL    HW227597   0.874   1.423   1.922 -2.5807  0.0594 -0.3656
 5379SOL     OW27598   3.978   3.060   6.161 -0.8540 -0.2799 -0.1220
 5379SOL    HW127599   4.021   2.996   6.104  4.0086  1.0360  2.0567
 5379SOL    HW227600   4.029   3.139   6.144 -0.5058 -0.7586 -1.2883
 5380SOL     OW27601   2.641   2.017   5.112  0.8433  0.2595 -0.2085
 5380SOL    HW127602   2.667   1.976   5.194 -0.1823  1.8766  0.9223
 5380SOL    HW227603   2.662   2.110   5.118  2.6623 -0.2669  1.2531
 5381SOL     OW27604   1.659   1.524   3.537  0.0686 -0.2914  0.5124
 5381SOL    HW127605   1.573   1.554   3.508  0.4907 -0.8713 -1.3573
 5381SOL    HW227606   1.643   1.499   3.628 -0.7995 -0.1493  0.3900
 5382SOL     OW27607   3.782   4.247   7.248  0.0710 -0.2068  0.8324
 5382SOL    HW127608   3.758   4.326   7.297 -3.3303  0.0402 -1.2775
 5382SOL    HW227609   3.843   4.203   7.308 -1.7762 -1.6479  1.6420
 5383SOL     OW27610   2.192   1.056   5.888 -0.4790  0.4721  0.3891
 5383SOL    HW127611   2.166   1.096   5.805  1.9210  1.5015  0.1244
 5383SOL    HW227612   2.197   0.963   5.866 -3.6422  0.2149  0.7970
 5384SOL     OW27613   0.229   1.638  14.829  0.2874  0.0535 -0.3273
 5384SOL    HW127614   0.194   1.590  14.754 -1.6379  0.9638 -0.0310
 5384SOL    HW227615   0.281   1.706  14.786  1.0517 -0.9823 -1.0289
 5385SOL     OW27616   3.200   4.112   7.613  0.4238  0.0955 -0.0162
 5385SOL    HW127617   3.152   4.101   7.531  0.2641 -0.4431  0.1455
 5385SOL    HW227618   3.241   4.196   7.593  0.3553 -0.0151 -0.6202
 5386SOL     OW27619   3.194   2.073   6.254 -0.1934  0.0198 -0.4014
 5386SOL    HW127620   3.200   1.981   6.280  2.6125  0.0285 -1.0135
 5386SOL    HW227621   3.101   2.092   6.262 -0.5536 -1.2953 -1.5009
 5387SOL     OW27622   2.139   2.242   4.831  0.1164  0.3241 -0.0323
 5387SOL    HW127623   2.075   2.275   4.895  0.4864  2.2272 -0.6415
 5387SOL    HW227624   2.212   2.270   4.886  0.1448 -1.7658  0.9842
 5388SOL     OW27625   1.326   1.837   2.930  0.5485 -0.3486  0.0603
 5388SOL    HW127626   1.369   1.778   2.869 -2.1441  0.8427 -3.0079
 5388SOL    HW227627   1.393   1.902   2.952 -0.4343  1.1351 -1.3936
 5389SOL     OW27628   3.872   2.900   2.639  0.6836  0.4929  0.4047
 5389SOL    HW127629   3.858   2.850   2.720  0.8883  3.3990  2.2506
 5389SOL    HW227630   3.823   2.844   2.578 -0.4550  2.2700 -0.3159
 5390SOL     OW27631   0.226   1.534  13.333 -0.4385  0.1423 -1.1203
 5390SOL    HW127632   0.249   1.573  13.249  1.1331  0.7292 -0.4231
 5390SOL    HW227633   0.132   1.513  13.330 -0.6563  1.2686 -2.0607
 5391SOL     OW27634   4.097   0.900   3.848  0.3536 -0.1757 -0.4962
 5391SOL    HW127635   4.062   0.974   3.897  0.3048  0.5711 -1.6418
 5391SOL    HW227636   4.138   0.954   3.780  0.9458 -0.2447 -0.1855
 5392SOL     OW27637   0.042   4.301   5.544  0.5992 -0.1333  0.1664
 5392SOL    HW127638   0.129   4.317   5.581  0.5276 -1.2125  0.8099
 5392SOL    HW227639   0.024   4.218   5.587 -1.1246 -0.1365 -0.5918
 5393SOL     OW27640   4.365   0.273   7.079  0.0990  0.4691  0.5557
 5393SOL    HW127641   4.298   0.216   7.041  1.4226  0.2815 -1.4956
 5393SOL    HW227642   4.329   0.361   7.075  0.2736  0.4235 -2.3603
 5394SOL     OW27643   4.662   2.322  10.779  0.2758  0.5423 -0.3657
 5394SOL    HW127644   4.669   2.272  10.860  0.1053 -0.3066 -0.8791
 5394SOL    HW227645   4.578   2.285  10.751  0.8687 -1.5075  0.5609
 5395SOL     OW27646   4.373   1.383   5.183 -0.1492 -0.1925  0.6464
 5395SOL    HW127647   4.467   1.375   5.169 -0.2252 -0.2466  0.1622
 5395SOL    HW227648   4.341   1.300   5.146 -1.9624  0.7227  0.1439
 5396SOL     OW27649   1.724   0.945   4.936  0.0202  0.3186 -0.2865
 5396SOL    HW127650   1.734   1.038   4.956 -2.0536  0.7111 -1.1154
 5396SOL    HW227651   1.780   0.924   4.861 -1.7708  0.0537 -1.5629
 5397SOL     OW27652   0.923   0.968  17.675  0.4226  0.2303 -0.4391
 5397SOL    HW127653   0.966   0.950   0.062 -2.8788  0.8773  1.4051
 5397SOL    HW227654   0.836   0.934  17.694  0.3336  1.2675  1.0097
 5398SOL     OW27655   2.386   4.652   5.354  0.2861 -0.6812  0.1217
 5398SOL    HW127656   2.367   4.570   5.308 -0.8212  0.6582 -1.8074
 5398SOL    HW227657   2.407   4.707   5.278 -1.7102 -0.5625 -0.3303
 5399SOL     OW27658   0.252   2.456   0.965  0.1632 -0.7125  0.5952
 5399SOL    HW127659   0.294   2.538   0.991 -1.7567  0.2507  0.6704
 5399SOL    HW227660   0.289   2.444   0.878  2.3107  0.3086  1.3888
 5400SOL     OW27661   4.548   4.313   1.660  0.3914 -0.0883 -0.3180
 5400SOL    HW127662   4.534   4.399   1.621  1.5778  0.9001  1.4436
 5400SOL    HW227663   4.639   4.297   1.633 -0.1950 -2.8379 -0.6667
 5401SOL     OW27664   4.402   1.537  13.398  0.2283 -0.1948 -0.6745
 5401SOL    HW127665   4.378   1.580  13.316 -1.5834  0.8270  0.3919
 5401SOL    HW227666   4.382   1.604  13.463 -1.1096 -0.7599 -0.5140
 5402SOL     OW27667   0.137   0.266   8.794  0.1552  0.0314  0.2108
 5402SOL    HW127668   0.073   0.259   8.865 -0.6822  0.7019 -0.4795
 5402SOL    HW227669   0.122   0.356   8.768 -0.3029 -0.0625  0.1473
 5403SOL     OW27670   2.087   3.168   0.174  0.1975 -0.1231 -0.0633
 5403SOL    HW127671   2.150   3.184   0.104  2.7690 -1.4777  1.9556
 5403SOL    HW227672   2.077   3.073   0.186 -0.2563 -0.5728 -4.0313
 5404SOL     OW27673   0.583   2.327   0.339  0.0296  0.0984 -0.5553
 5404SOL    HW127674   0.603   2.411   0.299  1.3553  1.6272  3.2814
 5404SOL    HW227675   0.489   2.329   0.358  0.6640  1.9767  2.4609
 5405SOL     OW27676   1.010   4.564   5.362  0.7147  0.8867  0.2278
 5405SOL    HW127677   1.014   4.656   5.389 -0.4209  0.8630  0.4797
 5405SOL    HW227678   0.916   4.550   5.368  0.5416  2.8893  2.2558
 5406SOL     OW27679   2.021   1.362  10.961 -0.1415 -0.0162  0.3169
 5406SOL    HW127680   1.937   1.371  11.005 -0.7603 -0.4939 -0.7825
 5406SOL    HW227681   2.004   1.277  10.920  3.0557  0.6297 -2.3702
 5407SOL     OW27682   0.724   0.671  16.507  0.2999 -0.7654  0.0656
 5407SOL    HW127683   0.719   0.576  16.518  1.2750 -0.8558 -0.2532
 5407SOL    HW227684   0.676   0.671  16.424 -1.6752 -2.1959  1.2075
 5408SOL     OW27685   2.593   0.987   5.824 -0.0705  0.4085 -0.4276
 5408SOL    HW127686   2.662   0.973   5.760  0.0518  2.1886 -0.6982
 5408SOL    HW227687   2.562   1.075   5.802  0.2338  0.1990 -1.6737
 5409SOL     OW27688   0.502   2.945   6.008  0.2700 -0.5888  0.1839
 5409SOL    HW127689   0.433   2.945   5.941  0.2788 -1.8569  0.1647
 5409SOL    HW227690   0.571   2.916   5.948 -0.0255 -1.4218  0.2358
 5410SOL     OW27691   0.873   0.615   7.600 -0.7724 -0.1966  0.0384
 5410SOL    HW127692   0.863   0.554   7.673 -0.1597  1.6962  1.7099
 5410SOL    HW227693   0.801   0.673   7.626 -1.0291  0.3700 -1.9205
 5411SOL     OW27694   3.809   1.073   4.597  0.0308 -0.4134  0.8493
 5411SOL    HW127695   3.747   1.014   4.554  1.0011 -2.9667  3.0058
 5411SOL    HW227696   3.871   1.077   4.525 -2.3764 -0.5957 -1.2431
 5412SOL     OW27697   3.912   2.786   7.465 -0.3639  0.0385  0.5076
 5412SOL    HW127698   3.987   2.834   7.428 -0.2933 -0.0581  0.5257
 5412SOL    HW227699   3.940   2.698   7.442  2.1714  0.4641  1.9541
 5413SOL     OW27700   4.388   0.927   9.251  0.1530  0.2602  0.2002
 5413SOL    HW127701   4.437   1.000   9.291 -0.0609 -0.2154  1.3162
 5413SOL    HW227702   4.313   0.973   9.213 -0.4412 -2.0048 -1.3385
 5414SOL     OW27703   0.531   1.268  15.757 -0.2632 -0.7686  0.1840
 5414SOL    HW127704   0.526   1.286  15.851 -0.4205  2.5421 -0.4547
 5414SOL    HW227705   0.567   1.349  15.722 -1.5142 -0.6179 -0.7670
 5415SOL     OW27706   3.382   1.333   5.449 -0.0722  0.2313 -0.0097
 5415SOL    HW127707   3.474   1.312   5.465 -0.2287 -0.5660 -0.1880
 5415SOL    HW227708   3.362   1.334   5.543  0.1501 -0.0571  0.0395
 5416SOL     OW27709   0.306   2.129   3.718 -0.4308 -0.5477 -0.0893
 5416SOL    HW127710   0.310   2.131   3.622  2.2520  0.2206  0.0414
 5416SOL    HW227711   0.391   2.170   3.734 -1.2586  0.9584  0.4094
 5417SOL     OW27712   3.008   2.319  10.675  0.2082 -0.2156 -0.1897
 5417SOL    HW127713   2.922   2.322  10.716  0.7236  0.3112  0.8620
 5417SOL    HW227714   3.014   2.226  10.652 -1.4325 -0.2663 -0.3942
 5418SOL     OW27715   0.965   2.853   1.427 -0.0295 -0.3128 -0.0095
 5418SOL    HW127716   1.027   2.879   1.494 -1.6186 -0.4742  1.5200
 5418SOL    HW227717   1.008   2.898   1.354 -0.3420 -1.9234 -1.1892
 5419SOL     OW27718   4.541   1.104  14.122 -0.2144  0.0513  0.1586
 5419SOL    HW127719   4.510   1.015  14.136 -1.4121  0.6580  1.3280
 5419SOL    HW227720   4.457   1.145  14.103  0.0645  1.2788  1.5984
 5420SOL     OW27721   0.146   4.141   8.918  0.0073  0.0958  0.2235
 5420SOL    HW127722   0.218   4.196   8.886 -0.0834 -0.3736 -0.8105
 5420SOL    HW227723   0.183   4.103   8.997 -0.5080  0.8766  0.8317
 5421SOL     OW27724   1.578   3.310   8.014  0.5031 -0.7713  0.2104
 5421SOL    HW127725   1.669   3.298   8.040  0.8475  2.5164  0.5985
 5421SOL    HW227726   1.556   3.217   8.009 -0.2651 -0.6620  1.6093
 5422SOL     OW27727   4.344   1.265   9.701 -0.0052  0.0951  0.1781
 5422SOL    HW127728   4.349   1.261   9.796  2.0394 -1.1754  0.0281
 5422SOL    HW227729   4.345   1.173   9.673 -0.2670  0.3856 -0.8097
 5423SOL     OW27730   1.958   0.554   7.587 -0.2503  0.6697 -0.0362
 5423SOL    HW127731   1.868   0.542   7.617 -1.0327  0.3988 -2.4867
 5423SOL    HW227732   1.968   0.487   7.519  2.2782  2.6877 -1.6753
 5424SOL     OW27733   3.234   2.775   5.942 -0.7224  0.0175 -0.2247
 5424SOL    HW127734   3.219   2.697   5.889  1.1637 -0.7954  0.4224
 5424SOL    HW227735   3.237   2.746   6.033  3.3153  1.7320  0.2012
 5425SOL     OW27736   0.427   1.434   4.078  0.5315 -0.4047  0.2414
 5425SOL    HW127737   0.428   1.366   4.011 -1.4843 -1.6182  1.4358
 5425SOL    HW227738   0.392   1.505   4.025  0.4116  0.0028  0.8729
 5426SOL     OW27739   1.247   1.433   2.570 -0.1422  0.6020  0.1008
 5426SOL    HW127740   1.315   1.367   2.584 -1.2460 -0.6182 -0.2812
 5426SOL    HW227741   1.280   1.503   2.625  1.2583 -0.3115  0.4203
 5427SOL     OW27742   0.774   4.555   4.880 -0.2079 -0.6874  0.0459
 5427SOL    HW127743   0.868   4.551   4.899  0.3220  1.8253 -2.0473
 5427SOL    HW227744   0.729   4.588   4.957 -1.3191 -0.3982 -0.7320
 5428SOL     OW27745   0.390   2.655   1.162 -0.1821 -0.1526  0.0257
 5428SOL    HW127746   0.456   2.702   1.111 -1.1711  0.0563 -1.0539
 5428SOL    HW227747   0.435   2.577   1.194 -1.9502 -1.9788 -1.9256
 5429SOL     OW27748   4.219   4.300  14.840 -0.4303 -0.0375 -0.1829
 5429SOL    HW127749   4.265   4.310  14.757 -0.2076 -0.9455 -0.1646
 5429SOL    HW227750   4.202   4.206  14.837  1.7435 -0.4786  1.6704
 5430SOL     OW27751   0.471   4.369   6.086 -0.2312 -0.1141 -0.1030
 5430SOL    HW127752   0.514   4.322   6.015 -3.1130 -0.8330 -1.3601
 5430SOL    HW227753   0.544   4.428   6.106  1.3746 -1.1878 -2.9469
 5431SOL     OW27754   0.520   4.423  13.836 -0.0438 -0.3892 -0.1167
 5431SOL    HW127755   0.476   4.352  13.789  0.0099 -0.9020  0.6040
 5431SOL    HW227756   0.580   4.388  13.901  1.4408  1.9473 -0.1973
 5432SOL     OW27757   0.778   1.712   2.706  0.4737  0.0125 -0.5128
 5432SOL    HW127758   0.786   1.656   2.783 -2.1658 -0.0175 -0.2711
 5432SOL    HW227759   0.684   1.731   2.704  0.4132  0.0592  3.1260
 5433SOL     OW27760   4.589   1.467   0.836  0.2269 -0.0323  0.0483
 5433SOL    HW127761   4.592   1.487   0.743  1.4971  1.0702  0.3129
 5433SOL    HW227762   4.516   1.406   0.834  0.7097 -0.6437  0.9578
 5434SOL     OW27763   4.426   0.557  13.677 -0.6851  0.2615 -0.1508
 5434SOL    HW127764   4.415   0.463  13.685  1.5893  0.1159  1.2507
 5434SOL    HW227765   4.519   0.554  13.700 -0.7301 -3.1721 -0.4129
 5435SOL     OW27766   1.044   3.711   8.963 -0.2323 -0.3769 -0.1841
 5435SOL    HW127767   0.950   3.694   8.956 -0.3064 -0.6014  1.2944
 5435SOL    HW227768   1.072   3.623   8.986 -1.3246 -0.8448 -0.6749
 5436SOL     OW27769   2.331   0.043  10.880 -0.0877 -0.1614 -0.1142
 5436SOL    HW127770   2.326   0.107  10.951 -1.7738  0.0973 -0.4509
 5436SOL    HW227771   2.259   0.064  10.820 -0.3039  0.3605  0.3216
 5437SOL     OW27772   3.625   2.760   5.578  0.0876 -0.2207  0.4925
 5437SOL    HW127773   3.663   2.830   5.631  0.4671  0.1892 -0.3267
 5437SOL    HW227774   3.648   2.685   5.633 -0.8758  0.3859  1.7189
 5438SOL     OW27775   1.649   1.455   6.090  0.3211 -0.9441 -0.0146
 5438SOL    HW127776   1.554   1.446   6.092  0.2681 -0.7503 -1.6067
 5438SOL    HW227777   1.656   1.549   6.102  0.9617 -1.0803  0.6990
 5439SOL     OW27778   1.611   3.839  16.468  0.3676 -0.5905  0.3507
 5439SOL    HW127779   1.545   3.896  16.428 -1.6406 -2.8448  0.3998
 5439SOL    HW227780   1.681   3.899  16.493  1.6998 -0.8644 -2.6811
 5440SOL     OW27781   1.600   4.205   5.015 -0.4145  0.1407 -0.1387
 5440SOL    HW127782   1.695   4.215   5.016 -0.1727 -2.0777 -0.1564
 5440SOL    HW227783   1.585   4.110   5.017 -0.6848  0.2052  0.7475
 5441SOL     OW27784   3.983   2.363  15.691 -0.1070  0.2286  0.3734
 5441SOL    HW127785   3.960   2.271  15.676 -1.0766  0.7424 -1.2959
 5441SOL    HW227786   4.043   2.376  15.618  1.9292  2.0634  2.3907
 5442SOL     OW27787   2.186   1.926   5.459 -0.4674 -0.7175  0.3666
 5442SOL    HW127788   2.239   1.908   5.536  0.8136  1.3833 -0.0313
 5442SOL    HW227789   2.250   1.912   5.389 -2.6338 -1.2688 -1.5050
 5443SOL     OW27790   3.053   2.870  15.066  0.8094  0.0786  0.2493
 5443SOL    HW127791   3.131   2.920  15.093 -0.5436  1.8226  0.9003
 5443SOL    HW227792   3.063   2.886  14.972 -1.3265  0.2198  0.0645
 5444SOL     OW27793   0.197   2.779   4.442 -0.0153 -0.4082 -0.0714
 5444SOL    HW127794   0.290   2.802   4.443  0.0401 -0.6886  1.1873
 5444SOL    HW227795   0.175   2.738   4.358  0.9361 -0.0770 -0.4933
 5445SOL     OW27796   3.634   4.256   2.026 -0.0371 -0.0912 -0.2135
 5445SOL    HW127797   3.680   4.174   2.010 -0.1490 -0.2233  0.1272
 5445SOL    HW227798   3.702   4.315   1.994 -2.0242  0.5871 -3.2294
 5446SOL     OW27799   3.428   4.028  15.390  0.0806  0.1181 -0.0516
 5446SOL    HW127800   3.482   4.080  15.449 -2.4724  1.2203  1.3375
 5446SOL    HW227801   3.341   4.064  15.404 -0.6932 -1.4486 -0.7412
 5447SOL     OW27802   0.392   3.250   7.969 -0.1661 -0.2830  0.2719
 5447SOL    HW127803   0.425   3.282   7.885 -1.3386 -0.1861 -0.1452
 5447SOL    HW227804   0.429   3.320   8.023 -0.9627 -1.0904  1.8659
 5448SOL     OW27805   3.156   0.004   6.226 -0.5661  0.3050  0.7188
 5448SOL    HW127806   3.154   4.698   6.135  1.4504  0.4897  0.6151
 5448SOL    HW227807   3.063   0.023   6.243 -1.0180 -0.4767 -0.9323
 5449SOL     OW27808   0.955   4.446   7.019  0.4753  0.3188 -0.4218
 5449SOL    HW127809   1.022   4.426   6.954  2.1025  0.9164  1.0490
 5449SOL    HW227810   0.944   4.541   7.010  0.0405  0.2992 -0.0764
 5450SOL     OW27811   2.751   3.796   3.100  0.7534 -0.2644 -0.7967
 5450SOL    HW127812   2.697   3.784   3.022  2.0747 -0.1488 -1.7361
 5450SOL    HW227813   2.702   3.870   3.136  1.0856 -0.8249  0.7672
 5451SOL     OW27814   2.962   1.277   3.817 -0.5480  0.0458 -0.1319
 5451SOL    HW127815   2.926   1.365   3.827 -1.8581 -0.6460  1.2116
 5451SOL    HW227816   2.935   1.249   3.729 -1.8477  1.0623 -0.0506
 5452SOL     OW27817   3.335   4.657   8.794  0.0409 -0.3586  0.5710
 5452SOL    HW127818   3.303   0.008   8.844 -0.5236 -0.1539 -0.0886
 5452SOL    HW227819   3.278   4.591   8.833 -0.7776  0.9825  1.6227
 5453SOL     OW27820   3.657   2.182   0.457 -0.0718  0.1016  0.0410
 5453SOL    HW127821   3.568   2.191   0.490 -0.0228 -0.1495  0.2338
 5453SOL    HW227822   3.699   2.261   0.491 -0.8526  1.3439 -1.8565
 5454SOL     OW27823   1.277   1.706   3.507  0.0806 -0.0964  0.0933
 5454SOL    HW127824   1.354   1.763   3.495  0.4163 -0.4251  0.6844
 5454SOL    HW227825   1.262   1.738   3.596 -3.1033 -4.3429  1.0379
 5455SOL     OW27826   3.716   3.229  15.913 -0.0368 -0.2548  0.4990
 5455SOL    HW127827   3.680   3.287  15.845 -0.7712  2.0698  2.8709
 5455SOL    HW227828   3.645   3.217  15.975  1.7260 -1.3887  2.2840
 5456SOL     OW27829   4.119   2.463   2.345  0.6044 -0.2153  0.2268
 5456SOL    HW127830   4.054   2.393   2.342  1.5059 -1.0516  0.2245
 5456SOL    HW227831   4.062   2.530   2.306  1.0493  0.6843  1.1211
 5457SOL     OW27832   0.246   2.646   8.661  0.4614 -0.0858  0.9209
 5457SOL    HW127833   0.294   2.592   8.725 -2.2775 -1.9529  1.4231
 5457SOL    HW227834   0.226   2.719   8.720 -1.0691  0.6149 -0.4719
 5458SOL     OW27835   4.069   0.626  14.456 -0.3852 -0.3265 -0.6403
 5458SOL    HW127836   4.075   0.686  14.382 -0.7109  1.1075  0.5024
 5458SOL    HW227837   4.160   0.632  14.487 -1.2232  1.1545  1.5602
 5459SOL     OW27838   2.524   3.694  10.281  0.1329 -1.0748  0.0518
 5459SOL    HW127839   2.588   3.664  10.217  2.0496 -0.0954  1.5233
 5459SOL    HW227840   2.579   3.751  10.334  0.6457 -1.5262  0.0016
 5460SOL     OW27841   2.736   2.646  12.806 -0.1781  0.0459  0.2121
 5460SOL    HW127842   2.794   2.578  12.771 -0.8966 -1.6947  2.3580
 5460SOL    HW227843   2.781   2.726  12.781 -1.0294 -0.1928 -2.0819
 5461SOL     OW27844   0.411   3.026   7.231  0.3416 -0.7533 -0.4107
 5461SOL    HW127845   0.483   3.068   7.184  0.9261 -0.2746  0.8999
 5461SOL    HW227846   0.367   2.968   7.170  0.2529 -2.6402  1.4515
 5462SOL     OW27847   2.325   4.249   8.431  0.3520 -0.1624 -0.0322
 5462SOL    HW127848   2.313   4.337   8.466  1.4206 -0.8301  2.0396
 5462SOL    HW227849   2.417   4.267   8.414  0.5973  1.4355  2.9222
 5463SOL     OW27850   3.226   1.387   4.377  0.4243  0.0305  0.2550
 5463SOL    HW127851   3.263   1.314   4.327  0.7193  1.9235 -2.2519
 5463SOL    HW227852   3.297   1.449   4.365 -1.4983  2.3027  0.6766
 5464SOL     OW27853   2.370   2.586   7.417 -0.7781 -0.1298 -0.2154
 5464SOL    HW127854   2.315   2.627   7.484 -2.0275 -0.7083 -0.8902
 5464SOL    HW227855   2.353   2.492   7.429  0.9110 -0.5420 -0.8990
 5465SOL     OW27856   4.654   1.340   5.106 -0.1208 -0.0250 -0.4195
 5465SOL    HW127857   0.014   1.321   5.149  0.1627  3.0803  0.4000
 5465SOL    HW227858   4.682   1.400   5.036 -2.8825 -0.5422 -1.9795
 5466SOL     OW27859   1.301   4.422   0.037  0.1741  0.0837  0.4015
 5466SOL    HW127860   1.277   4.330   0.042  0.5574 -0.0447 -0.1259
 5466SOL    HW227861   1.236   4.465   0.093 -0.9772 -0.4002 -0.5600
 5467SOL     OW27862   3.209   4.067   2.967  0.0483 -0.2355 -0.1096
 5467SOL    HW127863   3.214   4.042   2.875  0.6488  1.0459 -0.4378
 5467SOL    HW227864   3.285   4.025   3.009 -0.5378  1.7249  2.9501
 5468SOL     OW27865   2.124   1.938  10.915  0.2802 -0.2355 -0.2120
 5468SOL    HW127866   2.183   1.940  10.990 -1.1358  1.0753  0.8808
 5468SOL    HW227867   2.068   1.863  10.935 -0.3241 -0.6190 -3.3277
 5469SOL     OW27868   4.074   4.211   2.446  0.2713 -0.9755 -0.2025
 5469SOL    HW127869   3.985   4.178   2.437 -0.7190  1.7126 -0.3860
 5469SOL    HW227870   4.045   4.298   2.475  4.9635  0.4146  0.3542
 5470SOL     OW27871   2.183   3.582   2.038 -0.6873  0.8233  0.2514
 5470SOL    HW127872   2.191   3.667   2.080  1.6688  1.3200 -1.1749
 5470SOL    HW227873   2.193   3.526   2.115 -0.9689  0.2086 -0.1540
 5471SOL     OW27874   0.855   4.641   0.652 -0.8111 -0.4611 -0.1833
 5471SOL    HW127875   0.792   4.712   0.659 -2.0085 -1.7938  2.5670
 5471SOL    HW227876   0.804   4.561   0.666 -0.8292 -0.2123  1.1100
 5472SOL     OW27877   1.596   1.012   1.916  0.3282  0.1287 -0.1611
 5472SOL    HW127878   1.535   1.070   1.962  1.6412  0.6523  0.9076
 5472SOL    HW227879   1.534   0.946   1.887 -0.1433 -0.3983  2.0746
 5473SOL     OW27880   1.223   0.798   7.503 -0.2262  0.1387 -0.0895
 5473SOL    HW127881   1.314   0.799   7.472  0.4052  1.2783  1.8090
 5473SOL    HW227882   1.183   0.733   7.445 -0.8334 -0.7111  1.2888
 5474SOL     OW27883   1.859   2.267   8.581  0.4476  0.5829  0.5070
 5474SOL    HW127884   1.810   2.293   8.659  2.5956 -0.0483  2.0737
 5474SOL    HW227885   1.942   2.247   8.623  1.3407  0.9350 -1.0944
 5475SOL     OW27886   1.781   1.780   4.552 -0.4418  0.1780  0.1546
 5475SOL    HW127887   1.686   1.777   4.558 -0.2422 -2.4081  2.3123
 5475SOL    HW227888   1.794   1.861   4.504 -0.2484 -0.2791 -0.5721
 5476SOL     OW27889   3.221   1.584   4.602  0.0451  0.0766  0.3018
 5476SOL    HW127890   3.191   1.585   4.511  0.7275  1.1179  0.0821
 5476SOL    HW227891   3.208   1.492   4.624  2.5255 -0.0670  1.1930
 5477SOL     OW27892   2.846   3.320   5.902  0.1254  0.3770  0.3750
 5477SOL    HW127893   2.874   3.268   5.827  0.6321  0.9713  0.1499
 5477SOL    HW227894   2.754   3.341   5.892  0.0644 -1.0106 -1.8503
 5478SOL     OW27895   3.306   1.385  13.008 -0.1402 -0.1504  0.4604
 5478SOL    HW127896   3.313   1.479  12.994 -0.1402 -0.1558  0.4241
 5478SOL    HW227897   3.362   1.362  13.083  1.8751  1.0010 -0.6858
 5479SOL     OW27898   1.379   1.618  15.473 -0.4733  1.0028  0.5062
 5479SOL    HW127899   1.385   1.640  15.566 -1.2845  1.6037  0.4193
 5479SOL    HW227900   1.411   1.693  15.422  1.1931 -0.7960 -1.1022
 5480SOL     OW27901   2.161   0.978   7.076 -0.0120 -0.6834  0.5355
 5480SOL    HW127902   2.200   1.018   6.998  3.3168 -0.5664  2.2374
 5480SOL    HW227903   2.111   1.048   7.117  1.1841  0.7757 -0.5127
 5481SOL     OW27904   1.547   4.598  11.895 -0.3321 -0.2066 -0.2368
 5481SOL    HW127905   1.518   4.517  11.854  1.7546 -0.1628 -1.8270
 5481SOL    HW227906   1.542   4.660  11.822  2.2755  2.2838  1.6763
 5482SOL     OW27907   4.248   2.011   6.469 -0.0316  0.0677  0.2346
 5482SOL    HW127908   4.189   2.079   6.437 -1.3148 -1.2562 -0.2182
 5482SOL    HW227909   4.204   1.940   6.422  0.4361  0.6953 -1.1455
 5483SOL     OW27910   3.956   3.292   7.745  0.1572 -0.1682 -0.4864
 5483SOL    HW127911   3.922   3.376   7.717  0.7470  0.7790  1.6170
 5483SOL    HW227912   3.945   3.247   7.661 -1.0750 -0.9475  0.0929
 5484SOL     OW27913   4.377   1.393   2.334 -0.8281 -0.0837 -0.2170
 5484SOL    HW127914   4.361   1.487   2.339  0.3696  0.0518  1.3862
 5484SOL    HW227915   4.303   1.349   2.376  0.1856 -0.8252  0.8085
 5485SOL     OW27916   3.105   0.038  11.169  0.0686 -0.5849  0.7860
 5485SOL    HW127917   3.192   0.063  11.138 -0.8176  0.4962 -0.8431
 5485SOL    HW227918   3.103   4.670  11.145 -5.0451 -0.5194  0.9254
 5486SOL     OW27919   3.102   4.502  11.106 -0.9474 -0.1680 -0.6301
 5486SOL    HW127920   3.120   4.429  11.047 -0.9345 -1.3814  0.8796
 5486SOL    HW227921   3.169   4.478  11.171 -0.0673 -1.1685 -1.9109
 5487SOL     OW27922   0.548   4.202   6.284  0.3164 -0.1187  0.5008
 5487SOL    HW127923   0.521   4.258   6.211  3.1808 -1.8559 -1.9127
 5487SOL    HW227924   0.642   4.197   6.265  0.2052 -0.2230 -0.0129
 5488SOL     OW27925   1.061   3.176   8.309 -0.5308 -0.1408  0.5031
 5488SOL    HW127926   0.984   3.218   8.348 -1.1218 -1.2591  0.5313
 5488SOL    HW227927   1.096   3.262   8.285 -0.2249 -0.6873 -1.0329
 5489SOL     OW27928   4.416   2.407   7.127  0.3423  0.1098  0.1596
 5489SOL    HW127929   4.430   2.469   7.198 -0.0249 -1.8708  1.9717
 5489SOL    HW227930   4.505   2.386   7.097  0.2833 -0.7965  0.6155
 5490SOL     OW27931   4.562   1.408  12.068  0.0278  0.3939 -0.0296
 5490SOL    HW127932   4.619   1.432  12.141  2.7338  1.5276 -2.5378
 5490SOL    HW227933   4.609   1.327  12.047 -0.0696 -0.1024  1.6072
 5491SOL     OW27934   4.306   4.585  12.493  0.0783  0.3834 -0.3508
 5491SOL    HW127935   4.371   4.640  12.536 -0.3906  0.1921  0.6265
 5491SOL    HW227936   4.338   4.499  12.520 -2.2771 -0.1849  0.6724
 5492SOL     OW27937   2.260   0.385   3.402  0.2775  0.2998 -0.1061
 5492SOL    HW127938   2.185   0.347   3.356  1.8054 -2.0537 -0.6588
 5492SOL    HW227939   2.281   0.310   3.457 -1.2143  0.9024  1.2941
 5493SOL     OW27940   1.801   2.641   5.073  0.1494 -0.2912 -0.3437
 5493SOL    HW127941   1.838   2.671   5.157 -1.0001  0.4652 -0.1060
 5493SOL    HW227942   1.710   2.622   5.096 -0.0738  2.6056  1.1999
 5494SOL     OW27943   1.514   1.757  13.058 -0.1876 -0.6443 -0.4257
 5494SOL    HW127944   1.437   1.727  13.105  0.5779  0.0692  1.2938
 5494SOL    HW227945   1.560   1.674  13.051  0.8798 -0.2003  1.2557
 5495SOL     OW27946   3.061   3.258   5.273 -0.1110 -0.2074 -0.8849
 5495SOL    HW127947   3.113   3.215   5.340 -0.1940  2.6516  1.0164
 5495SOL    HW227948   3.123   3.324   5.243 -1.5036  2.9780  3.2923
 5496SOL     OW27949   2.668   0.651   1.940 -0.2673  0.1808  0.0549
 5496SOL    HW127950   2.637   0.580   1.883  0.5888 -0.0188 -0.1641
 5496SOL    HW227951   2.707   0.713   1.878  1.8073 -1.5455 -0.3667
 5497SOL     OW27952   1.717   0.454   6.541  0.6361  0.5122 -0.0744
 5497SOL    HW127953   1.707   0.548   6.555  2.9594  0.9738 -1.5875
 5497SOL    HW227954   1.805   0.443   6.577 -1.2259 -1.3743  3.9091
 5498SOL     OW27955   2.044   3.844   4.612  0.2749 -0.1364  0.0068
 5498SOL    HW127956   2.011   3.761   4.647  0.5683 -0.4424 -0.4457
 5498SOL    HW227957   1.984   3.912   4.642  0.8585  0.2844  0.2398
 5499SOL     OW27958   1.902   4.695  13.073 -0.0157  0.6385  0.1848
 5499SOL    HW127959   1.954   4.710  12.994  2.1114  2.0903  1.8857
 5499SOL    HW227960   1.866   0.056  13.098  1.5466  1.4480 -0.3165
 5500SOL     OW27961   0.268   3.495  13.144 -0.8568  0.8337  0.2428
 5500SOL    HW127962   0.178   3.470  13.163  0.5239 -3.0201  1.7859
 5500SOL    HW227963   0.306   3.486  13.232  2.3016 -1.0618 -1.2908
 5501SOL     OW27964   1.668   1.698  17.372 -0.1979 -0.0613 -0.2325
 5501SOL    HW127965   1.716   1.633  17.423 -0.7430  1.5726  2.3407
 5501SOL    HW227966   1.661   1.761  17.444 -0.2763 -0.0825 -0.2215
 5502SOL     OW27967   3.266   1.053  10.734 -0.0610 -0.3575  0.8659
 5502SOL    HW127968   3.290   1.127  10.791  1.1213 -0.4019  0.4162
 5502SOL    HW227969   3.330   0.991  10.768  0.0019 -0.8946 -0.2489
 5503SOL     OW27970   2.247   1.409   5.026  0.2760 -0.0734 -0.1946
 5503SOL    HW127971   2.202   1.396   4.942 -1.0477  0.9076  0.3640
 5503SOL    HW227972   2.338   1.387   5.005  1.2402  0.9421  2.8416
 5504SOL     OW27973   2.471   3.532   4.449  0.0833  0.3390  0.2084
 5504SOL    HW127974   2.416   3.611   4.445  0.5191  0.6335  0.1119
 5504SOL    HW227975   2.521   3.537   4.368 -2.2885  0.0401 -1.2784
 5505SOL     OW27976   3.367   4.531   2.449 -0.6761  0.3122 -0.0066
 5505SOL    HW127977   3.351   4.452   2.396 -2.1303  0.4614  0.2092
 5505SOL    HW227978   3.294   4.539   2.510 -0.8446 -1.0911 -0.0157
 5506SOL     OW27979   3.174   3.967   0.843  0.6007 -0.5964 -0.4700
 5506SOL    HW127980   3.084   3.945   0.820  0.1057 -0.7715  1.6496
 5506SOL    HW227981   3.175   4.061   0.822  2.4802  0.3044  3.6042
 5507SOL     OW27982   3.766   0.049   4.428 -0.0359  0.2938 -0.1107
 5507SOL    HW127983   3.686   0.100   4.422  1.0353  2.0255  0.2521
 5507SOL    HW227984   3.821   0.104   4.371  0.2839 -1.1077 -1.1674
 5508SOL     OW27985   3.279   3.281  16.426 -0.1608 -0.3789 -0.1723
 5508SOL    HW127986   3.351   3.218  16.427 -0.7451 -0.9951  1.3524
 5508SOL    HW227987   3.209   3.236  16.380 -2.2172  2.0618  0.5429
 5509SOL     OW27988   2.361   1.383  16.426  0.3364 -0.2226 -0.6097
 5509SOL    HW127989   2.290   1.441  16.400  1.1914  1.2376  0.3118
 5509SOL    HW227990   2.364   1.405  16.519 -1.9047  0.8858 -0.8208
 5510SOL     OW27991   0.313   3.377   5.942 -0.6072 -0.9962  0.0861
 5510SOL    HW127992   0.267   3.431   5.878  0.9064 -1.0830 -1.0727
 5510SOL    HW227993   0.310   3.445   6.010 -0.0775  0.1441 -1.0390
 5511SOL     OW27994   4.280   4.333   7.608  0.1300 -0.3980  0.1228
 5511SOL    HW127995   4.249   4.268   7.670 -0.1401  1.9105  2.4118
 5511SOL    HW227996   4.267   4.297   7.520  1.9482 -0.5787 -0.0805
 5512SOL     OW27997   0.591   3.588   7.538  0.5245  0.1442 -0.5210
 5512SOL    HW127998   0.649   3.658   7.567  3.3766 -1.0238 -3.3980
 5512SOL    HW227999   0.568   3.556   7.625  1.2190 -1.6847 -1.0125
 5513SOL     OW28000   0.027   1.131   1.261  0.0662  0.1466  0.0398
 5513SOL    HW128001   0.103   1.171   1.217  0.6271 -0.7865  0.1616
 5513SOL    HW228002   0.054   1.145   1.352  1.2408 -2.0794  0.0249
 5514SOL     OW28003   2.222   1.086  10.211  1.4118  0.0425 -0.3578
 5514SOL    HW128004   2.223   1.095  10.306  2.1719 -0.9797 -0.2711
 5514SOL    HW228005   2.253   0.997  10.195  1.1859  0.5258 -3.5979
 5515SOL     OW28006   0.781   2.991   2.672 -0.1348  0.1917  0.0500
 5515SOL    HW128007   0.708   3.032   2.625  0.7572 -0.0122 -1.5098
 5515SOL    HW228008   0.804   3.066   2.726  1.0438 -1.8752  2.4100
 5516SOL     OW28009   4.012   1.672   9.579 -0.3238 -0.2542  0.5699
 5516SOL    HW128010   3.959   1.734   9.630  0.0007 -0.6428  1.3798
 5516SOL    HW228011   4.083   1.656   9.640  0.3300  1.0056  0.1396
 5517SOL     OW28012   1.076   1.775  11.231  0.4112  0.0055 -0.0682
 5517SOL    HW128013   1.142   1.778  11.301  0.1041  1.4682  0.1446
 5517SOL    HW228014   1.004   1.739  11.283  1.1047 -2.3068 -0.7161
 5518SOL     OW28015   2.355   4.411  13.963  0.0356  0.0035  0.1372
 5518SOL    HW128016   2.318   4.499  13.976  0.3380  0.5198 -2.5839
 5518SOL    HW228017   2.290   4.365  13.910  0.0897  0.2701 -0.1589
 5519SOL     OW28018   2.771   3.630   7.760 -0.6550 -0.1069 -0.0629
 5519SOL    HW128019   2.796   3.540   7.740  1.1409  0.4774 -0.4273
 5519SOL    HW228020   2.688   3.613   7.805 -0.6321 -1.9605 -0.7574
 5520SOL     OW28021   0.175   1.868  14.446  0.0746 -0.4772 -0.8086
 5520SOL    HW128022   0.114   1.869  14.519  2.3826 -1.0863  1.1498
 5520SOL    HW228023   0.258   1.898  14.484 -0.6515  2.0666 -1.2157
 5521SOL     OW28024   1.686   3.523   4.155  0.0833 -0.6078 -0.2294
 5521SOL    HW128025   1.631   3.571   4.093  0.6905  1.4023  0.7827
 5521SOL    HW228026   1.769   3.562   4.129  0.6127 -0.2714  1.9837
 5522SOL     OW28027   3.043   1.046   5.599  0.0509 -1.1109  0.0641
 5522SOL    HW128028   3.087   1.131   5.604  0.4892 -1.3598  0.4186
 5522SOL    HW228029   3.121   0.990   5.603  2.2508  2.0793  1.9667
 5523SOL     OW28030   4.519   0.790  12.432  0.0880  0.1355 -0.1208
 5523SOL    HW128031   4.520   0.720  12.496  0.4322 -1.1119 -1.4848
 5523SOL    HW228032   4.599   0.840  12.451  0.1300  0.3273 -0.7971
 5524SOL     OW28033   2.196   3.772   8.202 -0.1648 -0.3181  0.4381
 5524SOL    HW128034   2.223   3.859   8.231  2.6302 -1.9945  2.8543
 5524SOL    HW228035   2.115   3.791   8.153  1.6900  2.5347 -1.5259
 5525SOL     OW28036   1.290   0.899   8.234  0.0005  0.2141 -0.2727
 5525SOL    HW128037   1.275   0.982   8.188  0.5061  0.7460  0.5274
 5525SOL    HW228038   1.230   0.841   8.187 -0.3842  1.8338 -1.7867
 5526SOL     OW28039   0.718   2.508   5.612  0.2693  0.0195  0.1210
 5526SOL    HW128040   0.773   2.488   5.536 -1.5025 -0.6233 -1.0043
 5526SOL    HW228041   0.667   2.581   5.578 -1.1532 -1.6553 -1.3638
 5527SOL     OW28042   1.150   1.101   0.760  0.5906 -0.5806 -0.2762
 5527SOL    HW128043   1.195   1.033   0.709 -0.3256 -1.0098 -0.5027
 5527SOL    HW228044   1.129   1.168   0.695 -1.4904  1.3576  2.4441
 5528SOL     OW28045   0.214   2.548   7.323  0.2144  0.3404 -0.1064
 5528SOL    HW128046   0.202   2.572   7.231 -1.2933 -0.6458 -0.1592
 5528SOL    HW228047   0.199   2.454   7.316 -1.7705  0.8183 -2.2923
 5529SOL     OW28048   4.251   0.531   3.832 -0.0574 -0.1608  0.0723
 5529SOL    HW128049   4.295   0.447   3.818  3.5403  1.7954 -0.4320
 5529SOL    HW228050   4.329   0.586   3.839  0.4996 -0.8180 -0.9911
 5530SOL     OW28051   4.653   0.424   5.619 -0.6477  0.2700 -0.0419
 5530SOL    HW128052   4.655   0.492   5.552 -1.6906  1.1129  0.7892
 5530SOL    HW228053   0.020   0.395   5.613 -0.3070  1.1717  0.7913
 5531SOL     OW28054   4.631   3.881  14.474 -0.0375  0.0122  0.3461
 5531SOL    HW128055   4.658   3.972  14.458  2.0048 -0.5661  0.4947
 5531SOL    HW228056   4.580   3.865  14.395  0.8465 -1.4908  0.0809
 5532SOL     OW28057   3.047   1.420   0.970  0.3276 -0.2007  0.0232
 5532SOL    HW128058   3.120   1.413   0.909 -1.7947  0.4477 -2.5582
 5532SOL    HW228059   3.094   1.431   1.053  0.4025 -1.2116  0.1148
 5533SOL     OW28060   4.326   2.872  11.173 -0.1073  0.2513  0.5731
 5533SOL    HW128061   4.283   2.956  11.185 -0.6339  0.4452 -2.6688
 5533SOL    HW228062   4.359   2.852  11.260 -0.1227  1.2924  0.8144
 5534SOL     OW28063   1.696   1.754   6.041  0.9226 -0.0287 -0.4625
 5534SOL    HW128064   1.671   1.844   6.019  0.0337 -0.4995 -1.3677
 5534SOL    HW228065   1.642   1.702   5.982 -0.0793  0.7851 -0.2443
 5535SOL     OW28066   2.009   4.198   8.812 -0.0078  0.3085  0.3867
 5535SOL    HW128067   2.101   4.185   8.791  0.0240  0.2106  0.5872
 5535SOL    HW228068   1.999   4.156   8.897  1.9585 -0.9345 -0.0238
 5536SOL     OW28069   1.652   3.816  11.727 -0.3162  0.0394  0.1279
 5536SOL    HW128070   1.717   3.758  11.687  0.7351  0.5426  1.1330
 5536SOL    HW228071   1.709   3.890  11.747  0.7766 -0.8203  0.1869
 5537SOL     OW28072   0.643   1.786   7.717  0.4214 -0.3638 -0.3448
 5537SOL    HW128073   0.606   1.874   7.728  0.1065 -0.8835  2.7988
 5537SOL    HW228074   0.685   1.766   7.801 -2.7410  0.1911  1.4132
 5538SOL     OW28075   3.257   4.237   1.660 -0.4366  0.3580 -0.4049
 5538SOL    HW128076   3.274   4.292   1.736 -0.2719  0.7129 -0.7001
 5538SOL    HW228077   3.247   4.306   1.594  0.5299  0.1883 -0.7288
 5539SOL     OW28078   1.249   1.479   4.533 -0.0121 -0.3864  0.7262
 5539SOL    HW128079   1.228   1.559   4.485  0.0903 -1.1533 -0.5723
 5539SOL    HW228080   1.269   1.412   4.467  1.4264 -1.3755  2.1530
 5540SOL     OW28081   3.469   4.082   6.777  0.6834  0.5369  0.0761
 5540SOL    HW128082   3.377   4.073   6.753  0.4335 -2.0905  2.0709
 5540SOL    HW228083   3.492   4.150   6.713 -1.0281  0.1019 -0.9879
 5541SOL     OW28084   2.433   3.955   7.573 -0.5657 -0.0026 -0.0797
 5541SOL    HW128085   2.345   3.988   7.592 -0.2031  1.0017 -0.1325
 5541SOL    HW228086   2.444   3.954   7.478  1.0171  1.7002  0.0936
 5542SOL     OW28087   0.540   4.283   7.827  0.0526 -0.4526 -0.0407
 5542SOL    HW128088   0.631   4.262   7.807 -0.0591 -0.7218 -0.2667
 5542SOL    HW228089   0.542   4.375   7.800  1.6762 -0.1953  0.9683
 5543SOL     OW28090   2.443   4.514   9.688 -0.1291 -0.1069 -0.2299
 5543SOL    HW128091   2.515   4.573   9.665 -0.5680 -0.5896 -2.8739
 5543SOL    HW228092   2.471   4.496   9.778 -1.6419 -0.6346  0.1259
 5544SOL     OW28093   0.161   1.521  15.996  0.7355  0.1308  0.7130
 5544SOL    HW128094   0.205   1.577  16.060 -0.0585  0.4878  0.9387
 5544SOL    HW228095   0.076   1.517  16.040  0.6269 -1.4861  0.3296
 5545SOL     OW28096   2.045   2.232  14.974 -0.4433 -0.1452 -0.1360
 5545SOL    HW128097   2.090   2.299  15.026 -1.7218 -0.5019  1.4566
 5545SOL    HW228098   2.077   2.258  14.888 -0.6083  2.3859  0.5662
 5546SOL     OW28099   0.611   1.770   1.258 -0.2490  0.0249  0.0884
 5546SOL    HW128100   0.621   1.855   1.214 -0.7185 -0.4302 -0.9016
 5546SOL    HW228101   0.527   1.782   1.302 -1.2567  2.6667 -2.5439
 5547SOL     OW28102   3.997   3.326  11.880 -0.7635 -0.5228 -0.2012
 5547SOL    HW128103   3.971   3.251  11.934 -0.5372  0.1792  0.8668
 5547SOL    HW228104   3.970   3.396  11.939  0.5141  0.0758 -0.3218
 5548SOL     OW28105   2.137   1.457   8.456  0.1420  0.5363 -0.1408
 5548SOL    HW128106   2.104   1.445   8.545 -0.3136  1.1183 -0.2274
 5548SOL    HW228107   2.147   1.552   8.446 -0.6395  0.5728 -0.5376
 5549SOL     OW28108   2.101   0.310   8.191 -0.2163 -0.7144 -0.2273
 5549SOL    HW128109   2.118   0.237   8.132 -0.0939 -0.4606 -0.5038
 5549SOL    HW228110   2.179   0.307   8.247 -0.8704  0.1377  0.7461
 5550SOL     OW28111   0.623   1.220   7.343  0.0877 -0.2262  0.0333
 5550SOL    HW128112   0.569   1.292   7.375  0.6897  0.2433 -0.0209
 5550SOL    HW228113   0.672   1.192   7.420 -1.3618  0.2763  1.1503
 5551SOL     OW28114   1.797   1.624   6.407  0.6507  0.3745 -0.4518
 5551SOL    HW128115   1.778   1.581   6.490  1.4359  2.8110  0.9852
 5551SOL    HW228116   1.805   1.548   6.349 -2.3964  1.4792 -2.3382
 5552SOL     OW28117   0.551   0.834   6.320 -0.2673  0.4916  0.0548
 5552SOL    HW128118   0.580   0.878   6.241  0.7338  2.0357  1.2753
 5552SOL    HW228119   0.487   0.769   6.291 -2.2608  1.3805  2.4071
 5553SOL     OW28120   2.765   0.289  13.087 -0.7117  0.8038  0.4640
 5553SOL    HW128121   2.702   0.325  13.149  0.4663 -0.9947  2.6931
 5553SOL    HW228122   2.707   0.290  13.010 -0.4051 -1.6077  0.2127
 5554SOL     OW28123   3.025   1.432   9.871 -0.5548 -0.1297 -0.5040
 5554SOL    HW128124   2.967   1.363   9.903 -1.6086  0.2494 -1.6369
 5554SOL    HW228125   3.110   1.390   9.887 -0.0231  1.2489  0.2550
 5555SOL     OW28126   3.580   3.377   7.514 -0.3610  0.1500  0.4191
 5555SOL    HW128127   3.565   3.289   7.481 -1.2004 -1.9476  6.3248
 5555SOL    HW228128   3.496   3.393   7.558 -0.1712 -1.4918  1.3636
 5556SOL     OW28129   0.922   1.089   7.487  0.6715  0.4318  0.2088
 5556SOL    HW128130   0.871   1.139   7.551  0.8595  0.2873  0.4706
 5556SOL    HW228131   0.852   1.026   7.468  0.9395  1.5127 -4.3022
 5557SOL     OW28132   3.089   0.226  14.318  0.0927  0.1036 -0.7617
 5557SOL    HW128133   3.082   0.316  14.351  4.0426 -0.0196  0.4076
 5557SOL    HW228134   3.058   0.182  14.397 -1.2365  1.6590 -0.4060
 5558SOL     OW28135   4.422   2.106  11.966 -0.1386 -0.6668  0.1767
 5558SOL    HW128136   4.347   2.046  11.971  0.0784 -0.8305  1.4168
 5558SOL    HW228137   4.477   2.074  12.037  0.1483 -0.3559  0.0941
 5559SOL     OW28138   3.805   0.123   3.884 -0.0144  0.0796  0.3267
 5559SOL    HW128139   3.874   0.059   3.867 -0.3195  0.0618 -0.8453
 5559SOL    HW228140   3.747   0.072   3.941 -2.2124  3.5741  1.2305
 5560SOL     OW28141   2.351   3.235   5.421  0.5576  0.3584 -0.0239
 5560SOL    HW128142   2.434   3.190   5.403  0.1779 -0.2273 -0.3143
 5560SOL    HW228143   2.284   3.168   5.406  0.5314  0.4695 -0.3915
 5561SOL     OW28144   2.448   0.426   8.141  0.4958  0.3695  0.4311
 5561SOL    HW128145   2.519   0.375   8.101 -0.7800  0.1719 -1.6101
 5561SOL    HW228146   2.422   0.387   8.224 -0.1688 -1.0662 -0.4492
 5562SOL     OW28147   0.132   3.852   2.996 -0.6021  0.4413  0.0595
 5562SOL    HW128148   0.052   3.895   2.965 -0.3879 -0.0314 -1.1425
 5562SOL    HW228149   0.165   3.811   2.916  0.4134  1.2420  0.0725
 5563SOL     OW28150   2.667   1.000   9.602  0.0305 -0.3116 -0.0902
 5563SOL    HW128151   2.714   0.993   9.519  0.5073  1.1060  0.0481
 5563SOL    HW228152   2.675   1.092   9.627 -0.2869 -0.4307  0.4383
 5564SOL     OW28153   2.186   2.670  17.431  0.4047  0.4513 -0.2428
 5564SOL    HW128154   2.171   2.740  17.495 -0.7674  0.2121 -0.2661
 5564SOL    HW228155   2.267   2.703  17.392  0.8841  1.3927  1.5358
 5565SOL     OW28156   2.897   1.602  10.053 -0.3571  0.0699 -0.2549
 5565SOL    HW128157   2.955   1.582  10.127 -1.1027 -1.5087 -0.0998
 5565SOL    HW228158   2.961   1.613   9.983 -0.6808  0.9059 -0.4146
 5566SOL     OW28159   0.729   2.699   9.073 -0.5520 -0.5038  0.0560
 5566SOL    HW128160   0.728   2.674   8.981 -1.1158  0.0768 -0.0915
 5566SOL    HW228161   0.706   2.613   9.108 -0.3790 -0.1074  1.1459
 5567SOL     OW28162   3.904   2.987   9.346 -0.2042 -0.0317  0.5715
 5567SOL    HW128163   3.948   2.999   9.262  0.2474  0.9634  0.9486
 5567SOL    HW228164   3.870   2.899   9.333 -1.0521  0.4264 -0.3800
 5568SOL     OW28165   0.390   1.672   8.400 -0.0745 -0.0785  0.2709
 5568SOL    HW128166   0.452   1.639   8.335 -0.8629  0.6155 -0.8495
 5568SOL    HW228167   0.447   1.663   8.476 -0.1192  1.7467  0.5370
 5569SOL     OW28168   2.299   2.380   7.846  0.2310 -0.1507 -0.9746
 5569SOL    HW128169   2.331   2.320   7.914  0.4673  0.9678 -0.0969
 5569SOL    HW228170   2.290   2.456   7.904 -1.8708 -2.3726  1.6245
 5570SOL     OW28171   2.470   2.658   8.371  0.3642 -0.1298  0.0576
 5570SOL    HW128172   2.544   2.700   8.414 -0.2466 -1.5128  2.4322
 5570SOL    HW228173   2.405   2.729   8.374 -0.7069 -1.0085 -2.1433
 5571SOL     OW28174   3.530   3.760   5.385 -0.0077 -0.2996 -0.2239
 5571SOL    HW128175   3.594   3.830   5.376  0.7614 -0.8959  0.5747
 5571SOL    HW228176   3.524   3.752   5.480  0.9741  0.2093 -0.1282
 5572SOL     OW28177   0.562   0.920  15.354  0.5869 -0.4265  0.1705
 5572SOL    HW128178   0.564   0.986  15.424  0.1297  0.2661 -0.4570
 5572SOL    HW228179   0.632   0.947  15.294  0.2641 -1.9072 -0.8592
 5573SOL     OW28180   3.097   0.196   7.384 -0.1986 -0.2726 -0.6242
 5573SOL    HW128181   3.024   0.136   7.378 -0.0449 -0.9880  4.5671
 5573SOL    HW228182   3.096   0.233   7.295  0.1763  1.5186  0.1027
 5574SOL     OW28183   1.829   1.971  12.763 -0.3245  0.5094 -0.4271
 5574SOL    HW128184   1.747   1.932  12.734 -0.6618  0.2056  0.9470
 5574SOL    HW228185   1.857   2.018  12.684 -0.8009 -1.2242 -1.6251
 5575SOL     OW28186   3.336   4.270   2.658 -0.4700  0.2225 -0.1018
 5575SOL    HW128187   3.279   4.302   2.728 -1.1021 -0.6701 -0.2015
 5575SOL    HW228188   3.285   4.197   2.621 -0.4751 -0.8004  1.9286
 5576SOL     OW28189   1.917   1.216   3.086 -0.5282  0.0701 -0.1461
 5576SOL    HW128190   1.983   1.177   3.029  0.7565  1.9215  0.0814
 5576SOL    HW228191   1.962   1.289   3.129 -0.2972  0.2017 -0.6158
 5577SOL     OW28192   1.502   4.244  17.329  0.0901  0.1975 -0.2819
 5577SOL    HW128193   1.530   4.257  17.238  1.6208  0.2811  0.1879
 5577SOL    HW228194   1.464   4.326  17.359 -0.6012  0.7041 -2.5678
 5578SOL     OW28195   1.429   1.296   7.893  0.3814  0.0265 -0.0524
 5578SOL    HW128196   1.405   1.206   7.872 -1.7505  0.3165  1.0748
 5578SOL    HW228197   1.489   1.322   7.823  2.0117 -0.1761  1.3047
 5579SOL     OW28198   2.262   0.767   2.458  0.8037 -0.5097 -0.2959
 5579SOL    HW128199   2.271   0.675   2.435 -0.2416 -0.2719 -1.6181
 5579SOL    HW228200   2.228   0.759   2.547 -3.3446 -1.6833 -1.9880
 5580SOL     OW28201   0.031   3.586  15.564 -0.1977  0.0051  0.2746
 5580SOL    HW128202   0.103   3.532  15.533 -1.2976 -0.7910 -0.8703
 5580SOL    HW228203   0.076   3.659  15.606 -1.6724  0.9686  0.1977
 5581SOL     OW28204   1.140   2.867   4.882 -0.5674 -0.8086 -0.2759
 5581SOL    HW128205   1.115   2.867   4.790  2.2678 -1.8291 -1.0389
 5581SOL    HW228206   1.090   2.942   4.912  0.3549 -0.4637  0.4191
 5582SOL     OW28207   1.658   2.165  16.830  1.0209 -0.2451 -0.3639
 5582SOL    HW128208   1.726   2.231  16.819  1.5545 -0.6153  0.7324
 5582SOL    HW228209   1.691   2.098  16.770 -0.2242 -1.8059  0.7111
 5583SOL     OW28210   1.203   2.178  12.662  0.2932  0.4249  0.2719
 5583SOL    HW128211   1.243   2.167  12.748 -0.3544  0.4925  0.5781
 5583SOL    HW228212   1.217   2.094  12.616 -0.3841  0.1557  0.5683
 5584SOL     OW28213   2.437   3.648   5.159 -0.0618 -0.0324 -0.2250
 5584SOL    HW128214   2.470   3.558   5.163 -1.3724 -0.4553  0.9335
 5584SOL    HW228215   2.408   3.652   5.068  0.0511 -0.4193 -0.2776
 5585SOL     OW28216   3.523   3.824  13.283  0.0681  0.8530  0.2221
 5585SOL    HW128217   3.588   3.754  13.291 -2.0181 -1.1042 -0.0415
 5585SOL    HW228218   3.496   3.802  13.194  1.2359  1.1780 -0.2162
 5586SOL     OW28219   1.981   2.407  14.603  0.0652  0.2239 -0.9258
 5586SOL    HW128220   1.985   2.410  14.699  0.3586  0.0378 -0.9304
 5586SOL    HW228221   2.067   2.430  14.567  0.8092  1.0338  1.3228
 5587SOL     OW28222   1.004   0.500   4.684 -0.4914  0.0395 -0.6121
 5587SOL    HW128223   0.935   0.552   4.644  1.5939  2.3394 -1.2493
 5587SOL    HW228224   1.082   0.551   4.661 -0.1034 -0.2896 -0.0375
 5588SOL     OW28225   0.016   1.581   5.260  0.0462  0.4993 -0.4873
 5588SOL    HW128226   4.667   1.643   5.263 -1.9077 -1.8309  1.7395
 5588SOL    HW228227   4.690   1.499   5.257 -1.1655  1.1895  0.5388
 5589SOL     OW28228   3.430   0.569   8.663  0.3129 -0.5780 -0.1610
 5589SOL    HW128229   3.440   0.664   8.653  0.4424 -0.5146  0.5972
 5589SOL    HW228230   3.346   0.558   8.618  0.8301 -0.8267 -1.0613
 5590SOL     OW28231   1.837   0.740   3.228  0.5518  0.2652  0.4454
 5590SOL    HW128232   1.877   0.690   3.157  0.5765 -0.3122  0.8654
 5590SOL    HW228233   1.816   0.823   3.186  2.5501 -0.1304 -1.3667
 5591SOL     OW28234   3.347   0.461  11.357 -0.2291 -0.0336 -0.6007
 5591SOL    HW128235   3.372   0.536  11.411 -0.2801 -1.1141  0.9113
 5591SOL    HW228236   3.272   0.494  11.307 -1.1238 -0.9539  0.1305
 5592SOL     OW28237   1.549   2.358   9.237 -0.1972 -0.1987 -0.2874
 5592SOL    HW128238   1.461   2.393   9.229  0.7488  1.9997 -1.1972
 5592SOL    HW228239   1.587   2.422   9.298  0.2644  0.6302 -1.4328
 5593SOL     OW28240   3.618   4.427   8.974 -0.6993  0.1615  0.1714
 5593SOL    HW128241   3.592   4.516   8.997  3.5715  1.4113  0.2423
 5593SOL    HW228242   3.647   4.449   8.885  0.1445 -1.4962  0.0400
 5594SOL     OW28243   2.862   2.420  12.682 -0.1017 -0.3186  0.2223
 5594SOL    HW128244   2.908   2.337  12.667  0.3603 -0.1262  0.5778
 5594SOL    HW228245   2.936   2.474  12.710  1.4833 -1.7347 -1.2662
 5595SOL     OW28246   2.274   2.596   8.010 -0.2239  0.3563 -0.1470
 5595SOL    HW128247   2.287   2.685   8.043  1.9378 -0.5269  1.3755
 5595SOL    HW228248   2.236   2.561   8.091  0.7618  0.9506  0.5700
 5596SOL     OW28249   1.661   2.409  16.393  0.2173  0.8162  0.5067
 5596SOL    HW128250   1.635   2.402  16.301 -1.0560  2.8232  0.7237
 5596SOL    HW228251   1.708   2.492  16.390  2.5327 -0.4978 -0.6308
 5597SOL     OW28252   0.785   1.115   5.181  0.5589 -0.4285  0.4320
 5597SOL    HW128253   0.861   1.123   5.123 -0.5118  0.7169 -0.8126
 5597SOL    HW228254   0.720   1.173   5.140  1.3666  0.0366 -0.1965
 5598SOL     OW28255   0.611   3.074  16.366 -0.0254  0.3551  0.7828
 5598SOL    HW128256   0.640   3.151  16.415 -1.0763  0.5681  1.0758
 5598SOL    HW228257   0.583   3.012  16.433  1.0581 -2.0345 -0.9613
 5599SOL     OW28258   2.013   2.960  12.649  0.3170 -0.9775 -0.3084
 5599SOL    HW128259   2.081   2.998  12.593 -1.9239  1.6259 -1.2219
 5599SOL    HW228260   2.039   2.868  12.644  1.9987 -0.3263 -3.3212
 5600SOL     OW28261   2.431   3.589  17.342 -0.1696 -0.8960 -0.4955
 5600SOL    HW128262   2.336   3.599  17.335 -0.0376  1.6599  1.6026
 5600SOL    HW228263   2.442   3.608  17.249  0.1900  0.8371 -0.0966
 5601SOL     OW28264   4.252   1.058   7.194 -0.4174  0.2529 -0.3304
 5601SOL    HW128265   4.274   0.989   7.256 -0.7852  0.2978 -0.1493
 5601SOL    HW228266   4.210   1.003   7.127  1.4531 -3.1569  1.2912
 5602SOL     OW28267   3.655   2.799   2.475  0.2569  0.9385  0.5665
 5602SOL    HW128268   3.624   2.882   2.438  0.3725  0.7409  0.0203
 5602SOL    HW228269   3.573   2.751   2.486  0.4111  0.5842  0.1998
 5603SOL     OW28270   0.054   2.270  13.042  0.1775  0.0763 -0.7906
 5603SOL    HW128271   4.688   2.292  13.067  0.7049  0.4688  0.7458
 5603SOL    HW228272   0.027   2.221  12.964 -0.6450 -0.1515 -0.3540
 5604SOL     OW28273   1.788   1.546  17.560  0.2024 -0.0359  0.4081
 5604SOL    HW128274   1.879   1.564  17.581  1.0689  1.4214 -4.4820
 5604SOL    HW228275   1.770   1.469  17.614  1.3375 -1.3739 -1.1274
 5605SOL     OW28276   3.970   2.326   8.503 -0.4159 -0.1217 -0.0032
 5605SOL    HW128277   4.058   2.359   8.521  0.8143 -1.9450 -2.7577
 5605SOL    HW228278   3.953   2.261   8.572 -1.9338 -0.8743 -1.0761
 5606SOL     OW28279   1.312   0.951   0.596  0.0691  0.2201  0.5185
 5606SOL    HW128280   1.337   1.020   0.534  1.1598 -0.1911  0.5013
 5606SOL    HW228281   1.393   0.937   0.646 -0.6569 -2.0781  1.0163
 5607SOL     OW28282   1.476   1.581  16.315 -0.8324  0.1021  0.0229
 5607SOL    HW128283   1.496   1.501  16.362 -2.2906 -1.1876 -1.5170
 5607SOL    HW228284   1.382   1.563  16.305 -0.2171 -2.7601 -0.5405
 5608SOL     OW28285   3.995   3.205   7.194  0.4460  0.1415 -0.1070
 5608SOL    HW128286   4.027   3.271   7.133 -0.9004 -1.6109 -2.7158
 5608SOL    HW228287   3.908   3.200   7.155  1.3736  0.7323 -2.2133
 5609SOL     OW28288   3.805   0.188   0.244 -0.0591  0.3792  0.2108
 5609SOL    HW128289   3.828   0.222   0.330  1.6862 -1.8870  0.6549
 5609SOL    HW228290   3.786   0.271   0.200 -0.5931  0.5787  0.8083
 5610SOL     OW28291   1.087   2.658   3.887 -0.4120  0.1040 -0.4694
 5610SOL    HW128292   1.085   2.729   3.951 -2.6748  1.2073 -1.7622
 5610SOL    HW228293   1.162   2.687   3.834  1.2345 -1.3878  1.0362
 5611SOL     OW28294   1.217   2.919   5.647  0.3775 -0.0625  0.6977
 5611SOL    HW128295   1.217   2.859   5.721 -1.8613 -0.7320  0.1590
 5611SOL    HW228296   1.309   2.925   5.624 -0.0869  0.9181 -0.9205
 5612SOL     OW28297   4.591   3.348   6.928 -0.1511  0.5665 -0.2526
 5612SOL    HW128298   4.670   3.337   6.875  0.3060  1.0411  0.3392
 5612SOL    HW228299   4.527   3.308   6.868 -0.6570  3.5397 -1.6987
 5613SOL     OW28300   0.135   2.281   1.951  0.1143  0.5040 -0.0191
 5613SOL    HW128301   0.228   2.269   1.932 -0.3972  0.0896 -2.2703
 5613SOL    HW228302   0.116   2.194   1.984 -1.2832  1.1273  0.7996
 5614SOL     OW28303   4.289   3.880   7.689  0.3881  0.3803  0.2051
 5614SOL    HW128304   4.379   3.873   7.659  0.6312  0.7957  0.8325
 5614SOL    HW228305   4.309   3.912   7.777  0.5158 -1.8551  0.9777
 5615SOL     OW28306   1.816   0.866  12.093 -0.4590  0.0141  0.2671
 5615SOL    HW128307   1.784   0.854  12.003 -0.8622 -1.0902  0.5600
 5615SOL    HW228308   1.727   0.858  12.129  0.0243  0.1804  1.4988
 5616SOL     OW28309   1.872   2.486   4.092 -0.3289  0.4466  0.6250
 5616SOL    HW128310   1.831   2.475   4.178  0.6918  0.2241  1.0831
 5616SOL    HW228311   1.829   2.568   4.069  0.4181  0.8076  0.5504
 5617SOL     OW28312   0.247   0.530   6.572  0.1388 -0.2689  0.0485
 5617SOL    HW128313   0.163   0.561   6.607  0.0328  0.5331 -0.9181
 5617SOL    HW228314   0.210   0.456   6.523 -0.0256 -1.1371  1.4783
 5618SOL     OW28315   4.112   0.428   0.377 -0.2569 -0.0871 -0.3986
 5618SOL    HW128316   4.036   0.374   0.397 -0.4766  0.5864  0.6224
 5618SOL    HW228317   4.149   0.454   0.462  0.4261 -1.0347 -0.4064
 5619SOL     OW28318   3.726   0.183   5.516  0.3275 -0.2974  0.3613
 5619SOL    HW128319   3.643   0.228   5.529  0.6311  0.3114  0.1788
 5619SOL    HW228320   3.748   0.159   5.606  0.9589 -0.5254  0.1468
 5620SOL     OW28321   2.857   3.907  16.748  0.4470  0.1266  0.4714
 5620SOL    HW128322   2.769   3.942  16.764  0.3431  0.5000 -0.9646
 5620SOL    HW228323   2.823   3.818  16.749 -0.5279  0.5011  1.7323
 5621SOL     OW28324   3.007   2.567   3.590  0.2069 -0.1302  0.6890
 5621SOL    HW128325   2.950   2.631   3.547 -1.3729  0.2979  3.3887
 5621SOL    HW228326   3.096   2.590   3.565 -0.1475  0.3283 -0.1453
 5622SOL     OW28327   1.615   4.433   9.740  0.3104  0.0491  0.1643
 5622SOL    HW128328   1.566   4.444   9.659 -0.0801 -2.1821  0.0825
 5622SOL    HW228329   1.542   4.438   9.802  0.8609  1.5326  0.6908
 5623SOL     OW28330   2.216   2.529   9.375 -0.0060  0.4041  0.1925
 5623SOL    HW128331   2.165   2.463   9.327 -0.9314 -0.8700  2.9410
 5623SOL    HW228332   2.144   2.582   9.408 -0.9725  1.8321 -4.1399
 5624SOL     OW28333   1.302   1.470   5.701 -0.4023  0.4561 -0.0365
 5624SOL    HW128334   1.224   1.430   5.662 -0.5905  0.5121  0.2785
 5624SOL    HW228335   1.374   1.424   5.659 -1.1952  0.1930 -1.1139
 5625SOL     OW28336   4.302   1.908   0.291  0.4148 -0.6532  0.3664
 5625SOL    HW128337   4.284   1.827   0.338 -1.3318 -0.3469  0.2230
 5625SOL    HW228338   4.396   1.924   0.301  0.4789 -0.6966 -0.2004
 5626SOL     OW28339   2.574   1.407   6.524  0.0627 -0.1160 -0.1005
 5626SOL    HW128340   2.596   1.470   6.593 -0.6674  1.1573 -1.0377
 5626SOL    HW228341   2.630   1.332   6.544  1.0112  0.4317 -0.6926
 5627SOL     OW28342   4.405   2.871   6.364  0.8671 -0.3396  0.3203
 5627SOL    HW128343   4.354   2.915   6.296  0.0271 -0.1290  1.1046
 5627SOL    HW228344   4.436   2.947   6.413 -0.1286 -0.3839  1.0145
 5628SOL     OW28345   0.386   4.455   3.578 -0.2099 -0.6406 -0.1471
 5628SOL    HW128346   0.350   4.539   3.551 -2.4413 -1.2064  1.0839
 5628SOL    HW228347   0.344   4.392   3.519 -0.5194 -0.5852  0.0152
 5629SOL     OW28348   0.614   2.982  16.635  0.0781 -0.1502  0.3999
 5629SOL    HW128349   0.655   3.062  16.671 -1.2778  1.3083 -1.2973
 5629SOL    HW228350   0.534   2.973  16.686 -1.8543 -1.0883 -2.8632
 5630SOL     OW28351   3.140   2.495   4.446 -0.2847  0.4101  0.6011
 5630SOL    HW128352   3.151   2.496   4.541  1.8397 -1.2209  0.3478
 5630SOL    HW228353   3.166   2.408   4.419  1.0788  0.7141  0.9640
 5631SOL     OW28354   1.486   4.555   3.426  0.3707 -0.1490 -0.0383
 5631SOL    HW128355   1.452   4.596   3.346 -2.0885 -1.3841  0.3973
 5631SOL    HW228356   1.496   4.464   3.399  0.2791 -0.4477  0.9706
 5632SOL     OW28357   0.813   2.438  14.939 -0.4382 -0.2732  0.4384
 5632SOL    HW128358   0.861   2.361  14.973  0.8155  0.7650  1.0285
 5632SOL    HW228359   0.827   2.416  14.847  1.6302 -1.0175  0.9247
 5633SOL     OW28360   2.078   4.236  13.021  0.4128  0.6579  0.1133
 5633SOL    HW128361   2.036   4.295  13.083  0.6842  1.7405 -0.7330
 5633SOL    HW228362   2.012   4.168  13.006  0.2164  0.7045  0.7737
 5634SOL     OW28363   0.017   4.704   7.292 -0.0328  0.4849  0.5102
 5634SOL    HW128364   0.080   4.668   7.354 -1.1874 -1.4399  0.5983
 5634SOL    HW228365   0.003   4.627   7.236 -1.0632  0.2876  1.0437
 5635SOL     OW28366   2.951   0.854  14.283  0.2241 -0.2262 -0.9154
 5635SOL    HW128367   2.905   0.794  14.224 -0.1381 -2.2983  1.4861
 5635SOL    HW228368   2.872   0.906  14.302  0.7314 -1.0501  3.4439
 5636SOL     OW28369   1.968   4.593   6.838  0.1334 -0.1342 -0.4397
 5636SOL    HW128370   1.914   4.666   6.866 -0.9737 -0.9540 -0.4511
 5636SOL    HW228371   1.977   4.610   6.745  0.1792 -0.1204 -0.4329
 5637SOL     OW28372   1.067   4.196   2.687  0.0878  0.5462 -0.1894
 5637SOL    HW128373   1.151   4.172   2.725 -0.7141 -3.1138 -0.6668
 5637SOL    HW228374   1.038   4.274   2.734 -2.0513 -0.6041  0.3728
 5638SOL     OW28375   1.001   2.579  16.543  0.2477  0.1192  0.3686
 5638SOL    HW128376   0.986   2.671  16.565  0.1269  0.0108  0.7421
 5638SOL    HW228377   1.095   2.564  16.554  0.5192  0.0720 -2.1839
 5639SOL     OW28378   3.178   0.837   9.685 -0.5875  0.3909 -0.2029
 5639SOL    HW128379   3.145   0.757   9.725 -0.1544  1.0788  1.5471
 5639SOL    HW228380   3.261   0.807   9.648 -1.0643 -2.3476  0.9623
 5640SOL     OW28381   1.961   3.010   4.536  0.8515 -0.1870 -0.1697
 5640SOL    HW128382   1.875   2.969   4.545  1.2371 -0.9304  0.1328
 5640SOL    HW228383   1.940   3.099   4.505 -0.2782  0.1271  1.5038
 5641SOL     OW28384   4.091   4.212   5.425 -0.0281 -0.3708  0.4401
 5641SOL    HW128385   4.070   4.201   5.333 -0.4572 -1.3207  0.6558
 5641SOL    HW228386   4.062   4.302   5.439  2.1494  0.4390 -0.1137
 5642SOL     OW28387   0.329   3.649   4.921  0.2146 -0.0803  0.1317
 5642SOL    HW128388   0.327   3.679   5.012 -2.9268  0.2554 -0.0646
 5642SOL    HW228389   0.422   3.627   4.918  0.6290  1.3917  1.9239
 5643SOL     OW28390   1.467   1.178  17.614  0.0331  0.7432  0.0759
 5643SOL    HW128391   1.435   1.134  17.536  0.2376 -0.3054  0.5833
 5643SOL    HW228392   1.471   1.104  17.675 -0.3088 -0.7511 -1.7295
 5644SOL     OW28393   3.251   4.710   9.437  0.2979 -0.1541  0.6494
 5644SOL    HW128394   3.204   4.627   9.432 -0.2707  0.1101  1.5696
 5644SOL    HW228395   3.188   0.040   9.486  1.1520  0.5781  0.9410
 5645SOL     OW28396   4.445   0.821   5.271  0.6807 -0.0590  0.2878
 5645SOL    HW128397   4.392   0.810   5.192 -0.2236 -1.1208  1.0525
 5645SOL    HW228398   4.522   0.871   5.244 -1.4337  1.2697 -3.2691
 5646SOL     OW28399   1.952   4.622   6.571 -0.1191  0.2233 -1.0916
 5646SOL    HW128400   1.966   4.707   6.528  1.2001 -0.3235 -1.7499
 5646SOL    HW228401   1.936   4.560   6.500 -0.8515 -0.4292 -0.3529
 5647SOL     OW28402   4.583   1.101  17.231 -0.3089  0.1295  0.4457
 5647SOL    HW128403   4.610   1.189  17.204  0.1397  0.2958  1.4412
 5647SOL    HW228404   4.610   1.043  17.160  1.9206  1.9531 -0.1799
 5648SOL     OW28405   0.170   3.696   3.756 -0.3616 -0.1196 -0.2009
 5648SOL    HW128406   0.230   3.636   3.712 -1.0300  1.2230 -2.9481
 5648SOL    HW228407   0.148   3.651   3.838 -1.0771  0.5588 -0.0222
 5649SOL     OW28408   0.998   1.400  16.500  0.3170 -0.5033  0.5411
 5649SOL    HW128409   0.956   1.483  16.526 -0.3205 -0.1430 -1.5865
 5649SOL    HW228410   1.002   1.363  16.588 -3.3143  0.8391  1.2951
 5650SOL     OW28411   3.495   1.420   6.524  0.0104 -0.6758 -0.3184
 5650SOL    HW128412   3.571   1.478   6.526  0.8775 -1.8066 -0.8044
 5650SOL    HW228413   3.481   1.419   6.619 -0.2267 -0.9161 -0.3560
 5651SOL     OW28414   0.320   0.440  14.416  0.0756  0.2323  0.1191
 5651SOL    HW128415   0.252   0.464  14.479  0.0998 -1.5581  0.8240
 5651SOL    HW228416   0.386   0.400  14.472  0.9248 -0.2417 -1.2178
 5652SOL     OW28417   4.415   2.427   8.586 -0.1549  0.2717 -0.5636
 5652SOL    HW128418   4.328   2.408   8.623  0.4974 -1.1485  0.2271
 5652SOL    HW228419   4.435   2.513   8.623  1.2893  0.2154 -1.2508
 5653SOL     OW28420   0.455   1.711   5.307 -0.1393  0.1009  0.3144
 5653SOL    HW128421   0.503   1.791   5.284 -1.4634  0.3953 -1.4186
 5653SOL    HW228422   0.506   1.681   5.382 -0.4620 -0.3465  0.3530
 5654SOL     OW28423   1.383   4.576  10.106 -0.0926 -0.9168 -0.6076
 5654SOL    HW128424   1.332   4.644  10.151 -0.1187 -1.9531  0.9075
 5654SOL    HW228425   1.385   4.515  10.179  0.6283  1.0208  0.9900
 5655SOL     OW28426   1.492   3.033   1.679  0.3112 -0.2906 -0.1059
 5655SOL    HW128427   1.570   3.069   1.720 -0.1525 -0.5060  0.9712
 5655SOL    HW228428   1.539   2.977   1.618  0.1138 -0.8861  0.2889
 5656SOL     OW28429   3.118   0.172  16.144 -0.2394 -0.1425 -0.2142
 5656SOL    HW128430   3.132   0.082  16.114 -1.0091 -0.4275  0.2655
 5656SOL    HW228431   3.100   0.213  16.060  2.8049  0.9756 -0.3165
 5657SOL     OW28432   2.408   1.642   4.202  0.4608 -0.0279  0.2982
 5657SOL    HW128433   2.484   1.693   4.228 -1.0339  1.0723  2.5335
 5657SOL    HW228434   2.363   1.713   4.157 -0.5155 -2.3448 -2.3638
 5658SOL     OW28435   1.798   3.225   6.475 -0.0462 -0.1804 -0.0704
 5658SOL    HW128436   1.800   3.151   6.536  1.3847 -0.1063 -0.0264
 5658SOL    HW228437   1.719   3.270   6.505 -0.4923 -1.0447  0.0580
 5659SOL     OW28438   3.878   1.783   6.422  0.0355  0.7069 -0.2147
 5659SOL    HW128439   3.806   1.797   6.361 -1.8356  0.7148  1.9914
 5659SOL    HW228440   3.868   1.855   6.485  0.3276  0.0993  0.5319
 5660SOL     OW28441   3.296   1.726   0.139 -0.0345  0.1660  0.0944
 5660SOL    HW128442   3.365   1.752   0.079 -0.9723 -0.1708 -1.1335
 5660SOL    HW228443   3.255   1.655   0.090  0.7374 -1.3548  1.6548
 5661SOL     OW28444   2.847   0.605   1.254  0.0418  0.3013  0.5742
 5661SOL    HW128445   2.831   0.687   1.300  0.8882  0.9544 -0.2912
 5661SOL    HW228446   2.783   0.617   1.184 -0.2280  0.1633  0.7957
 5662SOL     OW28447   0.285   4.615  16.041 -0.1155 -0.4496 -0.6571
 5662SOL    HW128448   0.316   4.589  15.955 -1.1641  0.4719 -1.3212
 5662SOL    HW228449   0.362   4.628  16.096 -0.7545  1.3554 -0.1761
 5663SOL     OW28450   1.864   2.463   3.262  0.1644  0.2243  0.1246
 5663SOL    HW128451   1.897   2.419   3.340 -2.9915  1.1057  1.9707
 5663SOL    HW228452   1.796   2.406   3.228  2.8209 -1.3176 -2.5284
 5664SOL     OW28453   2.756   4.685  13.642 -0.1411 -0.0248 -0.4751
 5664SOL    HW128454   2.775   4.717  13.553 -1.8734 -1.2467 -1.2832
 5664SOL    HW228455   2.710   4.607  13.611 -2.4120 -0.4934  4.0883
 5665SOL     OW28456   0.453   2.590   2.853 -0.3210 -0.0719  0.3349
 5665SOL    HW128457   0.395   2.641   2.795 -0.4825 -1.0980 -0.4016
 5665SOL    HW228458   0.523   2.650   2.878  0.6425 -1.3303  0.6119
 5666SOL     OW28459   2.522   2.519   8.613  0.2264 -0.3253  0.5401
 5666SOL    HW128460   2.495   2.535   8.522  0.2303  0.6811  0.7184
 5666SOL    HW228461   2.530   2.606   8.652  0.3384 -0.0820 -0.0191
 5667SOL     OW28462   0.635   2.690   0.991  0.0245  0.0352 -0.1411
 5667SOL    HW128463   0.702   2.632   1.027  1.1276  0.1912 -1.8909
 5667SOL    HW228464   0.594   2.637   0.923  0.3641 -0.6659  0.1987
 5668SOL     OW28465   3.260   1.561   6.438 -0.1745  0.0128  0.6288
 5668SOL    HW128466   3.324   1.492   6.456  0.4790 -0.5506 -3.8705
 5668SOL    HW228467   3.313   1.638   6.460  0.9964 -0.6317  0.0161
 5669SOL     OW28468   2.841   2.212   7.604 -0.1137 -0.3494 -0.2085
 5669SOL    HW128469   2.867   2.195   7.695  0.4015  1.4775 -0.0109
 5669SOL    HW228470   2.884   2.141   7.557  2.5802  1.1610 -0.0605
 5670SOL     OW28471   4.188   1.431   5.371 -0.9637 -0.2333  0.2039
 5670SOL    HW128472   4.248   1.434   5.296 -0.8285 -0.9606  0.2864
 5670SOL    HW228473   4.246   1.412   5.445  0.3741 -0.5707 -0.9212
 5671SOL     OW28474   3.393   4.304   9.306  0.2121 -0.4130  0.0658
 5671SOL    HW128475   3.382   4.249   9.384 -2.8102 -0.3803 -0.3396
 5671SOL    HW228476   3.436   4.380   9.345  1.7369 -0.9876 -0.5161
 5672SOL     OW28477   4.330   3.818   6.701 -0.2052 -0.4860  0.0803
 5672SOL    HW128478   4.397   3.754   6.677  2.6670  1.3239  3.3372
 5672SOL    HW228479   4.347   3.826   6.795  0.1554  0.6486 -0.0835
 5673SOL     OW28480   1.946   3.666  10.154  0.3333  0.6982 -0.2865
 5673SOL    HW128481   1.963   3.702  10.241 -0.1712  0.5484 -0.1245
 5673SOL    HW228482   2.029   3.627  10.128 -0.0454  2.0977 -3.6892
 5674SOL     OW28483   2.238   0.911   8.763  0.1243 -0.3666  0.7122
 5674SOL    HW128484   2.191   0.827   8.763  0.8577 -0.7490 -1.6668
 5674SOL    HW228485   2.173   0.977   8.786 -1.3124 -1.6049  0.2464
 5675SOL     OW28486   2.403   1.322  15.552  0.0467  0.3205 -0.0722
 5675SOL    HW128487   2.348   1.313  15.630  1.6247  1.7815  1.2044
 5675SOL    HW228488   2.360   1.402  15.525  0.9772  0.8323 -0.0418
 5676SOL     OW28489   2.385   3.630  11.437  0.6362  0.1549  0.3140
 5676SOL    HW128490   2.335   3.576  11.376  2.6300  1.0422 -2.1320
 5676SOL    HW228491   2.470   3.586  11.444  0.8532  0.4022 -0.7111
 5677SOL     OW28492   2.321   0.257  10.068 -1.0720 -0.1009 -0.2339
 5677SOL    HW128493   2.289   0.171  10.042  0.4138 -0.3248 -1.3490
 5677SOL    HW228494   2.302   0.308   9.989 -0.1147  0.9846  0.2296
 5678SOL     OW28495   1.762   4.037  11.797 -0.3370  0.0269 -0.2196
 5678SOL    HW128496   1.748   4.021  11.890  0.7427  0.0255 -0.0494
 5678SOL    HW228497   1.783   4.131  11.791  0.7205 -0.2491 -0.9615
 5679SOL     OW28498   2.423   0.249   9.523 -0.2321 -0.2714  0.0204
 5679SOL    HW128499   2.381   0.163   9.529 -0.8815  0.0711  0.3767
 5679SOL    HW228500   2.359   0.316   9.547 -1.1436 -1.1773  0.1032
 5680SOL     OW28501   2.993   1.293   7.963 -0.6330  0.2074 -0.5101
 5680SOL    HW128502   2.983   1.275   7.869 -1.0712 -2.0401 -0.0383
 5680SOL    HW228503   2.967   1.209   8.000 -0.0710 -0.0164 -0.6113
 5681SOL     OW28504   2.313   1.153   6.923 -0.5130 -0.1193  0.0177
 5681SOL    HW128505   2.360   1.222   6.877 -1.3656  0.6532  0.3085
 5681SOL    HW228506   2.364   1.151   7.004 -1.1291 -0.2340  0.4083
 5682SOL     OW28507   0.386   1.842  14.733  0.0251 -0.3201 -0.4265
 5682SOL    HW128508   0.325   1.915  14.748  0.8229 -0.0896  1.7908
 5682SOL    HW228509   0.443   1.875  14.663  0.8056  1.6100  1.1006
 5683SOL     OW28510   0.255   0.040   0.069  0.7664  0.3961  0.4014
 5683SOL    HW128511   0.169   0.030   0.028  0.3110  0.8314  1.2528
 5683SOL    HW228512   0.294   0.109   0.014 -0.3836 -0.1231 -1.0546
 5684SOL     OW28513   4.531   1.484   9.462 -0.3931 -0.6805  0.2986
 5684SOL    HW128514   4.463   1.507   9.526  0.7129  2.1747  0.4260
 5684SOL    HW228515   4.472   1.443   9.399 -0.9434 -0.6756  0.8123
 5685SOL     OW28516   1.760   2.514   9.322 -0.2043 -0.1382  0.2032
 5685SOL    HW128517   1.849   2.527   9.355  0.2561 -0.2403 -0.9780
 5685SOL    HW228518   1.727   2.604   9.329  0.9147  0.3617 -0.8899
 5686SOL     OW28519   2.546   4.238   3.275 -0.0449 -0.0693  0.5877
 5686SOL    HW128520   2.572   4.298   3.205 -1.2157 -1.2522 -0.8668
 5686SOL    HW228521   2.630   4.197   3.296  0.1823 -0.9105 -1.9303
 5687SOL     OW28522   2.776   0.467   6.245  0.1173 -0.1421 -0.2644
 5687SOL    HW128523   2.833   0.511   6.182  1.2300 -0.1217  0.7385
 5687SOL    HW228524   2.754   0.534   6.309 -1.3407 -0.1920 -0.7120
 5688SOL     OW28525   2.386   4.313   5.460  0.3448  0.3446 -0.7221
 5688SOL    HW128526   2.421   4.400   5.475 -0.8711  0.6182  0.4635
 5688SOL    HW228527   2.463   4.256   5.467  0.5845  0.8313  0.5753
 5689SOL     OW28528   1.382   2.383   3.277 -0.0564  0.3404  0.5016
 5689SOL    HW128529   1.404   2.294   3.305 -0.5266  0.1384  0.2288
 5689SOL    HW228530   1.468   2.415   3.249  0.0167 -0.9023 -0.7066
 5690SOL     OW28531   1.022   2.990   6.409 -0.4978  0.1245  0.4553
 5690SOL    HW128532   0.997   2.899   6.397 -0.4766 -0.0172  1.5546
 5690SOL    HW228533   0.996   3.010   6.499  1.0329 -0.9250  1.1375
 5691SOL     OW28534   3.569   0.192   1.892  0.7466  0.6253  0.1881
 5691SOL    HW128535   3.627   0.130   1.848 -1.5322 -1.5353  0.2130
 5691SOL    HW228536   3.508   0.215   1.822 -1.3640  1.4623  2.3242
 5692SOL     OW28537   3.282   4.429   1.867  0.2709 -0.5247 -0.1762
 5692SOL    HW128538   3.338   4.489   1.818  1.5619 -0.1233  1.7892
 5692SOL    HW228539   3.312   4.435   1.957  2.8707 -0.9775 -1.0177
 5693SOL     OW28540   3.939   0.352   2.519 -0.1033  0.1593  0.1183
 5693SOL    HW128541   3.945   0.376   2.426 -2.4139 -2.3386 -0.6820
 5693SOL    HW228542   3.895   0.267   2.517 -0.9083  0.5774  0.1649
 5694SOL     OW28543   1.406   4.406  12.611  0.6512 -0.0976 -0.1601
 5694SOL    HW128544   1.457   4.393  12.531  0.2928 -0.9734 -0.2435
 5694SOL    HW228545   1.418   4.324  12.659  2.3767  1.1613  1.5660
 5695SOL     OW28546   0.962   2.290   8.305 -0.1714 -0.5772 -0.0743
 5695SOL    HW128547   0.936   2.240   8.382  0.0108  1.0453  1.0380
 5695SOL    HW228548   0.998   2.218   8.252  1.2166 -0.0923  0.2086
 5696SOL     OW28549   1.794   1.520  17.218  0.0220 -0.4839 -0.2906
 5696SOL    HW128550   1.744   1.589  17.262  0.5746  0.1836 -0.7196
 5696SOL    HW228551   1.780   1.443  17.273 -1.5809  0.8313  1.1705
 5697SOL     OW28552   3.113   2.443  10.451  0.3916 -0.0660  0.3057
 5697SOL    HW128553   3.066   2.373  10.406 -1.3156 -0.0423  2.0301
 5697SOL    HW228554   3.088   2.417  10.540  1.5139 -0.0721  0.6215
 5698SOL     OW28555   0.650   0.099  11.783 -0.1810  0.4889 -0.4226
 5698SOL    HW128556   0.591   0.135  11.849  0.5342  0.7022  0.1042
 5698SOL    HW228557   0.726   0.074  11.835  0.4352  1.0167 -1.0771
 5699SOL     OW28558   2.736   1.244   9.110 -0.1410  0.2580  0.0826
 5699SOL    HW128559   2.793   1.176   9.146 -1.6841 -0.0889  1.8500
 5699SOL    HW228560   2.672   1.254   9.181 -1.8184 -1.7824 -1.1191
 5700SOL     OW28561   2.209   2.170   7.027 -0.2294  0.2300 -0.1994
 5700SOL    HW128562   2.277   2.224   7.067 -0.9308  0.5300  0.5727
 5700SOL    HW228563   2.200   2.210   6.940  1.6346  0.1430 -0.4400
 5701SOL     OW28564   4.487   1.995   8.862 -0.3327  0.0674  0.6581
 5701SOL    HW128565   4.419   1.937   8.829  1.1468  0.5731 -3.3213
 5701SOL    HW228566   4.527   1.931   8.922 -0.6658  0.8768  1.7563
 5702SOL     OW28567   3.094   0.761   1.183 -0.2584 -0.0082  0.0646
 5702SOL    HW128568   3.176   0.810   1.176 -0.6506  1.0135  2.6520
 5702SOL    HW228569   3.117   0.674   1.149  0.8266  0.7797 -1.2374
 5703SOL     OW28570   3.223   2.902   7.441  0.2189  0.4873  0.0769
 5703SOL    HW128571   3.275   2.946   7.509  0.0661 -2.5724  2.1802
 5703SOL    HW228572   3.135   2.902   7.480  0.2538  0.0789  0.1516
 5704SOL     OW28573   4.031   4.590   5.179  0.4857  0.4904 -0.4038
 5704SOL    HW128574   4.126   4.588   5.180  0.4620  0.7676  1.9715
 5704SOL    HW228575   4.028   4.546   5.094 -0.0264 -0.5382  0.1465
 5705SOL     OW28576   3.134   0.652   5.078 -0.0997 -0.6369 -0.1192
 5705SOL    HW128577   3.154   0.722   5.015  0.0062  0.6309  1.3278
 5705SOL    HW228578   3.089   0.702   5.146 -2.4807 -1.7023 -0.9429
 5706SOL     OW28579   0.064   2.493   0.053  0.3220 -0.0233  0.4022
 5706SOL    HW128580   0.045   2.440   0.131  0.9483  1.4114  1.5305
 5706SOL    HW228581   0.134   2.553   0.078  0.3250  0.7651 -1.5496
 5707SOL     OW28582   1.515   1.184  14.468 -0.0715 -0.1337 -0.1985
 5707SOL    HW128583   1.495   1.096  14.435 -0.8192 -0.7726  1.9556
 5707SOL    HW228584   1.603   1.169  14.504  1.3319  2.0371 -2.7851
 5708SOL     OW28585   2.740   0.496   9.316  0.0981  0.1827 -0.0388
 5708SOL    HW128586   2.774   0.433   9.380 -1.6200  1.7999  2.4378
 5708SOL    HW228587   2.753   0.455   9.230 -0.8498 -0.6067  0.2007
 5709SOL     OW28588   3.951   3.066  11.747 -0.0636 -0.3560  0.1291
 5709SOL    HW128589   3.932   3.083  11.840 -0.2733 -1.6990  0.3268
 5709SOL    HW228590   4.003   2.987  11.760 -0.4620 -0.7106 -0.4759
 5710SOL     OW28591   2.195   0.103   8.599  0.0614 -0.3336 -0.1170
 5710SOL    HW128592   2.251   0.164   8.647 -1.5202  0.7829  0.3220
 5710SOL    HW228593   2.259   0.065   8.539  0.9217  0.4303  0.3091
 5711SOL     OW28594   1.677   3.190  10.210  0.2268  0.0549 -0.0966
 5711SOL    HW128595   1.594   3.157  10.245  0.8379  0.4772  1.7529
 5711SOL    HW228596   1.743   3.154  10.268  0.1433 -0.6327 -0.4234
 5712SOL     OW28597   3.045   0.109   8.741 -0.2086  0.4911 -0.5085
 5712SOL    HW128598   2.967   0.056   8.725  0.6044 -0.8585 -0.0654
 5712SOL    HW228599   3.065   0.089   8.833  0.8605 -1.6064 -1.1991
 5713SOL     OW28600   2.513   0.414  10.180  0.2316 -0.2805  0.3308
 5713SOL    HW128601   2.435   0.378  10.137  0.1799  0.5971 -0.3133
 5713SOL    HW228602   2.550   0.333  10.214  0.7937  1.3804  3.6603
 5714SOL     OW28603   2.143   3.724  11.499  0.4295 -0.1127  0.4567
 5714SOL    HW128604   2.232   3.692  11.487  0.2506 -1.7160  3.5104
 5714SOL    HW228605   2.140   3.813  11.464  2.4765  0.4304  1.6915
 5715SOL     OW28606   3.821   2.325   3.570  0.0088 -0.1811  0.1171
 5715SOL    HW128607   3.847   2.253   3.512  0.0736  1.5979 -2.0786
 5715SOL    HW228608   3.736   2.342   3.529 -0.0001 -0.5702 -0.0255
 5716SOL     OW28609   3.324   1.141   2.663  0.8363 -0.1430  0.1977
 5716SOL    HW128610   3.321   1.141   2.567  0.1645  1.8082  0.2104
 5716SOL    HW228611   3.231   1.144   2.687  0.8600 -1.8485  0.4931
 5717SOL     OW28612   1.091   2.089  12.401  0.1721  0.0152 -0.2924
 5717SOL    HW128613   1.047   2.158  12.451  1.8086  0.6834  0.2468
 5717SOL    HW228614   1.104   2.015  12.460  0.6386 -0.5927 -1.1638
 5718SOL     OW28615   0.702   1.159   6.423 -0.7378  0.0206  0.4870
 5718SOL    HW128616   0.792   1.158   6.457 -0.4547  0.0297 -0.2524
 5718SOL    HW228617   0.658   1.112   6.493 -0.7048 -1.2658 -0.3492
 5719SOL     OW28618   0.025   2.856  10.802  0.1827  0.3635  0.1506
 5719SOL    HW128619   0.053   2.852  10.710 -1.0635 -0.2575 -0.2127
 5719SOL    HW228620   4.724   2.764  10.813  0.6799  0.4739  2.0907
 5720SOL     OW28621   4.583   1.478   6.135 -0.3828  0.3546 -0.3265
 5720SOL    HW128622   4.576   1.565   6.173  0.6873 -1.6300  4.4204
 5720SOL    HW228623   4.553   1.430   6.213  1.3302  0.7684  0.5985
 5721SOL     OW28624   0.120   4.110   6.070  0.7795 -0.1397 -0.2062
 5721SOL    HW128625   0.190   4.056   6.032  0.2282 -0.5541 -0.6330
 5721SOL    HW228626   0.168   4.156   6.138  1.9694  0.4203 -1.4215
 5722SOL     OW28627   0.053   2.171   6.394 -0.1716 -0.7962  0.0695
 5722SOL    HW128628   4.689   2.201   6.374  0.1079  0.3700  0.5885
 5722SOL    HW228629   0.068   2.103   6.328 -0.3046 -0.2707 -0.4998
 5723SOL     OW28630   3.617   3.734   1.735  0.3462  0.4807  0.2314
 5723SOL    HW128631   3.578   3.821   1.741  1.6177  1.1541 -1.2104
 5723SOL    HW228632   3.632   3.737   1.641 -1.8597  0.8394 -0.1047
 5724SOL     OW28633   1.230   3.639  17.493 -0.5564  0.5872 -0.1990
 5724SOL    HW128634   1.320   3.611  17.513 -0.3254  1.9520  0.6510
 5724SOL    HW228635   1.182   3.597  17.564 -2.0628 -0.0072 -1.5821
 5725SOL     OW28636   4.030   1.209  16.638  0.6592  0.1587  0.2084
 5725SOL    HW128637   3.983   1.272  16.583  2.9521  1.6653  0.0230
 5725SOL    HW228638   3.999   1.127  16.599 -0.8297 -0.1982  2.1661
 5726SOL     OW28639   3.028   0.790   1.451 -0.5255  0.4773  0.4092
 5726SOL    HW128640   3.039   0.788   1.356 -0.3166 -2.2763  0.4984
 5726SOL    HW228641   3.110   0.761   1.491 -0.4015  1.1672  0.6472
 5727SOL     OW28642   4.619   3.891   0.004 -0.0663  0.6099 -0.3194
 5727SOL    HW128643   4.582   3.851   0.083  2.1981  0.1406  0.5030
 5727SOL    HW228644   4.583   3.837  17.630 -0.6903  0.9977 -0.2998
 5728SOL     OW28645   2.879   3.062   5.348 -0.1827  0.1588 -0.5130
 5728SOL    HW128646   2.927   2.980   5.333 -3.8561 -1.5271 -2.9345
 5728SOL    HW228647   2.954   3.120   5.355  1.2403 -1.7242  0.0753
 5729SOL     OW28648   2.098   0.474   5.231 -0.6460  0.7416 -0.4626
 5729SOL    HW128649   2.003   0.475   5.222 -0.5300  0.2767 -1.8023
 5729SOL    HW228650   2.113   0.424   5.151 -0.2796  0.7427 -0.3980
 5730SOL     OW28651   3.761   1.346   2.677  0.7038 -0.0598 -0.2095
 5730SOL    HW128652   3.739   1.343   2.770  1.4873 -2.8012 -0.1221
 5730SOL    HW228653   3.701   1.283   2.637 -0.8293 -1.4567  4.3155
 5731SOL     OW28654   3.376   2.081   0.157  0.7229  0.5884  0.3291
 5731SOL    HW128655   3.288   2.117   0.146  0.6002  0.2695  0.2682
 5731SOL    HW228656   3.420   2.122   0.082  1.4310 -1.7219 -0.5273
 5732SOL     OW28657   0.668   2.807  17.685  0.0662  0.0436 -0.3274
 5732SOL    HW128658   0.719   2.881   0.021  0.3734  0.4630 -1.7529
 5732SOL    HW228659   0.590   2.860  17.667  0.7453  1.7989  1.9477
 5733SOL     OW28660   0.672   1.484   4.200  0.3406  0.0401 -0.2033
 5733SOL    HW128661   0.674   1.404   4.252 -1.5202 -0.3959 -0.8161
 5733SOL    HW228662   0.580   1.483   4.176  0.8446  0.7184 -2.1361
 5734SOL     OW28663   2.083   0.676   7.388 -0.3590  0.4046 -0.5844
 5734SOL    HW128664   2.024   0.649   7.459 -0.1020 -0.6620 -0.7894
 5734SOL    HW228665   2.018   0.702   7.323 -0.2982  0.4745 -0.6182
 5735SOL     OW28666   3.321   2.330   3.995  0.1200 -0.2758 -0.2810
 5735SOL    HW128667   3.333   2.297   4.084  1.0040  1.8906  0.4219
 5735SOL    HW228668   3.302   2.420   4.023 -1.0596 -0.8539  0.7347
 5736SOL     OW28669   0.683   1.423   2.529 -0.1916  0.2538 -0.4792
 5736SOL    HW128670   0.758   1.373   2.562  0.4151  0.9778 -0.7582
 5736SOL    HW228671   0.667   1.492   2.593  1.1033  0.6556 -0.5934
 5737SOL     OW28672   1.730   0.935  10.126 -0.1977  0.0664  0.0269
 5737SOL    HW128673   1.723   0.993  10.050 -0.7478  1.5017  1.1792
 5737SOL    HW228674   1.661   0.969  10.183 -1.7516 -1.6029 -0.8643
 5738SOL     OW28675   2.046   0.846  12.662 -0.2691 -0.4497 -0.0033
 5738SOL    HW128676   2.120   0.786  12.658  1.5730  1.6933  1.9498
 5738SOL    HW228677   2.093   0.927  12.679 -0.1515 -1.0969  2.7766
 5739SOL     OW28678   0.537   1.449   7.878 -0.5148 -0.2103 -0.8517
 5739SOL    HW128679   0.467   1.503   7.916  0.6595 -0.1853  1.2757
 5739SOL    HW228680   0.608   1.469   7.939 -1.5874 -1.4719  0.7972
 5740SOL     OW28681   2.657   2.420   3.507 -0.0396 -0.3264  0.2439
 5740SOL    HW128682   2.607   2.366   3.568 -0.0935 -3.2710 -2.3664
 5740SOL    HW228683   2.633   2.508   3.537  0.1708  0.4041 -1.7115
 5741SOL     OW28684   3.737   0.800   9.221  0.1938  0.0243  0.3572
 5741SOL    HW128685   3.724   0.709   9.247  1.1690 -0.4660 -0.8576
 5741SOL    HW228686   3.829   0.811   9.245  1.0567 -1.9730 -1.9235
 5742SOL     OW28687   1.039   1.656  16.659  0.4336  0.3917 -0.0350
 5742SOL    HW128688   1.060   1.670  16.751  0.0559 -2.4915  0.5173
 5742SOL    HW228689   1.099   1.703  16.602  2.2414 -0.5721  1.0856
 5743SOL     OW28690   3.659   0.629   3.705 -0.0377  0.0164 -0.0998
 5743SOL    HW128691   3.631   0.699   3.647 -3.6696 -2.0006 -0.7744
 5743SOL    HW228692   3.656   0.565   3.634  1.1245 -0.6785  0.4658
 5744SOL     OW28693   4.334   1.569   2.048  0.0841 -0.2462 -0.7250
 5744SOL    HW128694   4.285   1.612   2.118  3.9032  1.2049  1.0424
 5744SOL    HW228695   4.302   1.480   2.063  3.1017 -1.4494 -1.4169
 5745SOL     OW28696   4.275   2.499  10.702  0.1348 -0.5367  0.3637
 5745SOL    HW128697   4.215   2.448  10.757 -0.9598 -0.0429 -0.3628
 5745SOL    HW228698   4.285   2.570  10.764  0.5615 -0.7174  0.4992
 5746SOL     OW28699   3.658   0.219   9.147 -0.0803 -0.1870 -0.3145
 5746SOL    HW128700   3.603   0.261   9.213  1.0239  1.3482 -0.3846
 5746SOL    HW228701   3.603   0.223   9.069 -1.5439 -0.6927  0.6799
 5747SOL     OW28702   4.371   3.775  13.402  0.2074 -0.0416 -0.1807
 5747SOL    HW128703   4.298   3.713  13.413  0.0996  0.2701  0.8053
 5747SOL    HW228704   4.331   3.860  13.419  0.6962  0.5322 -1.8338
 5748SOL     OW28705   4.665   0.644  10.936 -0.6984 -0.0679 -0.5289
 5748SOL    HW128706   4.643   0.601  10.853  2.4976 -1.1680 -0.8151
 5748SOL    HW228707   4.684   0.565  10.987 -2.5814  1.4701  2.5780
 5749SOL     OW28708   1.054   3.819   4.988  0.1346 -0.0387  0.3495
 5749SOL    HW128709   1.102   3.885   4.937  2.1075 -2.3636 -0.8440
 5749SOL    HW228710   1.123   3.775   5.038  0.7219 -0.0314 -0.4535
 5750SOL     OW28711   2.808   1.095   3.993  1.0454  0.4418 -0.4617
 5750SOL    HW128712   2.846   1.096   3.905 -1.1793 -2.1125 -1.4645
 5750SOL    HW228713   2.870   1.132   4.055  1.8520  1.9078 -2.1417
 5751SOL     OW28714   2.422   0.615   7.199  0.0138  0.5411 -0.5196
 5751SOL    HW128715   2.420   0.708   7.180 -1.5782  0.6340  0.0828
 5751SOL    HW228716   2.496   0.616   7.260 -0.7214  0.6292  0.3691
 5752SOL     OW28717   2.507   1.214   0.925 -0.1057  0.1970 -0.3396
 5752SOL    HW128718   2.417   1.202   0.954  0.5423 -1.6096  0.9274
 5752SOL    HW228719   2.530   1.305   0.945  1.1151 -0.4320  1.1260
 5753SOL     OW28720   2.375   1.142  16.698 -0.5972 -0.0901  0.4289
 5753SOL    HW128721   2.379   1.237  16.704  2.3995 -0.0446 -2.5090
 5753SOL    HW228722   2.306   1.131  16.633  0.7272  0.6426 -1.0921
 5754SOL     OW28723   0.377   2.248   0.786  0.2393  0.1662  0.2284
 5754SOL    HW128724   0.315   2.269   0.716 -1.2245 -0.4327  1.3514
 5754SOL    HW228725   0.346   2.166   0.823 -1.4250  1.6453  2.0931
 5755SOL     OW28726   4.176   3.038  15.563  0.0570 -0.2243  0.3445
 5755SOL    HW128727   4.144   3.129  15.566  2.4085  0.6364 -0.5285
 5755SOL    HW228728   4.103   3.006  15.510  0.7258  0.2617 -0.8650
 5756SOL     OW28729   0.258   3.953   8.648 -0.3552  0.2370 -0.2403
 5756SOL    HW128730   0.196   3.884   8.622  0.3379 -0.3639 -0.2899
 5756SOL    HW228731   0.265   4.007   8.569 -1.2219 -0.4594 -0.7989
 5757SOL     OW28732   0.060   0.912  10.880 -0.4053 -0.4398  0.1743
 5757SOL    HW128733   0.013   0.882  10.802 -0.7415 -1.3611  0.7322
 5757SOL    HW228734   0.025   0.848  10.941  0.7580 -2.7340 -1.5535
 5758SOL     OW28735   2.984   3.842   4.449 -0.4776 -0.2168  0.1355
 5758SOL    HW128736   3.005   3.859   4.541 -1.7573  1.4645  0.1149
 5758SOL    HW228737   3.057   3.786   4.423  0.5185  0.9237  0.4963
 5759SOL     OW28738   2.420   2.375   4.356 -0.1083  0.3175  0.2582
 5759SOL    HW128739   2.343   2.424   4.325  0.2016 -1.2826 -3.0408
 5759SOL    HW228740   2.486   2.445   4.358 -0.3478  0.5518 -0.0359
 5760SOL     OW28741   0.520   3.508   4.290 -0.0143 -0.5553 -0.2283
 5760SOL    HW128742   0.510   3.416   4.265  0.1968 -1.1788  1.9204
 5760SOL    HW228743   0.614   3.521   4.278 -0.7080  1.8531 -3.0310
 5761SOL     OW28744   2.853   2.142   8.129 -0.5739  0.0798  0.3470
 5761SOL    HW128745   2.780   2.203   8.132 -1.9056 -1.5166  0.8545
 5761SOL    HW228746   2.808   2.058   8.119 -1.5254  0.3296  2.3291
 5762SOL     OW28747   4.331   3.008   5.902  1.2206  0.3527  0.0432
 5762SOL    HW128748   4.413   3.051   5.878  0.2680  1.3129 -1.4371
 5762SOL    HW228749   4.283   3.010   5.819  0.2227 -0.4321  0.6089
 5763SOL     OW28750   4.288   3.484   0.926  0.4668  0.1080  0.1572
 5763SOL    HW128751   4.245   3.405   0.893 -1.8510  1.4871 -0.1012
 5763SOL    HW228752   4.225   3.550   0.898  0.2138  0.0030  0.4775
 5764SOL     OW28753   4.114   1.348  10.901  0.4799 -0.0536 -0.0683
 5764SOL    HW128754   4.032   1.397  10.893  0.7779  0.8353  2.1808
 5764SOL    HW228755   4.080   1.271  10.947 -1.6711  0.3041 -1.0563
 5765SOL     OW28756   2.537   1.439   2.751  0.0914  0.2450 -0.1803
 5765SOL    HW128757   2.561   1.347   2.762 -0.6514 -0.2386 -2.6119
 5765SOL    HW228758   2.497   1.460   2.835 -0.0546  4.1390 -1.2303
 5766SOL     OW28759   2.208   0.173  11.099 -0.1406  0.0039  0.0632
 5766SOL    HW128760   2.205   0.133  11.186 -1.1198  2.2180  1.0277
 5766SOL    HW228761   2.136   0.235  11.107 -1.7028 -1.9422  1.1268
 5767SOL     OW28762   3.719   1.800  13.173  0.1921  0.1026 -0.3514
 5767SOL    HW128763   3.679   1.736  13.115 -1.6847 -0.1666  1.2584
 5767SOL    HW228764   3.801   1.756  13.195  0.2676  0.5367  0.2524
 5768SOL     OW28765   3.834   1.162   5.472 -0.0180  0.2244 -0.2122
 5768SOL    HW128766   3.769   1.214   5.519  1.3878  0.8109  1.0919
 5768SOL    HW228767   3.821   1.075   5.510  0.4507  0.4763  0.5342
 5769SOL     OW28768   3.165   4.437   8.900 -0.1142  0.3274  0.1191
 5769SOL    HW128769   3.200   4.350   8.885  2.6926  1.7504 -1.5989
 5769SOL    HW228770   3.166   4.444   8.996  0.6512 -1.6320  0.2546
 5770SOL     OW28771   1.621   1.129  12.775  0.4188  0.0093 -0.0018
 5770SOL    HW128772   1.573   1.061  12.728 -0.1583  0.3823  0.0521
 5770SOL    HW228773   1.559   1.166  12.837 -1.4447 -1.7583 -0.8047
 5771SOL     OW28774   4.387   2.487   2.379  0.0870  0.0131 -1.0229
 5771SOL    HW128775   4.403   2.408   2.327  0.1453  0.5070 -1.7546
 5771SOL    HW228776   4.293   2.479   2.399  0.3185 -0.9612 -0.2708
 5772SOL     OW28777   4.652   2.997   8.726 -0.0725  0.0094  0.1859
 5772SOL    HW128778   4.650   3.093   8.727 -0.2353  0.0321 -1.8250
 5772SOL    HW228779   4.578   2.973   8.671  1.3690 -1.6819 -1.0255
 5773SOL     OW28780   1.489   0.604  11.932  0.1510  0.2263  0.1603
 5773SOL    HW128781   1.541   0.580  12.008  2.1335  1.7183 -0.7282
 5773SOL    HW228782   1.463   0.691  11.964 -0.1657 -0.2950  1.3229
 5774SOL     OW28783   0.517   1.786  16.595 -0.6963  0.3471 -0.1436
 5774SOL    HW128784   0.480   1.825  16.515 -1.9796  0.9661  0.7469
 5774SOL    HW228785   0.611   1.785  16.578 -0.5807  1.3142  0.4802
 5775SOL     OW28786   0.623   4.493  15.101 -0.3225  0.1684  0.0467
 5775SOL    HW128787   0.703   4.544  15.091 -0.1219  0.1116  1.2882
 5775SOL    HW228788   0.582   4.512  15.017  0.3246 -2.3180 -0.8273
 5776SOL     OW28789   1.785   0.216  15.901 -0.2237  0.2714  0.4170
 5776SOL    HW128790   1.775   0.196  15.994  0.2023 -0.3385  0.3252
 5776SOL    HW228791   1.875   0.248  15.903 -0.4919  1.1029 -0.5826
 5777SOL     OW28792   0.362   2.761  14.399 -0.2154 -0.2203 -0.0077
 5777SOL    HW128793   0.370   2.787  14.307  1.9748 -0.8094  0.0218
 5777SOL    HW228794   0.366   2.666  14.391 -3.0065 -0.4376  1.1143
 5778SOL     OW28795   1.254   4.363  12.075  0.1228 -0.5439  0.3533
 5778SOL    HW128796   1.219   4.278  12.100  0.6321 -0.9359 -0.2718
 5778SOL    HW228797   1.345   4.350  12.047  0.5146 -2.4776  2.5630
 5779SOL     OW28798   3.689   4.552  15.779  0.1037  0.1395 -0.2095
 5779SOL    HW128799   3.605   4.593  15.797  0.1401  0.3896 -0.6112
 5779SOL    HW228800   3.704   4.574  15.687  3.4835  1.8674  0.7438
 5780SOL     OW28801   4.595   0.177   6.732  0.1123  0.3236  0.6235
 5780SOL    HW128802   4.593   0.143   6.821  0.7281 -1.2662  0.0230
 5780SOL    HW228803   4.630   0.096   6.695 -1.8112 -0.7258  1.0987
 5781SOL     OW28804   1.293   2.145   3.477 -0.1011  0.0768 -0.0595
 5781SOL    HW128805   1.375   2.112   3.440 -1.4046  0.0564 -2.9214
 5781SOL    HW228806   1.320   2.207   3.545  2.1474  1.3253 -2.1004
 5782SOL     OW28807   1.928   2.227  11.673 -0.3200  0.2787  0.2344
 5782SOL    HW128808   1.964   2.216  11.762 -0.8998  0.5102  0.4917
 5782SOL    HW228809   1.929   2.322  11.669  0.6843  0.3470  1.7984
 5783SOL     OW28810   3.968   2.845  11.522  0.1180 -0.0206  0.2064
 5783SOL    HW128811   3.933   2.756  11.522 -1.7137  0.7058 -0.1404
 5783SOL    HW228812   4.023   2.848  11.601  0.4204 -0.5705  0.0182
 5784SOL     OW28813   1.788   0.325   4.866 -0.2934  0.1266  0.1327
 5784SOL    HW128814   1.862   0.269   4.890 -0.2650  0.1655  0.1357
 5784SOL    HW228815   1.727   0.265   4.823 -0.1908  0.5757 -0.6215
 5785SOL     OW28816   3.142   1.770   3.978 -0.3888  0.2635  0.3262
 5785SOL    HW128817   3.069   1.755   3.917  0.8254  1.6604 -1.4877
 5785SOL    HW228818   3.156   1.684   4.015 -0.3460 -0.1990 -0.7644
 5786SOL     OW28819   0.148   0.855  14.999  0.4000 -0.5140  0.0354
 5786SOL    HW128820   0.138   0.779  15.057  2.2478 -0.4498  0.4280
 5786SOL    HW228821   0.168   0.929  15.056  1.7496  0.3453 -1.5705
 5787SOL     OW28822   0.945   4.094   2.956 -0.0561  0.8044 -0.1668
 5787SOL    HW128823   0.882   4.162   2.933 -0.4350  0.7097  0.5939
 5787SOL    HW228824   0.895   4.022   2.918  1.0860 -0.7538  1.2810
 5788SOL     OW28825   0.986   0.816  11.446  0.1989 -0.4264 -0.0453
 5788SOL    HW128826   0.906   0.866  11.463 -0.4559 -1.5790  0.1949
 5788SOL    HW228827   0.949   0.729  11.458 -0.9327 -0.0306 -0.6152
 5789SOL     OW28828   1.808   0.116   0.053  0.0881  0.1477  0.5080
 5789SOL    HW128829   1.876   0.110  17.683  0.6677  0.2622  1.0933
 5789SOL    HW228830   1.749   0.187   0.027  0.8632  0.8491  0.6857
 5790SOL     OW28831   0.378   2.963   5.668  0.2019 -0.4286  0.0991
 5790SOL    HW128832   0.456   3.015   5.647 -0.1798  0.2755  0.4356
 5790SOL    HW228833   0.335   2.987   5.585  3.2633 -1.8120 -1.8988
 5791SOL     OW28834   0.040   0.150   8.001 -0.2059 -0.5569  0.1083
 5791SOL    HW128835   0.008   0.072   8.046 -0.0596 -2.1813 -2.6386
 5791SOL    HW228836   0.044   0.209   8.077  0.3350 -1.2753  0.6349
 5792SOL     OW28837   0.813   0.461  17.681 -0.4118 -0.1728 -0.3478
 5792SOL    HW128838   0.869   0.384  17.669 -0.1043  0.0718 -0.5161
 5792SOL    HW228839   0.865   0.528  17.635 -0.0186  0.1700  0.6052
 5793SOL     OW28840   2.596   0.024   7.587  1.1723 -0.2034 -0.3886
 5793SOL    HW128841   2.528   0.086   7.614 -1.0817 -2.6189 -0.4575
 5793SOL    HW228842   2.543   4.672   7.563 -0.7908  2.4046 -4.2294
 5794SOL     OW28843   4.479   0.787   5.543 -0.0930 -0.2703 -0.3440
 5794SOL    HW128844   4.458   0.807   5.451  0.8547  0.3897 -0.4142
 5794SOL    HW228845   4.570   0.760   5.549 -0.0881  0.0565  0.9692
 5795SOL     OW28846   1.685   0.527   7.370 -0.0601  0.7381 -0.2774
 5795SOL    HW128847   1.773   0.491   7.378 -0.7413 -0.2719  2.8806
 5795SOL    HW228848   1.659   0.521   7.462  0.3486  0.7774 -0.1586
 5796SOL     OW28849   3.122   0.069  14.083  0.1879  0.2720 -0.1921
 5796SOL    HW128850   3.195   0.120  14.048  1.6088 -1.8832 -0.3943
 5796SOL    HW228851   3.103   0.110  14.167  2.4165 -2.5220  1.6673
 5797SOL     OW28852   0.745   4.373   0.512  0.9137  0.2466 -0.6370
 5797SOL    HW128853   0.771   4.286   0.482  1.6819  0.4958 -0.7006
 5797SOL    HW228854   0.779   4.361   0.601 -0.4999  1.1201  0.0075
 5798SOL     OW28855   3.913   4.411   2.272 -0.1467  0.3425 -0.6732
 5798SOL    HW128856   3.922   4.328   2.225 -1.4796 -1.4111  2.2084
 5798SOL    HW228857   3.961   4.470   2.213  0.6754  0.3191 -0.0243
 5799SOL     OW28858   0.153   2.512   5.872  0.3376  0.2778  0.1378
 5799SOL    HW128859   0.093   2.567   5.922  2.5463  1.2559  1.7158
 5799SOL    HW228860   0.199   2.578   5.820  0.7732  0.0035  0.1736
 5800SOL     OW28861   3.839   0.511   9.532 -0.5971  0.6143  0.0056
 5800SOL    HW128862   3.908   0.528   9.596 -0.0678  3.9383 -1.4480
 5800SOL    HW228863   3.768   0.506   9.596 -0.0362  0.1078  0.5933
 5801SOL     OW28864   3.918   1.029   2.031  0.7236 -0.3002 -0.1432
 5801SOL    HW128865   3.904   1.109   1.981  2.0989 -1.8092 -2.9804
 5801SOL    HW228866   3.863   1.046   2.107 -3.0686 -2.1842 -2.4655
 5802SOL     OW28867   0.576   4.502   9.017  0.0352  0.2747  0.2296
 5802SOL    HW128868   0.620   4.582   9.046  0.6310  0.1621 -0.3506
 5802SOL    HW228869   0.636   4.474   8.947 -0.2094  3.2218 -1.1321
 5803SOL     OW28870   0.980   3.112  17.579 -0.8985 -0.6079  0.1108
 5803SOL    HW128871   0.889   3.121  17.607 -0.1036  3.6821  1.4255
 5803SOL    HW228872   0.972   3.176  17.508 -1.8530 -2.0868 -1.1089
 5804SOL     OW28873   3.040   4.675   1.478  0.1945  0.4002  0.0105
 5804SOL    HW128874   2.965   4.662   1.537  0.5542  1.2308  0.6459
 5804SOL    HW228875   2.989   4.671   1.397 -1.1357 -0.2108  0.8786
 5805SOL     OW28876   0.062   0.669   4.700  0.0689 -0.3066 -0.3150
 5805SOL    HW128877   0.021   0.692   4.616 -2.5949 -1.2368  0.7235
 5805SOL    HW228878   4.721   0.684   4.768  0.0768 -1.6964  0.0154
 5806SOL     OW28879   2.600   1.880   5.687 -0.6221  0.0007  0.0793
 5806SOL    HW128880   2.614   1.925   5.770  1.2252  0.2916 -0.3887
 5806SOL    HW228881   2.633   1.792   5.709  1.4167  0.7053 -0.1196
 5807SOL     OW28882   2.406   1.440   6.879  0.2908 -0.5731 -0.4128
 5807SOL    HW128883   2.396   1.487   6.962 -1.2993 -0.3118 -0.7506
 5807SOL    HW228884   2.385   1.508   6.815  1.8125  1.3275  1.0914
 5808SOL     OW28885   2.374   0.851   4.787 -0.8746  0.3485  0.5219
 5808SOL    HW128886   2.419   0.907   4.725 -3.0494 -0.9723 -2.2739
 5808SOL    HW228887   2.446   0.830   4.846 -0.4218 -1.9304 -0.8263
 5809SOL     OW28888   3.501   1.424   2.461 -0.2860 -0.4386 -0.0658
 5809SOL    HW128889   3.457   1.479   2.526 -1.0273 -0.4732 -0.5332
 5809SOL    HW228890   3.512   1.490   2.392 -1.7052  1.5646  1.6195
 5810SOL     OW28891   3.798   2.844   4.425 -0.2875 -0.0545 -0.3415
 5810SOL    HW128892   3.768   2.917   4.371 -0.4525 -0.2906 -0.5665
 5810SOL    HW228893   3.732   2.829   4.493  1.1313 -1.9422  0.6119
 5811SOL     OW28894   3.451   2.404   2.143 -0.1466  0.0654 -0.4983
 5811SOL    HW128895   3.428   2.473   2.081  0.7915  0.4943 -0.3659
 5811SOL    HW228896   3.362   2.375   2.162 -0.1098 -0.8610 -1.7714
 5812SOL     OW28897   3.430   3.594   0.328  0.0873  0.1368 -0.1593
 5812SOL    HW128898   3.370   3.527   0.297  0.4547 -1.3779  2.4270
 5812SOL    HW228899   3.475   3.627   0.250 -0.2440  2.1895  0.5101
 5813SOL     OW28900   1.653   0.789   4.188  0.1124  0.0462 -0.0937
 5813SOL    HW128901   1.609   0.756   4.109 -0.6855 -2.6457  1.5082
 5813SOL    HW228902   1.660   0.883   4.169  3.1796  0.1549  1.5695
 5814SOL     OW28903   4.695   2.699  15.219 -0.0450  0.4468 -0.1872
 5814SOL    HW128904   4.648   2.707  15.302 -0.9360 -1.1373 -0.5434
 5814SOL    HW228905   0.035   2.771  15.223 -0.5073  0.8755 -0.5245
 5815SOL     OW28906   0.546   3.972   9.101 -0.0566 -0.1689 -0.4555
 5815SOL    HW128907   0.531   4.066   9.116  0.0298  0.0057 -1.4060
 5815SOL    HW228908   0.510   3.955   9.014 -1.3405 -1.1119  0.2629
 5816SOL     OW28909   0.717   3.999  15.249 -0.3485 -0.1822  0.0167
 5816SOL    HW128910   0.634   4.036  15.280  0.1844  0.0950  1.1290
 5816SOL    HW228911   0.762   4.076  15.217  0.2365 -1.6930 -2.7902
 5817SOL     OW28912   1.126   0.395   2.825 -0.2007  0.1099 -0.3657
 5817SOL    HW128913   1.064   0.322   2.828  0.2870 -0.3863 -2.3913
 5817SOL    HW228914   1.095   0.445   2.749  1.7362  0.9944 -0.5677
 5818SOL     OW28915   1.640   1.615   7.024  0.9462 -0.0427 -0.6405
 5818SOL    HW128916   1.547   1.598   7.006  0.9005  0.1282 -0.5655
 5818SOL    HW228917   1.671   1.657   6.944 -0.5922  0.4408 -0.9795
 5819SOL     OW28918   0.696   3.036   2.056  0.1511 -0.2574  0.0545
 5819SOL    HW128919   0.649   2.988   2.124  1.0893 -2.1558 -0.6465
 5819SOL    HW228920   0.697   2.965   1.993  0.5888  1.9121 -2.3644
 5820SOL     OW28921   1.574   2.706  10.268  0.3386  0.1569  0.0383
 5820SOL    HW128922   1.561   2.630  10.326 -1.7408  0.2193 -0.3575
 5820SOL    HW228923   1.526   2.683  10.188  3.3711  0.1131 -1.7595
 5821SOL     OW28924   1.000   2.025   9.254  0.1395  0.7928 -0.5143
 5821SOL    HW128925   1.053   2.102   9.274  0.1939  0.5441  0.2705
 5821SOL    HW228926   0.932   2.025   9.321 -0.8655  0.0493 -1.5415
 5822SOL     OW28927   4.570   2.067   7.121  0.0595 -0.3794 -0.5938
 5822SOL    HW128928   4.560   2.162   7.113  0.3572 -0.2809  0.1783
 5822SOL    HW228929   4.543   2.035   7.035  1.2297 -0.8154 -0.7991
 5823SOL     OW28930   1.678   4.424  13.360  0.1460 -0.0582  0.2619
 5823SOL    HW128931   1.668   4.332  13.336 -0.9792  0.1579 -0.0787
 5823SOL    HW228932   1.700   4.421  13.453 -1.2762 -1.1197  0.5648
 5824SOL     OW28933   0.020   1.784   6.829 -0.6167 -0.0111  0.6534
 5824SOL    HW128934   4.719   1.777   6.921 -1.2690  0.7407  0.5340
 5824SOL    HW228935   0.113   1.807   6.829 -0.5823 -0.1498  1.7861
 5825SOL     OW28936   3.107   0.721  14.466  0.3493  0.1078 -0.6268
 5825SOL    HW128937   3.060   0.770  14.398  1.4951  1.1930 -0.6198
 5825SOL    HW228938   3.160   0.666  14.409  1.4266 -1.0480  1.4975
 5826SOL     OW28939   3.675   2.720   8.081  0.4332  0.1606 -0.5486
 5826SOL    HW128940   3.663   2.752   8.171  1.5919 -1.2575  0.1267
 5826SOL    HW228941   3.599   2.755   8.035  0.7428 -0.3891 -1.4826
 5827SOL     OW28942   0.328   3.731   2.380 -0.3944  0.3373 -0.2908
 5827SOL    HW128943   0.350   3.729   2.287 -2.9506 -1.6188 -0.8467
 5827SOL    HW228944   0.366   3.817   2.398 -0.2038  0.6433 -2.1465
 5828SOL     OW28945   1.959   2.186   7.535 -0.1830  0.3656  0.5683
 5828SOL    HW128946   1.993   2.204   7.623  2.2796  0.5593 -0.3978
 5828SOL    HW228947   2.017   2.110   7.529  0.2617  0.6672  1.0714
 5829SOL     OW28948   2.814   0.457  10.450 -0.2552  0.0471  0.3163
 5829SOL    HW128949   2.782   0.526  10.392 -2.6134 -1.6700 -0.3840
 5829SOL    HW228950   2.890   0.498  10.492  0.4072 -1.5580  0.6714
 5830SOL     OW28951   3.720   4.476   7.395  0.4232 -0.3923 -0.0136
 5830SOL    HW128952   3.800   4.482   7.448 -0.2810  2.1054  0.7641
 5830SOL    HW228953   3.662   4.450   7.467 -1.8326 -0.7739 -1.9633
 5831SOL     OW28954   2.492   3.179  12.410 -0.2047 -0.5502 -0.1236
 5831SOL    HW128955   2.475   3.269  12.437 -1.5393 -1.1558  1.0388
 5831SOL    HW228956   2.584   3.191  12.435 -0.0253 -0.3506 -0.8715
 5832SOL     OW28957   3.637   1.344   5.547  1.1449  0.1845  0.9432
 5832SOL    HW128958   3.637   1.326   5.641  0.0077 -0.0558  0.8938
 5832SOL    HW228959   3.693   1.421   5.551 -3.0789  3.2314  0.6141
 5833SOL     OW28960   3.311   0.396   6.650 -0.3129 -0.5576 -0.1135
 5833SOL    HW128961   3.394   0.365   6.687  1.2768  2.2266 -1.3554
 5833SOL    HW228962   3.329   0.490   6.652  0.3973 -0.6892 -0.1097
 5834SOL     OW28963   0.019   1.735  17.687 -0.0469  0.4319 -0.2655
 5834SOL    HW128964   4.650   1.754   0.000 -0.0975  1.3504 -2.5970
 5834SOL    HW228965   0.046   1.801  17.623  2.7191  0.6294  1.0828
 5835SOL     OW28966   3.855   3.499   5.572 -0.1596  0.0666 -0.0688
 5835SOL    HW128967   3.946   3.489   5.598 -0.0934 -2.1896 -1.2244
 5835SOL    HW228968   3.814   3.480   5.657  0.6388 -1.5626 -0.0478
 5836SOL     OW28969   3.657   1.871   7.506 -0.1834 -0.6271 -0.0705
 5836SOL    HW128970   3.618   1.872   7.593  1.3564  2.6036  0.5823
 5836SOL    HW228971   3.587   1.914   7.456  0.8970  1.8022  0.4905
 5837SOL     OW28972   2.591   1.711  11.475 -0.2629  0.2501 -0.4190
 5837SOL    HW128973   2.570   1.704  11.569  1.7188  0.6025  0.0506
 5837SOL    HW228974   2.598   1.806  11.467 -0.0569  0.0935 -2.0091
 5838SOL     OW28975   2.295   1.883   7.984 -0.1954 -0.0942 -0.0070
 5838SOL    HW128976   2.313   1.809   7.926 -2.7303 -0.4462 -0.3403
 5838SOL    HW228977   2.378   1.930   7.976  1.0289 -2.0265  1.5055
 5839SOL     OW28978   3.236   0.229   7.860  0.3608  1.2813 -0.1277
 5839SOL    HW128979   3.312   0.205   7.806  0.0121  1.3743 -0.6613
 5839SOL    HW228980   3.167   0.207   7.797 -0.1179  0.6319  0.6340
 5840SOL     OW28981   4.495   2.069   3.666 -0.1146  0.2461 -0.0585
 5840SOL    HW128982   4.547   2.141   3.702  0.7423 -1.4266  2.0242
 5840SOL    HW228983   4.445   2.113   3.597  0.1608  0.1886 -0.2936
 5841SOL     OW28984   2.998   4.138   9.040  0.5324  0.2149 -0.2293
 5841SOL    HW128985   2.989   4.229   9.009  3.5724  0.2341 -1.0105
 5841SOL    HW228986   3.049   4.152   9.120 -1.4772 -0.3517  1.1442
 5842SOL     OW28987   2.284   0.067  13.470 -0.0074  0.2406 -0.3342
 5842SOL    HW128988   2.316   0.075  13.380  0.8714  1.8559  0.1225
 5842SOL    HW228989   2.356   0.112  13.513  1.0439 -2.2021  0.4299
 5843SOL     OW28990   4.286   3.953   2.152 -0.2667  0.6495  0.4043
 5843SOL    HW128991   4.316   4.043   2.147  1.4834  0.2433  3.4389
 5843SOL    HW228992   4.369   3.917   2.185  0.2609 -0.5958 -2.3249
 5844SOL     OW28993   1.905   1.039   2.514 -0.2009  0.7077 -0.9938
 5844SOL    HW128994   1.951   1.004   2.438 -1.4091 -0.7455 -1.0296
 5844SOL    HW228995   1.976   1.032   2.578 -0.3304 -1.1866 -1.0537
 5845SOL     OW28996   1.996   1.737   3.404  0.1233 -0.6028 -0.4134
 5845SOL    HW128997   1.965   1.783   3.482 -2.0433 -2.8706  0.0541
 5845SOL    HW228998   2.024   1.652   3.438  0.2527 -0.9254 -1.3279
 5846SOL     OW28999   4.316   0.763   7.971 -0.3341 -0.3408 -0.1557
 5846SOL    HW129000   4.332   0.688   8.029  1.7476  0.5985  0.5138
 5846SOL    HW229001   4.402   0.762   7.929 -0.3112  2.5632 -0.1560
 5847SOL     OW29002   0.398   2.440  14.855 -0.2121 -0.1187  0.0057
 5847SOL    HW129003   0.460   2.497  14.811 -1.2753 -1.5878 -3.4256
 5847SOL    HW229004   0.466   2.405  14.913 -1.5085 -0.2306  1.4683
 5848SOL     OW29005   2.639   0.424   3.852 -0.1965 -0.2118  0.3362
 5848SOL    HW129006   2.555   0.382   3.870  0.8995 -0.8106  4.1626
 5848SOL    HW229007   2.634   0.477   3.932  0.6071  0.5564 -0.1144
 5849SOL     OW29008   2.087   1.567  11.131  0.7128 -0.7103  0.0735
 5849SOL    HW129009   2.114   1.535  11.217  1.1249 -1.4491 -0.3260
 5849SOL    HW229010   2.084   1.481  11.088 -0.8943 -0.8484  0.4546
 5850SOL     OW29011   4.077   0.796  14.244  0.2179 -0.0577 -0.1910
 5850SOL    HW129012   4.083   0.776  14.151 -1.2530  0.9089 -0.4904
 5850SOL    HW229013   3.997   0.850  14.242  0.6078  0.4500 -1.8836
 5851SOL     OW29014   3.561   2.930   1.928 -0.3512 -0.1759  0.2634
 5851SOL    HW129015   3.471   2.946   1.901 -0.3545 -0.7071 -0.0264
 5851SOL    HW229016   3.550   2.986   2.005  0.4624  1.0939 -0.5311
 5852SOL     OW29017   4.161   1.700   1.279  0.2839 -0.1798 -0.3141
 5852SOL    HW129018   4.153   1.705   1.374  2.0809 -0.8421 -0.1172
 5852SOL    HW229019   4.190   1.609   1.278 -0.2798 -0.3260 -2.9166
 5853SOL     OW29020   2.644   1.213  15.656  0.4226 -0.7593 -0.0425
 5853SOL    HW129021   2.600   1.162  15.724  0.7730  0.4444  1.0857
 5853SOL    HW229022   2.562   1.245  15.617  0.6899 -0.1486 -0.1050
 5854SOL     OW29023   3.220   0.770   0.906 -0.5456  0.1231 -0.4592
 5854SOL    HW129024   3.305   0.728   0.892 -0.1822  0.3119  1.1257
 5854SOL    HW229025   3.250   0.843   0.961 -1.4144  0.8717 -0.9874
 5855SOL     OW29026   2.354   3.035   8.541 -0.2708  0.1652 -0.4170
 5855SOL    HW129027   2.334   2.950   8.502 -3.3800  1.6154 -1.9564
 5855SOL    HW229028   2.267   3.076   8.542  0.9138  2.7014  1.1788
 5856SOL     OW29029   0.738   0.531   8.096 -0.2865  0.1271 -0.0631
 5856SOL    HW129030   0.798   0.594   8.136 -0.7624  0.0758  0.7369
 5856SOL    HW229031   0.805   0.463   8.091 -1.1034 -0.7970  1.4186
 5857SOL     OW29032   2.782   3.011   4.997  0.0602  0.4736  0.0257
 5857SOL    HW129033   2.842   3.083   5.014 -0.1376  0.9020 -1.0856
 5857SOL    HW229034   2.777   2.972   5.084  1.1908  0.2256 -0.0258
 5858SOL     OW29035   2.571   2.358   4.589  0.3699 -0.4417  0.3386
 5858SOL    HW129036   2.534   2.346   4.502 -1.1940 -0.0128  0.9353
 5858SOL    HW229037   2.538   2.278   4.631 -1.2225  0.9010  1.6426
 5859SOL     OW29038   3.336   1.722   3.541  0.2410  0.6005 -0.7859
 5859SOL    HW129039   3.255   1.704   3.590  0.4886  1.3267 -0.1063
 5859SOL    HW229040   3.403   1.705   3.606 -1.6140 -1.5932  0.5686
 5860SOL     OW29041   0.327   3.773   5.165  0.1677 -0.1842 -0.4082
 5860SOL    HW129042   0.250   3.762   5.222  0.9902 -1.6053  0.4177
 5860SOL    HW229043   0.357   3.857   5.199 -1.1280  0.3531 -0.5944
 5861SOL     OW29044   4.615   1.978   4.890 -0.3955  0.1623  0.0621
 5861SOL    HW129045   4.534   1.933   4.863 -0.2436  0.1407 -0.3652
 5861SOL    HW229046   4.666   1.897   4.883 -0.0222  0.5002 -1.0476
 5862SOL     OW29047   4.167   4.661   6.503  0.2392 -0.1530 -0.2282
 5862SOL    HW129048   4.093   4.620   6.548 -0.3520  0.8188 -0.2964
 5862SOL    HW229049   4.230   4.669   6.574  0.5655  0.1342 -0.5491
 5863SOL     OW29050   3.149   1.172   6.881 -0.1482  0.0823 -0.3550
 5863SOL    HW129051   3.165   1.266   6.888  0.4717 -0.0697  0.2221
 5863SOL    HW229052   3.225   1.145   6.831 -0.1577 -0.1491 -0.2446
 5864SOL     OW29053   0.402   0.316   7.423 -0.2991  1.1549  0.6447
 5864SOL    HW129054   0.322   0.304   7.372 -0.1413 -1.8932  1.1598
 5864SOL    HW229055   0.455   0.254   7.373 -0.7079  1.3934 -0.0916
 5865SOL     OW29056   1.910   2.538  17.407 -0.3170 -0.1378 -0.2567
 5865SOL    HW129057   1.976   2.608  17.407 -0.8828  0.3969 -1.4434
 5865SOL    HW229058   1.967   2.464  17.389  0.5643  0.9336 -1.8647
 5866SOL     OW29059   1.153   1.655   0.549  0.7605  0.1419  0.0601
 5866SOL    HW129060   1.086   1.721   0.566  0.5043 -0.4614  1.3896
 5866SOL    HW229061   1.133   1.622   0.461 -2.2968  0.5015  0.6376
 5867SOL     OW29062   3.997   3.853  15.060 -0.3207  0.5564 -0.5628
 5867SOL    HW129063   4.089   3.825  15.065 -0.5433  0.1142  0.8778
 5867SOL    HW229064   3.949   3.793  15.116  0.7421  0.1536 -0.0909
 5868SOL     OW29065   3.697   2.122  15.055 -0.5809 -0.0579 -0.3305
 5868SOL    HW129066   3.665   2.033  15.066 -0.5356 -0.2901 -2.1156
 5868SOL    HW229067   3.742   2.104  14.973  2.6005  0.5091  1.2756
 5869SOL     OW29068   1.052   1.235  14.846 -0.5413 -0.0552 -0.0340
 5869SOL    HW129069   1.076   1.227  14.938  0.0464 -0.4081 -0.2162
 5869SOL    HW229070   0.982   1.171  14.837 -0.0677 -0.2485 -2.3117
 5870SOL     OW29071   4.047   2.493  10.173 -0.0923  0.2523  0.5974
 5870SOL    HW129072   3.981   2.435  10.135 -1.7104  1.2175  1.9278
 5870SOL    HW229073   4.128   2.468  10.130 -0.7585 -1.6800  0.4314
 5871SOL     OW29074   0.200   1.632   1.411 -0.5675  0.0436  0.6151
 5871SOL    HW129075   0.114   1.618   1.371  0.2397  0.8613 -1.4167
 5871SOL    HW229076   0.241   1.698   1.355 -0.8566 -0.1734  0.1435
 5872SOL     OW29077   0.771   3.681   0.628 -0.0717  0.0529  0.2451
 5872SOL    HW129078   0.728   3.629   0.696  0.5269 -1.3994 -0.4740
 5872SOL    HW229079   0.859   3.695   0.664  0.6049  1.5272 -1.9935
 5873SOL     OW29080   0.508   0.704  16.679 -0.3064  0.3208 -0.1235
 5873SOL    HW129081   0.561   0.627  16.700 -2.1842 -0.3916  1.9277
 5873SOL    HW229082   0.571   0.744  16.619 -1.2535 -0.0049 -1.3595
 5874SOL     OW29083   3.743   4.372   9.420  0.1089 -0.0489  0.1863
 5874SOL    HW129084   3.712   4.446   9.367  0.7705 -0.9793 -1.4821
 5874SOL    HW229085   3.814   4.338   9.366 -0.7160  0.0609 -0.9647
 5875SOL     OW29086   3.183   3.584   6.549 -0.0626  0.0807 -0.1767
 5875SOL    HW129087   3.194   3.652   6.482 -1.6521 -1.3433 -1.9089
 5875SOL    HW229088   3.235   3.510   6.517 -1.1495 -0.1129 -1.4983
 5876SOL     OW29089   4.245   1.059   5.627  0.3428 -0.0045 -0.0001
 5876SOL    HW129090   4.319   1.110   5.594  0.2951  0.1199  0.0865
 5876SOL    HW229091   4.189   1.134   5.645 -1.8740 -1.0364 -2.7256
 5877SOL     OW29092   2.973   0.312   3.088  0.3876 -0.4123  0.2320
 5877SOL    HW129093   3.011   0.326   3.175  1.2240  1.5463 -0.4277
 5877SOL    HW229094   3.031   0.369   3.036  0.2712  0.5657  1.1762
 5878SOL     OW29095   3.004   3.816  13.862 -0.3990 -0.1143  0.0901
 5878SOL    HW129096   2.971   3.901  13.890  1.2671  0.3398  0.6628
 5878SOL    HW229097   2.951   3.749  13.906  0.0055 -0.3427  0.2308
 5879SOL     OW29098   1.669   3.944  12.069  0.0181  0.1667  0.0333
 5879SOL    HW129099   1.754   3.901  12.071 -0.7541 -1.3781  0.3066
 5879SOL    HW229100   1.608   3.879  12.104 -0.1734 -0.0544 -0.6912
 5880SOL     OW29101   2.888   3.255   5.061 -0.1706 -0.4145 -0.3221
 5880SOL    HW129102   2.817   3.319   5.064 -0.6230 -0.9407  0.1297
 5880SOL    HW229103   2.942   3.278   5.136  0.9332 -0.9486 -0.9501
 5881SOL     OW29104   4.247   4.603   7.687 -0.4531  0.2002  0.3199
 5881SOL    HW129105   4.244   4.508   7.697  1.5918 -0.1076 -1.9443
 5881SOL    HW229106   4.315   4.604   7.619 -0.1706 -1.2131  0.5701
 5882SOL     OW29107   4.310   0.954   1.760 -0.2593  0.0887 -0.6382
 5882SOL    HW129108   4.231   1.008   1.748 -2.5915 -2.8228  1.6040
 5882SOL    HW229109   4.280   0.866   1.738 -0.1094  0.4972 -2.5478
 5883SOL     OW29110   4.290   1.674   8.974  0.1622  0.3260  0.0362
 5883SOL    HW129111   4.374   1.716   8.992  0.7426 -0.4371 -0.8995
 5883SOL    HW229112   4.309   1.580   8.979  1.5114  0.5540 -0.7712
 5884SOL     OW29113   2.790   0.431   4.798  0.0363 -0.4563  0.3245
 5884SOL    HW129114   2.864   0.454   4.854 -1.2859  0.8815  1.5113
 5884SOL    HW229115   2.769   0.521   4.773  2.2573  0.3517  1.3159
 5885SOL     OW29116   1.827   1.777  15.791  0.5174 -0.3365  0.1005
 5885SOL    HW129117   1.777   1.855  15.813 -0.0202 -0.7892  0.4913
 5885SOL    HW229118   1.759   1.725  15.748 -1.2675  1.8178  0.3476
 5886SOL     OW29119   2.143   0.680   8.822 -0.3964 -0.0336  0.2085
 5886SOL    HW129120   2.178   0.592   8.831  0.8819  0.5793  1.3479
 5886SOL    HW229121   2.050   0.670   8.845 -0.5289  0.2508 -0.2057
 5887SOL     OW29122   1.980   3.252   2.394 -0.3132 -0.2813  0.9455
 5887SOL    HW129123   2.023   3.221   2.314 -0.4770  3.1708 -0.4919
 5887SOL    HW229124   1.963   3.169   2.438 -1.7367 -1.0540 -1.0384
 5888SOL     OW29125   1.018   2.373   3.249 -0.1404 -0.4373  0.8607
 5888SOL    HW129126   1.045   2.363   3.341  1.6907 -0.5861  0.3201
 5888SOL    HW229127   1.100   2.343   3.208 -0.7061  0.4669 -0.9101
 5889SOL     OW29128   4.041   2.008   5.627 -0.6178 -0.3225  0.2197
 5889SOL    HW129129   4.083   2.036   5.708 -2.1289  1.6572  0.3301
 5889SOL    HW229130   4.114   2.015   5.566 -0.1863 -1.2154  0.6351
 5890SOL     OW29131   4.694   1.444   1.762  0.1794 -0.0544 -0.4229
 5890SOL    HW129132   4.663   1.497   1.689  0.8360  1.2095  0.2265
 5890SOL    HW229133   4.718   1.359   1.724  0.2092  0.3536 -1.3191
 5891SOL     OW29134   0.566   0.714   3.054  0.5397 -0.3485 -0.1868
 5891SOL    HW129135   0.586   0.675   2.968 -1.4526 -0.5045 -0.5834
 5891SOL    HW229136   0.558   0.635   3.107  0.3629 -0.0379  0.2524
 5892SOL     OW29137   0.627   3.752   4.738  0.3201  0.1982  0.6074
 5892SOL    HW129138   0.565   3.798   4.680  0.1074  1.2921  1.7050
 5892SOL    HW229139   0.665   3.834   4.770  1.5484  0.3234 -1.1602
 5893SOL     OW29140   1.772   1.892   4.082  0.0828  0.6042 -0.5791
 5893SOL    HW129141   1.683   1.878   4.114  0.1043 -2.5369 -1.9318
 5893SOL    HW229142   1.751   1.855   3.996  0.5931  0.3319 -0.5843
 5894SOL     OW29143   2.103   4.236   8.140 -0.2524  0.2063  0.2055
 5894SOL    HW129144   2.070   4.296   8.207 -1.6391  0.0754 -0.3594
 5894SOL    HW229145   2.156   4.172   8.187  0.0680  0.2889 -0.0452
 5895SOL     OW29146   3.904   2.651  15.674  0.1374 -0.5560 -0.2482
 5895SOL    HW129147   3.924   2.685  15.587  0.1812 -1.5030 -0.6178
 5895SOL    HW229148   3.947   2.565  15.675  1.9349  0.3432  0.6442
 5896SOL     OW29149   4.051   0.360   7.630 -0.1496  0.4077  0.2535
 5896SOL    HW129150   4.061   0.319   7.716  1.0303 -0.5481 -0.3590
 5896SOL    HW229151   4.088   0.448   7.637  0.6353  0.0661  0.3481
 5897SOL     OW29152   3.578   4.342   5.640 -0.4758 -0.2053  0.8935
 5897SOL    HW129153   3.538   4.409   5.585  0.3782 -0.1116  0.3814
 5897SOL    HW229154   3.540   4.264   5.601  0.2346 -0.4396  0.6707
 5898SOL     OW29155   3.800   3.311  16.950  0.2957  0.0592 -0.0030
 5898SOL    HW129156   3.721   3.265  16.978  0.1208 -1.0151 -2.2203
 5898SOL    HW229157   3.853   3.303  17.029 -2.0970 -3.1223  1.2715
 5899SOL     OW29158   1.014   1.280  16.742 -0.1763  0.4436 -0.1256
 5899SOL    HW129159   1.035   1.336  16.816 -1.4066  0.3300  0.3043
 5899SOL    HW229160   0.930   1.251  16.777 -0.3100  0.2035 -0.6461
 5900SOL     OW29161   4.339   3.066  17.434  0.3127 -0.3278 -0.0444
 5900SOL    HW129162   4.318   3.158  17.423 -1.3426 -0.4804  1.7862
 5900SOL    HW229163   4.411   3.065  17.371 -0.3028  0.1881 -0.7497
 5901SOL     OW29164   3.550   3.569   4.767  0.4598  0.1183  0.0211
 5901SOL    HW129165   3.552   3.650   4.716  1.3720  0.3297  0.3927
 5901SOL    HW229166   3.459   3.562   4.797  0.2921 -0.1619 -0.5599
 5902SOL     OW29167   4.064   2.035   2.911  0.6924 -0.0727  0.1422
 5902SOL    HW129168   4.159   2.042   2.918  0.5719  1.3477  0.2009
 5902SOL    HW229169   4.048   2.030   2.816 -0.9061  0.8708  0.3676
 5903SOL     OW29170   3.833   0.953   1.691  0.2130  0.0099  0.6521
 5903SOL    HW129171   3.773   1.026   1.706  1.6448  1.4166 -0.4566
 5903SOL    HW229172   3.888   0.955   1.769 -2.5115 -0.5382  2.6286
 5904SOL     OW29173   0.830   3.055   8.609 -0.2754  0.4501  0.0174
 5904SOL    HW129174   0.787   3.137   8.586 -0.8527 -0.1065 -0.8643
 5904SOL    HW229175   0.826   3.007   8.526  2.6642  0.7743 -0.3203
 5905SOL     OW29176   4.483   3.374   3.626 -0.2403 -0.0576  0.2786
 5905SOL    HW129177   4.404   3.405   3.670 -0.7395 -0.7294 -0.1364
 5905SOL    HW229178   4.439   3.329   3.553  0.4732  0.9713 -0.7772
 5906SOL     OW29179   3.709   3.241   7.121 -0.0769  0.1316 -0.2756
 5906SOL    HW129180   3.685   3.246   7.028 -0.5584  0.6143 -0.1261
 5906SOL    HW229181   3.636   3.280   7.168  1.4098  2.4365  0.1312
 5907SOL     OW29182   2.785   3.850   2.703 -0.2284  0.4973 -0.5703
 5907SOL    HW129183   2.769   3.843   2.609 -1.6053  3.0577 -0.5269
 5907SOL    HW229184   2.823   3.764   2.719 -1.1910  0.7235  2.8361
 5908SOL     OW29185   3.416   2.260   2.526 -0.0269  0.1828  0.3514
 5908SOL    HW129186   3.332   2.234   2.488 -1.1238  3.3280  0.5946
 5908SOL    HW229187   3.392   2.257   2.619 -1.2037 -0.6702  0.0207
 5909SOL     OW29188   0.736   1.985   5.008  0.1379 -0.5931 -0.2821
 5909SOL    HW129189   0.764   2.076   5.018 -0.9528 -0.2247 -0.5391
 5909SOL    HW229190   0.804   1.957   4.948  1.2971  1.4914  0.0758
 5910SOL     OW29191   4.463   2.019  17.535 -0.2434  0.3155 -0.4990
 5910SOL    HW129192   4.502   2.090  17.585 -0.6192 -0.2664  0.6067
 5910SOL    HW229193   4.378   2.054  17.508 -0.6039  0.3034  0.6197
 5911SOL     OW29194   4.631   2.661   1.321  0.3275  0.0649 -0.3956
 5911SOL    HW129195   4.719   2.698   1.331 -0.7716  1.5499  3.7620
 5911SOL    HW229196   4.590   2.722   1.259 -0.4816 -1.4888 -1.3914
 5912SOL     OW29197   4.268   1.067   7.996  0.2891  0.4115  0.0494
 5912SOL    HW129198   4.299   0.992   7.945  1.4974  1.2061 -0.3784
 5912SOL    HW229199   4.245   1.023   8.078  0.2728  1.2434  0.4879
 5913SOL     OW29200   4.158   4.411   8.155 -0.1080 -0.0835  0.0514
 5913SOL    HW129201   4.128   4.501   8.163  0.4107  0.0599  0.3769
 5913SOL    HW229202   4.075   4.369   8.134 -0.7520  1.5836 -0.7299
 5914SOL     OW29203   2.485   1.835   3.529 -0.1254 -0.1431 -0.2143
 5914SOL    HW129204   2.539   1.908   3.497  0.8165  0.3992  2.6277
 5914SOL    HW229205   2.550   1.784   3.577 -1.7700  0.5982  2.8059
 5915SOL     OW29206   1.341   1.311   4.338 -0.1281 -0.6720 -0.1425
 5915SOL    HW129207   1.408   1.298   4.272  0.7113  1.4018  0.3030
 5915SOL    HW229208   1.306   1.222   4.348  2.3232 -1.5589  0.6709
 5916SOL     OW29209   4.164   3.945   8.200 -0.0128 -0.0957 -1.0412
 5916SOL    HW129210   4.237   4.006   8.210 -0.5270  0.8518 -3.0764
 5916SOL    HW229211   4.099   3.989   8.255  0.2414  1.2359 -1.8087
 5917SOL     OW29212   1.601   2.047   7.671 -0.0288 -0.3283  0.2723
 5917SOL    HW129213   1.530   2.060   7.608  2.1652  1.0960 -1.9302
 5917SOL    HW229214   1.635   2.134   7.689  1.3834 -0.6614 -0.7926
 5918SOL     OW29215   1.536   2.695   6.991 -0.2927  0.0420  0.0125
 5918SOL    HW129216   1.603   2.677   7.057  0.4787  0.2903 -0.6992
 5918SOL    HW229217   1.477   2.754   7.038 -0.9003 -0.7574  0.2545
 5919SOL     OW29218   1.758   2.629   2.848  0.2267  0.0843 -0.4907
 5919SOL    HW129219   1.761   2.539   2.813 -2.3624 -0.3708  0.4466
 5919SOL    HW229220   1.842   2.629   2.893  0.7070 -0.1209 -1.3731
 5920SOL     OW29221   1.379   0.499   7.804 -0.0879  0.4397  0.2607
 5920SOL    HW129222   1.359   0.590   7.785 -0.9773  0.0333 -0.6789
 5920SOL    HW229223   1.421   0.505   7.890  0.2412  1.7511 -0.0026
 5921SOL     OW29224   2.451   4.387  10.305 -0.5019 -0.3283  0.2456
 5921SOL    HW129225   2.388   4.436  10.253 -1.1439 -3.3411 -1.7864
 5921SOL    HW229226   2.413   4.388  10.393 -0.3492  1.8743  0.3026
 5922SOL     OW29227   3.760   0.433   0.141  0.4302  0.0530  0.4506
 5922SOL    HW129228   3.748   0.506   0.080 -0.2294 -0.6342 -0.2362
 5922SOL    HW229229   3.719   0.467   0.221  1.3376  0.4887  0.7419
 5923SOL     OW29230   4.333   0.833   4.744 -0.7238  0.1331 -0.1461
 5923SOL    HW129231   4.367   0.749   4.711 -0.1196  0.1886  0.3506
 5923SOL    HW229232   4.358   0.894   4.674  0.7956 -2.2901 -1.7321
 5924SOL     OW29233   2.569   1.481   9.491 -0.4120 -0.0321 -0.0954
 5924SOL    HW129234   2.636   1.547   9.509  0.0693 -0.4098 -0.5020
 5924SOL    HW229235   2.507   1.501   9.560  0.0582 -0.4402  0.4467
 5925SOL     OW29236   3.726   0.790   8.713  0.0097 -0.3920  0.1981
 5925SOL    HW129237   3.768   0.864   8.670 -0.3261 -0.5462 -0.4016
 5925SOL    HW229238   3.740   0.804   8.806  3.5231  1.0931 -0.5698
 5926SOL     OW29239   1.505   1.926  13.833 -0.3341  0.2477 -0.1098
 5926SOL    HW129240   1.583   1.939  13.778 -1.2361 -1.1192 -1.7288
 5926SOL    HW229241   1.512   1.834  13.860 -0.6385  0.1859 -0.2499
 5927SOL     OW29242   1.457   1.263   5.901 -0.4421  0.5300  0.5654
 5927SOL    HW129243   1.374   1.297   5.867 -0.3252  1.4330  1.2005
 5927SOL    HW229244   1.496   1.226   5.822 -1.0639 -1.2449  1.0972
 5928SOL     OW29245   0.818   1.228  16.935 -0.0504  0.2938  0.3464
 5928SOL    HW129246   0.726   1.207  16.947 -0.6585  2.9498  0.3011
 5928SOL    HW229247   0.843   1.284  17.009 -0.4879  1.0966 -0.1187
 5929SOL     OW29248   2.522   3.202   3.077  0.6404  0.5099 -0.3475
 5929SOL    HW129249   2.539   3.108   3.067 -1.0590  0.3859 -2.0019
 5929SOL    HW229250   2.557   3.240   2.997  0.8480  1.3597  0.1486
 5930SOL     OW29251   2.695   4.470   8.366 -0.0588 -0.4380  0.1703
 5930SOL    HW129252   2.628   4.514   8.315 -0.6516 -0.9229  0.5203
 5930SOL    HW229253   2.779   4.496   8.330  0.7130 -2.4607  0.5041
 5931SOL     OW29254   0.183   4.403   8.600 -0.1204  0.6415  0.4854
 5931SOL    HW129255   0.247   4.475   8.594  0.4621 -0.1424 -3.1748
 5931SOL    HW229256   0.156   4.422   8.689 -3.0541  0.6694 -0.4286
 5932SOL     OW29257   3.328   4.685   4.446 -0.5546  0.6184 -0.2330
 5932SOL    HW129258   3.243   4.711   4.409 -0.3536  1.3964 -0.1310
 5932SOL    HW229259   3.382   0.007   4.383 -2.1815  1.1479 -1.2495
 5933SOL     OW29260   1.177   3.244  16.637 -0.0383 -0.3349 -0.3812
 5933SOL    HW129261   1.178   3.207  16.725  1.8071  1.2841  0.2694
 5933SOL    HW229262   1.247   3.308  16.645 -0.3584 -0.0037 -0.2304
 5934SOL     OW29263   4.435   3.030   2.552  0.1137  0.6416  0.1670
 5934SOL    HW129264   4.478   3.099   2.603  1.4204  0.4468 -0.6637
 5934SOL    HW229265   4.411   3.084   2.477 -1.2062  0.0507  0.1685
 5935SOL     OW29266   3.546   1.172   8.248 -0.1679  0.0320  0.0553
 5935SOL    HW129267   3.521   1.263   8.265 -1.4826 -0.6371  1.6707
 5935SOL    HW229268   3.640   1.179   8.233 -0.0818 -1.2654  0.0234
 5936SOL     OW29269   2.865   4.256   3.722  0.0413 -0.5215 -0.1119
 5936SOL    HW129270   2.932   4.315   3.686 -0.5647  1.5713  2.1751
 5936SOL    HW229271   2.827   4.319   3.783  0.4027 -0.0019 -0.4116
 5937SOL     OW29272   1.835   0.912   2.851  0.3817 -0.2159  0.2064
 5937SOL    HW129273   1.880   0.975   2.794  0.7474 -0.5845  0.0940
 5937SOL    HW229274   1.903   0.887   2.913  0.9261  1.6848  0.3666
 5938SOL     OW29275   1.661   1.940   3.288  0.0982 -0.0715 -0.7180
 5938SOL    HW129276   1.747   1.973   3.260  0.3339 -0.3473 -0.3212
 5938SOL    HW229277   1.678   1.851   3.319 -0.2586 -0.7395 -2.4552
 5939SOL     OW29278   2.119   4.646  10.703  0.5488 -0.4261  0.5891
 5939SOL    HW129279   2.102   0.013  10.728 -0.6366 -0.3117 -0.6485
 5939SOL    HW229280   2.073   4.597  10.771 -1.6990  0.5174 -0.2607
 5940SOL     OW29281   3.442   2.335   6.024  0.5278  0.1226  0.1974
 5940SOL    HW129282   3.409   2.357   5.936  1.4280  0.8377  0.0427
 5940SOL    HW229283   3.503   2.405   6.044  0.7099  0.1985 -0.6229
 5941SOL     OW29284   0.295   1.291  16.086 -0.3738 -0.5583  0.2919
 5941SOL    HW129285   0.298   1.328  15.997  0.6204 -0.0438  0.5457
 5941SOL    HW229286   0.331   1.365  16.134  0.0449  0.1830 -1.1712
 5942SOL     OW29287   4.576   4.620   6.770 -0.0743  0.5231 -0.3728
 5942SOL    HW129288   4.646   4.638   6.833  1.7782 -1.9757 -1.7180
 5942SOL    HW229289   4.555   4.526   6.774  0.3480  0.4041 -0.8568
 5943SOL     OW29290   2.674   1.271   8.017  0.3873 -0.0246 -0.1199
 5943SOL    HW129291   2.653   1.357   8.052  1.4998  0.1665  0.0766
 5943SOL    HW229292   2.679   1.295   7.925  1.1163  0.9877  0.1793
 5944SOL     OW29293   2.707   3.212  11.422 -0.1039  0.5469  0.4787
 5944SOL    HW129294   2.737   3.133  11.468  1.9896  1.0274 -0.0867
 5944SOL    HW229295   2.621   3.189  11.386  0.2530  1.2262 -0.7730
 5945SOL     OW29296   3.680   1.085   0.968 -0.1876 -0.7491 -0.0706
 5945SOL    HW129297   3.734   1.134   0.906  0.4762  0.6850  1.6140
 5945SOL    HW229298   3.607   1.075   0.908 -0.4710 -0.5105  0.2330
 5946SOL     OW29299   1.452   0.361   9.417  0.6380  0.4216  0.6477
 5946SOL    HW129300   1.425   0.424   9.484 -2.0836  0.6829 -0.7065
 5946SOL    HW229301   1.432   0.405   9.334  0.3683 -0.1035  0.4357
 5947SOL     OW29302   4.626   0.109   0.978 -0.2600  0.5965 -0.3492
 5947SOL    HW129303   4.584   0.143   0.899 -1.0957  3.0064  1.1363
 5947SOL    HW229304   4.699   0.069   0.932 -0.6440  0.5497 -0.9084
 5948SOL     OW29305   1.178   0.399   6.970  0.2928  0.3422 -0.2937
 5948SOL    HW129306   1.099   0.419   7.021  0.1206 -3.9777  1.1210
 5948SOL    HW229307   1.132   0.376   6.889 -2.5242  1.2255  1.0739
 5949SOL     OW29308   4.022   3.173   5.051 -0.0750 -0.2874 -0.3988
 5949SOL    HW129309   3.976   3.244   5.097  1.2261  0.0041  0.4579
 5949SOL    HW229310   3.984   3.177   4.964  1.4644 -1.3768 -1.1308
 5950SOL     OW29311   2.946   0.928  13.493  0.4477 -0.4408 -0.5991
 5950SOL    HW129312   2.935   0.961  13.582 -0.3317 -0.2289 -0.7749
 5950SOL    HW229313   2.944   0.833  13.505 -0.5299 -0.2192  0.9769
 5951SOL     OW29314   1.611   0.034  14.223  0.2123  0.2553 -0.1937
 5951SOL    HW129315   1.519   0.015  14.239  0.0148  2.1430  0.9954
 5951SOL    HW229316   1.610   0.130  14.230 -2.0872  0.2186 -0.0317
 5952SOL     OW29317   0.769   1.823  14.200  0.5978 -0.6739 -0.3117
 5952SOL    HW129318   0.674   1.825  14.188  0.6570  0.6660 -0.5425
 5952SOL    HW229319   0.784   1.729  14.188  1.4683 -0.2416 -2.5542
 5953SOL     OW29320   2.188   0.364   9.840  0.5402 -0.1289 -0.0081
 5953SOL    HW129321   2.227   0.449   9.822  1.7660  0.0703  3.4891
 5953SOL    HW229322   2.121   0.355   9.772 -0.4726  0.3916  0.9095
 5954SOL     OW29323   3.499   1.952   8.461  0.0388 -0.1440 -0.2354
 5954SOL    HW129324   3.540   1.979   8.379 -0.3458  0.0158 -0.3757
 5954SOL    HW229325   3.567   1.990   8.516 -0.5504  0.7780 -0.1363
 5955SOL     OW29326   1.129   0.227  11.163 -0.1324  0.5786 -0.2543
 5955SOL    HW129327   1.138   0.287  11.089 -0.7818  2.4194  1.1564
 5955SOL    HW229328   1.065   0.171  11.120  0.0539  0.7804 -0.7864
 5956SOL     OW29329   2.900   1.702   5.491 -0.4195 -0.3210  0.1434
 5956SOL    HW129330   2.898   1.725   5.584 -2.8208  1.1011 -0.2781
 5956SOL    HW229331   2.986   1.728   5.457 -0.9108  0.4781 -0.4829
 5957SOL     OW29332   2.134   1.558  16.319 -0.4390 -0.5902 -0.3994
 5957SOL    HW129333   2.163   1.604  16.240  1.1590 -1.9321 -0.5936
 5957SOL    HW229334   2.040   1.547  16.301 -0.2326  2.4617 -3.2574
 5958SOL     OW29335   3.418   4.532   6.161  0.7474  0.5507  0.0188
 5958SOL    HW129336   3.393   4.482   6.083  1.7911 -1.9602  1.2922
 5958SOL    HW229337   3.345   4.591   6.178 -1.2758 -1.7954 -0.5174
 5959SOL     OW29338   4.676   2.591   2.375 -0.0131 -0.1987 -0.1651
 5959SOL    HW129339   4.587   2.556   2.368 -0.1320 -0.2373  1.4550
 5959SOL    HW229340   4.666   2.654   2.447  1.4494 -0.4899  0.2898
 5960SOL     OW29341   4.232   3.781   3.367  0.2282 -0.0546 -0.0861
 5960SOL    HW129342   4.301   3.838   3.333  0.8141 -0.3895  0.5509
 5960SOL    HW229343   4.233   3.697   3.322  0.0273  0.3397 -0.8211
 5961SOL     OW29344   0.436   0.815   7.786  0.2666  0.0811 -0.1729
 5961SOL    HW129345   0.374   0.754   7.823  1.3307 -1.6287 -1.2195
 5961SOL    HW229346   0.373   0.885   7.768  0.7037  0.0528 -1.8207
 5962SOL     OW29347   3.101   1.844  15.262  0.6246 -0.2657  0.1829
 5962SOL    HW129348   3.107   1.860  15.356  0.2892 -0.3190  0.2147
 5962SOL    HW229349   3.182   1.796  15.246  0.5874  0.0329 -0.9512
 5963SOL     OW29350   1.366   4.110  12.793  0.0102  0.3347  0.3189
 5963SOL    HW129351   1.390   4.091  12.702 -2.0209  0.2540 -0.1982
 5963SOL    HW229352   1.449   4.150  12.818  1.3440 -0.9390 -2.0924
 5964SOL     OW29353   2.252   4.058   8.763  0.0055  0.4488  0.1377
 5964SOL    HW129354   2.322   4.051   8.697  1.8485  1.1868  2.0067
 5964SOL    HW229355   2.302   4.006   8.826  1.1398 -2.6057 -3.3047
 5965SOL     OW29356   0.839   1.182   0.874  0.5548 -0.0870  0.2621
 5965SOL    HW129357   0.926   1.212   0.847  0.2519 -0.9069 -1.6030
 5965SOL    HW229358   0.864   1.145   0.959  0.4484  1.4590  0.9629
 5966SOL     OW29359   4.236   4.388   3.637 -0.5399 -1.1580 -0.3205
 5966SOL    HW129360   4.331   4.385   3.652 -0.8834  1.4891  2.2946
 5966SOL    HW229361   4.208   4.297   3.652 -0.4169 -1.2442 -0.6146
 5967SOL     OW29362   0.223   0.757  15.806  0.0411  0.7531 -0.0833
 5967SOL    HW129363   0.254   0.827  15.863 -2.1295  1.9984 -0.4537
 5967SOL    HW229364   0.298   0.697  15.810 -0.4680  0.1719  0.5503
 5968SOL     OW29365   3.400   3.956   7.371 -0.3801  0.0510  0.1892
 5968SOL    HW129366   3.359   4.041   7.351  1.6261  0.8338 -0.6625
 5968SOL    HW229367   3.469   3.944   7.305  0.7979 -1.6763  1.7357
 5969SOL     OW29368   1.772   0.060   4.970  0.2698 -0.6313 -0.1167
 5969SOL    HW129369   1.863   0.038   4.950  1.0891  0.9538  1.9285
 5969SOL    HW229370   1.732   4.697   4.979 -0.5863 -0.3827 -1.3855
 5970SOL     OW29371   4.518   2.287   5.361  0.9312 -0.2014  0.1124
 5970SOL    HW129372   4.486   2.376   5.373 -0.4669 -0.5484 -1.1111
 5970SOL    HW229373   4.571   2.282   5.441 -1.5309  0.5862  1.7610
 5971SOL     OW29374   3.073   3.424  13.371  0.4040  0.1741  0.3900
 5971SOL    HW129375   3.139   3.467  13.317  0.8001 -1.0703 -0.1257
 5971SOL    HW229376   3.083   3.466  13.456 -0.6372  1.2434 -0.0229
 5972SOL     OW29377   3.958   1.595  17.671 -0.6785  0.3404  0.1181
 5972SOL    HW129378   4.027   1.651  17.634 -1.1110  0.3145 -0.7393
 5972SOL    HW229379   3.975   1.508  17.635 -3.0327  0.1964 -0.6251
 5973SOL     OW29380   1.452   2.837   4.513 -0.3629 -0.1539 -0.7301
 5973SOL    HW129381   1.469   2.898   4.584  2.2024 -0.9895 -0.5998
 5973SOL    HW229382   1.506   2.763   4.540 -1.3435  0.1461  1.9811
 5974SOL     OW29383   1.056   1.463   5.574  0.2220 -0.3217  1.1156
 5974SOL    HW129384   0.966   1.433   5.564  0.4073 -0.6538  0.3888
 5974SOL    HW229385   1.054   1.551   5.537 -0.2707 -1.2753 -1.1576
 5975SOL     OW29386   2.709   4.325   2.657  0.2000  0.0265  0.1712
 5975SOL    HW129387   2.629   4.345   2.706  0.4442  0.9073  0.2071
 5975SOL    HW229388   2.727   4.235   2.683  3.6910  0.5561 -0.3985
 5976SOL     OW29389   2.409   3.352   6.629  0.8407  0.0833 -0.6639
 5976SOL    HW129390   2.385   3.327   6.718  0.1357  2.3131 -0.2236
 5976SOL    HW229391   2.470   3.423   6.649  3.1277 -1.8756 -0.7668
 5977SOL     OW29392   0.431   4.058  13.945 -0.0832  0.3042  0.0201
 5977SOL    HW129393   0.479   4.126  13.991 -1.3119  0.5267  0.9463
 5977SOL    HW229394   0.401   4.123  13.882 -0.4891 -1.1078 -1.2703
 5978SOL     OW29395   4.083   3.386   3.489 -0.0992  0.1423  0.0681
 5978SOL    HW129396   4.116   3.445   3.556  0.3249  0.7210 -0.6513
 5978SOL    HW229397   4.158   3.328   3.477  0.3961  1.1995 -1.9548
 5979SOL     OW29398   4.432   4.337   0.385  0.5564 -0.1090  0.4419
 5979SOL    HW129399   4.449   4.424   0.347 -0.4014  0.2877  0.9373
 5979SOL    HW229400   4.435   4.281   0.307  1.5854  0.4037  0.1001
 5980SOL     OW29401   0.922   3.916   9.640  0.0649 -0.2849 -0.1063
 5980SOL    HW129402   0.876   3.897   9.722  0.5362  1.5358  0.5738
 5980SOL    HW229403   0.964   3.993   9.677 -2.8330  0.2593  2.0270
 5981SOL     OW29404   3.275   1.168   4.216  0.6030 -0.3127 -0.2234
 5981SOL    HW129405   3.360   1.175   4.172  0.7173  0.8501  0.1963
 5981SOL    HW229406   3.226   1.181   4.135 -0.4026 -0.4277  0.3636
 5982SOL     OW29407   4.710   2.204   3.191 -0.6993  0.0972 -0.1156
 5982SOL    HW129408   0.018   2.126   3.236 -0.6558  0.1819  0.0024
 5982SOL    HW229409   0.004   2.185   3.099 -5.6564  2.2970 -1.5096
 5983SOL     OW29410   0.931   1.222  13.444 -0.5880 -0.0523  0.5115
 5983SOL    HW129411   0.915   1.129  13.425 -0.5910 -0.1777  1.1440
 5983SOL    HW229412   0.932   1.226  13.539 -2.2753  1.6475  0.4561
 5984SOL     OW29413   3.652   0.177   2.155 -0.5508  0.0846 -0.2958
 5984SOL    HW129414   3.659   0.168   2.060 -2.7470  2.8672 -0.6955
 5984SOL    HW229415   3.613   0.096   2.187  2.5344 -1.3699 -0.1419
 5985SOL     OW29416   0.482   4.578   6.457  1.3932 -0.0343  0.3914
 5985SOL    HW129417   0.472   4.670   6.483  0.3407 -0.0704  0.1031
 5985SOL    HW229418   0.566   4.547   6.491  2.7335  2.7139 -0.3930
 5986SOL     OW29419   1.575   3.447   6.780 -0.3451  0.8414  0.0340
 5986SOL    HW129420   1.527   3.489   6.851  1.5504  2.0024  0.6181
 5986SOL    HW229421   1.653   3.411   6.822  1.1027  3.9040 -0.0745
 5987SOL     OW29422   2.929   2.861   3.204  0.3825 -0.1005 -0.2575
 5987SOL    HW129423   2.929   2.957   3.204 -2.0346 -0.1192 -1.8068
 5987SOL    HW229424   2.998   2.834   3.143 -0.1987 -1.2462 -0.3945
 5988SOL     OW29425   2.064   1.045   9.221  0.4677 -0.7974 -0.2340
 5988SOL    HW129426   2.144   1.028   9.171  0.9023  1.1197 -0.1883
 5988SOL    HW229427   2.090   1.130   9.258 -0.5101  0.0468 -1.5004
 5989SOL     OW29428   0.115   3.050  16.799 -0.4233 -0.5679  0.3427
 5989SOL    HW129429   0.167   3.061  16.719  3.0498 -0.3651  2.6133
 5989SOL    HW229430   0.184   3.053  16.866 -0.9186  0.7805  0.7964
 5990SOL     OW29431   4.420   3.852   4.145  0.3978 -0.4414 -0.4924
 5990SOL    HW129432   4.368   3.776   4.171  0.6509 -0.7611 -0.9320
 5990SOL    HW229433   4.382   3.878   4.062 -1.5354 -3.6190 -0.6202
 5991SOL     OW29434   2.041   4.033   2.995  0.2129 -0.0228 -0.3648
 5991SOL    HW129435   2.051   4.128   2.987  0.3236 -0.0046 -0.0257
 5991SOL    HW229436   1.980   4.017   2.924  0.3171  1.6466 -0.8304
 5992SOL     OW29437   1.713   2.879  10.072 -0.3017 -0.5230 -0.2139
 5992SOL    HW129438   1.697   2.814  10.140  2.5334  0.0884  1.0526
 5992SOL    HW229439   1.801   2.849  10.049  1.2005  2.1572  1.8805
 5993SOL     OW29440   3.647   2.390   1.802  0.1634 -0.1961  0.4610
 5993SOL    HW129441   3.608   2.476   1.786 -0.3773 -0.6721 -0.7467
 5993SOL    HW229442   3.588   2.359   1.870  2.5677 -1.2790  2.0629
 5994SOL     OW29443   3.815   2.113  16.483 -0.0414  0.4982  0.1459
 5994SOL    HW129444   3.805   2.208  16.495 -0.4922  0.3901  0.6452
 5994SOL    HW229445   3.728   2.081  16.459  0.2254  0.5822 -0.9493
 5995SOL     OW29446   2.238   3.726   4.257  0.1852 -0.0328  0.4236
 5995SOL    HW129447   2.147   3.756   4.258 -0.6029 -2.6005  2.3177
 5995SOL    HW229448   2.217   3.634   4.241 -0.6279  0.1467  0.4795
 5996SOL     OW29449   1.044   0.667   3.694  0.3540 -0.4972  0.9806
 5996SOL    HW129450   0.957   0.674   3.735  0.5887 -1.4095  1.6315
 5996SOL    HW229451   1.081   0.755   3.702  0.8462 -0.6130 -0.1586
 5997SOL     OW29452   0.653   1.985  12.021  0.3855 -0.1740 -0.2065
 5997SOL    HW129453   0.627   1.918  12.084  0.6806 -0.8668 -0.8212
 5997SOL    HW229454   0.745   1.962  12.005  0.0350 -1.3404 -0.5410
 5998SOL     OW29455   0.209   0.466   4.873  0.4759 -0.1989 -0.1956
 5998SOL    HW129456   0.256   0.512   4.943 -0.1669  0.4161 -0.1576
 5998SOL    HW229457   0.180   0.537   4.815 -3.0470 -1.0436  0.4882
 5999SOL     OW29458   1.839   0.633  14.750 -0.1877 -0.6668  0.1101
 5999SOL    HW129459   1.846   0.707  14.811 -1.0292 -0.9693  0.5748
 5999SOL    HW229460   1.754   0.595  14.771 -0.0135 -0.3813  1.3626
 6000SOL     OW29461   4.642   2.359  11.621 -0.3461  0.6115 -0.4231
 6000SOL    HW129462   4.703   2.317  11.560 -0.0408  3.2822 -1.9560
 6000SOL    HW229463   4.663   2.451  11.602  0.8527  0.6258  0.9463
 6001SOL     OW29464   2.138   1.016   2.642 -0.2848  0.0302  0.2044
 6001SOL    HW129465   2.230   1.014   2.617 -0.5318 -0.4089 -0.6745
 6001SOL    HW229466   2.142   0.975   2.728  2.3163  0.6756  0.3729
 6002SOL     OW29467   1.214   3.954   2.428 -0.6027 -0.0416 -0.4233
 6002SOL    HW129468   1.133   3.968   2.477 -0.6975 -0.7435 -0.3735
 6002SOL    HW229469   1.278   3.989   2.490 -0.7178  0.9894 -0.8877
 6003SOL     OW29470   2.372   0.396   3.936  0.2660  0.4795  0.3979
 6003SOL    HW129471   2.361   0.407   4.030  0.3223  2.8569  0.1424
 6003SOL    HW229472   2.297   0.452   3.917  0.3710  0.1391 -1.0528
 6004SOL     OW29473   1.484   0.880   4.376  0.9019 -0.0546  0.7798
 6004SOL    HW129474   1.563   0.845   4.334 -0.5004 -1.6276 -0.5659
 6004SOL    HW229475   1.468   0.808   4.437  0.7859  0.5214  1.4250
 6005SOL     OW29476   3.137   1.123   8.419 -0.1083 -0.0821 -0.3971
 6005SOL    HW129477   3.120   1.029   8.428 -1.5891  0.1206 -1.0673
 6005SOL    HW229478   3.048   1.153   8.439  0.0708  0.0384  0.2311
 6006SOL     OW29479   3.255   3.760   5.863  0.8873  0.6919  0.2010
 6006SOL    HW129480   3.196   3.733   5.793  0.1488 -3.0718  2.2676
 6006SOL    HW229481   3.191   3.786   5.930 -0.4136 -1.3061 -0.2800
 6007SOL     OW29482   1.605   1.136   8.928 -0.8265 -0.4210  0.4052
 6007SOL    HW129483   1.685   1.128   8.981 -0.3926  0.8652 -0.0564
 6007SOL    HW229484   1.626   1.219   8.887 -2.0369  0.3234  1.3000
 6008SOL     OW29485   0.264   2.618   0.206  0.2980 -0.1554  0.1557
 6008SOL    HW129486   0.330   2.685   0.220  1.9563 -1.2321 -2.4920
 6008SOL    HW229487   0.291   2.541   0.256 -0.7119 -0.8831 -0.3892
 6009SOL     OW29488   1.567   0.916  11.127  0.3413  0.4480  0.1552
 6009SOL    HW129489   1.597   0.943  11.213  2.1880  0.3327 -0.4445
 6009SOL    HW229490   1.635   0.961  11.075  1.1124  2.1438  2.6244
 6010SOL     OW29491   4.484   2.005   6.873  0.1585  0.5583 -0.0023
 6010SOL    HW129492   4.527   2.079   6.829  1.3761 -1.0879 -1.5667
 6010SOL    HW229493   4.394   2.023   6.846 -0.4502 -0.8095  1.1395
 6011SOL     OW29494   0.005   0.106   5.795 -0.2546 -0.9503 -0.0111
 6011SOL    HW129495   4.662   0.162   5.834  0.4159  0.1565 -0.4520
 6011SOL    HW229496   0.017   0.039   5.862 -0.3529  0.9462  1.8799
 6012SOL     OW29497   3.756   1.250  11.233 -1.0413  0.4223  0.0276
 6012SOL    HW129498   3.842   1.288  11.214  0.4154 -1.6036  2.6019
 6012SOL    HW229499   3.756   1.221  11.325  0.4534 -0.4267 -0.2426
 6013SOL     OW29500   2.357   0.122  12.841  0.3704 -0.6477 -0.2955
 6013SOL    HW129501   2.303   0.173  12.901 -0.0410  0.6106 -1.7365
 6013SOL    HW229502   2.292   0.097  12.776 -0.3046  1.9592 -0.6187
 6014SOL     OW29503   2.625   1.558   8.028  0.4519 -0.4470  0.6074
 6014SOL    HW129504   2.689   1.628   8.044  0.4982 -0.9228  2.5094
 6014SOL    HW229505   2.547   1.585   8.076  1.1149  1.0042  0.8961
 6015SOL     OW29506   2.804   2.438   5.222  0.6734  0.4124 -0.4528
 6015SOL    HW129507   2.835   2.481   5.143 -3.9769  0.6579 -2.1390
 6015SOL    HW229508   2.862   2.365   5.242 -0.8012 -0.2152  1.5494
 6016SOL     OW29509   2.586   3.379   5.785  0.3119 -0.0138  0.0038
 6016SOL    HW129510   2.494   3.378   5.757 -0.1378  4.7998  1.3560
 6016SOL    HW229511   2.621   3.311   5.727 -2.8952 -0.8324 -0.9946
 6017SOL     OW29512   1.489   3.302   6.154  0.0230  0.3936 -0.0306
 6017SOL    HW129513   1.583   3.299   6.173  0.4545 -1.3862 -2.3873
 6017SOL    HW229514   1.476   3.385   6.110 -0.1810  1.4123  1.9629
 6018SOL     OW29515   2.146   1.806   9.997 -0.0423 -0.4222 -0.0204
 6018SOL    HW129516   2.233   1.767  10.001  0.2224 -0.0624 -2.0839
 6018SOL    HW229517   2.125   1.820   9.905  0.6964 -0.5905 -0.2176
 6019SOL     OW29518   2.951   4.120   2.367  0.5432  0.3397  0.6333
 6019SOL    HW129519   2.951   4.025   2.363 -0.4700  0.3116  1.3925
 6019SOL    HW229520   3.009   4.130   2.442 -0.5106 -1.9344  1.7351
 6020SOL     OW29521   2.402   0.292   8.978  0.3499  0.0765 -0.2879
 6020SOL    HW129522   2.416   0.293   9.073  2.2677 -0.4068 -0.5559
 6020SOL    HW229523   2.318   0.247   8.970  0.0774  0.5105  0.1661
 6021SOL     OW29524   2.238   3.639   5.435 -0.4993 -0.0290 -0.1201
 6021SOL    HW129525   2.204   3.630   5.524 -1.0484 -0.5595 -0.3831
 6021SOL    HW229526   2.294   3.562   5.426 -1.0352 -0.4568  0.1983
 6022SOL     OW29527   2.875   2.876   7.107  0.1473 -0.0297 -0.0638
 6022SOL    HW129528   2.909   2.963   7.125  0.2156 -0.1057  0.1696
 6022SOL    HW229529   2.955   2.824   7.117  2.1854  3.0994 -0.0399
 6023SOL     OW29530   3.952   0.753  10.674 -0.1027  0.0969 -0.3279
 6023SOL    HW129531   3.893   0.762  10.749 -1.4119 -1.0679 -1.2309
 6023SOL    HW229532   3.931   0.827  10.617 -0.9341 -0.8210 -1.2145
 6024SOL     OW29533   1.453   3.028   9.122  0.2766  0.5583  0.1817
 6024SOL    HW129534   1.492   3.092   9.062 -0.4969 -0.5241 -1.4615
 6024SOL    HW229535   1.518   2.958   9.125 -0.1098  0.2787  1.9931
 6025SOL     OW29536   0.898   2.606   1.559  0.8017  0.2546 -0.2065
 6025SOL    HW129537   0.970   2.551   1.528  0.4047 -0.4524  0.1499
 6025SOL    HW229538   0.901   2.678   1.496 -0.4965 -0.8745 -1.5626
 6026SOL     OW29539   2.265   2.624   4.949  0.4651  0.1534 -0.3325
 6026SOL    HW129540   2.322   2.694   4.981 -0.4871  0.9228 -0.2996
 6026SOL    HW229541   2.298   2.620   4.859 -0.5506  0.1272 -0.7108
 6027SOL     OW29542   0.580   0.019   3.234  0.5462 -0.0632 -0.2281
 6027SOL    HW129543   0.575   4.667   3.293  0.7459  0.8418  0.9471
 6027SOL    HW229544   0.574   4.698   3.150  0.6593 -0.8224  0.1637
 6028SOL     OW29545   3.987   3.107  13.617 -0.0382  0.4797 -0.2411
 6028SOL    HW129546   3.960   3.025  13.575  2.2074 -0.9558  1.1386
 6028SOL    HW229547   3.900   3.147  13.630 -0.5480 -0.5790 -0.4126
 6029SOL     OW29548   1.209   2.985   2.834 -0.1666  0.3829 -0.2521
 6029SOL    HW129549   1.293   2.967   2.793  0.4230  1.6881  0.3873
 6029SOL    HW229550   1.159   2.983   2.752  0.6069  1.2155 -0.7392
 6030SOL     OW29551   4.106   4.398  12.309  0.7924 -0.5437  0.1509
 6030SOL    HW129552   4.047   4.450  12.364  1.0843 -1.0754  0.9671
 6030SOL    HW229553   4.046   4.369  12.240  0.7066  1.6869 -0.6949
 6031SOL     OW29554   4.697   4.608   4.884  0.0364  0.2564 -0.5470
 6031SOL    HW129555   0.028   4.652   4.819  0.8419  0.6339  0.3925
 6031SOL    HW229556   4.617   4.655   4.861  0.3906  0.3328 -1.5955
 6032SOL     OW29557   0.199   1.245   5.178 -0.0982 -0.1958 -0.1824
 6032SOL    HW129558   0.265   1.310   5.203 -1.7276  1.9139 -1.4106
 6032SOL    HW229559   0.258   1.184   5.134  0.0676 -0.0976 -0.0980
 6033SOL     OW29560   1.177   1.891   8.381  0.5326 -0.2492 -0.0805
 6033SOL    HW129561   1.270   1.868   8.370  0.7868  1.6745 -1.8405
 6033SOL    HW229562   1.161   1.861   8.471  1.4904 -2.3970 -0.6170
 6034SOL     OW29563   1.377   1.600   0.965 -0.2501 -0.0512 -0.1934
 6034SOL    HW129564   1.306   1.595   0.901 -1.4026  1.3056  0.9912
 6034SOL    HW229565   1.453   1.607   0.907  0.1487 -2.1264  0.0709
 6035SOL     OW29566   1.073   1.699   5.279 -0.1082  0.2018  0.0311
 6035SOL    HW129567   1.052   1.606   5.268  1.2905 -0.5147  3.1742
 6035SOL    HW229568   1.168   1.701   5.265 -0.0729  0.3746  0.2819
 6036SOL     OW29569   3.099   1.758   1.633  0.0007  0.0757  0.0008
 6036SOL    HW129570   3.013   1.730   1.605 -0.9215  0.9457  1.9161
 6036SOL    HW229571   3.132   1.800   1.554 -0.7013 -0.1296 -0.3948
 6037SOL     OW29572   2.153   1.060   8.269 -0.4954  0.9161  0.0227
 6037SOL    HW129573   2.097   0.983   8.263 -0.4133  0.7977  0.7329
 6037SOL    HW229574   2.182   1.066   8.178 -1.6171  0.3801 -0.3732
 6038SOL     OW29575   3.960   2.075   2.659 -0.6192  0.6104  0.0616
 6038SOL    HW129576   3.934   2.165   2.677  0.5225  1.2043 -1.2829
 6038SOL    HW229577   4.032   2.087   2.596 -0.4581 -1.1458 -0.1128
 6039SOL     OW29578   3.300   0.947   5.515  0.1907  0.4133  0.1195
 6039SOL    HW129579   3.354   0.994   5.452  0.0932 -1.0336 -1.0417
 6039SOL    HW229580   3.336   0.862   5.491 -0.6010 -0.2227  1.1476
 6040SOL     OW29581   0.635   3.507   6.543  0.1974 -0.3663  0.5499
 6040SOL    HW129582   0.585   3.496   6.462  1.6164  1.1619 -0.5514
 6040SOL    HW229583   0.724   3.486   6.512 -0.8562 -2.7538 -0.8253
 6041SOL     OW29584   1.493   1.446  17.659 -0.1034  0.1585 -0.1319
 6041SOL    HW129585   1.582   1.413  17.670 -1.1411 -2.2317  1.1228
 6041SOL    HW229586   1.451   1.360  17.651 -1.8647  0.9415  0.6862
 6042SOL     OW29587   2.184   4.662   7.016  0.5873  0.5578 -0.2255
 6042SOL    HW129588   2.108   4.620   6.976  0.4560  0.3818  0.2049
 6042SOL    HW229589   2.146   0.018   7.053 -0.6589 -0.0691 -0.1625
 6043SOL     OW29590   1.873   1.745  11.126  0.3057  0.4118  0.1347
 6043SOL    HW129591   1.952   1.692  11.127 -1.4484 -2.1074  4.6994
 6043SOL    HW229592   1.841   1.729  11.037  0.2131  1.6535 -0.0613
 6044SOL     OW29593   2.271   3.765   6.982 -0.3490  0.5302  0.3299
 6044SOL    HW129594   2.202   3.747   7.046  0.0804 -0.6953  0.4539
 6044SOL    HW229595   2.298   3.855   7.000 -3.2772  0.9270  2.7462
 6045SOL     OW29596   4.406   0.701   2.468  0.2249 -0.1779 -0.1323
 6045SOL    HW129597   4.485   0.754   2.484  1.7451 -2.7432  0.8263
 6045SOL    HW229598   4.443   0.617   2.494 -0.9901 -0.6072  0.1680
 6046SOL     OW29599   1.160   1.427  16.925  0.5057 -0.4523 -0.5285
 6046SOL    HW129600   1.175   1.500  16.985  1.3619 -0.9130 -0.1768
 6046SOL    HW229601   1.229   1.429  16.859  1.0260  0.1846  0.0385
 6047SOL     OW29602   1.440   4.698  10.927  0.0891  0.1590  0.1559
 6047SOL    HW129603   1.454   0.069  10.924  0.8726  0.0098 -0.9653
 6047SOL    HW229604   1.530   4.665  10.926  0.3580  0.8548  1.8450
 6048SOL     OW29605   1.239   3.912   5.645  0.8163 -0.0829  0.7136
 6048SOL    HW129606   1.276   3.920   5.558 -1.4325  1.2805 -0.1255
 6048SOL    HW229607   1.292   3.968   5.702 -2.0633  2.9154  0.4577
 6049SOL     OW29608   0.919   3.098  13.263  0.0321  0.9647  0.3006
 6049SOL    HW129609   0.928   3.114  13.357  1.0681 -1.3008  0.5815
 6049SOL    HW229610   0.833   3.137  13.246 -0.0899 -0.5805 -2.7386
 6050SOL     OW29611   0.223   0.647   3.155 -0.5680  0.0879 -0.1373
 6050SOL    HW129612   0.311   0.674   3.126 -0.5680  0.9719  0.6750
 6050SOL    HW229613   0.200   0.569   3.105 -1.4616  0.8794 -0.9563
 6051SOL     OW29614   2.857   1.536   1.552 -0.5583 -0.3175  0.1744
 6051SOL    HW129615   2.839   1.513   1.461  0.1227 -0.7666  0.1524
 6051SOL    HW229616   2.809   1.619   1.549 -1.4736 -0.9015 -1.3152
 6052SOL     OW29617   1.017   1.981  14.963 -0.5601 -0.3956 -0.1621
 6052SOL    HW129618   1.065   1.993  14.881 -2.8873  0.9016 -1.3248
 6052SOL    HW229619   1.047   1.892  14.984  1.8291  0.0506 -1.6467
 6053SOL     OW29620   3.274   3.704  11.074 -0.0489 -0.0928 -0.0862
 6053SOL    HW129621   3.230   3.708  11.159 -1.0475 -0.6313 -0.5815
 6053SOL    HW229622   3.202   3.743  11.025  0.5022  0.2765 -0.6113
 6054SOL     OW29623   3.853   0.942  14.349 -0.0963 -0.5371 -0.2060
 6054SOL    HW129624   3.910   0.959  14.424 -1.1366  0.4485  0.3629
 6054SOL    HW229625   3.774   0.992  14.371 -1.5573 -3.1203  0.3809
 6055SOL     OW29626   3.417   4.722   0.178 -0.3670 -0.0753 -0.4494
 6055SOL    HW129627   3.476   0.019   0.106 -0.3481 -0.8420 -0.6504
 6055SOL    HW229628   3.333   0.019   0.136 -0.5297  1.5781  0.6658
 6056SOL     OW29629   1.602   3.683   9.515  0.2478 -0.4147  0.6420
 6056SOL    HW129630   1.537   3.737   9.468  0.4788  0.8330  1.7689
 6056SOL    HW229631   1.643   3.753   9.565 -0.3860  0.2507  0.2488
 6057SOL     OW29632   4.533   0.793   1.162 -0.0702 -0.8036 -0.4325
 6057SOL    HW129633   4.521   0.839   1.246 -1.9194 -1.3157 -0.4107
 6057SOL    HW229634   4.513   0.863   1.099 -0.7556 -0.2177  0.4261
 6058SOL     OW29635   4.413   2.737   5.945 -0.3066 -0.2012  0.2217
 6058SOL    HW129636   4.345   2.803   5.932  2.3479  2.1641 -1.7948
 6058SOL    HW229637   4.391   2.684   5.868 -2.6949 -2.5530  2.5485
 6059SOL     OW29638   0.263   3.069   5.407 -0.0770  0.7343 -0.2292
 6059SOL    HW129639   0.175   3.075   5.444  0.3630  0.6356  0.8320
 6059SOL    HW229640   0.303   3.151   5.435 -1.0333  1.2675 -0.4288
 6060SOL     OW29641   2.326   2.467   5.444  0.5761  0.2800  0.2101
 6060SOL    HW129642   2.416   2.478   5.413  0.9365 -1.4477  0.6784
 6060SOL    HW229643   2.274   2.502   5.371  0.2483 -0.8233 -0.0781
 6061SOL     OW29644   3.302   0.609   9.242 -0.2392 -0.2739  0.2587
 6061SOL    HW129645   3.228   0.618   9.302 -0.9314 -2.0000 -0.3470
 6061SOL    HW229646   3.261   0.548   9.181 -0.3595  0.7031 -0.6371
 6062SOL     OW29647   1.735   2.806  15.679  0.4492  0.8808  0.0382
 6062SOL    HW129648   1.740   2.852  15.596 -2.0346 -0.0258 -0.6057
 6062SOL    HW229649   1.810   2.750  15.661 -0.3457 -0.2312  0.2298
 6063SOL     OW29650   2.402   4.404   6.471 -0.4586 -0.0133  0.6274
 6063SOL    HW129651   2.326   4.442   6.428 -0.5035 -1.3200 -0.4453
 6063SOL    HW229652   2.418   4.334   6.408  0.3201  0.3153  0.4639
 6064SOL     OW29653   0.844   0.993   3.817 -0.1277 -0.1177  0.2374
 6064SOL    HW129654   0.824   0.901   3.834  0.5934 -0.6452 -1.7583
 6064SOL    HW229655   0.939   0.987   3.814 -0.1107  0.1464  0.3001
 6065SOL     OW29656   3.546   1.286   7.023  0.4168 -0.5344  0.0516
 6065SOL    HW129657   3.637   1.281   7.053  0.0175 -0.4422  1.2840
 6065SOL    HW229658   3.499   1.336   7.090  2.0964  1.0176  0.0462
 6066SOL     OW29659   1.053   3.416   7.235 -0.0915 -0.5147 -0.0853
 6066SOL    HW129660   1.051   3.344   7.172  1.0224  0.3800 -1.1347
 6066SOL    HW229661   1.126   3.403   7.296 -0.6312 -0.4630  0.5741
 6067SOL     OW29662   1.602   2.355   7.007 -0.3941 -0.0589 -0.3357
 6067SOL    HW129663   1.628   2.263   7.004  2.5894  0.8086 -0.9277
 6067SOL    HW229664   1.662   2.395   7.070  1.4911  0.5871 -2.5360
 6068SOL     OW29665   3.334   0.166   5.249 -0.3087  0.2671 -0.4825
 6068SOL    HW129666   3.335   0.098   5.316  0.4924  0.0259 -0.7479
 6068SOL    HW229667   3.429   0.178   5.245 -0.0173 -1.8733  0.0300
 6069SOL     OW29668   3.323   3.266  11.905  0.1793  0.0245 -0.1425
 6069SOL    HW129669   3.392   3.331  11.912  0.5131 -0.3794  0.3085
 6069SOL    HW229670   3.348   3.230  11.820  2.9168  1.8794 -0.1236
 6070SOL     OW29671   4.450   0.607   9.499 -0.1117  0.2226  0.2232
 6070SOL    HW129672   4.427   0.696   9.528 -0.0774  0.5947 -0.8788
 6070SOL    HW229673   4.477   0.630   9.410 -2.4043  0.2696 -0.4814
 6071SOL     OW29674   4.013   3.915   3.208 -0.3679 -0.2401 -0.3583
 6071SOL    HW129675   4.036   3.993   3.257  1.8164 -0.1373 -1.5291
 6071SOL    HW229676   4.052   3.848   3.264 -1.5884 -2.0311 -1.6415
 6072SOL     OW29677   3.184   4.333   5.382 -0.1843 -0.1855 -0.0262
 6072SOL    HW129678   3.154   4.381   5.305 -0.1010  1.6101  1.0689
 6072SOL    HW229679   3.271   4.373   5.391 -0.5873  1.1278 -2.0456
 6073SOL     OW29680   2.431   4.368   6.768 -0.2988  0.2087  0.1448
 6073SOL    HW129681   2.402   4.393   6.680 -0.6912  0.1142  0.2468
 6073SOL    HW229682   2.401   4.278   6.780 -0.5616  0.3908  0.8811
 6074SOL     OW29683   3.414   3.371  15.527  0.3741 -0.1464  0.2969
 6074SOL    HW129684   3.427   3.427  15.451 -0.4218  1.3989  1.2905
 6074SOL    HW229685   3.323   3.342  15.526  0.5595 -0.6176 -2.3258
 6075SOL     OW29686   2.098   0.357   6.349 -0.1139  0.2641  0.3620
 6075SOL    HW129687   2.008   0.327   6.336  0.2014 -0.8354  0.6738
 6075SOL    HW229688   2.092   0.450   6.369  2.2581  0.5423 -0.1928
 6076SOL     OW29689   0.066   1.210   7.025 -0.0346 -0.1050 -0.1951
 6076SOL    HW129690   0.082   1.303   7.010  0.8291 -0.0751  0.9188
 6076SOL    HW229691   0.017   1.217   7.107 -0.7665  2.9942 -0.9147
 6077SOL     OW29692   2.574   3.519  15.741  0.6434  0.5602  0.1461
 6077SOL    HW129693   2.525   3.550  15.665  0.0581 -2.4337 -0.7047
 6077SOL    HW229694   2.658   3.500  15.699 -1.1643 -2.2893 -2.2099
 6078SOL     OW29695   0.728   4.291   7.296 -0.2587  0.6354 -0.3590
 6078SOL    HW129696   0.818   4.274   7.322 -0.2715  2.5275  0.9667
 6078SOL    HW229697   0.726   4.248   7.211 -0.2153 -1.0924  0.5213
 6079SOL     OW29698   1.105   2.877  10.126 -0.2335  0.6922 -0.0887
 6079SOL    HW129699   1.054   2.942  10.077 -1.2909 -1.9442 -2.4565
 6079SOL    HW229700   1.178   2.929  10.158 -0.6205  2.4550 -2.0476
 6080SOL     OW29701   1.310   1.556   5.385  0.4142 -0.7178  0.4405
 6080SOL    HW129702   1.346   1.552   5.474  0.0257  1.4572  0.6983
 6080SOL    HW229703   1.394   1.555   5.340  0.4860  0.3366  0.5491
 6081SOL     OW29704   0.134   3.351   8.782  0.4170 -0.4324  0.2880
 6081SOL    HW129705   0.166   3.288   8.846  1.8523  0.3624  0.3452
 6081SOL    HW229706   0.113   3.409   8.855  0.9190 -0.7301  0.6621
 6082SOL     OW29707   4.489   0.714   4.425 -0.0948  0.0294  0.2334
 6082SOL    HW129708   4.435   0.653   4.475 -1.1949  0.4262 -0.4779
 6082SOL    HW229709   4.461   0.797   4.466  2.5949  1.7462 -1.3915
 6083SOL     OW29710   0.315   1.722  15.859  0.0449  0.1409  0.4694
 6083SOL    HW129711   0.284   1.657  15.921 -0.6942 -0.1509 -0.2124
 6083SOL    HW229712   0.370   1.685  15.790 -3.0039 -3.3350 -0.0833
 6084SOL     OW29713   2.361   4.184  12.538 -0.4509  0.2088 -0.2030
 6084SOL    HW129714   2.406   4.241  12.600  0.9027  0.7652 -1.6898
 6084SOL    HW229715   2.389   4.217  12.452  3.0730  0.0093  0.8683
 6085SOL     OW29716   3.559   4.205   7.090 -0.8819 -0.5748  0.0713
 6085SOL    HW129717   3.622   4.228   7.158 -0.6698 -0.3509 -0.2020
 6085SOL    HW229718   3.561   4.285   7.037 -1.3026 -0.4690  0.2169
 6086SOL     OW29719   0.270   3.814   4.282  0.4133 -0.5775 -0.0260
 6086SOL    HW129720   0.295   3.864   4.205 -0.0974 -0.1006  0.1134
 6086SOL    HW229721   0.301   3.732   4.245 -2.0306 -0.2088 -2.7939
 6087SOL     OW29722   3.637   4.216   2.411 -0.3704 -0.0497 -0.1729
 6087SOL    HW129723   3.719   4.213   2.460 -0.7785 -2.4959  0.3637
 6087SOL    HW229724   3.605   4.296   2.454  1.7015  1.3383 -1.2026
 6088SOL     OW29725   3.295   4.457   6.801 -0.3731 -0.6477  0.2822
 6088SOL    HW129726   3.225   4.488   6.858  0.8305 -0.5783  1.7148
 6088SOL    HW229727   3.274   4.368   6.771  0.3854 -0.5880 -0.4160
 6089SOL     OW29728   2.152   3.536   7.655 -0.2943 -0.2124 -0.1477
 6089SOL    HW129729   2.242   3.511   7.675 -0.3881 -0.9807 -0.7077
 6089SOL    HW229730   2.168   3.627   7.628 -2.5588 -0.5664 -2.6649
 6090SOL     OW29731   2.761   2.342  11.937  0.3766 -0.3720 -0.5832
 6090SOL    HW129732   2.808   2.408  11.886 -1.0045  0.9824 -0.0845
 6090SOL    HW229733   2.723   2.287  11.869 -0.1313 -0.2047 -0.4322
 6091SOL     OW29734   2.562   0.738  17.213  0.4777  0.1413 -0.3546
 6091SOL    HW129735   2.525   0.650  17.219 -0.5339  0.6886  1.5219
 6091SOL    HW229736   2.653   0.733  17.245 -0.5846  2.8104  3.1692
 6092SOL     OW29737   1.321   3.140   6.840  0.1985 -0.2872  0.1249
 6092SOL    HW129738   1.288   3.050   6.848  0.1468 -0.3150 -0.4052
 6092SOL    HW229739   1.305   3.158   6.748  3.0769 -0.1116 -0.3272
 6093SOL     OW29740   0.266   3.324  11.025  0.3088 -0.6369  0.1883
 6093SOL    HW129741   0.348   3.330  11.074  1.9688 -0.7967 -2.5738
 6093SOL    HW229742   0.211   3.381  11.078 -2.3732 -2.1930 -0.9436
 6094SOL     OW29743   4.317   2.558  16.945 -0.2253 -0.0648  0.0910
 6094SOL    HW129744   4.401   2.546  16.991 -1.4871 -0.7733  2.1919
 6094SOL    HW229745   4.334   2.523  16.858  3.2255 -1.4644  1.3217
 6095SOL     OW29746   1.730   0.401  10.748  0.5674 -0.2717 -0.3302
 6095SOL    HW129747   1.780   0.452  10.811 -1.2571  0.0135  0.8908
 6095SOL    HW229748   1.718   0.465  10.678  0.2709 -0.4426 -0.4338
 6096SOL     OW29749   0.446   3.155   2.782  0.4289 -0.0107 -0.0630
 6096SOL    HW129750   0.388   3.098   2.732 -0.7099  1.4879 -0.4616
 6096SOL    HW229751   0.495   3.093   2.836  1.4565  0.4793 -0.4312
 6097SOL     OW29752   4.386   2.674  10.858 -0.2073  0.0087  0.1689
 6097SOL    HW129753   4.478   2.657  10.842 -0.1064  2.5190 -1.7851
 6097SOL    HW229754   4.398   2.765  10.883 -1.1123  0.4442 -0.9837
 6098SOL     OW29755   2.308   4.602  10.141 -0.6096  0.5250  0.3080
 6098SOL    HW129756   2.230   4.631  10.094  0.9922 -0.4114 -2.9518
 6098SOL    HW229757   2.311   4.657  10.219  0.2553  0.3765  0.3827
 6099SOL     OW29758   4.148   4.573   4.920  0.4904  0.2043 -0.2490
 6099SOL    HW129759   4.222   4.575   4.981  0.9529  1.1258 -0.8365
 6099SOL    HW229760   4.176   4.653   4.875 -0.2270  1.4929  1.5643
 6100SOL     OW29761   0.308   1.714   6.121  0.2920  0.0009  0.5953
 6100SOL    HW129762   0.282   1.728   6.212  1.4593 -0.4786  0.9983
 6100SOL    HW229763   0.240   1.657   6.084 -1.4956  0.8190  2.6441
 6101SOL     OW29764   0.448   2.644  14.680  0.4169 -0.8059  0.3135
 6101SOL    HW129765   0.467   2.727  14.724 -0.5375 -0.1629 -0.4916
 6101SOL    HW229766   0.464   2.664  14.588 -1.8849  0.6165  0.2031
 6102SOL     OW29767   1.597   2.509  13.337 -0.3175  0.1783  0.8363
 6102SOL    HW129768   1.504   2.531  13.341 -1.2913 -4.0246  1.3816
 6102SOL    HW229769   1.600   2.447  13.264 -1.5288  0.3502  0.6456
 6103SOL     OW29770   1.471   3.861   7.388 -0.4566 -0.1049 -0.1116
 6103SOL    HW129771   1.519   3.800   7.332  0.7239  1.8558 -1.2550
 6103SOL    HW229772   1.519   3.862   7.471 -0.3144 -0.5068 -0.1910
 6104SOL     OW29773   1.187   1.280   6.087 -0.2944  0.0664  0.4331
 6104SOL    HW129774   1.121   1.337   6.047  1.1348  1.8475  0.5899
 6104SOL    HW229775   1.185   1.314   6.177  1.3784 -0.7254  0.7713
 6105SOL     OW29776   3.170   3.215   1.313 -0.2044  0.3828  0.2417
 6105SOL    HW129777   3.086   3.178   1.286 -0.0063 -0.2380  0.4720
 6105SOL    HW229778   3.174   3.182   1.403  1.0634  0.8447  0.3540
 6106SOL     OW29779   1.793   2.226  15.117 -0.2158  0.1223  0.0730
 6106SOL    HW129780   1.879   2.227  15.075  1.4602 -1.3259  3.4354
 6106SOL    HW229781   1.821   2.258  15.203  0.1120 -0.4228  0.1720
 6107SOL     OW29782   2.569   2.484   5.376  0.2771 -0.4504 -0.3881
 6107SOL    HW129783   2.633   2.471   5.446 -0.1762 -0.7999 -0.0394
 6107SOL    HW229784   2.626   2.471   5.300 -0.5281 -0.6112 -0.9674
 6108SOL     OW29785   1.886   3.718   0.976 -0.2571  0.5948  0.1933
 6108SOL    HW129786   1.809   3.749   1.024  0.2668  2.4758 -0.1813
 6108SOL    HW229787   1.858   3.739   0.886  1.1871 -1.0025 -0.6351
 6109SOL     OW29788   2.726   0.295   5.622  0.3175  0.0390  0.5766
 6109SOL    HW129789   2.767   0.256   5.699 -0.1621 -0.2336  0.6972
 6109SOL    HW229790   2.726   0.388   5.642  1.3561  0.2372 -0.3844
 6110SOL     OW29791   4.298   1.951   3.194  0.0237  0.1795 -0.2626
 6110SOL    HW129792   4.208   1.924   3.180 -0.1020  1.3653 -1.7964
 6110SOL    HW229793   4.343   1.868   3.180 -1.1142 -0.2193 -1.5549
 6111SOL     OW29794   4.239   3.072   2.873 -0.1724 -0.1906 -0.2574
 6111SOL    HW129795   4.158   3.090   2.825  0.5880  4.6406  0.2797
 6111SOL    HW229796   4.301   3.141   2.849  0.2511 -0.2435  0.6779
 6112SOL     OW29797   0.849   3.006   3.328 -0.3589  0.3315 -0.1243
 6112SOL    HW129798   0.869   2.942   3.260 -1.9156 -0.1568 -0.1175
 6112SOL    HW229799   0.921   2.980   3.386 -0.4518 -0.0695 -0.1918
 6113SOL     OW29800   3.676   2.733   9.979  0.0193  0.6627 -0.0925
 6113SOL    HW129801   3.641   2.816   9.948  1.8010  1.0748 -0.9667
 6113SOL    HW229802   3.743   2.723   9.911  0.4746 -3.2556  0.9448
 6114SOL     OW29803   3.609   1.880   4.621  0.3426 -0.0686  0.5576
 6114SOL    HW129804   3.630   1.787   4.610 -0.4638 -0.0959 -0.8351
 6114SOL    HW229805   3.693   1.914   4.589  1.2219 -0.1548  2.7589
 6115SOL     OW29806   3.025   2.208   8.528 -0.0217  0.1976  0.2810
 6115SOL    HW129807   3.083   2.190   8.454 -0.3124 -0.6687  0.2611
 6115SOL    HW229808   3.073   2.276   8.575 -0.0237  0.2408  0.2204
 6116SOL     OW29809   1.047   4.304   8.823 -0.0520  0.0930  0.3957
 6116SOL    HW129810   1.005   4.230   8.866 -0.8255  0.4038  0.1654
 6116SOL    HW229811   1.137   4.289   8.852  0.3830 -0.3745 -1.1513
 6117SOL     OW29812   0.942   1.078   4.928  0.5361 -0.0172  0.2380
 6117SOL    HW129813   1.027   1.112   4.900 -0.2953  2.2369  0.4362
 6117SOL    HW229814   0.885   1.136   4.879 -0.6757 -2.1700 -0.8738
 6118SOL     OW29815   1.341   4.613   6.597  0.5657 -0.8962  0.0641
 6118SOL    HW129816   1.392   4.561   6.535  0.9605 -1.2162  0.6485
 6118SOL    HW229817   1.399   4.603   6.673 -0.6049  0.4044  1.1247
 6119SOL     OW29818   2.008   0.866  10.183 -0.1581  0.2491  0.3495
 6119SOL    HW129819   1.916   0.889  10.174 -0.0405  1.0181  1.0505
 6119SOL    HW229820   2.039   0.913  10.106  0.2063 -1.0511 -0.2899
 6120SOL     OW29821   0.613   0.330   3.960  0.1986 -0.0690  0.7857
 6120SOL    HW129822   0.581   0.249   3.919 -0.8818  1.1573 -0.7918
 6120SOL    HW229823   0.682   0.292   4.015 -0.9374 -2.7707  0.3353
 6121SOL     OW29824   2.290   0.082   6.660 -0.0075 -0.4852  0.6483
 6121SOL    HW129825   2.242   0.070   6.578 -1.4984 -1.6100  1.7026
 6121SOL    HW229826   2.357   0.014   6.663  1.1079  0.6080  0.5945
 6122SOL     OW29827   4.600   2.135   8.649 -0.6503  0.3669 -0.0138
 6122SOL    HW129828   4.555   2.068   8.700 -0.8796  0.3119 -0.2897
 6122SOL    HW229829   4.525   2.189   8.628  0.0933 -0.0068 -3.6748
 6123SOL     OW29830   2.582   4.444   9.018 -0.1748  0.1847 -0.0111
 6123SOL    HW129831   2.674   4.449   9.047 -1.2184  1.2793  3.1717
 6123SOL    HW229832   2.541   4.397   9.091 -1.1786 -0.7381 -1.1798
 6124SOL     OW29833   4.002   0.647   3.884 -0.5908  0.3093 -0.0451
 6124SOL    HW129834   4.019   0.741   3.874  0.7863  0.2512  1.6223
 6124SOL    HW229835   4.089   0.608   3.872 -0.1139  0.2465  3.6448
 6125SOL     OW29836   3.112   0.594   7.744  0.7099 -0.1818 -0.8307
 6125SOL    HW129837   3.032   0.579   7.692  0.3571  1.0283 -0.6275
 6125SOL    HW229838   3.103   0.527   7.811  0.0566  0.9984  0.2538
 6126SOL     OW29839   0.049   1.349   8.520 -0.0564 -0.6457  0.3286
 6126SOL    HW129840   0.037   1.443   8.534  1.2132 -0.3757 -0.4021
 6126SOL    HW229841   0.118   1.328   8.583 -0.6449  0.1043  1.2180
 6127SOL     OW29842   0.700   4.588   4.634 -0.1351 -0.1136  0.2467
 6127SOL    HW129843   0.723   4.580   4.727 -0.8201 -1.6513  0.2866
 6127SOL    HW229844   0.636   4.518   4.622 -0.3403  0.2779 -0.9424
 6128SOL     OW29845   2.125   3.566   5.673 -0.2303 -0.3532  0.7864
 6128SOL    HW129846   2.065   3.507   5.628 -1.3586  1.2111  0.2593
 6128SOL    HW229847   2.187   3.500   5.705  0.4439 -1.0481 -1.9901
 6129SOL     OW29848   2.873   0.643   8.619 -0.2153 -0.0659 -0.3642
 6129SOL    HW129849   2.803   0.606   8.566 -0.3549  0.8382 -0.8082
 6129SOL    HW229850   2.847   0.734   8.634  2.1283  0.6644 -0.6038
 6130SOL     OW29851   2.785   2.085   2.004 -0.0248  0.5075 -0.1240
 6130SOL    HW129852   2.792   2.131   1.920 -1.8088  1.7863  0.4338
 6130SOL    HW229853   2.775   1.998   1.966 -0.7485  1.3688 -1.8917
 6131SOL     OW29854   4.484   0.440   2.557  0.3224 -0.0737 -0.1542
 6131SOL    HW129855   4.575   0.451   2.530  0.9653 -1.4329  1.4701
 6131SOL    HW229856   4.469   0.350   2.528 -0.0587  0.6973 -2.3645
 6132SOL     OW29857   3.207   0.430   2.466  0.2526  0.4801  0.5762
 6132SOL    HW129858   3.166   0.516   2.471  1.0894  0.8236  1.5779
 6132SOL    HW229859   3.204   0.412   2.372  0.3845  1.0161  0.4715
 6133SOL     OW29860   2.890   0.162   1.317 -0.9371 -0.1795 -0.1155
 6133SOL    HW129861   2.964   0.211   1.281 -0.6944 -0.4794 -0.0268
 6133SOL    HW229862   2.818   0.182   1.257 -0.9224 -1.0254 -0.4196
 6134SOL     OW29863   1.971   1.909   2.147 -0.2356  0.0004  0.0761
 6134SOL    HW129864   2.006   1.894   2.235 -0.3287 -1.0677 -0.0719
 6134SOL    HW229865   2.044   1.897   2.086 -0.3811 -0.5296  0.0118
 6135SOL     OW29866   2.544   1.713   2.304 -0.3198  0.2441 -0.3354
 6135SOL    HW129867   2.581   1.712   2.216 -1.7842  2.0562 -0.9619
 6135SOL    HW229868   2.621   1.680   2.350 -0.7834 -2.4023 -1.4537
 6136SOL     OW29869   0.348   2.323   1.654 -0.3270  0.0740 -0.5397
 6136SOL    HW129870   0.407   2.284   1.718 -0.5781  0.9460  0.2216
 6136SOL    HW229871   0.409   2.360   1.589 -1.0268 -0.9649 -1.7967
 6137SOL     OW29872   0.590   4.429  14.615  0.7981 -0.1503  0.1186
 6137SOL    HW129873   0.508   4.436  14.567  0.0094 -1.4290  1.2751
 6137SOL    HW229874   0.636   4.347  14.595  0.3388  0.3492 -2.9921
 6138SOL     OW29875   4.684   3.686   8.287  0.1764  0.3111 -0.3645
 6138SOL    HW129876   0.004   3.601   8.285 -1.2006 -0.3944 -0.7416
 6138SOL    HW229877   4.595   3.672   8.254 -0.5467  0.0349  1.6977
 6139SOL     OW29878   0.911   3.328   4.255 -0.3492  0.4074 -0.1499
 6139SOL    HW129879   0.991   3.275   4.256  0.6098  1.8143 -1.4266
 6139SOL    HW229880   0.845   3.267   4.286 -1.1033  1.5561  0.5039
 6140SOL     OW29881   1.486   1.392   0.664 -0.3915 -0.6933  0.0202
 6140SOL    HW129882   1.532   1.309   0.670 -0.0006 -0.2564  2.7323
 6140SOL    HW229883   1.549   1.444   0.713 -1.7468 -0.1015  1.1428
 6141SOL     OW29884   3.801   3.937   4.463 -0.4856  0.0622  0.2454
 6141SOL    HW129885   3.752   3.989   4.398 -0.6962  0.3633  0.6447
 6141SOL    HW229886   3.858   3.883   4.408 -1.1421 -0.0754 -0.3059
 6142SOL     OW29887   0.019   3.246   5.829  0.6450  0.6497  0.4099
 6142SOL    HW129888   4.715   3.334   5.806  1.4984  0.2221 -2.2246
 6142SOL    HW229889   4.696   3.189   5.768  1.0953  0.2121  0.4768
 6143SOL     OW29890   0.577   0.162   8.293 -0.0975 -0.4848  0.4451
 6143SOL    HW129891   0.544   0.123   8.374 -0.0681 -0.9684  0.2237
 6143SOL    HW229892   0.497   0.205   8.262  0.5721 -0.2381 -0.9617
 6144SOL     OW29893   4.272   4.675   3.376  0.0314  0.2127 -0.1235
 6144SOL    HW129894   4.354   4.625   3.369  0.5744  0.9943  0.6895
 6144SOL    HW229895   4.285   0.000   3.457 -0.3746  0.7533 -0.3924
 6145SOL     OW29896   3.177   1.064   7.876 -0.1433 -0.4349 -0.0552
 6145SOL    HW129897   3.152   1.039   7.965 -0.5979 -2.4566 -0.7613
 6145SOL    HW229898   3.273   1.065   7.880 -0.1737  0.1351  0.6568
 6146SOL     OW29899   3.555   1.267  12.093 -0.5022 -0.2639  0.0944
 6146SOL    HW129900   3.579   1.324  12.167 -0.5548 -0.8683  0.5758
 6146SOL    HW229901   3.557   1.189  12.149 -0.3197 -0.9212 -0.8398
 6147SOL     OW29902   2.728   0.983  16.074 -0.2837 -0.0485 -0.6085
 6147SOL    HW129903   2.796   0.954  16.014 -0.0333  1.6707 -1.1778
 6147SOL    HW229904   2.722   1.078  16.060 -1.1656 -0.2797 -1.7206
 6148SOL     OW29905   3.825   2.216  12.932  0.0017  0.5575  0.3499
 6148SOL    HW129906   3.824   2.152  12.860  0.2666  0.9823 -0.0342
 6148SOL    HW229907   3.796   2.164  13.006 -3.4179  0.6692 -0.9382
 6149SOL     OW29908   1.613   2.612  13.678  0.1168 -0.4277 -0.4616
 6149SOL    HW129909   1.588   2.520  13.669  0.5612 -0.5984  0.0688
 6149SOL    HW229910   1.671   2.630  13.604  0.4606  0.4494  0.0323
 6150SOL     OW29911   0.518   3.652   5.687  0.0133  0.0915  0.1776
 6150SOL    HW129912   0.497   3.690   5.602 -2.4547 -1.7345 -0.0341
 6150SOL    HW229913   0.532   3.559   5.670  1.8431  0.3578  0.1488
 6151SOL     OW29914   0.274   0.073  12.316  0.6552  0.1221 -0.6648
 6151SOL    HW129915   0.352   0.107  12.273  2.8055 -1.3420  2.0549
 6151SOL    HW229916   0.214   0.133  12.273  1.1120  1.1614  0.1521
 6152SOL     OW29917   3.845   1.592   8.066 -0.1043 -0.8580  0.2376
 6152SOL    HW129918   3.778   1.647   8.107 -0.7103 -0.5097 -1.2167
 6152SOL    HW229919   3.918   1.603   8.127  1.9518 -0.2174 -2.3735
 6153SOL     OW29920   1.189   1.466   4.167  0.0648  0.7854  0.0834
 6153SOL    HW129921   1.222   1.405   4.234  1.9679  0.7353 -0.8791
 6153SOL    HW229922   1.098   1.436   4.169  0.7227 -1.0709  2.8442
 6154SOL     OW29923   4.279   0.919   6.065 -0.3282  0.6979  0.1015
 6154SOL    HW129924   4.185   0.915   6.044 -0.6893 -0.6891  2.0194
 6154SOL    HW229925   4.277   0.836   6.112  3.4797  1.6387  1.8340
 6155SOL     OW29926   4.317   3.753   9.100 -0.4918  0.0102  0.0162
 6155SOL    HW129927   4.246   3.714   9.150 -0.1412  0.4779  0.8731
 6155SOL    HW229928   4.394   3.698   9.117  0.2524  1.2071  0.5496
 6156SOL     OW29929   3.639   4.451   3.280  0.0974  0.1789 -0.2552
 6156SOL    HW129930   3.610   4.367   3.246  2.1723 -0.6141 -0.0753
 6156SOL    HW229931   3.693   4.431   3.357 -0.9786  2.4216  1.0908
 6157SOL     OW29932   3.143   3.325  15.591 -0.4703  0.2166 -0.5374
 6157SOL    HW129933   3.119   3.388  15.658 -1.6970 -1.3868  0.5164
 6157SOL    HW229934   3.136   3.239  15.632 -0.2305  1.1207  1.3988
 6158SOL     OW29935   4.556   1.750   5.210  0.4036  0.5815 -0.2086
 6158SOL    HW129936   4.519   1.722   5.127  0.8673  0.4550 -0.3728
 6158SOL    HW229937   4.511   1.834   5.220  2.0006  1.6304 -1.9166
 6159SOL     OW29938   4.369   2.829   4.276  0.4422 -0.8171  0.7288
 6159SOL    HW129939   4.433   2.889   4.237 -0.7501  0.5502  0.8698
 6159SOL    HW229940   4.323   2.796   4.199 -0.1956 -1.5895  1.4509
 6160SOL     OW29941   1.131   4.406  14.218  0.2327 -0.4800 -0.2166
 6160SOL    HW129942   1.188   4.376  14.288 -0.1283 -1.8711 -0.5151
 6160SOL    HW229943   1.156   4.498  14.221 -0.3836 -0.2794 -1.3379
 6161SOL     OW29944   1.561   0.801   5.549  0.0596 -0.0794 -0.0193
 6161SOL    HW129945   1.642   0.755   5.573  0.1818 -0.1124 -0.4923
 6161SOL    HW229946   1.538   0.814   5.641  1.7143  1.7271  0.1285
 6162SOL     OW29947   2.940   1.997   7.477  0.0302 -0.2283 -0.0710
 6162SOL    HW129948   3.036   1.993   7.470 -0.0048 -0.9961 -0.1893
 6162SOL    HW229949   2.915   1.926   7.417 -2.4912 -0.4251  1.2354
 6163SOL     OW29950   2.114   1.622   2.022 -0.2769 -0.5655  0.4976
 6163SOL    HW129951   2.083   1.673   1.948  0.4236  0.9101  1.2233
 6163SOL    HW229952   2.039   1.566   2.042 -1.1162  0.7987  1.1820
 6164SOL     OW29953   2.141   0.695   1.419 -0.2341 -0.0765  0.5029
 6164SOL    HW129954   2.112   0.609   1.391  0.2445 -0.6569  1.8235
 6164SOL    HW229955   2.190   0.656   1.491  1.0232  1.4838  0.5019
 6165SOL     OW29956   0.446   2.115   5.072 -0.3777 -0.3976  0.7509
 6165SOL    HW129957   0.414   2.026   5.054  0.5977 -0.9561  1.8041
 6165SOL    HW229958   0.511   2.096   5.140  0.3634  0.4161  0.2660
 6166SOL     OW29959   0.960   2.689   3.389  0.1105  0.2129 -0.2016
 6166SOL    HW129960   0.965   2.693   3.485  1.6659 -1.5456 -0.2086
 6166SOL    HW229961   0.893   2.624   3.368 -0.0136  0.3653 -0.2774
 6167SOL     OW29962   0.024   1.285  17.573 -0.1144  0.1918  0.2675
 6167SOL    HW129963   4.724   1.368  17.532 -0.9903 -0.2620 -0.1233
 6167SOL    HW229964   0.063   1.312  17.657 -0.0649 -1.2161  0.6964
 6168SOL     OW29965   4.387   2.045   2.046 -0.2396  0.2199 -0.4822
 6168SOL    HW129966   4.433   2.026   1.964 -1.1844 -1.6569 -0.5794
 6168SOL    HW229967   4.301   2.066   2.009 -0.6157 -0.9373 -0.2442
 6169SOL     OW29968   4.379   1.104   1.995  0.2721 -0.3634 -0.1266
 6169SOL    HW129969   4.459   1.152   1.973  0.7615 -1.3483 -0.4789
 6169SOL    HW229970   4.382   1.032   1.933 -0.8031 -0.7757  0.3094
 6170SOL     OW29971   0.219   1.159   6.691  0.2489 -0.1728 -0.4696
 6170SOL    HW129972   0.216   1.067   6.718 -0.6675 -0.0558 -0.1454
 6170SOL    HW229973   0.254   1.204   6.767  1.2619  0.1805 -1.1539
 6171SOL     OW29974   0.594   1.419  15.973  0.1000  0.8076 -0.4185
 6171SOL    HW129975   0.679   1.418  16.018  0.6094 -2.4951 -1.4221
 6171SOL    HW229976   0.587   1.514  15.962  0.6083  1.0308  1.1461
 6172SOL     OW29977   3.096   1.746  15.957  0.1354  0.5434 -0.4415
 6172SOL    HW129978   3.069   1.814  16.019  1.3184 -0.1758  0.8622
 6172SOL    HW229979   3.096   1.667  16.010 -0.0933  0.6061 -0.3491
 6173SOL     OW29980   4.057   0.200   9.671 -0.1614  0.2736  0.0306
 6173SOL    HW129981   4.038   0.228   9.761  1.3607  2.8880 -0.4316
 6173SOL    HW229982   4.150   0.223   9.662 -0.0936  0.2573  0.6909
 6174SOL     OW29983   3.983   1.181  15.642  0.0441 -0.0593 -0.1837
 6174SOL    HW129984   3.952   1.268  15.620 -1.4415 -0.3188  0.8066
 6174SOL    HW229985   4.065   1.173  15.594  0.9271  0.1291  1.3131
 6175SOL     OW29986   1.168   4.508  17.175  0.1897  0.0809  0.0087
 6175SOL    HW129987   1.103   4.541  17.237  0.5627  0.0348  0.4298
 6175SOL    HW229988   1.119   4.456  17.112  1.3514 -3.0571  1.6556
 6176SOL     OW29989   2.051   0.542   4.330 -0.0658  0.6100 -0.1559
 6176SOL    HW129990   1.995   0.618   4.313 -1.4013 -0.5032 -0.7290
 6176SOL    HW229991   1.990   0.471   4.309 -0.2858  0.5260  0.8108
 6177SOL     OW29992   3.582   3.330   0.227 -0.3214  0.2772  0.2870
 6177SOL    HW129993   3.589   3.239   0.198  0.6001 -0.1775  1.9037
 6177SOL    HW229994   3.487   3.334   0.231 -0.1755  2.8437  0.9561
 6178SOL     OW29995   1.902   4.402  15.772  0.3108 -0.2336 -0.7527
 6178SOL    HW129996   1.972   4.377  15.832 -0.1878 -1.2913 -0.6126
 6178SOL    HW229997   1.871   4.482  15.814 -0.6757 -0.4501 -1.0667
 6179SOL     OW29998   4.540   1.267   3.322 -1.1095 -0.0220 -0.1489
 6179SOL    HW129999   4.492   1.249   3.241  1.3812  3.8065 -2.4451
 6179SOL    HW230000   4.572   1.177   3.338 -1.1787 -0.2273 -1.2022
 6180SOL     OW30001   2.725   2.822   0.669 -0.3130  0.2523  0.3310
 6180SOL    HW130002   2.720   2.887   0.739  1.0822 -1.8899  2.3857
 6180SOL    HW230003   2.775   2.872   0.604  4.0150 -1.0363  2.6869
 6181SOL     OW30004   4.394   0.651  14.185 -0.3207  0.0733 -0.4925
 6181SOL    HW130005   4.370   0.623  14.097  0.8757 -1.5587 -0.3020
 6181SOL    HW230006   4.465   0.713  14.168  0.1640 -0.8213 -1.8216
 6182SOL     OW30007   0.357   0.680   9.408  0.2719 -0.2235  0.2801
 6182SOL    HW130008   0.288   0.617   9.430 -1.0220  0.6456 -1.3446
 6182SOL    HW230009   0.392   0.648   9.325  1.0431  0.1767  0.4534
 6183SOL     OW30010   4.183   2.271  11.386 -0.1937 -0.4870 -0.1980
 6183SOL    HW130011   4.210   2.362  11.391 -0.8304 -0.3378  0.6526
 6183SOL    HW230012   4.143   2.258  11.473 -2.8697  0.3154 -1.3123
 6184SOL     OW30013   1.323   2.573   3.470  0.6334 -0.2166  0.2425
 6184SOL    HW130014   1.311   2.491   3.422 -0.1498 -0.0808  0.2146
 6184SOL    HW230015   1.403   2.610   3.432  1.0967  0.2262  1.6588
 6185SOL     OW30016   1.969   0.593  10.431 -0.2654  0.2720 -0.0821
 6185SOL    HW130017   1.877   0.570  10.446 -0.3911  0.8718  0.1004
 6185SOL    HW230018   2.007   0.580  10.518  0.7629  2.8482 -0.1331
 6186SOL     OW30019   2.074   4.466   8.844  0.2998 -0.1186 -0.0828
 6186SOL    HW130020   2.039   4.377   8.840 -2.7465  1.0736  0.2324
 6186SOL    HW230021   2.163   4.436   8.825  0.0195 -1.0005 -0.0336
 6187SOL     OW30022   1.947   1.761   1.580 -0.1490  0.2559  0.1055
 6187SOL    HW130023   2.026   1.725   1.539 -1.5035 -0.3135 -1.9857
 6187SOL    HW230024   1.930   1.845   1.539 -1.9695 -1.2025 -2.1559
 6188SOL     OW30025   3.367   1.903   5.513 -0.1432  0.2305  0.0640
 6188SOL    HW130026   3.419   1.915   5.433  0.2274  1.7413  0.5359
 6188SOL    HW230027   3.426   1.863   5.578  0.7321  1.6464  0.1401
 6189SOL     OW30028   1.150   3.209  10.644 -0.1796  0.1784 -0.2787
 6189SOL    HW130029   1.110   3.141  10.590 -0.3070  0.3067 -0.3478
 6189SOL    HW230030   1.231   3.164  10.665 -0.2906  0.6201  1.0656
 6190SOL     OW30031   2.739   3.001   8.742  0.3117 -0.2309 -0.3240
 6190SOL    HW130032   2.671   3.059   8.775 -0.4225 -1.4810  0.3510
 6190SOL    HW230033   2.735   3.009   8.647  0.9852 -0.2332 -0.3534
 6191SOL     OW30034   2.497   3.662   0.771 -0.0744  0.4011  0.2798
 6191SOL    HW130035   2.518   3.665   0.864 -2.6429  0.5277  0.8625
 6191SOL    HW230036   2.486   3.568   0.756  1.7895  0.3061 -0.5234
 6192SOL     OW30037   0.141   3.754  10.049  0.0532 -0.2000 -0.3997
 6192SOL    HW130038   0.056   3.796  10.032  0.3662  0.0620 -1.3059
 6192SOL    HW230039   0.123   3.707  10.131  1.9581 -1.4840 -0.7438
 6193SOL     OW30040   3.419   2.822   2.181  0.0810 -1.0528  0.0298
 6193SOL    HW130041   3.509   2.848   2.164  0.8341 -2.0838  2.4122
 6193SOL    HW230042   3.408   2.738   2.135  0.9779 -2.1031  1.7309
 6194SOL     OW30043   3.218   3.688   2.844  0.4250 -0.0418  0.3626
 6194SOL    HW130044   3.153   3.692   2.915  1.5768 -2.0670  1.5060
 6194SOL    HW230045   3.268   3.768   2.859 -0.3560  0.3804  0.7541
 6195SOL     OW30046   0.023   0.751   3.338 -0.4422 -0.1458 -0.2914
 6195SOL    HW130047   0.027   0.847   3.344  1.2460 -0.3058  1.2182
 6195SOL    HW230048   0.093   0.726   3.277  0.5544 -0.5269  1.0049
 6196SOL     OW30049   1.898   3.556  13.270  0.1050 -0.0648  0.3319
 6196SOL    HW130050   1.820   3.531  13.319  1.1143 -2.9369  0.4639
 6196SOL    HW230051   1.964   3.527  13.333  1.7101 -0.6655 -1.6279
 6197SOL     OW30052   0.613   2.288   5.446  0.1614  0.9521  0.3169
 6197SOL    HW130053   0.626   2.320   5.535  0.2833  1.5890  0.0663
 6197SOL    HW230054   0.704   2.272   5.423 -0.2337 -1.2835  0.2285
 6198SOL     OW30055   3.535   4.663   4.974 -0.4979  0.1150 -0.3178
 6198SOL    HW130056   3.568   4.724   4.907 -3.1544  1.0621 -0.7725
 6198SOL    HW230057   3.514   4.593   4.913  2.7702 -0.2310 -1.0322
 6199SOL     OW30058   2.413   0.257  15.933 -0.0563 -0.0121 -0.1119
 6199SOL    HW130059   2.432   0.309  15.855  2.4639 -1.7376 -0.6542
 6199SOL    HW230060   2.398   0.333  15.989 -3.8893 -1.4381  0.8062
 6200SOL     OW30061   4.523   4.394   3.652 -0.3590 -0.0898  0.0908
 6200SOL    HW130062   4.581   4.441   3.712 -2.2260  1.0538  1.0084
 6200SOL    HW230063   4.577   4.316   3.639 -0.3290  0.1935 -1.4749
 6201SOL     OW30064   0.066   4.137   5.093  0.4872  0.2996 -0.4368
 6201SOL    HW130065   0.120   4.166   5.019  0.3761 -1.1020 -1.0516
 6201SOL    HW230066   4.715   4.196   5.085 -0.8349 -1.4194 -0.5563
 6202SOL     OW30067   3.290   0.247   6.290  0.6596  0.1697  0.2331
 6202SOL    HW130068   3.385   0.240   6.300  0.8796  1.0408 -1.3451
 6202SOL    HW230069   3.265   0.155   6.303  0.9257  0.2575  1.3718
 6203SOL     OW30070   0.104   2.249   3.826  0.2512 -0.2780 -0.0685
 6203SOL    HW130071   0.175   2.197   3.788  0.0386 -1.2330  0.8617
 6203SOL    HW230072   0.144   2.278   3.908  1.3953  0.8336 -1.0216
 6204SOL     OW30073   2.000   2.120   5.433 -0.0735 -0.0763 -0.0452
 6204SOL    HW130074   2.055   2.042   5.424  0.6780  0.6869 -2.0836
 6204SOL    HW230075   2.003   2.137   5.527  1.4040 -1.0898  0.0985
 6205SOL     OW30076   0.006   1.296   6.493 -0.4682  0.2204  0.1666
 6205SOL    HW130077   0.057   1.363   6.447  0.8260 -0.3380  0.7956
 6205SOL    HW230078   0.066   1.277   6.565  0.9544 -1.7593 -1.5204
 6206SOL     OW30079   2.395   1.674   9.974 -0.6659 -0.2231  0.3530
 6206SOL    HW130080   2.475   1.716  10.007 -0.7000  1.1822 -1.3753
 6206SOL    HW230081   2.394   1.600  10.036  1.0264 -0.7900 -0.3006
 6207SOL     OW30082   2.436   3.592   2.260  0.5816 -0.0485 -0.3939
 6207SOL    HW130083   2.374   3.537   2.212  2.1360 -2.5047  0.3800
 6207SOL    HW230084   2.394   3.590   2.346  0.1543 -0.7483 -0.6178
 6208SOL     OW30085   1.854   3.967   7.399 -0.0582  0.5013  0.0801
 6208SOL    HW130086   1.873   3.873   7.393  1.9447  0.9056 -0.0747
 6208SOL    HW230087   1.795   3.973   7.323 -1.9189  2.1423  1.6646
 6209SOL     OW30088   2.459   4.565   4.208 -0.3974 -0.1610  0.1011
 6209SOL    HW130089   2.550   4.575   4.236 -0.3860 -0.6054  0.2300
 6209SOL    HW230090   2.418   4.626   4.269 -0.0689 -0.2488  0.4114
 6210SOL     OW30091   0.380   4.656   2.058  0.4374 -0.3207 -0.4282
 6210SOL    HW130092   0.289   4.629   2.045  0.5466 -0.3054 -1.2312
 6210SOL    HW230093   0.398   4.710   1.981  0.0016  0.1741 -0.1806
 6211SOL     OW30094   1.237   2.111   0.028 -0.4122 -0.1698 -0.1344
 6211SOL    HW130095   1.269   2.120   0.118  3.1112  1.2381 -1.5265
 6211SOL    HW230096   1.318   2.081  17.682 -0.2253  0.1977 -0.0349
 6212SOL     OW30097   3.535   0.211   7.226  0.4261 -0.6127 -0.6062
 6212SOL    HW130098   3.583   0.128   7.229 -0.4309 -1.1458 -1.8966
 6212SOL    HW230099   3.461   0.194   7.284  2.1803 -0.6464  1.6367
 6213SOL     OW30100   2.891   4.440   3.289  0.5631  0.4770 -0.0255
 6213SOL    HW130101   2.864   4.352   3.313  0.4944  0.3393 -0.5936
 6213SOL    HW230102   2.899   4.431   3.194  0.5170 -0.1495  0.0309
 6214SOL     OW30103   4.415   3.109   7.896 -0.2210  0.2689  0.0270
 6214SOL    HW130104   4.367   3.178   7.942  0.5980  0.8098  0.0845
 6214SOL    HW230105   4.361   3.100   7.817 -0.7265  0.7632  0.3136
 6215SOL     OW30106   0.517   2.698   2.416 -0.1158 -0.1499 -0.4784
 6215SOL    HW130107   0.438   2.723   2.464  0.1084  1.2704 -0.8502
 6215SOL    HW230108   0.500   2.608   2.390 -1.0836  0.1108 -0.7659
 6216SOL     OW30109   4.265   2.044   1.319  0.0721 -0.0174 -0.1622
 6216SOL    HW130110   4.179   2.054   1.359 -0.2343 -0.4761 -0.7129
 6216SOL    HW230111   4.256   1.974   1.255  1.4872 -0.3577 -0.0080
 6217SOL     OW30112   1.171   1.815   7.866  0.2626 -0.0623  0.0671
 6217SOL    HW130113   1.178   1.732   7.819  2.2545 -0.8485  1.7454
 6217SOL    HW230114   1.249   1.809   7.922  0.0459 -1.5802  0.2119
 6218SOL     OW30115   1.391   2.079  14.048 -0.1000 -0.1770  0.4933
 6218SOL    HW130116   1.313   2.027  14.069  0.0099 -0.4925  0.1104
 6218SOL    HW230117   1.433   2.010  13.999  0.2862  0.0455  0.5082
 6219SOL     OW30118   4.642   0.938  16.590 -0.0106 -0.1308 -0.2546
 6219SOL    HW130119   4.570   1.000  16.595  1.0986  1.1294  0.3341
 6219SOL    HW230120   4.595   0.856  16.607 -0.1979  0.2420  1.0234
 6220SOL     OW30121   0.648   0.016   9.125 -0.7686 -0.3800 -0.0899
 6220SOL    HW130122   0.632   0.103   9.163 -1.6725 -0.7917  0.4734
 6220SOL    HW230123   0.674   4.700   9.208 -0.7261  0.0675  0.1094
 6221SOL     OW30124   0.230   3.452   8.103 -0.2142 -0.5853 -0.1287
 6221SOL    HW130125   0.237   3.453   8.007 -0.0062  0.4775 -0.0945
 6221SOL    HW230126   0.323   3.463   8.120 -0.0189  0.0406 -1.6118
 6222SOL     OW30127   1.648   1.589  16.068 -0.2711  0.2355 -0.5051
 6222SOL    HW130128   1.663   1.501  16.033 -3.1637 -1.7489  3.2237
 6222SOL    HW230129   1.584   1.572  16.137  1.2997  0.8680  1.0929
 6223SOL     OW30130   3.154   4.072   6.444 -0.5529  0.2992 -0.1903
 6223SOL    HW130131   3.169   4.106   6.532  2.7832  0.4271 -0.7938
 6223SOL    HW230132   3.062   4.091   6.426 -1.6392 -2.6408  2.1032
 6224SOL     OW30133   0.925   2.502  16.279  0.0552  0.0351 -0.3422
 6224SOL    HW130134   0.977   2.542  16.349  0.7602  1.2147 -1.5485
 6224SOL    HW230135   0.855   2.567  16.274  0.1463  0.2977  1.7328
 6225SOL     OW30136   2.472   1.543  10.633  0.0591 -0.3138  0.1849
 6225SOL    HW130137   2.564   1.536  10.611  0.3178  1.5156  0.6865
 6225SOL    HW230138   2.455   1.637  10.630 -0.7504 -0.3900  2.2060
 6226SOL     OW30139   1.035   3.412  10.878 -0.0888  0.2492 -0.5540
 6226SOL    HW130140   0.941   3.398  10.866 -0.4035  0.6186  1.5514
 6226SOL    HW230141   1.066   3.375  10.795 -0.7883 -0.6732 -0.4085
 6227SOL     OW30142   4.653   1.090   6.058  0.5454  0.2325 -0.2226
 6227SOL    HW130143   4.625   1.007   6.018  1.3027  0.9188 -2.1811
 6227SOL    HW230144   4.598   1.088   6.136 -0.3835 -0.0981 -0.8773
 6228SOL     OW30145   4.697   0.626   1.035  0.2388  0.3584  0.0551
 6228SOL    HW130146   4.631   0.674   1.085  0.4469  0.4492  0.2468
 6228SOL    HW230147   4.687   0.537   1.069  1.2909 -0.5927 -2.1167
 6229SOL     OW30148   0.344   4.496  15.793  0.3377 -0.2219 -0.4574
 6229SOL    HW130149   0.356   4.401  15.793 -2.0209 -0.5276 -2.2201
 6229SOL    HW230150   0.425   4.534  15.759 -0.9545  0.8127 -2.3659
 6230SOL     OW30151   1.392   3.420   4.915 -0.1098  0.0445  0.0815
 6230SOL    HW130152   1.322   3.419   4.980  0.2102  0.4268  0.4297
 6230SOL    HW230153   1.460   3.374   4.964 -0.0370 -0.4800 -0.5041
 6231SOL     OW30154   1.922   4.189   6.331 -0.8117  0.5045 -0.6311
 6231SOL    HW130155   1.908   4.124   6.263 -3.2121  0.9918 -0.6192
 6231SOL    HW230156   1.890   4.141   6.407 -2.0110  1.1926 -0.6954
 6232SOL     OW30157   1.859   1.423   9.020  0.0536  0.4744  0.0117
 6232SOL    HW130158   1.801   1.404   8.946  1.1357  0.6609 -0.8924
 6232SOL    HW230159   1.873   1.340   9.064 -0.8995  1.6601  2.5521
 6233SOL     OW30160   0.845   3.700   6.314  0.8352  0.1457 -0.1587
 6233SOL    HW130161   0.913   3.633   6.318  0.4420 -0.3998 -2.5409
 6233SOL    HW230162   0.872   3.756   6.386 -0.3645  1.8522 -1.0486
 6234SOL     OW30163   3.853   1.954  16.753  0.1439  0.2340 -0.2709
 6234SOL    HW130164   3.849   2.019  16.683  0.0313 -0.7677 -1.1866
 6234SOL    HW230165   3.808   1.998  16.825 -2.2243  1.5406 -2.5493
 6235SOL     OW30166   2.526   2.964   3.759  0.3194 -0.3468  0.3230
 6235SOL    HW130167   2.545   2.941   3.668  1.1163 -1.1299  0.6811
 6235SOL    HW230168   2.586   3.036   3.778  1.2606 -1.2440  0.7623
 6236SOL     OW30169   1.273   2.124   0.304 -0.3008  0.0003  0.1298
 6236SOL    HW130170   1.301   2.209   0.338  1.9813 -0.2225 -1.2737
 6236SOL    HW230171   1.286   2.065   0.378  1.1686  0.0286 -0.1123
 6237SOL     OW30172   2.887   0.669   3.147  0.0582  0.5126 -0.1970
 6237SOL    HW130173   2.886   0.672   3.242 -1.7715 -2.8111 -0.1160
 6237SOL    HW230174   2.973   0.631   3.127  1.0395  1.7502  1.7040
 6238SOL     OW30175   4.351   1.482   8.448 -0.2783  0.4058  0.4206
 6238SOL    HW130176   4.284   1.445   8.391  1.7316 -0.3119 -1.4870
 6238SOL    HW230177   4.433   1.443   8.417 -0.1729  1.2071 -0.3169
 6239SOL     OW30178   3.010   4.645   5.346 -0.6853  0.0062 -0.4154
 6239SOL    HW130179   3.068   4.595   5.290 -1.0757  1.3257 -2.0133
 6239SOL    HW230180   2.934   4.666   5.291 -0.8736 -0.8661 -0.4803
 6240SOL     OW30181   0.075   1.266  10.752  0.1387  0.0210 -0.0077
 6240SOL    HW130182   0.146   1.237  10.696  0.3729 -2.0630  1.3687
 6240SOL    HW230183   0.116   1.293  10.834 -1.1742  2.7436 -0.2425
 6241SOL     OW30184   3.933   1.320   7.028  0.2127 -0.1699 -0.0889
 6241SOL    HW130185   3.940   1.415   7.020 -1.2924 -0.2367 -2.0563
 6241SOL    HW230186   3.958   1.311   7.120 -2.0301 -0.1417  0.5107
 6242SOL     OW30187   4.475   4.227  11.548  0.0364  0.3404  0.0571
 6242SOL    HW130188   4.550   4.171  11.529 -0.1006 -0.1396  0.9510
 6242SOL    HW230189   4.474   4.227  11.643 -0.0786  0.3849  0.0565
 6243SOL     OW30190   2.669   3.805   5.863 -0.4002 -0.2226  0.3290
 6243SOL    HW130191   2.579   3.774   5.874 -1.2706  2.9451  1.9260
 6243SOL    HW230192   2.717   3.733   5.821 -1.6928 -1.1046  0.3720
 6244SOL     OW30193   3.976   0.813   5.384 -0.3562  0.4437  0.4266
 6244SOL    HW130194   3.991   0.901   5.350  1.2610  0.9920  2.5479
 6244SOL    HW230195   4.015   0.770   5.308  0.7411  0.5913  0.9011
 6245SOL     OW30196   1.172   4.054   3.395  0.1841  0.2541  0.1565
 6245SOL    HW130197   1.089   4.025   3.432 -0.7582  1.0898 -1.3015
 6245SOL    HW230198   1.240   3.994   3.425  0.0543 -0.2490 -0.5556
 6246SOL     OW30199   2.643   3.070   5.927 -0.2059  0.3156  0.0597
 6246SOL    HW130200   2.648   3.158   5.964 -1.3893 -0.3811  1.8625
 6246SOL    HW230201   2.722   3.066   5.874  0.8862 -0.6606  1.7778
 6247SOL     OW30202   3.212   4.453   9.158 -0.4033  0.3387 -0.4931
 6247SOL    HW130203   3.287   4.399   9.185 -0.4459 -0.4599 -1.9628
 6247SOL    HW230204   3.169   4.468   9.242 -1.7626 -2.6422 -0.6551
 6248SOL     OW30205   2.143   4.307   1.741 -0.6359  0.3629  0.3570
 6248SOL    HW130206   2.108   4.395   1.747 -0.5982  0.3673  0.5226
 6248SOL    HW230207   2.134   4.290   1.835  1.4242 -1.1379  0.2868
 6249SOL     OW30208   1.979   0.978   6.073  0.2802  0.3317  0.8675
 6249SOL    HW130209   2.062   1.024   6.085 -0.4081  1.6733  0.5592
 6249SOL    HW230210   1.968   0.989   5.978 -0.7108  0.5327  1.0033
 6250SOL     OW30211   2.034   3.384   4.680  0.1415  0.2810  0.0156
 6250SOL    HW130212   2.009   3.474   4.701 -2.6806 -0.4958 -0.0156
 6250SOL    HW230213   2.130   3.384   4.684  0.1060 -0.3752  0.9652
 6251SOL     OW30214   1.845   0.202   6.370 -0.0596 -0.7602 -0.5842
 6251SOL    HW130215   1.859   0.215   6.464 -4.4265  0.2617 -0.0751
 6251SOL    HW230216   1.763   0.153   6.364 -0.0499 -0.8098 -0.3332
 6252SOL     OW30217   3.588   3.336   4.558  0.1142  0.6851  0.3574
 6252SOL    HW130218   3.560   3.403   4.620  0.7417  1.4881 -0.2192
 6252SOL    HW230219   3.661   3.375   4.509 -0.8140  1.5952 -0.3025
 6253SOL     OW30220   1.410   0.744   5.196 -0.7021 -0.2736  0.2699
 6253SOL    HW130221   1.379   0.654   5.208  0.2488 -0.6911 -0.3558
 6253SOL    HW230222   1.496   0.724   5.159 -0.3346  0.1017  0.9262
 6254SOL     OW30223   2.286   3.042  14.112  0.4932  0.5480  0.3508
 6254SOL    HW130224   2.275   3.113  14.050 -0.8736  0.0934  0.0760
 6254SOL    HW230225   2.353   2.991  14.066 -0.9844  1.4519 -2.8107
 6255SOL     OW30226   2.779   4.624  12.669  0.4192 -0.3129  0.0054
 6255SOL    HW130227   2.870   4.654  12.669  0.6990 -1.1462  0.2754
 6255SOL    HW230228   2.754   4.615  12.761 -0.4525  2.1991  0.0051
 6256SOL     OW30229   2.467   0.481   2.580  0.6307  0.9488  0.4161
 6256SOL    HW130230   2.391   0.491   2.523  0.3094 -1.0384  0.4793
 6256SOL    HW230231   2.498   0.394   2.555  0.3696  1.0477 -0.2368
 6257SOL     OW30232   3.706   4.505  10.981  0.1674  0.0986 -0.9659
 6257SOL    HW130233   3.685   4.588  10.937  0.4085  0.6909  0.0400
 6257SOL    HW230234   3.619   4.466  10.978 -0.3496  1.4600 -3.9180
 6258SOL     OW30235   3.011   0.764   0.740 -0.4844 -0.3646 -0.1933
 6258SOL    HW130236   3.095   0.729   0.767 -0.3016 -0.0928 -0.4099
 6258SOL    HW230237   2.948   0.715   0.793 -2.2590 -0.9983 -2.8752
 6259SOL     OW30238   0.376   0.463   4.119  0.6584  0.1067  0.4095
 6259SOL    HW130239   0.404   0.386   4.070  2.3773  0.4117  0.9430
 6259SOL    HW230240   0.282   0.455   4.099  0.1861  1.7344  1.9309
 6260SOL     OW30241   0.986   4.496   0.127  0.4576 -0.4854 -0.3969
 6260SOL    HW130242   0.975   4.402   0.138  0.6064 -0.6666 -1.7696
 6260SOL    HW230243   0.939   4.536   0.200  0.1350  2.4047 -2.1884
 6261SOL     OW30244   1.151   0.237   5.603 -0.1527  0.1299  0.2441
 6261SOL    HW130245   1.227   0.290   5.629  0.2257 -0.4956  0.4074
 6261SOL    HW230246   1.114   0.213   5.688 -1.0552  0.2595 -0.1137
 6262SOL     OW30247   4.302   1.083   0.207 -0.0891 -0.1823 -0.0127
 6262SOL    HW130248   4.289   1.084   0.112  1.9267 -0.2915 -0.2776
 6262SOL    HW230249   4.316   0.989   0.221  0.7727 -0.2459 -1.3196
 6263SOL     OW30250   2.491   3.813   8.026  0.0562  0.5390 -0.0805
 6263SOL    HW130251   2.411   3.859   8.000  0.5800  1.7698  0.5464
 6263SOL    HW230252   2.554   3.884   8.022 -1.0530  1.4696 -0.8324
 6264SOL     OW30253   1.845   1.643   7.703 -0.2353  0.3181 -0.3687
 6264SOL    HW130254   1.841   1.587   7.780  2.0631  0.6765 -0.0010
 6264SOL    HW230255   1.859   1.730   7.742 -0.3843  1.0310 -1.9013
 6265SOL     OW30256   1.678   1.951  16.638 -0.5949 -0.3062  0.2630
 6265SOL    HW130257   1.598   2.000  16.620 -0.3921  0.2782  0.9335
 6265SOL    HW230258   1.699   1.936  16.546  0.3565  2.8816 -0.0305
 6266SOL     OW30259   4.191   1.216   3.174  0.2260  0.2506 -0.2256
 6266SOL    HW130260   4.222   1.303   3.150 -1.8776  0.9546 -0.4041
 6266SOL    HW230261   4.096   1.225   3.177  0.2310 -0.1580  1.0341
 6267SOL     OW30262   0.340   0.171   8.479 -0.0025  0.1831  0.4880
 6267SOL    HW130263   0.302   0.221   8.407  0.8318 -0.1258 -0.1728
 6267SOL    HW230264   0.375   0.240   8.536  0.9717 -1.7667  2.2476
 6268SOL     OW30265   1.673   4.697  14.476  0.3440 -0.3065  0.0320
 6268SOL    HW130266   1.657   0.021  14.395  0.1549 -0.0470  0.2218
 6268SOL    HW230267   1.707   0.044  14.530 -2.1611 -0.4393  1.7699
 6269SOL     OW30268   0.258   3.824  11.205  0.6277 -0.1725  0.5318
 6269SOL    HW130269   0.236   3.898  11.261  0.6197 -0.0220  0.3286
 6269SOL    HW230270   0.232   3.749  11.258  0.3806 -0.3982  0.0991
 6270SOL     OW30271   0.126   2.122  11.014  0.2526 -0.1183  0.0359
 6270SOL    HW130272   0.197   2.120  10.950  1.0855 -3.2850  1.0937
 6270SOL    HW230273   0.067   2.074  10.956 -0.1748  1.0515 -0.4966
 6271SOL     OW30274   0.301   4.438   9.571 -0.3615 -0.0516  0.5481
 6271SOL    HW130275   0.243   4.490   9.626 -1.9916  0.0374 -1.2400
 6271SOL    HW230276   0.241   4.427   9.497 -0.6655  1.1317  0.6122
 6272SOL     OW30277   3.607   2.809   4.607  0.4618 -0.4853 -0.3479
 6272SOL    HW130278   3.609   2.887   4.662 -1.2275 -1.7465  1.4827
 6272SOL    HW230279   3.512   2.815   4.594  0.3407 -1.5538  0.0914
 6273SOL     OW30280   3.259   1.495  16.810 -0.2157 -0.7625 -0.1833
 6273SOL    HW130281   3.175   1.541  16.813  0.7241  1.1038 -2.4823
 6273SOL    HW230282   3.284   1.498  16.718 -1.2534 -0.6369 -0.4544
 6274SOL     OW30283   0.051   3.377   9.812 -0.1912 -0.1189 -0.3807
 6274SOL    HW130284   0.129   3.427   9.835 -0.2315 -0.0043 -0.4883
 6274SOL    HW230285   4.712   3.450   9.815 -0.6524 -0.5591  0.5489
 6275SOL     OW30286   4.157   1.550  15.237  0.1168  0.4490  0.5271
 6275SOL    HW130287   4.152   1.494  15.314  0.7913  1.9387  1.6320
 6275SOL    HW230288   4.110   1.503  15.167 -2.2622  0.3931  2.1698
 6276SOL     OW30289   3.698   4.274  10.204  0.2138 -0.2595 -0.0250
 6276SOL    HW130290   3.680   4.219  10.128 -1.4956  0.1073  0.1111
 6276SOL    HW230291   3.696   4.358  10.158 -0.5832  0.3937  1.1865
 6277SOL     OW30292   1.641   0.513   4.654  0.9231  0.0370 -0.2363
 6277SOL    HW130293   1.697   0.454   4.705 -0.6094 -2.5179 -1.4798
 6277SOL    HW230294   1.561   0.460   4.649  1.0942  0.0157 -2.4245
 6278SOL     OW30295   4.398   4.185   0.167 -0.1873  0.0802  0.2106
 6278SOL    HW130296   4.347   4.231   0.100 -1.7293 -0.9925  0.6400
 6278SOL    HW230297   4.340   4.109   0.177  0.1707 -0.0121  1.5617
 6279SOL     OW30298   2.287   3.774   9.469  0.1705 -0.0276  0.1160
 6279SOL    HW130299   2.200   3.808   9.449  0.4233 -0.1445 -1.1594
 6279SOL    HW230300   2.277   3.728   9.552  0.3159 -2.6456 -1.3301
 6280SOL     OW30301   2.206   3.324  10.273  0.1051 -0.1504 -0.1304
 6280SOL    HW130302   2.143   3.363  10.212  0.8565  0.7100 -0.3549
 6280SOL    HW230303   2.254   3.396  10.313  2.0386  0.0233 -2.7834
 6281SOL     OW30304   4.424   1.753  17.450  0.1026  0.2855  0.6681
 6281SOL    HW130305   4.492   1.754  17.384 -0.7008  0.9165 -0.1402
 6281SOL    HW230306   4.435   1.842  17.484  1.2857  0.9184 -1.4127
 6282SOL     OW30307   4.009   4.468  17.678 -0.0547  0.4335  0.3962
 6282SOL    HW130308   3.974   4.537   0.037 -4.9496 -1.0085 -0.8717
 6282SOL    HW230309   3.954   4.485  17.601  2.7566 -1.6131 -2.0630
 6283SOL     OW30310   0.944   4.108  10.270 -0.5155  0.1450  0.3579
 6283SOL    HW130311   0.984   4.064  10.345 -1.0223  0.4895  0.8238
 6283SOL    HW230312   0.862   4.061  10.255  0.9127 -2.2584  0.0064
 6284SOL     OW30313   0.141   1.108   5.421 -0.5736  0.6709  0.2882
 6284SOL    HW130314   0.193   1.163   5.362  0.1375  0.8211  1.0624
 6284SOL    HW230315   0.209   1.061   5.470 -0.8179 -0.1323 -0.1461
 6285SOL     OW30316   3.553   0.882   8.382 -0.1302 -0.3441 -0.5635
 6285SOL    HW130317   3.512   0.857   8.465  1.6598  0.3246  0.5221
 6285SOL    HW230318   3.566   0.975   8.402 -0.1906 -0.4041 -0.2488
 6286SOL     OW30319   2.555   2.456  12.164  0.1087  0.2935  0.4203
 6286SOL    HW130320   2.499   2.390  12.204 -1.3412  1.2677  0.0462
 6286SOL    HW230321   2.577   2.415  12.080  0.9124  0.9802  0.2953
 6287SOL     OW30322   0.743   2.734   7.482 -0.2990  0.7633 -0.3820
 6287SOL    HW130323   0.769   2.744   7.573  0.3697  0.5451 -0.5462
 6287SOL    HW230324   0.747   2.638   7.473 -5.8211  0.2879  2.4501
 6288SOL     OW30325   1.001   2.079   6.966  0.3803  0.3135  0.0053
 6288SOL    HW130326   0.911   2.079   6.932  0.4550 -1.0348 -0.1994
 6288SOL    HW230327   1.006   1.988   6.997 -1.1112  0.0894 -0.3712
 6289SOL     OW30328   0.959   0.020   7.935  0.3534 -0.3775 -0.1386
 6289SOL    HW130329   0.868   0.024   7.964 -0.0954  2.2976 -1.9453
 6289SOL    HW230330   0.945   0.041   7.843 -0.1502 -0.6173 -0.1127
 6290SOL     OW30331   3.346   0.673   6.659 -0.6311  0.3416 -0.3320
 6290SOL    HW130332   3.291   0.751   6.670  0.0837  0.7784  0.1707
 6290SOL    HW230333   3.388   0.698   6.577 -0.8981 -1.8658 -1.1430
 6291SOL     OW30334   2.992   0.681   9.849 -0.3549 -0.9654  0.5172
 6291SOL    HW130335   3.028   0.743   9.912  1.3617 -0.4900 -0.9126
 6291SOL    HW230336   2.900   0.706   9.847 -0.5944 -1.9359 -1.5310
 6292SOL     OW30337   1.773   4.231   8.699  0.2599  0.1602 -0.1519
 6292SOL    HW130338   1.856   4.252   8.743 -0.3498  2.3436 -0.0131
 6292SOL    HW230339   1.808   4.185   8.624 -0.7185 -1.1306  0.1870
 6293SOL     OW30340   2.207   1.141  15.695  0.5834  0.2913  0.6363
 6293SOL    HW130341   2.200   1.136  15.599 -1.2934  0.0360  0.7867
 6293SOL    HW230342   2.117   1.164  15.719 -0.2178 -0.9543 -1.1515
 6294SOL     OW30343   2.869   2.564  11.575 -0.2153 -0.1596 -0.1586
 6294SOL    HW130344   2.936   2.631  11.564 -0.3879 -0.1980 -1.4156
 6294SOL    HW230345   2.852   2.580  11.668  0.8006  2.1394 -0.3957
 6295SOL     OW30346   2.126   2.269   8.689 -0.0657  0.2511 -0.4615
 6295SOL    HW130347   2.207   2.297   8.732  0.0776  0.9175 -1.1739
 6295SOL    HW230348   2.073   2.314   8.754  3.2044  1.3513  1.4370
 6296SOL     OW30349   4.580   3.887   5.395  0.3908 -0.1945  0.2982
 6296SOL    HW130350   4.550   3.952   5.459 -0.1221 -0.6854  0.5541
 6296SOL    HW230351   4.523   3.921   5.326 -0.2467 -0.3322  0.7611
 6297SOL     OW30352   2.763   0.790   1.542 -0.1416 -0.2551  0.3073
 6297SOL    HW130353   2.853   0.796   1.511  0.2975 -0.1438  1.5806
 6297SOL    HW230354   2.734   0.879   1.522 -1.5705 -0.4776  1.3537
 6298SOL     OW30355   2.694   2.187  13.708 -0.3678  0.5857  0.0135
 6298SOL    HW130356   2.625   2.246  13.676 -0.3778  0.4904 -0.1448
 6298SOL    HW230357   2.660   2.176  13.797 -1.7854  1.0774 -0.4611
 6299SOL     OW30358   2.189   0.187   5.133  0.4283 -0.2656 -0.7438
 6299SOL    HW130359   2.148   0.103   5.153 -1.3819  1.1210  1.3934
 6299SOL    HW230360   2.278   0.154   5.117  0.4841  0.3899 -1.7868
 6300SOL     OW30361   4.602   2.150  14.359 -0.0638 -0.3647 -0.1585
 6300SOL    HW130362   4.643   2.120  14.278 -1.5710  0.2209 -1.1458
 6300SOL    HW230363   4.510   2.155  14.333 -0.2399 -0.5282  0.4130
 6301SOL     OW30364   0.306   1.592   6.600 -0.0400 -0.4287 -0.0834
 6301SOL    HW130365   0.341   1.515   6.554 -1.0710 -0.2823 -1.0988
 6301SOL    HW230366   0.326   1.581   6.693  2.1495 -0.8348 -0.5827
 6302SOL     OW30367   4.285   0.213   0.130 -0.7910 -0.5357  0.7532
 6302SOL    HW130368   4.261   0.121   0.121 -0.1993 -0.3879 -2.1919
 6302SOL    HW230369   4.220   0.244   0.067 -2.1738 -1.2783  1.8227
 6303SOL     OW30370   2.136   1.570   8.049 -0.2794 -0.0216  0.1017
 6303SOL    HW130371   2.213   1.567   8.106 -1.0266  0.7445  1.1331
 6303SOL    HW230372   2.174   1.611   7.971  0.4190  1.1153  1.0437
 6304SOL     OW30373   0.815   3.360  13.908  0.0078 -0.7694 -0.2403
 6304SOL    HW130374   0.726   3.365  13.873  0.7132 -2.2034 -2.2311
 6304SOL    HW230375   0.845   3.451  13.907 -0.3639 -0.6503 -0.3855
 6305SOL     OW30376   0.125   2.697   6.230 -0.7173 -0.2725  0.4764
 6305SOL    HW130377   0.092   2.786   6.244  0.2842  0.3615 -1.1413
 6305SOL    HW230378   0.062   2.683   6.159  2.7179 -2.0492 -2.2049
 6306SOL     OW30379   1.582   4.246  17.072  0.3364 -0.1109  1.0106
 6306SOL    HW130380   1.557   4.202  16.991 -1.8000  1.6893  0.6831
 6306SOL    HW230381   1.606   4.330  17.032  1.0453  0.2723  2.2220
 6307SOL     OW30382   3.591   1.417  12.308  0.1710  0.0822  0.5703
 6307SOL    HW130383   3.542   1.425  12.390 -0.4688 -0.4754  0.2434
 6307SOL    HW230384   3.682   1.435  12.332  0.2956 -2.1619  1.7172
 6308SOL     OW30385   1.374   2.630   3.047  0.4238 -0.1814 -0.1856
 6308SOL    HW130386   1.309   2.677   3.099 -0.6144 -0.6703 -1.0376
 6308SOL    HW230387   1.328   2.568   2.989  1.2722 -1.0759  0.1002
 6309SOL     OW30388   2.592   1.335  10.378 -0.4703 -0.8371  0.4879
 6309SOL    HW130389   2.646   1.265  10.414 -0.0817 -1.8376 -2.0615
 6309SOL    HW230390   2.662   1.399  10.366 -0.2011 -1.5560 -1.7800
 6310SOL     OW30391   0.970   4.134   8.482 -0.3002 -0.4283  0.0379
 6310SOL    HW130392   0.895   4.185   8.452 -1.9766 -1.8309  1.7855
 6310SOL    HW230393   0.992   4.094   8.398 -1.1226 -1.4616  0.3185
 6311SOL     OW30394   1.290   0.445   6.137  0.0950 -0.1705  0.3580
 6311SOL    HW130395   1.284   0.486   6.050 -0.0835  0.9385  0.8831
 6311SOL    HW230396   1.375   0.401   6.132  0.0518 -0.0286 -1.9530
 6312SOL     OW30397   3.365   1.966   6.670 -0.0830 -0.3021  0.0359
 6312SOL    HW130398   3.272   1.969   6.648  0.6137  1.5786 -2.6761
 6312SOL    HW230399   3.391   2.053   6.639 -1.2366 -0.0052 -0.0901
 6313SOL     OW30400   1.478   0.076   9.088 -0.2656  0.6850 -0.2477
 6313SOL    HW130401   1.408   0.105   9.029 -1.6555  0.0107  1.0539
 6313SOL    HW230402   1.438   4.719   9.119  2.0161  0.6633  2.5815
 6314SOL     OW30403   0.942   3.166   1.986  0.0216  0.2726 -0.2047
 6314SOL    HW130404   0.909   3.180   1.897  1.0815 -3.4516 -1.1850
 6314SOL    HW230405   0.861   3.162   2.036 -1.0171 -0.7048 -1.9494
 6315SOL     OW30406   1.060   3.697   0.775  0.0499 -0.0558  0.0219
 6315SOL    HW130407   1.005   3.647   0.836  0.5238  3.8359  3.6032
 6315SOL    HW230408   1.147   3.679   0.808 -0.1277 -0.6723  0.1585
 6316SOL     OW30409   3.873   1.760   7.842 -0.6112  0.4257  0.0930
 6316SOL    HW130410   3.820   1.700   7.789  0.6082 -1.4893  1.0352
 6316SOL    HW230411   3.863   1.721   7.929  1.4256 -0.2339  0.0535
 6317SOL     OW30412   1.129   0.260   5.902  0.0567  0.1072  0.1137
 6317SOL    HW130413   1.185   0.214   5.964 -0.8479  0.8164  1.4524
 6317SOL    HW230414   1.157   0.351   5.918  1.5147 -0.6175  1.7290
 6318SOL     OW30415   0.925   1.383   4.158  0.2640  0.2364  0.1613
 6318SOL    HW130416   0.849   1.431   4.192  1.8732  1.9005  1.3432
 6318SOL    HW230417   0.882   1.322   4.098  0.7572  1.0708 -1.0403
 6319SOL     OW30418   2.361   2.325   6.207 -0.5421  0.6754  0.0574
 6319SOL    HW130419   2.346   2.381   6.131  0.4401  0.9880  0.0984
 6319SOL    HW230420   2.404   2.245   6.179 -0.6903  0.4849  0.3646
 6320SOL     OW30421   0.884   2.852  15.734  0.0294  0.2603 -0.4576
 6320SOL    HW130422   0.799   2.830  15.774 -0.4944  1.5837 -0.8346
 6320SOL    HW230423   0.861   2.914  15.664 -0.3242 -0.4660 -0.9892
 6321SOL     OW30424   2.823   4.415   8.644 -0.1189  0.1552 -0.0010
 6321SOL    HW130425   2.857   4.418   8.555 -0.4546  1.0967 -0.1005
 6321SOL    HW230426   2.811   4.320   8.647  1.3599 -0.0051  1.0564
 6322SOL     OW30427   4.140   1.022   6.760 -0.8065 -0.1179  0.3001
 6322SOL    HW130428   4.053   1.031   6.721  0.1553  0.4733 -1.7488
 6322SOL    HW230429   4.173   0.960   6.694  0.9193  1.8188 -0.6469
 6323SOL     OW30430   4.616   0.699   5.897 -0.4275  0.0116  0.0860
 6323SOL    HW130431   4.579   0.777   5.855 -2.1439 -2.0881 -2.2640
 6323SOL    HW230432   4.545   0.636   5.888  1.2880 -2.2288  2.3595
 6324SOL     OW30433   2.216   3.213   8.786  0.1358 -0.6944  0.2261
 6324SOL    HW130434   2.288   3.163   8.824  0.4074 -0.0609  0.5579
 6324SOL    HW230435   2.154   3.221   8.859 -1.6613 -1.6475 -1.2051
 6325SOL     OW30436   1.066   4.076   5.234 -0.2688 -0.1947  0.7584
 6325SOL    HW130437   1.053   4.003   5.173  2.7355 -0.1159  0.0022
 6325SOL    HW230438   1.149   4.111   5.201 -0.9702  1.0219  0.2906
 6326SOL     OW30439   0.974   2.451   8.876  0.0410  0.1379  0.5697
 6326SOL    HW130440   0.997   2.359   8.886 -2.4215 -0.4299  0.7732
 6326SOL    HW230441   0.884   2.437   8.849  0.3258  2.5758 -1.7381
 6327SOL     OW30442   2.929   4.059   4.299 -0.1254  0.1780  0.4513
 6327SOL    HW130443   2.939   3.993   4.367  0.6333  0.4988  0.6531
 6327SOL    HW230444   2.920   4.003   4.222 -0.6049  0.1547  0.5218
 6328SOL     OW30445   4.412   4.115   3.490 -0.3628  0.2477 -0.4806
 6328SOL    HW130446   4.321   4.100   3.515 -0.1079 -0.0730  0.2557
 6328SOL    HW230447   4.451   4.118   3.577  0.6197  0.2903 -0.9278
 6329SOL     OW30448   3.887   2.754   5.482 -0.1296  0.6778 -0.0220
 6329SOL    HW130449   3.867   2.668   5.445  0.7897  0.2061  0.5686
 6329SOL    HW230450   3.803   2.782   5.516 -0.6653 -2.9383  1.6514
 6330SOL     OW30451   0.029   3.655   5.971  0.7198 -0.3776  0.1793
 6330SOL    HW130452   0.007   3.748   5.978 -0.3123 -0.5986 -0.1428
 6330SOL    HW230453   0.123   3.651   5.987  1.1356 -3.3907 -2.9378
 6331SOL     OW30454   1.273   1.596   1.537 -0.2880  0.5368 -0.0591
 6331SOL    HW130455   1.195   1.558   1.576 -0.2254 -1.7313 -2.1582
 6331SOL    HW230456   1.237   1.681   1.513 -0.6784  0.1739 -0.7622
 6332SOL     OW30457   3.816   2.741   9.344 -0.1481  0.2221  0.3413
 6332SOL    HW130458   3.849   2.664   9.390  1.0216 -0.2278 -1.2445
 6332SOL    HW230459   3.756   2.706   9.279 -0.5995  3.2940 -0.9136
 6333SOL     OW30460   3.204   0.883   7.663 -0.9081 -0.3871  0.8218
 6333SOL    HW130461   3.161   0.805   7.697  0.1133  0.2305  3.5506
 6333SOL    HW230462   3.169   0.954   7.717  0.6482 -0.9306  2.5700
 6334SOL     OW30463   3.498   3.013   8.210 -0.2603  0.4358  0.2177
 6334SOL    HW130464   3.475   3.104   8.190 -2.9829 -0.0319  1.2205
 6334SOL    HW230465   3.534   3.022   8.299  0.6134 -0.4688 -0.0370
 6335SOL     OW30466   4.151   2.740  12.955 -0.2401  0.0182  0.6436
 6335SOL    HW130467   4.086   2.809  12.964 -1.2691 -0.9657  0.7735
 6335SOL    HW230468   4.182   2.751  12.866  2.4616  0.3059  1.6207
 6336SOL     OW30469   2.567   3.297   2.042  0.0338 -0.5765 -0.1594
 6336SOL    HW130470   2.648   3.290   1.992  0.6893 -1.4425  1.0113
 6336SOL    HW230471   2.615   3.325   2.120  0.7032 -2.0835 -0.0518
 6337SOL     OW30472   2.393   1.155   5.473  0.1178  0.4249  0.1754
 6337SOL    HW130473   2.450   1.190   5.405  2.2406 -0.1944  1.6481
 6337SOL    HW230474   2.451   1.173   5.547 -1.1942 -0.1092  1.3154
 6338SOL     OW30475   2.085   4.658   5.124 -0.4009 -0.2563 -0.1474
 6338SOL    HW130476   2.106   4.603   5.199  0.1466 -0.1704 -0.2401
 6338SOL    HW230477   2.016   4.608   5.080 -1.2665 -0.5925  1.6163
 6339SOL     OW30478   3.583   4.088   2.696  0.4197 -0.1028 -0.1674
 6339SOL    HW130479   3.627   4.112   2.615 -1.1305 -0.1608 -1.0195
 6339SOL    HW230480   3.526   4.161   2.722  1.3498  1.0918 -1.5121
 6340SOL     OW30481   3.316   4.620   8.496 -0.1604 -0.7212 -0.2418
 6340SOL    HW130482   3.365   4.692   8.456  1.5647 -1.5119  0.4081
 6340SOL    HW230483   3.332   4.631   8.590  0.3343  0.6611 -0.4864
 6341SOL     OW30484   0.852   0.266   3.190  0.2605 -0.3790 -0.2034
 6341SOL    HW130485   0.800   0.297   3.116 -0.4076  1.8110  1.1595
 6341SOL    HW230486   0.907   0.202   3.145  0.4287 -0.4798  0.1458
 6342SOL     OW30487   3.484   1.286   4.942  0.3229  0.3841  0.4121
 6342SOL    HW130488   3.426   1.229   4.992  1.1668 -1.7275 -1.0276
 6342SOL    HW230489   3.431   1.366   4.935  1.0307  0.6748 -1.7414
 6343SOL     OW30490   3.735   4.073   1.684 -0.1996  0.4727 -0.3933
 6343SOL    HW130491   3.645   4.060   1.712  1.3069 -3.5778  2.6137
 6343SOL    HW230492   3.777   4.069   1.770  0.5342 -0.8011 -0.8146
 6344SOL     OW30493   3.134   2.702  13.548 -0.4030 -0.0123  0.1100
 6344SOL    HW130494   3.161   2.778  13.498 -2.9440  1.2587  0.6379
 6344SOL    HW230495   3.208   2.644  13.531  0.0101  0.8544 -1.0023
 6345SOL     OW30496   0.945   1.164   0.369  0.7267 -0.8149  0.1977
 6345SOL    HW130497   0.884   1.169   0.443 -0.6116  2.1966 -1.0930
 6345SOL    HW230498   0.906   1.225   0.306  1.0380 -0.9889 -0.1571
 6346SOL     OW30499   0.271   0.413  11.673 -0.7066 -0.3817  0.0000
 6346SOL    HW130500   0.366   0.420  11.666 -0.7369 -0.2784 -0.3027
 6346SOL    HW230501   0.254   0.355  11.747 -0.6278 -1.2162 -0.6379
 6347SOL     OW30502   2.641   1.595   3.649 -0.7081 -0.2022  0.0624
 6347SOL    HW130503   2.556   1.581   3.690 -0.4709  0.5667  0.8421
 6347SOL    HW230504   2.665   1.665   3.711  1.1697  0.0999 -1.0067
 6348SOL     OW30505   2.197   1.767  13.221 -0.1508 -0.3497  0.0780
 6348SOL    HW130506   2.240   1.684  13.239 -0.9495 -0.6340  0.6940
 6348SOL    HW230507   2.219   1.791  13.131  2.2431  2.0574  1.2952
 6349SOL     OW30508   3.867   0.278   6.480 -0.6021  0.3480  0.2024
 6349SOL    HW130509   3.824   0.306   6.400 -1.5261 -1.7698 -0.0168
 6349SOL    HW230510   3.861   0.183   6.481 -3.2196  0.4935 -1.4637
 6350SOL     OW30511   0.122   1.639  17.097 -0.4567  0.4307 -0.2009
 6350SOL    HW130512   0.164   1.613  17.015  0.6569  0.4410  0.3620
 6350SOL    HW230513   0.196   1.647  17.158 -0.4144 -2.2779  0.1211
 6351SOL     OW30514   0.781   0.448  11.700 -0.3811 -0.1606 -0.0188
 6351SOL    HW130515   0.827   0.368  11.674 -0.6415 -0.8394  1.6368
 6351SOL    HW230516   0.836   0.475  11.773 -1.2525 -1.2242  1.0286
 6352SOL     OW30517   0.893   3.231   0.392  0.2909  0.1863 -0.1022
 6352SOL    HW130518   0.937   3.212   0.475  2.0307  2.9770 -0.4051
 6352SOL    HW230519   0.832   3.298   0.423  0.6064  0.9698 -1.1865
 6353SOL     OW30520   4.236   0.196  11.034 -0.0701 -0.3484 -0.1192
 6353SOL    HW130521   4.150   0.235  11.053  0.7039  1.5053 -0.3766
 6353SOL    HW230522   4.290   0.255  11.087  0.9444 -0.9325 -0.5097
 6354SOL     OW30523   3.296   1.418   5.726  0.3395 -0.0654  0.1740
 6354SOL    HW130524   3.285   1.403   5.820 -0.0183  0.5906  0.2386
 6354SOL    HW230525   3.345   1.498   5.744  1.3738  0.0698 -3.1858
 6355SOL     OW30526   4.118   0.825   5.699 -0.0255  0.1282 -0.8311
 6355SOL    HW130527   4.078   0.864   5.777  1.2443 -0.8241  0.2868
 6355SOL    HW230528   4.156   0.900   5.653  2.3445 -1.4770 -1.5040
 6356SOL     OW30529   1.986   4.145   3.600 -0.0345 -0.2776  0.2219
 6356SOL    HW130530   1.914   4.178   3.546  1.3946 -0.8602 -2.0310
 6356SOL    HW230531   1.971   4.052   3.585 -0.9277 -0.6247  3.3218
 6357SOL     OW30532   1.304   3.355   5.791  0.2369  0.4161  0.2149
 6357SOL    HW130533   1.357   3.435   5.796 -0.0705  0.6893 -1.0852
 6357SOL    HW230534   1.365   3.296   5.745 -0.9125 -0.8867  0.3590
 6358SOL     OW30535   3.250   3.494   9.458 -0.3085  0.2685 -0.0757
 6358SOL    HW130536   3.315   3.554   9.422  1.1187 -0.5694  1.0944
 6358SOL    HW230537   3.229   3.446   9.378  2.1996  0.2058 -0.6688
 6359SOL     OW30538   4.109   0.059   3.715  0.0845 -0.2218  0.1182
 6359SOL    HW130539   4.078   0.095   3.632  1.6976 -0.4216 -0.5600
 6359SOL    HW230540   4.136   0.140   3.758  0.3046 -0.5739  0.6479
 6360SOL     OW30541   1.873   2.124   4.976  0.4908 -0.1626  0.0191
 6360SOL    HW130542   1.851   2.179   5.051 -2.1264  0.3833 -1.1309
 6360SOL    HW230543   1.934   2.057   5.008  1.8235  0.1370 -1.8803
 6361SOL     OW30544   0.064   3.888   2.361 -0.4914 -0.1602  0.3318
 6361SOL    HW130545   0.066   3.821   2.429 -1.0354  0.0974  0.6000
 6361SOL    HW230546   0.135   3.852   2.307  0.2922  1.4952  0.2422
 6362SOL     OW30547   0.046   2.180   8.315 -0.1429 -0.1308 -0.0452
 6362SOL    HW130548   0.102   2.227   8.376  1.8300 -1.4995 -0.7882
 6362SOL    HW230549   4.689   2.228   8.328 -1.1071 -1.7484 -0.1035
 6363SOL     OW30550   0.516   3.710   4.014 -0.2730 -0.1341  1.2014
 6363SOL    HW130551   0.602   3.740   3.984 -0.7566 -0.8914 -0.9462
 6363SOL    HW230552   0.465   3.790   4.013 -0.3756 -0.2218 -0.7563
 6364SOL     OW30553   1.651   2.761   9.376  0.3656 -0.2826 -0.0322
 6364SOL    HW130554   1.622   2.736   9.463  1.1579  1.3002  0.6757
 6364SOL    HW230555   1.581   2.735   9.316 -0.3327 -0.6877  0.9616
 6365SOL     OW30556   0.535   1.310  17.134 -0.1409 -0.2617  0.3718
 6365SOL    HW130557   0.610   1.259  17.165 -1.9124 -1.5770  2.5106
 6365SOL    HW230558   0.467   1.287  17.197  0.1755 -0.5567  0.6107
 6366SOL     OW30559   1.300   4.069   8.177 -0.6125  0.7664 -0.3944
 6366SOL    HW130560   1.339   4.056   8.264 -1.0812  0.5911 -0.2129
 6366SOL    HW230561   1.374   4.055   8.117 -0.9381 -1.2440 -0.3251
 6367SOL     OW30562   0.945   0.025   8.840  0.6084  0.6176 -0.7355
 6367SOL    HW130563   0.871   0.062   8.793  0.5772  0.8962 -0.4738
 6367SOL    HW230564   0.912   4.660   8.854  0.7955  0.5708 -0.5897
 6368SOL     OW30565   3.439   4.015  14.064 -0.1893 -0.1809  0.2168
 6368SOL    HW130566   3.466   3.963  13.988 -0.7294 -1.4249  0.8628
 6368SOL    HW230567   3.393   3.958  14.126 -0.6177 -0.3532 -0.2636
 6369SOL     OW30568   3.671   2.610   8.859 -0.6372 -0.1618  0.0220
 6369SOL    HW130569   3.699   2.574   8.943 -0.4715  0.5022  0.2523
 6369SOL    HW230570   3.657   2.704   8.872 -0.8970 -0.2229  0.1741
 6370SOL     OW30571   0.120   2.250   8.630 -0.2425  0.1311  0.6695
 6370SOL    HW130572   0.127   2.231   8.724 -2.0416 -0.9426  0.5841
 6370SOL    HW230573   0.030   2.226   8.608 -0.4703  0.5746  1.1092
 6371SOL     OW30574   3.431   2.810   8.027  0.7946 -0.4317 -0.5004
 6371SOL    HW130575   3.374   2.743   8.063  2.0563 -2.0447 -1.5287
 6371SOL    HW230576   3.426   2.879   8.093 -1.1639 -1.0542  0.0096
 6372SOL     OW30577   2.806   3.258   9.486 -0.3567 -0.0861 -0.1210
 6372SOL    HW130578   2.763   3.225   9.564 -0.4759 -0.7283 -0.4619
 6372SOL    HW230579   2.849   3.332   9.529  1.4511  0.7360 -3.3348
 6373SOL     OW30580   2.726   0.966  12.820  0.2358 -0.6493  0.2436
 6373SOL    HW130581   2.689   1.048  12.785 -1.8939 -1.8057 -0.2283
 6373SOL    HW230582   2.646   0.930  12.858  0.5170 -1.0498  0.4515
 6374SOL     OW30583   0.751   0.432   5.124  0.4270  0.2814  0.3722
 6374SOL    HW130584   0.813   0.503   5.139  2.2206 -1.5081  1.4221
 6374SOL    HW230585   0.783   0.350   5.161  0.3780  0.0353 -0.1279
 6375SOL     OW30586   2.560   3.343   2.823 -0.1362  0.3522 -0.2040
 6375SOL    HW130587   2.550   3.401   2.748 -1.7973 -0.8815 -0.9126
 6375SOL    HW230588   2.628   3.282   2.796 -1.4115 -1.3538  0.4520
 6376SOL     OW30589   4.447   1.592   7.469 -0.6364  0.3068  0.5808
 6376SOL    HW130590   4.497   1.512   7.453 -0.8709  0.2924 -0.0653
 6376SOL    HW230591   4.413   1.568   7.556  2.0577 -2.8067  0.7754
 6377SOL     OW30592   0.220   1.960   5.232  0.1954  1.0628 -0.0850
 6377SOL    HW130593   0.196   1.875   5.196  1.1063 -0.2457  2.4508
 6377SOL    HW230594   0.157   2.017   5.187  2.4587  3.5734 -0.0651
 6378SOL     OW30595   1.605   3.809  10.249 -0.7000  0.0674  0.4304
 6378SOL    HW130596   1.522   3.826  10.294 -0.4109 -0.3557  1.1270
 6378SOL    HW230597   1.663   3.858  10.308 -0.8538 -0.1619  0.7707
 6379SOL     OW30598   3.069   3.914   2.747  0.3538 -0.0586  0.1081
 6379SOL    HW130599   3.119   3.832   2.750  0.7642  0.2606  1.9153
 6379SOL    HW230600   2.980   3.891   2.774 -0.2792  0.4088 -1.5284
 6380SOL     OW30601   2.121   3.650   5.163  0.3967  0.0276 -0.1102
 6380SOL    HW130602   2.154   3.565   5.134 -0.6280 -0.6258  0.6325
 6380SOL    HW230603   2.191   3.665   5.226  1.2664  1.0977 -1.3361
 6381SOL     OW30604   3.030   0.255   7.665  0.4203  0.3530 -0.6715
 6381SOL    HW130605   2.987   0.170   7.654  0.7052 -0.0437  1.2607
 6381SOL    HW230606   3.036   0.283   7.573  0.9266  1.4938 -0.2856
 6382SOL     OW30607   4.214   3.042   3.356 -0.6650  0.2132  0.2000
 6382SOL    HW130608   4.195   2.953   3.386  1.5043  0.0773  1.2198
 6382SOL    HW230609   4.188   3.031   3.265  3.4496  1.0289 -1.0625
 6383SOL     OW30610   2.169   4.447   3.172  0.1071 -0.6581 -0.4049
 6383SOL    HW130611   2.247   4.485   3.214 -0.8550  0.3318  0.4846
 6383SOL    HW230612   2.113   4.519   3.200  1.1853 -0.1332  0.4098
 6384SOL     OW30613   3.971   0.710   3.579  0.6228  0.4704 -0.5508
 6384SOL    HW130614   3.917   0.738   3.653 -0.3456 -0.6302 -0.8556
 6384SOL    HW230615   3.945   0.780   3.519 -0.1164  0.2577 -0.4721
 6385SOL     OW30616   0.303   2.973   2.629 -0.1347 -0.4217 -0.1915
 6385SOL    HW130617   0.310   2.878   2.634  0.9689 -0.3644 -0.6505
 6385SOL    HW230618   0.228   2.981   2.569 -1.8477  0.5802  2.1072
 6386SOL     OW30619   3.286   2.792  10.723  0.2889  0.4580  0.1113
 6386SOL    HW130620   3.259   2.826  10.809  1.9852 -1.6956  1.5083
 6386SOL    HW230621   3.370   2.835  10.713  1.9002 -1.9897  2.9718
 6387SOL     OW30622   0.885   3.911  16.664 -0.4602 -0.5577 -0.4268
 6387SOL    HW130623   0.846   3.901  16.750 -0.1800  0.0929 -0.2239
 6387SOL    HW230624   0.872   4.004  16.647 -0.2892 -0.1398  1.7219
 6388SOL     OW30625   1.469   1.646   7.585 -0.4004 -0.0361  0.3694
 6388SOL    HW130626   1.461   1.726   7.532  0.8014 -0.2102 -0.0722
 6388SOL    HW230627   1.453   1.676   7.674  1.9523 -1.2710  1.2074
 6389SOL     OW30628   4.397   2.490   7.633  0.2498 -0.2407 -0.3940
 6389SOL    HW130629   4.457   2.561   7.656 -2.2355  1.8280 -0.1408
 6389SOL    HW230630   4.435   2.420   7.686  0.5142  0.2795  0.1112
 6390SOL     OW30631   2.408   1.255   7.858 -0.2566  0.2856  0.3428
 6390SOL    HW130632   2.321   1.221   7.836  0.3943  0.5338 -2.5750
 6390SOL    HW230633   2.404   1.343   7.821  0.1303 -0.5300 -1.6586
 6391SOL     OW30634   2.058   1.255   8.007 -0.7721  0.8505  0.4357
 6391SOL    HW130635   1.977   1.235   8.054 -0.5296 -3.8862 -1.1031
 6391SOL    HW230636   2.092   1.310   8.077  0.7379  0.3521  0.0894
 6392SOL     OW30637   4.595   0.612  14.558  0.3865 -0.0997  0.3029
 6392SOL    HW130638   4.632   0.523  14.554  0.8801  0.0330  1.7237
 6392SOL    HW230639   4.676   0.659  14.536 -0.0664  0.7482  0.4510
 6393SOL     OW30640   2.476   1.742  10.274  0.8075  0.7239 -0.9811
 6393SOL    HW130641   2.506   1.656  10.244  0.7957 -0.2901  1.9191
 6393SOL    HW230642   2.403   1.706  10.325  1.9539 -1.2872 -0.7693
 6394SOL     OW30643   2.941   1.680   6.259 -0.1521  0.1547  0.1085
 6394SOL    HW130644   2.915   1.588   6.260 -0.0652  0.1294  0.0554
 6394SOL    HW230645   2.924   1.712   6.347  1.7323  0.1209  0.4882
 6395SOL     OW30646   3.622   0.471  10.004 -0.0447 -0.0310 -0.2503
 6395SOL    HW130647   3.630   0.473  10.099 -0.3509  2.1088 -0.2780
 6395SOL    HW230648   3.559   0.399   9.995  0.2587 -0.6642  2.7280
 6396SOL     OW30649   3.583   3.784   7.786  0.2227 -0.3219  0.0240
 6396SOL    HW130650   3.521   3.835   7.734  0.4696 -0.6774 -0.6125
 6396SOL    HW230651   3.660   3.788   7.730 -0.3940 -0.0210 -0.7942
 6397SOL     OW30652   3.707   3.981   5.437  0.7897  0.3494  0.2802
 6397SOL    HW130653   3.748   4.049   5.384 -0.4326 -0.8771 -2.2231
 6397SOL    HW230654   3.629   4.022   5.474  1.0351  1.3229 -0.2904
 6398SOL     OW30655   4.216   3.497  12.136  0.6067 -0.0461  0.2609
 6398SOL    HW130656   4.264   3.462  12.062 -0.5534 -1.2363  0.0715
 6398SOL    HW230657   4.205   3.423  12.195 -0.9591  0.0942  0.1477
 6399SOL     OW30658   2.756   1.117   8.273  0.7330  0.2892 -0.6730
 6399SOL    HW130659   2.675   1.067   8.273  0.5882  0.5216 -0.3432
 6399SOL    HW230660   2.736   1.181   8.205 -0.1687  1.7755  0.9763
 6400SOL     OW30661   4.269   1.209  14.029  0.3515 -0.0119 -0.1139
 6400SOL    HW130662   4.264   1.251  13.943  1.1554 -1.1942 -0.7476
 6400SOL    HW230663   4.218   1.131  14.007  1.0355  0.0471 -1.8927
 6401SOL     OW30664   2.337   1.294  10.512  0.1062 -0.1358  0.2670
 6401SOL    HW130665   2.432   1.303  10.500  0.2276  1.4969  2.6571
 6401SOL    HW230666   2.307   1.369  10.460 -0.9794 -0.3354  0.6261
 6402SOL     OW30667   3.224   4.185  16.020 -0.3607  0.1682 -0.1016
 6402SOL    HW130668   3.136   4.147  16.024 -0.0268 -0.4945  1.1321
 6402SOL    HW230669   3.279   4.106  16.015 -0.9271 -0.0131 -3.2664
 6403SOL     OW30670   1.339   4.502   1.691  0.7162  0.0168 -0.4800
 6403SOL    HW130671   1.385   4.582   1.664  1.7318 -0.4632 -0.1650
 6403SOL    HW230672   1.312   4.530   1.778  0.8517 -1.4307  0.0257
 6404SOL     OW30673   2.117   1.622   3.783 -0.3765 -0.1502  0.3428
 6404SOL    HW130674   2.165   1.591   3.707 -2.0697  1.4656 -1.3905
 6404SOL    HW230675   2.129   1.559   3.854  0.0635  3.7103  3.7219
 6405SOL     OW30676   3.734   3.288  12.634  0.1719  0.5206 -0.4788
 6405SOL    HW130677   3.735   3.193  12.618 -0.5546  0.3014  0.7732
 6405SOL    HW230678   3.737   3.303  12.540 -1.3155 -0.4792 -0.6901
 6406SOL     OW30679   4.463   1.660   2.636  0.2512  0.0878  0.0573
 6406SOL    HW130680   4.427   1.732   2.584 -0.8607  0.3611  1.2026
 6406SOL    HW230681   4.477   1.691   2.726 -0.3585  1.3821 -0.2945
 6407SOL     OW30682   2.270   0.651   6.789  0.4905  0.4503  0.3817
 6407SOL    HW130683   2.200   0.610   6.839  1.0368 -1.0461 -0.0901
 6407SOL    HW230684   2.347   0.603   6.819 -0.5165 -1.8955 -0.7530
 6408SOL     OW30685   3.073   3.213   7.618 -0.4630 -0.2376 -0.7036
 6408SOL    HW130686   3.059   3.128   7.659  2.4065 -0.4830 -0.2280
 6408SOL    HW230687   3.068   3.192   7.524 -2.9981  1.9993 -1.0531
 6409SOL     OW30688   0.273   4.551  13.855 -0.3207 -0.0911 -0.6677
 6409SOL    HW130689   0.343   4.487  13.838  0.5877  0.4963  0.8433
 6409SOL    HW230690   0.275   4.546  13.951 -2.1198  0.8883 -0.5869
 6410SOL     OW30691   3.525   2.373   7.411  0.0823 -0.6478 -0.1864
 6410SOL    HW130692   3.482   2.323   7.480 -1.5409  1.1087  0.0766
 6410SOL    HW230693   3.517   2.323   7.329  2.6206  1.8617 -1.9687
 6411SOL     OW30694   2.195   0.794   5.772 -0.3448  0.7330  0.0804
 6411SOL    HW130695   2.128   0.829   5.713 -1.8404 -2.4245 -0.0615
 6411SOL    HW230696   2.229   0.720   5.722  1.2605 -0.6317  3.1543
 6412SOL     OW30697   0.377   4.627  12.990  0.2897  0.4092  0.3655
 6412SOL    HW130698   0.469   4.638  12.969  0.5881  0.7644  1.8634
 6412SOL    HW230699   0.364   4.706  13.042 -1.9388 -0.0877  0.5785
 6413SOL     OW30700   3.078   0.285   4.445  0.3711  0.0645  0.1410
 6413SOL    HW130701   3.011   0.343   4.410 -0.9549  0.0100  2.5602
 6413SOL    HW230702   3.086   0.201   4.401 -0.8004  0.6640 -1.2112
 6414SOL     OW30703   0.678   0.504   6.898 -0.1732 -0.1608 -0.0556
 6414SOL    HW130704   0.596   0.477   6.855  0.1134  1.0952 -1.3839
 6414SOL    HW230705   0.665   0.598   6.891  0.4551  0.0288  1.2980
 6415SOL     OW30706   4.275   2.841   2.683 -0.4762  0.0774  0.4485
 6415SOL    HW130707   4.253   2.885   2.765  1.5200 -0.7975  1.4758
 6415SOL    HW230708   4.334   2.911   2.655  0.9344 -1.2446  0.1130
 6416SOL     OW30709   2.418   4.152   8.051 -0.3824 -0.2517  0.0227
 6416SOL    HW130710   2.489   4.181   7.994 -0.1870  0.5340  0.6622
 6416SOL    HW230711   2.369   4.092   7.995  0.9681 -1.2942 -0.0421
 6417SOL     OW30712   2.570   2.689   6.230 -0.1539 -0.2374  0.4576
 6417SOL    HW130713   2.653   2.729   6.255 -1.9961  3.3327  0.9491
 6417SOL    HW230714   2.596   2.635   6.156 -1.2495 -0.1278 -0.0119
 6418SOL     OW30715   0.900   0.965   8.024  0.4127  0.4800  0.3430
 6418SOL    HW130716   0.820   0.969   7.971  1.5348 -3.0812 -1.6797
 6418SOL    HW230717   0.971   1.002   7.972  1.3426 -0.6725  0.7632
 6419SOL     OW30718   2.829   2.685  14.984  0.0360 -0.0563  0.7863
 6419SOL    HW130719   2.883   2.641  15.049  2.4273 -0.2029 -1.2805
 6419SOL    HW230720   2.891   2.758  14.978  1.1604 -1.0497  0.3568
 6420SOL     OW30721   0.263   0.258   0.268  0.3451 -0.3561 -0.7746
 6420SOL    HW130722   0.279   0.201   0.193  0.5440  0.1163 -1.0857
 6420SOL    HW230723   0.171   0.283   0.259  0.0146 -1.7452 -1.2743
 6421SOL     OW30724   2.888   0.664  13.578  0.0633  0.5132  0.8968
 6421SOL    HW130725   2.972   0.627  13.552  1.9346  3.8720  2.1773
 6421SOL    HW230726   2.819   0.605  13.548  1.6271 -1.7156  1.7630
 6422SOL     OW30727   3.586   1.873   0.671  0.2145  0.0052  0.3390
 6422SOL    HW130728   3.616   1.898   0.758  2.9688 -0.4998 -0.4764
 6422SOL    HW230729   3.629   1.789   0.654  2.4355  0.6655  2.7077
 6423SOL     OW30730   4.272   1.201   4.429 -0.3785  0.2003 -0.1299
 6423SOL    HW130731   4.303   1.259   4.360  0.2974 -1.3386 -1.1223
 6423SOL    HW230732   4.221   1.255   4.489 -0.5830 -0.2999  0.1403
 6424SOL     OW30733   1.958   3.431   1.973 -0.0333 -0.1125  0.3612
 6424SOL    HW130734   2.037   3.483   1.986 -1.2113  1.3615  1.5448
 6424SOL    HW230735   1.904   3.456   2.047 -0.8869  0.2689 -0.3840
 6425SOL     OW30736   1.105   0.287  10.909  0.2147 -0.7339 -0.2819
 6425SOL    HW130737   1.188   0.248  10.883  1.2516  0.6646  0.8824
 6425SOL    HW230738   1.047   0.249  10.842 -1.6981 -1.3408  1.7023
 6426SOL     OW30739   2.763   1.622  14.962 -0.4688 -0.3568  0.0508
 6426SOL    HW130740   2.836   1.671  15.001 -0.8376  1.7537 -1.9055
 6426SOL    HW230741   2.817   1.574  14.899  0.3108  1.9830 -1.0672
 6427SOL     OW30742   0.828   0.920   3.403  0.3349  0.0696  0.4924
 6427SOL    HW130743   0.822   0.996   3.346  2.5209 -0.0456  0.0968
 6427SOL    HW230744   0.896   0.949   3.464  0.5862  0.9409 -0.2177
 6428SOL     OW30745   3.911   2.508   5.872 -0.1732 -0.4070  0.0591
 6428SOL    HW130746   3.867   2.509   5.787 -0.5843  0.9049  0.2843
 6428SOL    HW230747   3.868   2.581   5.917  0.2847 -0.0453 -0.0928
 6429SOL     OW30748   0.196   4.279   1.978 -1.0346  0.2889  0.2450
 6429SOL    HW130749   0.233   4.218   2.042 -1.5286  0.5853  0.8150
 6429SOL    HW230750   0.110   4.276   2.019 -0.9852 -0.3269  0.3070
 6430SOL     OW30751   1.977   2.869   8.487  0.2040  0.2443 -0.3507
 6430SOL    HW130752   1.900   2.882   8.541  1.1108  1.0183  0.7359
 6430SOL    HW230753   2.033   2.943   8.511 -0.1258  0.6668 -0.8793
 6431SOL     OW30754   1.306   0.683   2.471  0.1032  0.1253 -0.4393
 6431SOL    HW130755   1.295   0.778   2.471  2.4011  0.3838  1.3999
 6431SOL    HW230756   1.290   0.662   2.563 -1.0119 -3.1149 -1.3580
 6432SOL     OW30757   4.345   2.174   7.351  0.5466 -0.4085 -0.4747
 6432SOL    HW130758   4.376   2.179   7.261  1.9118  0.3142  0.0304
 6432SOL    HW230759   4.288   2.251   7.350  1.2435  0.1035 -1.0498
 6433SOL     OW30760   3.981   3.811   4.316  0.1801 -0.0283  0.2679
 6433SOL    HW130761   4.020   3.802   4.229 -0.5784 -1.0793  0.0322
 6433SOL    HW230762   4.050   3.853   4.367 -1.9133  1.6720  1.7062
 6434SOL     OW30763   1.881   0.655   8.874 -0.2534  0.6203 -0.3518
 6434SOL    HW130764   1.812   0.717   8.896 -2.2445 -1.7004 -0.0082
 6434SOL    HW230765   1.853   0.612   8.793  0.7900 -0.9336  0.1035
 6435SOL     OW30766   4.451   1.337   4.269 -0.4347  0.0630 -0.1615
 6435SOL    HW130767   4.541   1.341   4.238  0.1979 -0.3763  1.6073
 6435SOL    HW230768   4.467   1.381   4.352 -0.2181  0.9162 -0.6612
 6436SOL     OW30769   0.274   4.483   4.506 -0.6827 -0.3358 -0.4278
 6436SOL    HW130770   0.349   4.514   4.455 -0.2041  0.1033  0.5564
 6436SOL    HW230771   0.280   4.389   4.489 -0.7353 -0.0225 -2.1853
 6437SOL     OW30772   3.658   3.377   8.045  0.2088  0.1521 -0.0351
 6437SOL    HW130773   3.634   3.383   7.953  0.9080 -1.1282 -0.2988
 6437SOL    HW230774   3.682   3.469   8.058 -1.4776  0.5572  0.3027
 6438SOL     OW30775   3.030   3.849   9.402 -0.6366 -0.0433 -0.3560
 6438SOL    HW130776   2.972   3.833   9.327  1.0436  0.4570 -1.7698
 6438SOL    HW230777   3.029   3.944   9.399  0.2365 -0.0256 -0.0489
 6439SOL     OW30778   0.693   0.220  11.221  0.5588  0.1826  0.3265
 6439SOL    HW130779   0.636   0.163  11.273  1.9869  0.6620  2.4268
 6439SOL    HW230780   0.737   0.265  11.294  4.1858 -2.1115 -0.4292
 6440SOL     OW30781   3.956   0.813   4.652 -0.2064 -0.5135 -0.4500
 6440SOL    HW130782   4.021   0.867   4.606 -2.7719  0.6181 -2.6931
 6440SOL    HW230783   3.881   0.868   4.630  1.3109  1.2141 -1.2986
 6441SOL     OW30784   4.353   1.911  16.383  0.0404 -0.4548  0.0393
 6441SOL    HW130785   4.424   1.857  16.348  0.7542 -0.1712  1.0723
 6441SOL    HW230786   4.329   1.858  16.459 -0.6489 -3.0792 -1.9816
 6442SOL     OW30787   2.348   0.611  14.314 -0.5999 -0.1685 -0.2667
 6442SOL    HW130788   2.412   0.663  14.364  3.1076 -1.8947 -3.2449
 6442SOL    HW230789   2.409   0.540  14.293 -0.3790  0.7560 -2.6902
 6443SOL     OW30790   1.921   2.659   6.654 -0.1331  0.5708  0.5186
 6443SOL    HW130791   1.921   2.592   6.721 -1.9168  1.4031  1.3492
 6443SOL    HW230792   1.851   2.619   6.602  0.4449  0.2588 -0.0211
 6444SOL     OW30793   1.154   4.103  12.146 -0.1589  0.1194  0.4940
 6444SOL    HW130794   1.065   4.098  12.181 -0.5536  0.3835 -0.4451
 6444SOL    HW230795   1.155   4.032  12.082  2.3842 -0.3642  1.0645
 6445SOL     OW30796   4.531   1.123   4.927 -0.6073 -0.0346 -0.0646
 6445SOL    HW130797   4.591   1.117   4.851 -1.0258 -1.3674 -0.3008
 6445SOL    HW230798   4.588   1.160   4.994 -0.8135 -0.0002  0.0905
 6446SOL     OW30799   1.334   3.362  17.692  0.3147 -0.7146  0.2055
 6446SOL    HW130800   1.303   3.272   0.002  3.0916 -1.7518 -0.5891
 6446SOL    HW230801   1.331   3.387   0.087  1.1936  0.3556 -0.0607
 6447SOL     OW30802   0.291   4.174   8.183  0.0143 -0.1730  0.2324
 6447SOL    HW130803   0.369   4.229   8.192 -0.4492  0.2966  1.4664
 6447SOL    HW230804   0.267   4.195   8.093 -0.5921  0.0395  0.4420
 6448SOL     OW30805   1.995   0.711   3.840 -0.1251 -0.0060  0.0452
 6448SOL    HW130806   1.949   0.645   3.891 -0.2690 -1.0653 -1.4721
 6448SOL    HW230807   2.072   0.659   3.816  0.7269  2.3346 -2.3286
 6449SOL     OW30808   2.245   0.633   8.187  0.0299  0.3348 -0.7961
 6449SOL    HW130809   2.218   0.673   8.104  0.3683  2.2451  0.0034
 6449SOL    HW230810   2.313   0.572   8.160  0.7797  0.3938  0.9815
 6450SOL     OW30811   1.317   2.325   3.710  0.5374  0.1074 -0.0277
 6450SOL    HW130812   1.401   2.281   3.703 -0.2322 -1.1138 -1.5390
 6450SOL    HW230813   1.320   2.340   3.805 -2.1793 -1.1064  0.2619
 6451SOL     OW30814   1.323   0.235   7.704 -0.2148  0.0240 -0.0910
 6451SOL    HW130815   1.305   0.274   7.618 -0.2126  4.1571  1.8009
 6451SOL    HW230816   1.316   0.314   7.758  0.8001 -1.2581  1.8948
 6452SOL     OW30817   3.464   3.240   8.611 -0.2670 -0.5590  0.4802
 6452SOL    HW130818   3.382   3.256   8.564  0.8253  0.1549 -1.1987
 6452SOL    HW230819   3.462   3.313   8.673 -0.2512  0.3389 -0.5815
 6453SOL     OW30820   2.655   2.023   5.925 -0.1046 -0.3243 -0.1384
 6453SOL    HW130821   2.698   2.104   5.898 -0.8143  0.1855  0.2610
 6453SOL    HW230822   2.738   1.979   5.945 -0.3243 -0.3559  0.7211
 6454SOL     OW30823   3.072   4.547   0.360  0.0378 -0.0837 -0.7900
 6454SOL    HW130824   3.127   4.517   0.287  1.3056 -0.8141  0.4852
 6454SOL    HW230825   3.115   4.497   0.428 -1.3061  1.2016  1.0022
 6455SOL     OW30826   1.101   0.525   9.544  0.3199 -0.2207 -0.4053
 6455SOL    HW130827   1.195   0.534   9.560  0.5506 -2.4487 -0.3915
 6455SOL    HW230828   1.071   0.474   9.620  0.1961  0.8058  0.2266
 6456SOL     OW30829   1.931   1.102   4.165 -0.3143 -0.3322  0.4595
 6456SOL    HW130830   1.966   1.035   4.107 -1.1618  0.8854 -1.4564
 6456SOL    HW230831   2.007   1.118   4.221  0.6724  0.0454 -0.9900
 6457SOL     OW30832   1.574   3.741   5.004  0.7797 -0.3021  0.0042
 6457SOL    HW130833   1.532   3.686   5.070 -0.3236  1.2904  0.6378
 6457SOL    HW230834   1.524   3.821   5.019  1.0672  0.0345 -0.8353
 6458SOL     OW30835   4.372   0.052  17.345  0.0059 -0.9532 -0.0270
 6458SOL    HW130836   4.360   4.691  17.389 -0.5401 -0.6973  0.3140
 6458SOL    HW230837   4.378   0.116  17.416 -2.4975  0.0190 -0.6731
 6459SOL     OW30838   3.135   0.070   1.853 -0.0143 -1.0329 -0.0545
 6459SOL    HW130839   3.222   0.036   1.873  0.7466  0.5509 -0.6294
 6459SOL    HW230840   3.150   0.107   1.766  1.7988 -0.7711  0.3543
 6460SOL     OW30841   2.490   1.651  17.568 -0.0808 -0.6023 -0.1449
 6460SOL    HW130842   2.525   1.574  17.613 -3.5525  0.1283  3.7885
 6460SOL    HW230843   2.406   1.666  17.610 -0.1032 -0.9834 -0.0532
 6461SOL     OW30844   0.884   4.707   7.407 -0.1260 -0.3042  0.2040
 6461SOL    HW130845   0.810   4.662   7.365  0.3809 -1.0047  0.0668
 6461SOL    HW230846   0.955   4.644   7.398 -1.7294 -2.1984  0.7318
 6462SOL     OW30847   3.770   2.431   7.127 -0.2460 -0.5820 -0.6444
 6462SOL    HW130848   3.829   2.415   7.053  2.2305 -0.0047  1.1859
 6462SOL    HW230849   3.702   2.486   7.088  1.0761  0.6255 -1.2287
 6463SOL     OW30850   1.470   1.120   6.326  0.3608 -0.0635 -0.0648
 6463SOL    HW130851   1.524   1.168   6.264 -2.2720  1.2814 -1.2947
 6463SOL    HW230852   1.467   1.184   6.398 -1.3028 -0.5565  0.2949
 6464SOL     OW30853   1.028   2.562   8.360  0.3045 -0.3456  0.2504
 6464SOL    HW130854   1.007   2.472   8.335 -0.0897 -0.2267  0.1573
 6464SOL    HW230855   0.967   2.611   8.304  0.5862 -0.3255 -0.0386
 6465SOL     OW30856   0.769   0.209   4.780 -0.1034 -0.4992 -0.4158
 6465SOL    HW130857   0.725   0.152   4.842 -1.7435  1.7908  0.4968
 6465SOL    HW230858   0.863   0.190   4.791 -0.4975 -2.8050 -1.1017
 6466SOL     OW30859   2.815   4.651   0.413 -0.0814  0.6192 -0.3574
 6466SOL    HW130860   2.897   4.607   0.390  0.0441  0.9842 -0.5909
 6466SOL    HW230861   2.766   4.581   0.456  0.5389  0.3044 -0.1505
 6467SOL     OW30862   2.872   3.077  14.839  0.6719  0.4013  0.2081
 6467SOL    HW130863   2.893   3.024  14.762 -1.7540  1.5173 -1.2106
 6467SOL    HW230864   2.785   3.114  14.828  0.8895  1.5237  2.3367
 6468SOL     OW30865   1.194   0.298  15.996  0.0454 -0.2753  0.3213
 6468SOL    HW130866   1.204   0.218  16.049 -1.4277 -0.4797  0.2788
 6468SOL    HW230867   1.276   0.312  15.948 -0.1670 -0.2707 -0.0396
 6469SOL     OW30868   3.203   3.983  15.756 -0.2139  0.3221  0.2524
 6469SOL    HW130869   3.166   3.925  15.823  1.9071 -0.0691  1.0945
 6469SOL    HW230870   3.286   4.000  15.800  0.1197 -2.5640  0.7495
 6470SOL     OW30871   3.826   1.795  17.124  0.2816  0.1490  0.3513
 6470SOL    HW130872   3.760   1.863  17.111  2.4811  2.7001  2.6895
 6470SOL    HW230873   3.844   1.782  17.031 -0.2022  1.7329  0.0376
 6471SOL     OW30874   3.491   0.123   8.339 -0.4663 -0.0451 -0.1769
 6471SOL    HW130875   3.472   0.213   8.366 -0.3609  0.0388 -0.3859
 6471SOL    HW230876   3.477   0.153   8.249  2.1247 -2.2487 -1.2821
 6472SOL     OW30877   0.076   3.872   5.204 -0.4303 -0.1006 -0.1768
 6472SOL    HW130878   0.096   3.960   5.174  2.1828 -0.7909 -0.4524
 6472SOL    HW230879   0.024   3.891   5.283 -0.9580  2.3863 -1.1203
 6473SOL     OW30880   1.058   2.221  15.469  0.0818 -0.3556  0.2501
 6473SOL    HW130881   0.989   2.221  15.402 -0.0657  2.1841  0.4084
 6473SOL    HW230882   1.057   2.314  15.491 -0.4386  0.0283 -1.4507
 6474SOL     OW30883   0.561   4.191   7.083 -0.1372  0.1883 -0.4611
 6474SOL    HW130884   0.621   4.133   7.035 -0.3676 -1.5723  1.3700
 6474SOL    HW230885   0.513   4.244   7.021  1.9495  3.2460  0.5247
 6475SOL     OW30886   0.787   0.655   3.489 -0.2447 -0.5584  0.0841
 6475SOL    HW130887   0.808   0.744   3.463 -0.0801 -0.5779  0.1458
 6475SOL    HW230888   0.852   0.630   3.555 -1.7162  1.0615  2.1484
 6476SOL     OW30889   1.736   1.631   2.310 -0.0515 -0.7184  0.6091
 6476SOL    HW130890   1.769   1.644   2.221  0.9828 -3.9296  0.5193
 6476SOL    HW230891   1.822   1.618   2.351 -0.0229 -1.9537  0.1803
 6477SOL     OW30892   2.610   0.172  10.250  0.1743  0.2411 -0.0865
 6477SOL    HW130893   2.592   0.079  10.268  2.3284 -0.3690 -1.1501
 6477SOL    HW230894   2.690   0.180  10.301  0.1184  0.3331 -0.0113
 6478SOL     OW30895   0.081   2.995   1.501  0.6123 -0.2899 -0.0090
 6478SOL    HW130896   0.154   3.037   1.548  0.0395  0.4710  0.1956
 6478SOL    HW230897   0.102   2.904   1.520  0.4816  0.4326  3.4783
 6479SOL     OW30898   0.642   0.351   6.482 -0.1492 -0.2310  0.2922
 6479SOL    HW130899   0.625   0.408   6.407 -0.1618  1.7864  1.8369
 6479SOL    HW230900   0.730   0.370   6.515 -0.3292  1.5745 -0.2290
 6480SOL     OW30901   4.407   1.246   0.768 -0.0678 -0.1857 -0.0346
 6480SOL    HW130902   4.477   1.188   0.738  0.5438 -1.2404  3.3736
 6480SOL    HW230903   4.414   1.314   0.701 -0.6127 -0.6959 -0.5994
 6481SOL     OW30904   3.034   1.175   2.533  0.0592 -0.6797  0.4089
 6481SOL    HW130905   3.064   1.226   2.458  1.4210 -0.0144  1.4144
 6481SOL    HW230906   2.946   1.212   2.544 -0.1883 -2.0604  3.0903
 6482SOL     OW30907   2.516   2.709   2.585  0.4970 -0.6963 -0.1485
 6482SOL    HW130908   2.514   2.790   2.636  1.9701 -0.6674 -0.1358
 6482SOL    HW230909   2.589   2.730   2.526 -1.0156 -0.9121 -2.0830
 6483SOL     OW30910   2.883   1.471   3.614 -0.0110  0.1337 -0.2155
 6483SOL    HW130911   2.814   1.536   3.627  0.9352  1.1820 -0.4082
 6483SOL    HW230912   2.845   1.412   3.549  0.7636  1.9320 -2.2998
 6484SOL     OW30913   0.038   0.789   5.549 -0.3001  0.1449 -0.1874
 6484SOL    HW130914   0.077   0.737   5.479  1.4343  3.3960 -1.6466
 6484SOL    HW230915   0.085   0.871   5.536  0.1721  0.0246  0.8258
 6485SOL     OW30916   4.261   0.445  16.419  0.9553  0.0091 -0.0144
 6485SOL    HW130917   4.317   0.402  16.355  1.6061 -0.8953  1.1475
 6485SOL    HW230918   4.292   0.534  16.433 -0.5135  0.6223 -0.7163
 6486SOL     OW30919   1.545   2.441  10.441 -0.2660 -0.0721  0.1577
 6486SOL    HW130920   1.606   2.432  10.514  0.3161  0.4480 -0.2632
 6486SOL    HW230921   1.532   2.349  10.418 -0.0190 -0.2463  0.7064
 6487SOL     OW30922   2.108   3.934   0.787 -0.0210 -0.4406 -0.0902
 6487SOL    HW130923   2.092   3.844   0.817  0.2300  0.9111  4.2286
 6487SOL    HW230924   2.023   3.969   0.761 -0.5042 -0.9701  0.7536
 6488SOL     OW30925   3.326   1.704  15.165  0.1155 -0.0118 -0.2360
 6488SOL    HW130926   3.414   1.686  15.199 -0.3284  0.9260  1.3841
 6488SOL    HW230927   3.310   1.626  15.112 -0.5565 -0.3043  0.4116
 6489SOL     OW30928   3.887   3.538   7.648 -0.3941  0.2184 -0.2596
 6489SOL    HW130929   3.924   3.567   7.565 -2.2070  1.4825 -0.6344
 6489SOL    HW230930   3.968   3.551   7.697 -1.3319 -1.1311  1.6638
 6490SOL     OW30931   3.221   4.145   3.841 -0.1441  0.2895 -0.0548
 6490SOL    HW130932   3.201   4.053   3.827 -1.0903 -0.0082  3.2664
 6490SOL    HW230933   3.228   4.134   3.935  1.8262 -1.8557 -0.4640
 6491SOL     OW30934   1.787   4.182   8.175  0.0005 -0.5022 -0.1152
 6491SOL    HW130935   1.769   4.263   8.127  1.1968 -0.4275 -0.4235
 6491SOL    HW230936   1.846   4.201   8.248 -2.2702  0.9694  1.3404
 6492SOL     OW30937   2.143   0.123   7.919  0.4531  0.5633  0.0650
 6492SOL    HW130938   2.187   0.137   7.835 -1.4592 -0.1725 -1.0557
 6492SOL    HW230939   2.210   0.078   7.970  1.3895 -1.0814 -2.6318
 6493SOL     OW30940   3.425   4.569   1.678 -0.3619  0.6636  0.1040
 6493SOL    HW130941   3.454   4.513   1.605  0.0673 -0.4249  1.1103
 6493SOL    HW230942   3.368   4.630   1.630  0.4088 -0.3458 -2.0865
 6494SOL     OW30943   2.611   2.282   0.991 -0.3613 -0.6672 -0.1260
 6494SOL    HW130944   2.524   2.267   1.028 -1.8290  2.3823 -2.2782
 6494SOL    HW230945   2.634   2.207   0.937  0.5577  0.3442 -1.1364
 6495SOL     OW30946   2.033   4.175  11.902 -0.5955 -0.3134 -0.2895
 6495SOL    HW130947   1.960   4.226  11.937  1.6291  1.3071  1.9320
 6495SOL    HW230948   2.105   4.234  11.881 -0.1839 -1.4903 -2.2266
 6496SOL     OW30949   2.085   4.587   7.346  0.1807  0.1150  0.3861
 6496SOL    HW130950   2.007   4.625   7.306 -1.1825 -1.0720  1.9573
 6496SOL    HW230951   2.078   4.623   7.434 -0.5437  2.5973 -0.6711
 6497SOL     OW30952   4.615   0.664   4.902  0.6355 -0.3361 -0.3659
 6497SOL    HW130953   4.540   0.608   4.922 -1.0404  1.0129 -2.8540
 6497SOL    HW230954   4.657   0.698   4.981 -2.2638  1.8974  0.1965
 6498SOL     OW30955   1.750   0.747   8.541  0.4224  0.0581 -0.4588
 6498SOL    HW130956   1.667   0.708   8.514 -0.5103  1.5714  0.2211
 6498SOL    HW230957   1.803   0.671   8.566  3.0843  1.8891 -0.4705
 6499SOL     OW30958   3.915   0.946   7.666  0.4407 -0.1912  0.0437
 6499SOL    HW130959   3.850   1.009   7.695  1.7835  1.3264 -0.2579
 6499SOL    HW230960   3.930   0.895   7.746 -1.2088 -0.3459  0.2624
 6500SOL     OW30961   1.741   3.054   4.955  0.3515  0.1084  0.3002
 6500SOL    HW130962   1.799   3.105   4.899 -2.9741  1.5008 -1.8398
 6500SOL    HW230963   1.775   2.964   4.950 -0.1414 -0.0918  0.5285
 6501SOL     OW30964   0.179   2.246   5.827 -0.2192 -0.2713 -0.0362
 6501SOL    HW130965   0.085   2.228   5.833  0.1517 -2.3195 -0.4593
 6501SOL    HW230966   0.180   2.330   5.874 -2.0027 -1.2886  1.8074
 6502SOL     OW30967   1.990   0.856   5.063  0.0690  0.0362  0.0692
 6502SOL    HW130968   1.896   0.874   5.060 -0.1462 -1.2936 -1.5435
 6502SOL    HW230969   1.984   0.776   5.011 -3.2895 -0.8485  1.8001
 6503SOL     OW30970   0.370   3.276   4.225 -0.5463  0.0781  0.4309
 6503SOL    HW130971   0.309   3.255   4.295 -1.0394 -1.6158 -0.5205
 6503SOL    HW230972   0.406   3.190   4.204 -0.3465  0.2021  0.2626
 6504SOL     OW30973   0.712   4.479   8.045  0.2689 -0.6596  0.4136
 6504SOL    HW130974   0.735   4.475   7.952  0.2075 -0.5452  0.3932
 6504SOL    HW230975   0.759   4.559   8.069 -2.3718  0.9785  0.1505
 6505SOL     OW30976   2.512   3.000  12.209 -0.2126  0.5573 -0.3106
 6505SOL    HW130977   2.495   2.929  12.271 -0.3421 -0.2304 -1.2425
 6505SOL    HW230978   2.512   3.072  12.272  1.9852  2.0712 -2.0393
 6506SOL     OW30979   1.977   3.772   5.472 -0.3574 -0.1415  0.3262
 6506SOL    HW130980   2.058   3.738   5.435 -1.3664 -1.4935 -0.6679
 6506SOL    HW230981   2.008   3.839   5.533 -0.3017 -0.8226  1.0487
 6507SOL     OW30982   0.080   2.307   2.307 -0.0709  0.5560  0.3541
 6507SOL    HW130983   0.132   2.231   2.283  0.0954  0.0421  2.3277
 6507SOL    HW230984   0.005   2.294   2.248 -0.0299 -1.3386  0.7219
 6508SOL     OW30985   1.736   4.142   9.106 -0.2875 -0.2309  0.4877
 6508SOL    HW130986   1.802   4.209   9.125 -1.4752  0.6029  1.7112
 6508SOL    HW230987   1.799   4.078   9.072 -1.9092 -1.0478 -0.9710
 6509SOL     OW30988   4.384   3.930   7.418 -0.0348 -0.2037 -0.5991
 6509SOL    HW130989   4.422   3.861   7.473 -0.2180 -1.3912 -1.9524
 6509SOL    HW230990   4.296   3.899   7.394 -0.7480  1.9293 -0.7799
 6510SOL     OW30991   0.733   3.536  16.003  0.2942 -0.0882  0.6804
 6510SOL    HW130992   0.771   3.621  15.978  3.1869 -1.7987 -0.6713
 6510SOL    HW230993   0.751   3.486  15.924 -0.2329 -1.6108  1.5404
 6511SOL     OW30994   3.637   3.610  13.919  0.2494 -0.3198 -0.0666
 6511SOL    HW130995   3.624   3.515  13.928 -1.3261  0.0684  1.7167
 6511SOL    HW230996   3.703   3.607  13.850 -0.2521  0.5717 -0.5869
 6512SOL     OW30997   0.839   1.816   1.457 -0.3028 -0.6747  0.0517
 6512SOL    HW130998   0.743   1.814   1.464 -0.3084  0.7790  0.3162
 6512SOL    HW230999   0.842   1.870   1.378 -0.2619 -0.8457 -0.0632
 6513SOL     OW31000   3.783   1.494   6.769  0.3775  0.8468 -0.8607
 6513SOL    HW131001   3.856   1.434   6.783 -1.5205 -0.9285  1.4507
 6513SOL    HW231002   3.767   1.499   6.675 -0.8764  0.0722 -0.6851
 6514SOL     OW31003   2.693   1.187   1.175  0.3800  0.4889  0.3750
 6514SOL    HW131004   2.662   1.102   1.207 -0.0417 -0.0842 -1.5832
 6514SOL    HW231005   2.706   1.159   1.085  2.5017 -0.8098  1.0745
 6515SOL     OW31006   1.197   4.487   9.132 -0.3055 -0.3185  0.0550
 6515SOL    HW131007   1.119   4.454   9.176 -1.4606  1.6590 -0.4808
 6515SOL    HW231008   1.213   4.574   9.168  0.3748 -0.6450  0.5393
 6516SOL     OW31009   1.101   2.074   8.198 -0.4744  0.1840  0.2933
 6516SOL    HW131010   1.163   2.060   8.126 -0.2867  3.5682 -0.2245
 6516SOL    HW231011   1.124   2.002   8.257  1.4885  2.1005  1.8680
 6517SOL     OW31012   4.643   4.235   4.745 -0.4853 -0.0613 -0.2491
 6517SOL    HW131013   4.689   4.175   4.686  1.7227 -0.6210  2.0846
 6517SOL    HW231014   4.709   4.247   4.812  0.8736 -0.9559 -1.4330
 6518SOL     OW31015   1.786   3.460   7.641 -0.2343  0.6974  0.4025
 6518SOL    HW131016   1.721   3.395   7.667  2.1689 -0.6351  3.1154
 6518SOL    HW231017   1.768   3.533   7.700 -1.8752  1.6401 -1.2578
 6519SOL     OW31018   1.468   4.058   4.100  0.4531  0.5500 -0.1758
 6519SOL    HW131019   1.428   4.019   4.024 -0.9258 -1.3416  1.5355
 6519SOL    HW231020   1.413   4.136   4.110 -1.7700 -1.3063  1.7749
 6520SOL     OW31021   0.642   3.925  16.823 -0.5710 -0.1651  0.9880
 6520SOL    HW131022   0.548   3.945  16.817 -0.2920  0.6481 -0.5574
 6520SOL    HW231023   0.677   4.012  16.838 -1.2628  0.1915  0.5182
 6521SOL     OW31024   1.124   1.485   3.477  0.0350  0.1291 -0.5980
 6521SOL    HW131025   1.130   1.577   3.504  1.0724  0.7401 -2.8365
 6521SOL    HW231026   1.213   1.471   3.443 -0.5368 -0.8032 -1.6947
 6522SOL     OW31027   3.205   2.211   4.495 -0.6779  0.1598 -0.7482
 6522SOL    HW131028   3.172   2.167   4.417  2.0690  1.3065 -2.5369
 6522SOL    HW231029   3.298   2.215   4.472  0.0090  2.1195  2.3381
 6523SOL     OW31030   0.040   4.470  14.198 -0.1528  0.4841  0.0140
 6523SOL    HW131031   0.132   4.486  14.177  0.5445 -4.0732 -0.3933
 6523SOL    HW231032   0.013   4.543  14.253 -3.3081 -0.0729 -0.8014
 6524SOL     OW31033   4.077   3.499   3.059 -0.1195 -0.4472  0.1650
 6524SOL    HW131034   4.013   3.430   3.040  0.4644 -0.5637 -1.3777
 6524SOL    HW231035   4.053   3.573   3.002 -0.3397 -1.1047 -0.5946
 6525SOL     OW31036   1.820   0.445   2.806  0.5543 -0.0332 -0.2152
 6525SOL    HW131037   1.733   0.462   2.770  0.1518 -0.5593  0.5170
 6525SOL    HW231038   1.835   0.360   2.766  1.1683 -0.1592  0.2837
 6526SOL     OW31039   0.877   1.970  12.590  0.5164 -0.4779  0.1153
 6526SOL    HW131040   0.953   1.912  12.587  0.3625 -0.5987 -1.1071
 6526SOL    HW231041   0.911   2.059  12.600  1.8558 -0.8430 -1.2305
 6527SOL     OW31042   1.801   2.359   2.708  0.3490  0.7772  0.5529
 6527SOL    HW131043   1.885   2.350   2.663  0.2215 -1.6692  0.7611
 6527SOL    HW231044   1.746   2.360   2.629  0.8033 -0.7716  0.2108
 6528SOL     OW31045   2.669   1.551   6.722  0.5052  0.2975  0.4493
 6528SOL    HW131046   2.676   1.562   6.817  0.3930  1.5610  0.3154
 6528SOL    HW231047   2.736   1.608   6.685  0.7434  0.0722  0.5329
 6529SOL     OW31048   0.381   2.583  13.106 -1.0101 -0.2838 -0.6899
 6529SOL    HW131049   0.389   2.602  13.200  0.3271 -2.0929 -0.4351
 6529SOL    HW231050   0.313   2.516  13.113 -0.8452 -0.3629  0.2587
 6530SOL     OW31051   4.184   1.651   6.515  0.1761 -0.1147 -0.4126
 6530SOL    HW131052   4.091   1.672   6.514  0.5592  1.8483  3.7157
 6530SOL    HW231053   4.180   1.563   6.554  1.1227 -0.8840 -2.0422
 6531SOL     OW31054   1.789   4.646  12.631 -0.0483  0.4259  0.0301
 6531SOL    HW131055   1.738   0.001  12.652 -0.3150 -0.5166  2.9002
 6531SOL    HW231056   1.812   4.660  12.539  0.0497 -0.3152 -0.0580
 6532SOL     OW31057   0.322   4.315  14.022 -0.0528 -0.2183 -0.4199
 6532SOL    HW131058   0.404   4.304  14.070 -0.4408 -2.2476 -0.2437
 6532SOL    HW231059   0.270   4.385  14.062 -0.1526  0.8235 -2.3895
 6533SOL     OW31060   3.271   1.801  16.311  0.2448 -0.6550  0.6969
 6533SOL    HW131061   3.324   1.875  16.341  0.4034  0.0701 -1.3720
 6533SOL    HW231062   3.205   1.846  16.259 -1.1796 -0.8338  2.3543
 6534SOL     OW31063   0.638   4.106   8.725 -0.4620 -0.1713 -0.1413
 6534SOL    HW131064   0.583   4.163   8.672 -2.1525 -0.0745  1.6883
 6534SOL    HW231065   0.596   4.021   8.713 -2.1714  0.3201  2.2234
 6535SOL     OW31066   1.790   2.792   4.838  0.0505  0.3435  0.1001
 6535SOL    HW131067   1.883   2.780   4.817  0.3373 -0.1713  1.6444
 6535SOL    HW231068   1.790   2.754   4.926 -1.6374  0.7257  0.2616
 6536SOL     OW31069   0.574   3.640   0.256  0.9382  0.4083 -0.7503
 6536SOL    HW131070   0.488   3.626   0.217  0.7434  0.9820 -0.5232
 6536SOL    HW231071   0.610   3.693   0.185  1.8858  1.7443  0.6981
 6537SOL     OW31072   3.774   1.073   8.622 -0.2945 -0.1351 -0.3214
 6537SOL    HW131073   3.701   1.098   8.679  0.5603  1.1591  0.1948
 6537SOL    HW231074   3.803   1.155   8.582  2.0497 -1.0404 -0.4262
 6538SOL     OW31075   1.345   4.170   5.430  0.3490  0.2341  0.3996
 6538SOL    HW131076   1.261   4.203   5.398  0.2702 -1.5629 -1.2705
 6538SOL    HW231077   1.363   4.243   5.488  1.3839  1.1047 -1.0139
 6539SOL     OW31078   3.547   0.947   0.204  0.2022  0.0640  0.8721
 6539SOL    HW131079   3.591   0.946   0.120  3.0871  0.9035  2.3728
 6539SOL    HW231080   3.533   0.852   0.207 -1.6484  0.3363  0.6365
 6540SOL     OW31081   2.015   4.628   9.098 -0.3573  0.5044 -0.0404
 6540SOL    HW131082   1.930   4.665   9.075 -0.4444  0.9787  1.0323
 6540SOL    HW231083   2.035   4.574   9.022 -0.6168  0.6650 -0.2236
 6541SOL     OW31084   1.538   3.095  14.712  0.2005 -0.4317  0.4341
 6541SOL    HW131085   1.599   3.161  14.680  2.1488 -2.2518  0.3503
 6541SOL    HW231086   1.482   3.074  14.637  0.3034 -0.3579  0.3370
 6542SOL     OW31087   0.517   0.464   5.261  0.8871  0.4134  0.2705
 6542SOL    HW131088   0.610   0.459   5.239  0.7994  0.4293 -0.1000
 6542SOL    HW231089   0.488   0.542   5.214  2.5365  1.0219  0.2728
 6543SOL     OW31090   1.854   0.410   8.212  0.6304 -0.0753 -0.0315
 6543SOL    HW131091   1.943   0.378   8.200  0.8944  0.6827 -0.0740
 6543SOL    HW231092   1.868   0.503   8.229 -2.3563  0.0637  1.6670
 6544SOL     OW31093   1.800   0.523   5.165  0.3044  0.0479  0.4674
 6544SOL    HW131094   1.730   0.480   5.115  0.9118 -1.1100  0.6067
 6544SOL    HW231095   1.771   0.611   5.141  1.1137  0.5856  1.4720
 6545SOL     OW31096   0.431   3.436   2.850  0.7498  0.1667  0.7221
 6545SOL    HW131097   0.436   3.343   2.826 -2.5312  0.1793  0.0075
 6545SOL    HW231098   0.461   3.476   2.768  1.2952 -0.4866  0.5963
 6546SOL     OW31099   0.499   0.964   3.085  0.1690 -0.4559 -0.0774
 6546SOL    HW131100   0.419   0.950   3.034  0.0456  0.0800 -0.0261
 6546SOL    HW231101   0.524   0.872   3.076  1.6917  0.0575 -1.0190
 6547SOL     OW31102   4.500   0.078   5.066  0.1980  0.0618  0.1492
 6547SOL    HW131103   4.523   0.164   5.100 -2.4237  0.5015  0.8020
 6547SOL    HW231104   4.444   0.094   4.990 -1.9242 -2.7484  1.1186
 6548SOL     OW31105   3.400   2.881  11.837  0.5914  0.3731  0.4447
 6548SOL    HW131106   3.461   2.839  11.776 -0.4838 -1.3479  0.5449
 6548SOL    HW231107   3.347   2.811  11.874  0.0127  0.2430 -0.6533
 6549SOL     OW31108   1.186   0.730   8.043 -0.3643 -0.3245  0.0470
 6549SOL    HW131109   1.162   0.744   7.952 -0.5761 -2.1655 -0.1726
 6549SOL    HW231110   1.265   0.677   8.040 -0.6817 -0.6544 -2.2669
 6550SOL     OW31111   0.231   0.635  14.590  0.3577 -0.2877  0.4710
 6550SOL    HW131112   0.306   0.690  14.569 -0.2974  0.2671 -0.4063
 6550SOL    HW231113   0.167   0.703  14.569 -2.4204 -2.8289  0.7216
 6551SOL     OW31114   0.987   4.177   4.166  0.1698 -0.0031 -0.2767
 6551SOL    HW131115   1.054   4.109   4.174  1.8070  1.7202  0.6425
 6551SOL    HW231116   0.977   4.194   4.260  1.5527  0.3168 -0.1859
 6552SOL     OW31117   0.025   3.994   3.851 -0.2411  0.1923  0.4597
 6552SOL    HW131118   0.034   3.930   3.922  0.1963  0.0684  0.2906
 6552SOL    HW231119   4.697   3.940   3.791 -0.8500  2.0889 -0.7304
 6553SOL     OW31120   4.413   1.559  15.647 -0.3016 -0.1860  0.4568
 6553SOL    HW131121   4.336   1.556  15.591  0.4126  2.8998 -0.6633
 6553SOL    HW231122   4.455   1.480  15.613  0.0358 -0.5322  1.6654
 6554SOL     OW31123   3.279   0.280  11.904 -0.0227  0.0382  0.2347
 6554SOL    HW131124   3.345   0.302  11.838 -2.3985  2.9143 -1.1662
 6554SOL    HW231125   3.329   0.213  11.951 -0.0461 -1.5287 -1.9915
 6555SOL     OW31126   1.049   2.611   9.662  0.3254 -0.5211  0.3806
 6555SOL    HW131127   1.067   2.517   9.659 -1.4470 -0.7952 -1.5543
 6555SOL    HW231128   1.027   2.628   9.570 -0.3116  2.0609  1.0051
 6556SOL     OW31129   4.341   0.630  14.439  0.6529 -0.3365  0.2064
 6556SOL    HW131130   4.343   0.663  14.349 -1.9010 -1.5506 -0.3220
 6556SOL    HW231131   4.434   0.625  14.460  0.9168  0.4113 -0.7390
 6557SOL     OW31132   3.023   1.442  11.142  0.3582 -0.3479  0.4684
 6557SOL    HW131133   2.948   1.470  11.089  1.4044  2.0246  0.2371
 6557SOL    HW231134   3.095   1.494  11.106  0.4068 -0.5826  0.2287
 6558SOL     OW31135   0.276   0.220  11.874 -0.4480  0.4764 -0.0609
 6558SOL    HW131136   0.280   0.124  11.877  0.7060  0.5779  1.5400
 6558SOL    HW231137   0.355   0.238  11.925 -0.0621  1.2195 -0.9333
 6559SOL     OW31138   3.410   2.938   6.297 -0.1413 -0.1218  0.5923
 6559SOL    HW131139   3.479   2.949   6.362  0.7867 -0.2756 -0.3617
 6559SOL    HW231140   3.418   3.023   6.255 -0.4126  0.2567  1.3019
 6560SOL     OW31141   1.799   2.038   8.430 -0.3758 -0.4841  0.4934
 6560SOL    HW131142   1.720   2.046   8.482 -1.1140 -0.2881 -0.6651
 6560SOL    HW231143   1.842   2.100   8.488  2.2492 -1.3781 -0.4469
 6561SOL     OW31144   2.342   0.025   4.390  0.7911  0.6060  0.1008
 6561SOL    HW131145   2.312   0.110   4.422 -0.3453  0.1600  0.2180
 6561SOL    HW231146   2.321   0.022   4.296  2.6346 -2.0889 -0.2275
 6562SOL     OW31147   3.643   3.901   6.453 -0.2036 -0.0117  0.3481
 6562SOL    HW131148   3.565   3.955   6.447  0.1758  0.6571  1.5015
 6562SOL    HW231149   3.685   3.921   6.369 -0.4295  2.3190  0.8040
 6563SOL     OW31150   1.497   0.866   4.807  1.1430 -0.0492 -0.6938
 6563SOL    HW131151   1.580   0.901   4.840  1.2010 -0.3315 -0.5484
 6563SOL    HW231152   1.443   0.888   4.883  1.6316  0.5869 -0.5234
 6564SOL     OW31153   1.427   2.068   6.617  0.9153  0.2937  0.5636
 6564SOL    HW131154   1.439   2.140   6.678 -0.2413 -0.1089  1.2635
 6564SOL    HW231155   1.381   2.008   6.675  0.0010  0.5986  0.1431
 6565SOL     OW31156   3.853   1.315   8.535 -0.0668  0.6680  0.4819
 6565SOL    HW131157   3.799   1.374   8.483 -0.3968 -1.3334 -1.4373
 6565SOL    HW231158   3.840   1.342   8.626  1.0381  0.9516  0.5547
 6566SOL     OW31159   1.747   2.110  15.475 -0.3570  0.0790 -0.4192
 6566SOL    HW131160   1.820   2.151  15.429 -0.8862  0.6926 -0.6984
 6566SOL    HW231161   1.671   2.128  15.421  0.2221 -1.1287 -1.6208
 6567SOL     OW31162   1.001   1.465  13.950 -0.0865 -0.0396  0.6705
 6567SOL    HW131163   1.083   1.507  13.977 -1.8383  1.9768  2.8872
 6567SOL    HW231164   1.020   1.431  13.863 -1.9505 -1.1075  0.6969
 6568SOL     OW31165   2.924   3.635   7.191 -0.2593 -0.4674 -0.5748
 6568SOL    HW131166   2.946   3.602   7.104 -0.8347 -1.0899 -0.4802
 6568SOL    HW231167   2.999   3.693   7.204  0.2888 -1.2411 -0.2864
 6569SOL     OW31168   1.235   1.907  12.579  0.3323 -0.1184  0.9067
 6569SOL    HW131169   1.305   1.862  12.533  0.0576  0.2547  0.1296
 6569SOL    HW231170   1.213   1.839  12.644 -2.0850 -0.4747 -0.2904
 6570SOL     OW31171   3.477   4.096   5.515  0.0561 -1.0664 -0.1168
 6570SOL    HW131172   3.419   4.100   5.439  0.6267 -1.4503 -0.5791
 6570SOL    HW231173   3.407   4.088   5.580 -0.5046 -0.1875 -0.6139
 6571SOL     OW31174   3.465   0.334  10.404 -0.7647 -0.5359  0.4056
 6571SOL    HW131175   3.481   0.249  10.445 -1.1969 -0.0226  1.6173
 6571SOL    HW231176   3.378   0.366  10.430  0.4250  0.6628  2.8317
 6572SOL     OW31177   1.358   4.118   4.676 -0.0302 -0.2732 -0.4785
 6572SOL    HW131178   1.368   4.160   4.590  0.7460  1.5349  0.4911
 6572SOL    HW231179   1.398   4.188   4.728 -0.1920  1.2511 -2.4032
 6573SOL     OW31180   0.724   0.840   1.776  0.0995 -0.0554  0.1841
 6573SOL    HW131181   0.764   0.819   1.692 -2.4779  0.8873 -1.2945
 6573SOL    HW231182   0.668   0.913   1.747 -0.1209  1.1043  3.5140
 6574SOL     OW31183   2.414   0.022   8.427  0.0711  0.6072  0.1456
 6574SOL    HW131184   2.484   0.057   8.483  0.5299 -2.9221  1.7417
 6574SOL    HW231185   2.469   4.720   8.353 -1.4686  0.1748 -0.8474
 6575SOL     OW31186   3.906   1.093   3.950 -0.4054 -0.1633  0.0736
 6575SOL    HW131187   3.839   1.032   3.918  1.0517 -1.6416 -0.1156
 6575SOL    HW231188   3.883   1.163   3.889 -2.0194  1.3020  2.3627
 6576SOL     OW31189   3.455   2.091   4.735 -0.0225 -0.1166  0.2995
 6576SOL    HW131190   3.448   2.170   4.682 -0.5179 -1.1334 -1.1676
 6576SOL    HW231191   3.501   2.039   4.669  1.4457  0.0132  1.2206
 6577SOL     OW31192   3.371   4.227   3.604 -0.2811  0.2387  0.2289
 6577SOL    HW131193   3.408   4.140   3.587 -1.1024  0.2620 -1.6890
 6577SOL    HW231194   3.322   4.191   3.679  2.0147  1.1066  2.1221
 6578SOL     OW31195   0.472   3.257   3.574  0.4208  0.0166 -0.3588
 6578SOL    HW131196   0.496   3.258   3.481 -1.5216  1.7391 -0.8410
 6578SOL    HW231197   0.555   3.275   3.618 -0.5407 -1.1389  1.9058
 6579SOL     OW31198   2.033   4.711   8.790  0.2021  0.3026 -0.2256
 6579SOL    HW131199   2.051   4.618   8.803 -4.0934  0.0286  3.5457
 6579SOL    HW231200   2.084   0.013   8.713  0.0866 -2.4099 -1.2338
 6580SOL     OW31201   0.370   0.819   2.396 -0.3095  0.6774  0.1124
 6580SOL    HW131202   0.328   0.733   2.384 -0.7122  0.9684 -0.5856
 6580SOL    HW231203   0.458   0.804   2.362  0.7182  2.8349  1.8269
 6581SOL     OW31204   1.383   0.511   9.211 -0.2532 -0.0507  0.0672
 6581SOL    HW131205   1.423   0.482   9.129  2.3485  0.8868  1.0256
 6581SOL    HW231206   1.418   0.600   9.213 -3.9160  1.3303  1.9912
 6582SOL     OW31207   2.232   1.306   9.043  0.3885 -0.4152  0.1794
 6582SOL    HW131208   2.241   1.215   9.014  0.0067  0.4470 -2.6154
 6582SOL    HW231209   2.313   1.348   9.015  0.6123  0.3773  2.0268
 6583SOL     OW31210   1.640   4.335   3.671 -0.8623  0.0099 -0.3149
 6583SOL    HW131211   1.579   4.262   3.666  0.2661 -0.8704 -1.3043
 6583SOL    HW231212   1.685   4.314   3.589  1.1605 -2.0812  1.3574
 6584SOL     OW31213   3.559   4.539  12.411  0.4807 -0.3145 -0.0096
 6584SOL    HW131214   3.577   4.446  12.421 -1.1625 -0.8688 -2.1074
 6584SOL    HW231215   3.576   4.541  12.317 -2.2995 -0.6262 -0.5194
 6585SOL     OW31216   1.240   2.332  13.533  0.2823 -0.3419 -0.4257
 6585SOL    HW131217   1.298   2.288  13.595 -0.3333 -1.5754 -0.7342
 6585SOL    HW231218   1.154   2.329  13.576  0.2152  1.6086 -0.4087
 6586SOL     OW31219   2.311   3.750   2.858  0.1712  0.3376  0.3963
 6586SOL    HW131220   2.328   3.787   2.944 -1.5308 -0.3524  1.0161
 6586SOL    HW231221   2.320   3.830   2.806  0.8108  0.8121  1.2509
 6587SOL     OW31222   2.827   0.580   3.691  0.4067  0.6641  0.1134
 6587SOL    HW131223   2.760   0.551   3.753 -0.3785  1.2336 -0.4655
 6587SOL    HW231224   2.774   0.580   3.612 -3.8760 -1.7622  2.9935
 6588SOL     OW31225   0.307   1.987   9.328  0.5563  0.0032 -0.0884
 6588SOL    HW131226   0.313   1.912   9.388 -1.1820 -1.1868 -1.3879
 6588SOL    HW231227   0.319   2.059   9.390  1.1334 -0.0317 -0.1600
 6589SOL     OW31228   2.111   4.630  17.377  0.0867  0.2206  0.1568
 6589SOL    HW131229   2.153   4.676  17.304  0.6884  0.1609  0.4656
 6589SOL    HW231230   2.190   4.584  17.404 -0.1206 -0.8890 -1.0811
 6590SOL     OW31231   0.836   3.049   7.841 -0.7202 -0.3398  0.6351
 6590SOL    HW131232   0.802   3.138   7.827  0.0091 -0.1478  0.0863
 6590SOL    HW231233   0.764   3.012   7.893 -0.5416 -1.3899  0.1323
 6591SOL     OW31234   3.359   1.134  16.817 -0.0772  0.1273 -0.3128
 6591SOL    HW131235   3.358   1.097  16.906  0.2704 -1.4870 -0.9850
 6591SOL    HW231236   3.397   1.220  16.834  0.4393  0.1343 -1.4868
 6592SOL     OW31237   2.832   2.767   6.751 -0.2774  0.2050 -0.1601
 6592SOL    HW131238   2.820   2.861   6.763 -1.2624  0.1060 -0.3323
 6592SOL    HW231239   2.919   2.763   6.790  0.2661  2.6410 -1.1444
 6593SOL     OW31240   2.415   4.521  13.205  0.2039  0.0763 -0.0955
 6593SOL    HW131241   2.472   4.569  13.264  0.0953  0.6201 -0.4414
 6593SOL    HW231242   2.335   4.572  13.194 -0.8410 -1.7979 -1.2767
 6594SOL     OW31243   2.261   1.404   2.880  0.1359  0.3688  0.5346
 6594SOL    HW131244   2.201   1.458   2.931  0.3445  0.6622  0.4692
 6594SOL    HW231245   2.245   1.455   2.801 -2.1403 -1.3835 -0.1432
 6595SOL     OW31246   1.215   2.606   6.541 -0.3395  0.2630 -0.5417
 6595SOL    HW131247   1.254   2.519   6.547 -0.3084  0.4306  1.7043
 6595SOL    HW231248   1.197   2.613   6.448 -0.8734 -3.5587 -0.7275
 6596SOL     OW31249   3.385   0.393   3.419  0.1372 -0.0301  0.2073
 6596SOL    HW131250   3.392   0.474   3.368  0.0011  1.0998  1.9993
 6596SOL    HW231251   3.479   0.373   3.423 -0.0374 -1.3318 -1.8196
 6597SOL     OW31252   1.114   3.812   3.692  0.3228 -0.1240 -0.1138
 6597SOL    HW131253   1.091   3.720   3.696  0.5207 -0.2572 -1.7986
 6597SOL    HW231254   1.044   3.856   3.643  2.1140  0.9262 -1.7322
 6598SOL     OW31255   0.927   0.006  13.005  0.0155 -0.4448  0.6892
 6598SOL    HW131256   0.961   4.670  12.938 -0.3318 -0.1664  0.2553
 6598SOL    HW231257   0.984   0.079  12.982  0.1824 -1.0536 -0.8496
 6599SOL     OW31258   2.330   4.530  10.563 -0.1022  0.0498  0.6373
 6599SOL    HW131259   2.410   4.583  10.564  0.7369 -1.2024 -1.7740
 6599SOL    HW231260   2.271   4.585  10.615  0.0802  1.8111 -1.0284
 6600SOL     OW31261   2.547   0.036   1.968  0.0333 -0.0529  0.0883
 6600SOL    HW131262   2.463   0.082   1.968 -0.2476 -0.5700 -0.2233
 6600SOL    HW231263   2.551   0.002   1.879 -0.0942 -0.2073  0.1422
 6601SOL     OW31264   2.296   3.250  12.697 -0.2487 -0.1871 -0.2820
 6601SOL    HW131265   2.309   3.207  12.782 -0.9594  1.4623  0.6617
 6601SOL    HW231266   2.260   3.177  12.647 -0.6653 -0.4101  0.3490
 6602SOL     OW31267   2.761   2.657   4.548 -0.2241 -0.0727  0.0043
 6602SOL    HW131268   2.808   2.740   4.555 -0.7884  0.1712  0.9672
 6602SOL    HW231269   2.764   2.619   4.636  1.2856 -0.0267 -0.0261
 6603SOL     OW31270   2.957   2.111   0.122  0.1002  0.1586  0.0558
 6603SOL    HW131271   3.028   2.048   0.110  1.3948  1.5696  0.2767
 6603SOL    HW231272   2.993   2.176   0.061  0.7188  0.1667  0.4384
 6604SOL     OW31273   3.774   4.053  13.311 -0.9274  0.0004 -0.6986
 6604SOL    HW131274   3.693   4.003  13.310 -0.9542  0.0221  0.1899
 6604SOL    HW231275   3.747   4.132  13.265  1.0724  0.8150 -0.4880
 6605SOL     OW31276   4.378   4.413  10.980  0.9381  0.4757 -0.4805
 6605SOL    HW131277   4.396   4.457  11.062  1.7488 -0.0458 -0.3776
 6605SOL    HW231278   4.298   4.457  10.950  2.0546  2.6960 -0.1405
 6606SOL     OW31279   4.168   0.675   9.029  0.0967 -0.5660  0.1760
 6606SOL    HW131280   4.260   0.669   9.003 -0.7216 -0.3085 -2.8654
 6606SOL    HW231281   4.159   0.770   9.029 -1.0075 -0.6623 -0.1940
 6607SOL     OW31282   1.738   3.177   3.851 -0.1323  0.1252 -0.0375
 6607SOL    HW131283   1.818   3.183   3.904 -0.7543 -0.8743  0.9863
 6607SOL    HW231284   1.750   3.253   3.793  0.0610 -1.3621 -1.9273
 6608SOL     OW31285   0.597   2.076   2.001  0.2767  0.3446  0.1330
 6608SOL    HW131286   0.667   2.034   1.951 -1.1575 -2.1659  0.2244
 6608SOL    HW231287   0.636   2.061   2.088 -1.2623  0.2790  0.8074
 6609SOL     OW31288   4.200   2.470   6.567  0.3237 -0.5411  0.5206
 6609SOL    HW131289   4.189   2.558   6.532  0.3743 -0.9034 -0.3971
 6609SOL    HW231290   4.165   2.419   6.494 -1.0072  2.3517 -0.8327
 6610SOL     OW31291   3.609   1.261   3.261 -0.0483 -0.2252  0.0239
 6610SOL    HW131292   3.525   1.274   3.218 -1.0001  2.5602  2.7110
 6610SOL    HW231293   3.659   1.339   3.235  0.8330 -0.9184 -0.3455
 6611SOL     OW31294   2.016   3.209   8.977 -0.0870 -0.4613  0.2181
 6611SOL    HW131295   1.925   3.201   8.947  0.6270  1.7747 -2.6017
 6611SOL    HW231296   2.011   3.142   9.045 -0.7062 -0.3962  0.2365
 6612SOL     OW31297   1.467   3.580   4.721 -0.6225  0.2208 -0.7572
 6612SOL    HW131298   1.395   3.639   4.696 -0.1922  0.9581 -0.2572
 6612SOL    HW231299   1.430   3.523   4.788 -1.8710  1.8015 -0.0971
 6613SOL     OW31300   2.367   1.303   8.468  0.0006 -0.3163  0.1325
 6613SOL    HW131301   2.281   1.345   8.465  0.6256  0.7670 -2.0627
 6613SOL    HW231302   2.336   1.212   8.465 -0.3050 -0.2363  0.7125
 6614SOL     OW31303   1.044   0.800   7.784 -0.1018 -0.3036  0.1029
 6614SOL    HW131304   0.967   0.744   7.771 -0.2269 -0.0266 -0.3588
 6614SOL    HW231305   1.089   0.796   7.700 -1.7903  0.4393 -0.8398
 6615SOL     OW31306   2.520   4.504  15.865  0.0641 -0.2249 -0.0264
 6615SOL    HW131307   2.485   4.575  15.919 -0.8990  0.1787 -1.1841
 6615SOL    HW231308   2.613   4.527  15.871 -0.1785  0.4342  1.3371
 6616SOL     OW31309   2.129   0.078   2.193  0.2691  0.0289 -0.4220
 6616SOL    HW131310   2.121   4.707   2.189  2.0984 -0.2245  1.9098
 6616SOL    HW231311   2.044   0.098   2.154 -1.2227 -3.5275  0.9522
 6617SOL     OW31312   4.059   0.129  12.114 -0.4176 -0.3495 -0.6118
 6617SOL    HW131313   3.997   0.201  12.107  0.3611  0.6925  2.9254
 6617SOL    HW231314   4.137   0.158  12.066 -1.0217  0.3894 -1.1440
 6618SOL     OW31315   3.096   0.680   2.282  0.1067  0.3643 -0.2666
 6618SOL    HW131316   3.119   0.593   2.251 -1.9584  0.5519 -2.3609
 6618SOL    HW231317   3.055   0.720   2.205 -2.8888 -0.2751  1.0009
 6619SOL     OW31318   1.169   0.469   2.264  0.2552 -0.5710  0.4018
 6619SOL    HW131319   1.173   0.401   2.331  0.6828 -0.8496  0.0972
 6619SOL    HW231320   1.077   0.493   2.254 -0.0184 -0.7552  2.5501
 6620SOL     OW31321   4.264   3.178  16.812 -0.3681  0.1496 -0.0823
 6620SOL    HW131322   4.242   3.233  16.888 -0.7118 -3.1584  2.1860
 6620SOL    HW231323   4.217   3.099  16.837 -0.0831  0.8710  2.7348
 6621SOL     OW31324   2.792   3.448   8.594 -0.5834 -0.3496 -0.2619
 6621SOL    HW131325   2.721   3.473   8.654  0.2020  0.4519  0.3296
 6621SOL    HW231326   2.785   3.499   8.514  4.5851  0.7883  0.0526
 6622SOL     OW31327   1.800   4.642   8.674  0.3382  0.2866  0.2257
 6622SOL    HW131328   1.885   4.646   8.718  0.9024 -0.9571 -0.7409
 6622SOL    HW231329   1.747   4.591   8.736  1.0762  0.0192  0.6325
 6623SOL     OW31330   1.870   0.511  10.983 -0.0793  0.3703 -0.0332
 6623SOL    HW131331   1.963   0.504  11.002 -0.0175  1.7800  0.1705
 6623SOL    HW231332   1.870   0.605  10.997  1.6393  0.1098  1.6871
 6624SOL     OW31333   1.699   1.844   2.478 -0.8314  0.0614 -0.2425
 6624SOL    HW131334   1.648   1.907   2.428  0.5357 -0.2532 -2.0468
 6624SOL    HW231335   1.728   1.780   2.412 -2.6734 -2.1395  1.0882
 6625SOL     OW31336   1.651   3.831   7.596 -0.0908 -0.4272 -0.4403
 6625SOL    HW131337   1.651   3.908   7.652 -0.7668  0.4968 -1.6964
 6625SOL    HW231338   1.740   3.802   7.578  0.0797  0.1048 -0.4807
 6626SOL     OW31339   4.593   0.245   0.495  0.4539  0.4310 -0.2760
 6626SOL    HW131340   4.634   0.247   0.409  0.3005  1.5715 -0.3179
 6626SOL    HW231341   4.509   0.285   0.474  0.4334  0.9149  0.7033
 6627SOL     OW31342   1.151   4.691   8.419 -0.0748  0.5348 -0.1460
 6627SOL    HW131343   1.118   4.610   8.456  3.5838 -1.3275 -0.9904
 6627SOL    HW231344   1.122   4.671   8.330 -1.1451  0.4439  0.2161
 6628SOL     OW31345   1.152   0.456  17.361  0.4131 -0.1940  0.3360
 6628SOL    HW131346   1.091   0.529  17.348 -0.4341 -1.0324 -0.4479
 6628SOL    HW231347   1.187   0.447  17.273  0.6457  1.8756  0.2343
 6629SOL     OW31348   0.735   1.981   3.728  0.3398 -0.2370 -0.5234
 6629SOL    HW131349   0.733   2.009   3.636  1.7637  1.4818 -0.0234
 6629SOL    HW231350   0.713   1.888   3.719 -0.1048 -0.2343  0.5951
 6630SOL     OW31351   0.647   0.049   2.787  0.4896 -0.1902  0.1633
 6630SOL    HW131352   0.644   0.081   2.697 -3.3377 -1.5761 -0.2191
 6630SOL    HW231353   0.664   0.134   2.828 -1.2033 -0.3394  1.1707
 6631SOL     OW31354   3.719   3.940   6.183  0.4724 -0.0064 -0.4822
 6631SOL    HW131355   3.626   3.958   6.168  0.4010  0.6963  0.8045
 6631SOL    HW231356   3.755   3.943   6.094  0.8219  0.6818 -0.3184
 6632SOL     OW31357   2.020   2.741   2.093 -0.3105 -0.3883  0.5678
 6632SOL    HW131358   2.042   2.703   2.178 -1.7384 -2.4371  0.0417
 6632SOL    HW231359   2.020   2.667   2.032  0.5317  1.4954 -1.7061
 6633SOL     OW31360   1.856   3.989  11.496  0.2798  0.1171 -0.1040
 6633SOL    HW131361   1.810   3.955  11.419 -1.1111  0.3680  0.6345
 6633SOL    HW231362   1.786   4.005  11.558 -0.1422  3.0349 -1.3392
 6634SOL     OW31363   4.574   3.638  16.968  0.3060 -0.2139 -0.2816
 6634SOL    HW131364   4.498   3.586  16.993 -0.7305  1.4069 -0.0405
 6634SOL    HW231365   4.582   3.694  17.046 -0.8672  0.6350 -0.7740
 6635SOL     OW31366   3.320   0.322   9.609 -0.0806  0.1409  0.4219
 6635SOL    HW131367   3.254   0.313   9.678 -0.4690  1.2049  0.1959
 6635SOL    HW231368   3.395   0.277   9.646 -1.5255 -0.4685  2.5973
 6636SOL     OW31369   1.348   4.692  12.044 -0.5425  0.2691  0.5318
 6636SOL    HW131370   1.434   4.684  12.004  0.4189  1.4105  2.3434
 6636SOL    HW231371   1.286   4.653  11.982 -0.0317 -1.2695  0.9688
 6637SOL     OW31372   0.205   2.896   8.750  0.3543  0.3274  0.1207
 6637SOL    HW131373   0.116   2.923   8.771  1.2774  1.0813  3.1496
 6637SOL    HW231374   0.249   2.926   8.830 -0.4126  1.0586  0.2591
 6638SOL     OW31375   2.893   1.204   8.496  0.0182  0.2597 -0.1705
 6638SOL    HW131376   2.834   1.172   8.429  2.0075  1.1979 -2.3854
 6638SOL    HW231377   2.873   1.297   8.491 -1.2409 -0.0482 -0.7549
 6639SOL     OW31378   0.756   4.323   9.421 -0.2412  0.2502  0.5854
 6639SOL    HW131379   0.665   4.303   9.443 -1.0545  0.9567 -2.0498
 6639SOL    HW231380   0.808   4.293   9.495  1.0374 -0.4074 -0.5751
 6640SOL     OW31381   2.394   0.404   6.877 -0.2692  0.2328  0.0143
 6640SOL    HW131382   2.442   0.363   6.805 -0.2944 -1.3732  0.9262
 6640SOL    HW231383   2.469   0.430   6.929  0.2139 -1.8234  0.3356
 6641SOL     OW31384   1.072   4.405   8.564 -0.4401 -0.5121  0.1123
 6641SOL    HW131385   1.031   4.325   8.532  0.5462 -0.8920 -0.2158
 6641SOL    HW231386   1.069   4.390   8.659 -1.7777 -1.0241 -0.0193
 6642SOL     OW31387   2.075   1.484  17.599 -0.3784 -0.2872 -0.1903
 6642SOL    HW131388   2.057   1.425  17.526  1.3941 -0.4549 -0.4852
 6642SOL    HW231389   2.128   1.552  17.557 -0.9073 -0.8897 -1.8461
 6643SOL     OW31390   1.152   3.960   4.161 -0.4646  0.4164  0.2710
 6643SOL    HW131391   1.140   3.898   4.089 -1.3313  1.7113 -0.6948
 6643SOL    HW231392   1.246   3.976   4.149 -0.1676 -0.1865  1.7539
 6644SOL     OW31393   0.196   1.040   3.823 -0.2499  0.0356 -0.1366
 6644SOL    HW131394   0.256   0.980   3.781 -1.4937  0.9899 -3.3192
 6644SOL    HW231395   0.154   1.088   3.751 -0.9132 -0.1213  0.1402
 6645SOL     OW31396   0.093   2.300   7.630  0.3836  0.1020 -0.4367
 6645SOL    HW131397   0.080   2.316   7.537  0.0132 -3.6311 -1.0082
 6645SOL    HW231398   0.149   2.375   7.650  1.4088 -0.4259 -1.4016
 6646SOL     OW31399   3.149   2.018   2.165  0.3000 -0.4373 -0.1895
 6646SOL    HW131400   3.138   2.108   2.195  2.0255 -0.1211 -0.4912
 6646SOL    HW231401   3.149   2.017   2.070  0.3565  1.1800 -0.2102
 6647SOL     OW31402   3.819   3.066   5.341  0.1888 -0.5249  0.3721
 6647SOL    HW131403   3.856   3.025   5.418 -0.7140 -0.8292  0.6464
 6647SOL    HW231404   3.799   3.156   5.367  2.3248  0.0876 -0.1584
 6648SOL     OW31405   0.648   3.652  16.922 -0.8802  0.0594  0.0791
 6648SOL    HW131406   0.658   3.735  16.876 -1.5831 -0.1896 -0.5221
 6648SOL    HW231407   0.698   3.657  17.004 -0.8764 -3.6895  0.3110
 6649SOL     OW31408   1.021   2.753   8.814 -0.3958 -0.4633  0.0614
 6649SOL    HW131409   0.968   2.803   8.876 -1.2875 -1.2810 -0.0320
 6649SOL    HW231410   0.975   2.670   8.825 -1.1673 -0.1034 -0.4602
 6650SOL     OW31411   3.724   4.247  14.116 -0.4520  0.2174 -0.2120
 6650SOL    HW131412   3.749   4.336  14.090 -1.3847  0.7939  0.8823
 6650SOL    HW231413   3.777   4.199  14.052 -1.7761  0.0046 -1.1456
 6651SOL     OW31414   1.342   4.107   1.793 -0.3346  0.1494  0.5097
 6651SOL    HW131415   1.422   4.079   1.836 -0.1574 -0.0797  0.0209
 6651SOL    HW231416   1.350   4.052   1.716 -0.4069  0.9721 -0.0807
 6652SOL     OW31417   1.187   3.577   6.202 -0.0703  0.1394  0.2683
 6652SOL    HW131418   1.262   3.564   6.144  1.4188  4.0481  1.3530
 6652SOL    HW231419   1.183   3.670   6.221 -0.6779 -0.3325  2.4535
 6653SOL     OW31420   2.302   3.232  14.518 -0.5670  0.5879  0.3150
 6653SOL    HW131421   2.207   3.218  14.526 -0.2410 -1.6890  0.2847
 6653SOL    HW231422   2.336   3.151  14.557 -1.0702  0.8828  1.3783
 6654SOL     OW31423   3.450   1.807   3.088  0.4279 -0.2867  0.2284
 6654SOL    HW131424   3.428   1.718   3.061  1.3717 -0.3289 -0.3991
 6654SOL    HW231425   3.519   1.821   3.023  2.3658  1.0825  2.5632
 6655SOL     OW31426   3.192   0.234   2.664  1.1988  0.1947  0.3136
 6655SOL    HW131427   3.256   0.168   2.637  0.4769 -0.1589 -0.5193
 6655SOL    HW231428   3.190   0.294   2.590  1.1217  2.8881  2.4870
 6656SOL     OW31429   4.362   2.744  11.845  0.2437 -0.5978  0.1552
 6656SOL    HW131430   4.414   2.717  11.921 -0.8344 -1.5509  0.5512
 6656SOL    HW231431   4.390   2.678  11.782 -0.1650  0.3567 -1.0325
 6657SOL     OW31432   3.458   2.114  15.536  0.2050  0.1031 -0.6204
 6657SOL    HW131433   3.387   2.051  15.544 -2.5744  3.6093  2.4526
 6657SOL    HW231434   3.509   2.058  15.478  1.3668 -1.1179  1.5898
 6658SOL     OW31435   2.972   2.874   4.581  0.0398 -0.3440  0.7847
 6658SOL    HW131436   2.909   2.945   4.591  0.1430 -0.2152  0.5223
 6658SOL    HW231437   2.990   2.890   4.488 -1.8842  3.0594  1.0088
 6659SOL     OW31438   2.738   3.991   7.038  0.4191 -0.4041  0.9633
 6659SOL    HW131439   2.707   4.076   7.008 -0.3068 -0.5454  1.3189
 6659SOL    HW231440   2.704   3.925   6.978  6.5649 -0.4668 -2.4526
 6660SOL     OW31441   3.013   3.776   3.014 -0.3416 -0.5940 -0.3051
 6660SOL    HW131442   2.967   3.718   2.954  0.0387 -1.6433  0.4292
 6660SOL    HW231443   2.943   3.824   3.057  0.6381  0.6036 -0.0427
 6661SOL     OW31444   3.922   2.510   5.355 -0.0992 -0.1373  0.0169
 6661SOL    HW131445   4.004   2.475   5.390  0.1010  0.5130  0.2048
 6661SOL    HW231446   3.864   2.434   5.360 -0.8261  0.2799 -2.2743
 6662SOL     OW31447   1.455   4.419   6.073 -0.3118  0.0998 -0.2868
 6662SOL    HW131448   1.468   4.439   6.165 -1.5778  0.4991 -0.1937
 6662SOL    HW231449   1.459   4.324   6.079 -1.2441  0.0701 -0.0777
 6663SOL     OW31450   3.165   1.609   0.752  0.8879  0.2683  0.5008
 6663SOL    HW131451   3.123   1.543   0.696 -0.0265 -0.8162  2.4375
 6663SOL    HW231452   3.178   1.673   0.683  0.0960 -0.3689 -0.2494
 6664SOL     OW31453   4.414   1.427   2.990  0.4183  0.2736 -0.2766
 6664SOL    HW131454   4.417   1.345   3.040  1.1097  2.1865  2.7938
 6664SOL    HW231455   4.509   1.441   2.996  0.9296 -3.5924  0.7682
 6665SOL     OW31456   0.078   3.011   6.008 -0.4494 -0.3525  0.7728
 6665SOL    HW131457   0.161   3.014   6.055  1.2042  1.0721 -2.2290
 6665SOL    HW231458   0.071   3.099   5.973 -0.7560 -1.4635 -1.9836
 6666SOL     OW31459   0.695   2.762   6.995 -0.0732 -0.4340  0.0077
 6666SOL    HW131460   0.755   2.790   7.064 -0.4775 -1.5566  0.8219
 6666SOL    HW231461   0.657   2.845   6.968  1.8459  0.2947 -0.5060
 6667SOL     OW31462   1.833   1.985  11.271 -0.0213  0.1042 -0.1932
 6667SOL    HW131463   1.864   1.904  11.230  1.0211  0.5222 -0.2319
 6667SOL    HW231464   1.756   1.955  11.320 -0.2170  2.3383  0.8507
 6668SOL     OW31465   1.562   0.631   8.384 -0.6044 -0.4892 -0.0210
 6668SOL    HW131466   1.574   0.571   8.310  0.6557 -0.7793  0.4325
 6668SOL    HW231467   1.481   0.596   8.421 -0.7040  0.3939  0.6045
 6669SOL     OW31468   2.943   0.480   7.258 -0.4106 -0.0317  0.1537
 6669SOL    HW131469   2.903   0.526   7.185 -1.4389 -0.7058  0.3062
 6669SOL    HW231470   2.948   0.392   7.222  0.6755 -0.0420  0.3169
 6670SOL     OW31471   1.467   2.148  10.413 -0.0023  0.7586 -1.1806
 6670SOL    HW131472   1.392   2.089  10.413  0.1136  0.6108 -0.0581
 6670SOL    HW231473   1.481   2.164  10.506  0.3797 -1.2929 -0.8766
 6671SOL     OW31474   2.127   3.504  17.045  0.0637  0.2696 -0.0706
 6671SOL    HW131475   2.055   3.567  17.052 -1.8640 -2.1297  1.4860
 6671SOL    HW231476   2.143   3.511  16.951 -0.3257  1.4375 -0.0534
 6672SOL     OW31477   1.996   2.006  16.589 -0.5890  0.0871  0.5729
 6672SOL    HW131478   1.982   2.018  16.683 -0.6737  1.5362  0.3736
 6672SOL    HW231479   1.934   2.072  16.558 -2.3419 -3.0463 -2.5502
 6673SOL     OW31480   2.013   1.305  10.213  0.0408 -0.7334  0.5694
 6673SOL    HW131481   2.055   1.309  10.126 -1.9269 -0.0334 -0.3330
 6673SOL    HW231482   2.056   1.224  10.242  0.5666 -0.3887  0.7516
 6674SOL     OW31483   0.659   3.699   9.691  0.0025 -0.1156 -0.6393
 6674SOL    HW131484   0.629   3.678   9.780 -1.6200  3.7553 -0.3044
 6674SOL    HW231485   0.597   3.762   9.655  0.0092  0.4152  0.2669
 6675SOL     OW31486   3.467   1.169   2.160 -0.3992 -0.0526 -0.4237
 6675SOL    HW131487   3.446   1.180   2.253  2.1237  0.9982  0.0051
 6675SOL    HW231488   3.562   1.163   2.164 -0.2432  1.9910 -1.1626
 6676SOL     OW31489   0.464   4.181   6.792 -0.4818 -0.1043  0.2267
 6676SOL    HW131490   0.520   4.106   6.810 -1.0122 -0.0546  2.1537
 6676SOL    HW231491   0.463   4.180   6.696  0.9704  0.4390  0.2134
 6677SOL     OW31492   2.812   2.312  11.436 -0.1293 -0.7700  0.0525
 6677SOL    HW131493   2.759   2.328  11.358  1.3769 -1.9470 -1.2127
 6677SOL    HW231494   2.806   2.402  11.470 -2.4212 -1.2607  0.9597
 6678SOL     OW31495   1.686   4.452  12.455  0.0525  0.2174 -0.1350
 6678SOL    HW131496   1.723   4.509  12.522 -1.2749 -0.0831  0.8541
 6678SOL    HW231497   1.667   4.518  12.388  0.1841  1.5081  1.0898
 6679SOL     OW31498   2.904   4.589   9.566  0.2259  0.5202 -0.4415
 6679SOL    HW131499   2.809   4.593   9.578  0.1884  1.6176 -1.0353
 6679SOL    HW231500   2.928   4.569   9.475 -3.0407 -1.7945 -0.7818
 6680SOL     OW31501   4.041   0.403   5.247 -0.5017  0.2424 -0.1831
 6680SOL    HW131502   4.021   0.328   5.303  1.7217 -0.1760  0.0257
 6680SOL    HW231503   3.955   0.414   5.207 -0.7900 -0.1698  0.3209
 6681SOL     OW31504   1.105   2.442   1.443  0.0670  0.6212  0.3049
 6681SOL    HW131505   1.095   2.494   1.363  1.4569  1.6680  0.8093
 6681SOL    HW231506   1.067   2.361   1.408  1.5043  0.5692 -1.1239
 6682SOL     OW31507   4.334   1.356   0.292  0.0409 -0.1942  0.8867
 6682SOL    HW131508   4.254   1.407   0.303 -0.4196 -0.7165 -0.0437
 6682SOL    HW231509   4.311   1.298   0.220  0.1864  1.8723 -0.8349
 6683SOL     OW31510   4.693   4.710   6.039 -0.3033 -0.1065  0.5665
 6683SOL    HW131511   4.602   4.683   6.048 -0.4807  0.3742  0.2134
 6683SOL    HW231512   4.705   0.060   6.098  1.1521  0.6512 -0.6736
 6684SOL     OW31513   2.420   3.689   5.901  0.4602  0.3203  0.6899
 6684SOL    HW131514   2.464   3.670   5.984 -0.2201 -0.8481  0.7831
 6684SOL    HW231515   2.326   3.695   5.919  0.3895 -2.5084  1.1775
 6685SOL     OW31516   4.416   1.573   8.708 -0.1809 -0.4434 -0.1121
 6685SOL    HW131517   4.401   1.666   8.691 -1.2255 -0.1565  2.4833
 6685SOL    HW231518   4.373   1.540   8.629 -0.9138  0.4050 -0.0653
 6686SOL     OW31519   2.005   1.794   6.330  0.1872 -0.7425 -0.8843
 6686SOL    HW131520   1.949   1.737   6.383  0.3853 -0.8126 -0.7521
 6686SOL    HW231521   1.998   1.867   6.391  2.6624 -0.3529 -1.0805
 6687SOL     OW31522   4.225   1.962   9.895  0.2386 -0.1537 -0.0410
 6687SOL    HW131523   4.288   1.991   9.829 -1.3588  0.2858 -1.3678
 6687SOL    HW231524   4.252   2.018   9.968  0.0112  2.8478 -2.2312
 6688SOL     OW31525   4.697   0.251  10.392  0.0072  0.5736 -0.0235
 6688SOL    HW131526   0.043   0.272  10.454  1.5490  0.5462 -1.7607
 6688SOL    HW231527   4.623   0.301  10.429  0.0301  0.0159  0.7825
 6689SOL     OW31528   4.049   2.185   6.555 -0.2799 -0.1693 -0.1598
 6689SOL    HW131529   4.052   2.244   6.480 -0.6316  1.2219  0.9078
 6689SOL    HW231530   4.013   2.247   6.619  1.5957  2.3352 -1.5277
 6690SOL     OW31531   4.234   4.645  10.930  0.2597 -0.2904 -0.2222
 6690SOL    HW131532   4.213   4.722  10.983  0.6366 -1.5153  1.7006
 6690SOL    HW231533   4.147   4.607  10.916  0.0565  0.0036  0.2513
 6691SOL     OW31534   1.538   2.491  14.586 -0.3286 -0.2558  0.0058
 6691SOL    HW131535   1.550   2.416  14.529 -0.1948 -1.0312  1.0456
 6691SOL    HW231536   1.488   2.551  14.531 -0.2762 -2.4471 -2.3911
 6692SOL     OW31537   1.809   2.161  13.571 -0.2377  0.3676  0.2601
 6692SOL    HW131538   1.826   2.190  13.660 -2.3737 -0.1330  0.8269
 6692SOL    HW231539   1.845   2.234  13.520  1.4692 -0.3275  0.4673
 6693SOL     OW31540   1.116   1.043   3.365  0.2483  0.2829  0.0108
 6693SOL    HW131541   1.207   1.065   3.388  0.3385  0.7981 -0.8576
 6693SOL    HW231542   1.061   1.107   3.410  0.3910  0.8709 -0.6514
 6694SOL     OW31543   4.083   4.517   0.712  0.7858 -0.8294  0.4493
 6694SOL    HW131544   4.113   4.528   0.622  0.3184  0.3245  0.4371
 6694SOL    HW231545   4.077   4.610   0.734  0.7985 -0.0246 -2.9776
 6695SOL     OW31546   1.743   1.934   1.078  0.1026  1.0233 -0.1641
 6695SOL    HW131547   1.690   1.983   1.015 -1.6338 -1.8623 -0.9424
 6695SOL    HW231548   1.677   1.882   1.124  2.6772 -0.1215  2.2173
 6696SOL     OW31549   2.825   1.238   9.950 -0.3285  0.2081 -0.8207
 6696SOL    HW131550   2.764   1.285  10.006  0.1233 -1.2246  0.8569
 6696SOL    HW231551   2.820   1.152   9.991 -2.2626  1.4909  1.6268
 6697SOL     OW31552   2.985   0.693   9.299  0.2190  0.0339 -0.6022
 6697SOL    HW131553   3.032   0.705   9.381  0.0989  0.5354 -0.6031
 6697SOL    HW231554   2.910   0.640   9.325 -0.1652  0.7163 -0.3192
 6698SOL     OW31555   4.708   2.532   8.660 -0.4346 -0.3303  0.1021
 6698SOL    HW131556   0.032   2.460   8.619  1.1004  1.4085 -1.2145
 6698SOL    HW231557   0.057   2.594   8.670  1.2093 -1.7953 -2.7667
 6699SOL     OW31558   0.561   4.358  10.047 -0.6367 -0.1564  0.4723
 6699SOL    HW131559   0.657   4.348  10.045 -0.5149  0.9030  1.3722
 6699SOL    HW231560   0.543   4.313  10.130  1.9479  3.9502  3.2874
 6700SOL     OW31561   1.817   1.248   5.029  0.2879 -0.2460  0.5187
 6700SOL    HW131562   1.911   1.241   5.045  0.7660 -1.9218 -2.9835
 6700SOL    HW231563   1.790   1.340   5.038 -1.2045 -0.6835  0.6052
 6701SOL     OW31564   3.037   3.149  13.307  0.2461  0.8798  0.2711
 6701SOL    HW131565   2.946   3.118  13.315  0.4535 -0.0638 -1.1983
 6701SOL    HW231566   3.037   3.244  13.313  0.2663  0.9512 -0.8603
 6702SOL     OW31567   0.560   3.997  13.300 -0.7261  0.3123 -0.7832
 6702SOL    HW131568   0.545   4.073  13.243 -0.3595 -0.7399 -2.2918
 6702SOL    HW231569   0.482   3.943  13.287  0.5831 -1.8479  0.2716
 6703SOL     OW31570   4.580   2.861   9.577 -0.0361  0.2149 -0.2904
 6703SOL    HW131571   4.533   2.921   9.519  1.1748  1.4913  0.0426
 6703SOL    HW231572   4.585   2.778   9.530 -3.0305  0.7092 -1.4696
 6704SOL     OW31573   1.696   0.330  14.830  0.6752  0.9542 -0.3723
 6704SOL    HW131574   1.643   0.410  14.834 -0.4089  0.2631 -0.7772
 6704SOL    HW231575   1.770   0.351  14.886  0.3418  2.6659 -0.5568
 6705SOL     OW31576   2.655   2.196   5.505 -0.0773 -0.4556 -0.0622
 6705SOL    HW131577   2.702   2.205   5.587 -0.6072  0.8739  0.0937
 6705SOL    HW231578   2.563   2.212   5.524  0.4717 -0.2755  2.3448
 6706SOL     OW31579   4.624   1.603   4.275  0.4279 -1.0590 -0.1255
 6706SOL    HW131580   4.633   1.692   4.308 -2.2570 -0.7719 -0.1597
 6706SOL    HW231581   4.617   1.612   4.180 -0.2107 -0.0262  0.0251
 6707SOL     OW31582   2.324   2.995   3.919  0.0031 -0.3857  0.3567
 6707SOL    HW131583   2.389   2.960   3.858  0.8341  0.8777  0.5029
 6707SOL    HW231584   2.308   3.080   3.877 -0.4773  0.0430  1.3944
 6708SOL     OW31585   1.931   4.086   8.407  0.4033 -0.0150  0.4494
 6708SOL    HW131586   1.905   3.994   8.411 -1.0517  0.4479  1.5719
 6708SOL    HW231587   2.025   4.066   8.401  0.3940 -0.1411  0.7351
 6709SOL     OW31588   1.345   3.894   3.584  0.2198  0.0445  0.7556
 6709SOL    HW131589   1.264   3.865   3.626  0.4258 -0.9545  0.4594
 6709SOL    HW231590   1.389   3.809   3.581  1.4395  0.6665  1.1077
 6710SOL     OW31591   2.554   3.320   6.191  0.6758 -0.4372 -0.2854
 6710SOL    HW131592   2.609   3.313   6.269 -0.2093 -0.3128  0.3435
 6710SOL    HW231593   2.511   3.235   6.183  0.0019 -0.0398 -0.9249
 6711SOL     OW31594   0.112   1.012  17.380 -0.0565 -0.1785  0.0517
 6711SOL    HW131595   0.125   0.917  17.369 -1.3860 -0.5478  1.7842
 6711SOL    HW231596   0.017   1.013  17.373 -0.0715  0.6058  0.4612
 6712SOL     OW31597   2.045   4.633   3.497  0.6058 -0.3651  0.0070
 6712SOL    HW131598   2.116   4.619   3.560  3.2579 -1.2499 -3.2174
 6712SOL    HW231599   1.999   4.699   3.550 -0.9735 -3.1944  2.1153
 6713SOL     OW31600   0.582   4.380   9.728 -0.4522 -0.6645  0.2834
 6713SOL    HW131601   0.568   4.368   9.822  1.6886 -1.4780  0.4889
 6713SOL    HW231602   0.493   4.410   9.708 -0.4580 -1.1099 -0.3669
 6714SOL     OW31603   2.069   1.499   1.711  0.1353  0.0318  0.2578
 6714SOL    HW131604   2.062   1.594   1.703  0.8716  0.1114  0.5641
 6714SOL    HW231605   2.081   1.483   1.618  0.6043 -1.1191  0.5146
 6715SOL     OW31606   3.258   4.170   7.012 -0.0095 -0.4607  0.1327
 6715SOL    HW131607   3.351   4.179   7.035 -0.3910  1.0518  1.0610
 6715SOL    HW231608   3.234   4.082   7.040 -0.0001 -0.8627 -1.1003
 6716SOL     OW31609   0.584   2.993   6.905 -0.0045  0.3606  0.4591
 6716SOL    HW131610   0.493   2.998   6.935 -0.5098 -0.2770 -0.9747
 6716SOL    HW231611   0.589   3.084   6.878  1.4499  0.5743  1.4354
 6717SOL     OW31612   4.635   4.653   8.868 -0.5252  0.4457 -0.0561
 6717SOL    HW131613   4.558   4.618   8.913 -0.1722  1.2018  1.1588
 6717SOL    HW231614   4.665   4.724   8.926 -0.2201  1.2987 -1.2600
 6718SOL     OW31615   1.450   2.649  10.014 -0.2423 -0.2295  0.8370
 6718SOL    HW131616   1.478   2.577   9.956 -0.9626 -0.1909  0.4315
 6718SOL    HW231617   1.354   2.641  10.014 -0.2239 -0.4388  1.1312
 6719SOL     OW31618   0.006   4.198   4.054  0.0469  0.0648  0.1552
 6719SOL    HW131619   0.091   4.224   4.018  0.3666  0.5575  1.2628
 6719SOL    HW231620   4.711   4.128   3.992 -2.4228  0.5078  0.3780
 6720SOL     OW31621   0.326   0.836   3.694 -0.2773 -0.2204 -0.2132
 6720SOL    HW131622   0.309   0.743   3.677  0.1173  0.0324 -2.0648
 6720SOL    HW231623   0.337   0.859   3.601 -1.3228 -0.9354 -0.5200
 6721SOL     OW31624   0.107   3.464   8.340 -0.2860 -0.5778 -0.4318
 6721SOL    HW131625   0.135   3.455   8.249  1.0460 -4.0727  0.2907
 6721SOL    HW231626   0.186   3.438   8.389 -0.7214  0.4958  0.8121
 6722SOL     OW31627   3.821   0.742  13.886  0.2077 -0.1062 -0.2998
 6722SOL    HW131628   3.848   0.718  13.797 -1.3381  0.0661 -0.8055
 6722SOL    HW231629   3.903   0.746  13.936  0.1099  2.2999 -0.3278
 6723SOL     OW31630   4.363   1.408   9.273 -0.6288  0.5272  0.2781
 6723SOL    HW131631   4.298   1.338   9.285  1.5678 -1.5339  0.2549
 6723SOL    HW231632   4.434   1.364   9.228 -2.8425 -2.1903 -0.6031
 6724SOL     OW31633   2.403   1.139   4.202 -0.5729  0.1928 -0.1893
 6724SOL    HW131634   2.414   1.222   4.249 -0.1948 -0.9448  1.7509
 6724SOL    HW231635   2.411   1.177   4.115 -2.8226 -0.6333 -0.7427
 6725SOL     OW31636   3.988   1.243   5.254 -0.2656  0.3706  0.1389
 6725SOL    HW131637   3.919   1.229   5.318  1.2177 -1.6975  1.2960
 6725SOL    HW231638   4.061   1.283   5.301 -0.4509  2.6801 -1.5591
 6726SOL     OW31639   3.754   4.283   4.984  0.3345  0.2737 -0.3561
 6726SOL    HW131640   3.808   4.302   4.908  1.5445  1.4550  0.8021
 6726SOL    HW231641   3.699   4.362   4.984 -0.2342 -0.1231  1.4913
 6727SOL     OW31642   1.128   2.027  13.056  0.1724  0.2809 -1.0563
 6727SOL    HW131643   1.099   2.114  13.081 -2.0333 -0.6487 -0.4272
 6727SOL    HW231644   1.207   2.047  13.004  0.8815  1.2817  0.4272
 6728SOL     OW31645   1.611   3.787   3.291 -0.2839 -0.4324  0.2436
 6728SOL    HW131646   1.592   3.747   3.206 -1.4964 -0.0390  0.3333
 6728SOL    HW231647   1.588   3.877   3.265  2.1200 -0.4130 -1.8499
 6729SOL     OW31648   3.265   2.249   3.451  0.2391  0.5030  0.3051
 6729SOL    HW131649   3.270   2.159   3.419 -3.0754  0.5398 -0.3323
 6729SOL    HW231650   3.254   2.242   3.546  0.3412 -1.6849  0.1607
 6730SOL     OW31651   4.594   2.513   6.532 -0.3370  0.3957 -0.5432
 6730SOL    HW131652   4.541   2.560   6.468  0.4091  1.6727 -0.2318
 6730SOL    HW231653   4.680   2.512   6.489 -0.0166 -0.5399  0.1125
 6731SOL     OW31654   0.521   1.761   6.607 -0.7876 -0.0879  0.1880
 6731SOL    HW131655   0.529   1.784   6.514  1.1678  3.2848  1.1840
 6731SOL    HW231656   0.427   1.743   6.613 -0.7312 -0.6508 -0.7276
 6732SOL     OW31657   3.697   4.258  11.877  0.0477  0.1185 -0.2070
 6732SOL    HW131658   3.762   4.236  11.810  1.2508  1.9928  0.3419
 6732SOL    HW231659   3.676   4.345  11.843 -0.4242  0.9160  2.1158
 6733SOL     OW31660   0.481   4.526   5.330  0.7132 -0.4785 -0.2829
 6733SOL    HW131661   0.394   4.556   5.305  1.9611  3.7642  0.4588
 6733SOL    HW231662   0.516   4.604   5.372  1.7977 -1.5099  0.7488
 6734SOL     OW31663   3.725   0.936   3.839 -0.5173  0.3543  0.1045
 6734SOL    HW131664   3.644   0.889   3.854  0.2375 -0.3230  2.1480
 6734SOL    HW231665   3.723   0.935   3.744 -1.6857 -2.2981  0.1595
 6735SOL     OW31666   2.625   1.205  11.588  0.0368  0.3921 -0.4125
 6735SOL    HW131667   2.688   1.136  11.567  2.1367  2.2072 -0.0536
 6735SOL    HW231668   2.602   1.187  11.679 -0.7057 -0.0926 -0.6948
 6736SOL     OW31669   2.940   3.759   1.674  0.2343  0.2912 -0.1807
 6736SOL    HW131670   3.010   3.704   1.709 -1.3740 -1.0304  1.0060
 6736SOL    HW231671   2.962   3.843   1.713 -1.1307 -0.1938  1.6853
 6737SOL     OW31672   1.637   2.937  14.913  0.4528  0.3415  0.7183
 6737SOL    HW131673   1.588   2.971  14.988 -1.0792  0.6693 -0.4302
 6737SOL    HW231674   1.627   3.005  14.846  1.6089  0.8316  1.0286
 6738SOL     OW31675   0.921   1.830  12.032  0.7209  0.4206  0.3003
 6738SOL    HW131676   1.005   1.837  11.986  0.5703 -0.0931 -0.0548
 6738SOL    HW231677   0.949   1.823  12.124  2.7943  1.7035 -0.2227
 6739SOL     OW31678   0.320   4.398  12.828 -0.1018  0.7525 -0.1628
 6739SOL    HW131679   0.319   4.486  12.866 -0.2983  0.5661  0.2690
 6739SOL    HW231680   0.349   4.418  12.739  0.0129 -1.0382 -0.5307
 6740SOL     OW31681   2.327   4.518   2.926  0.2963  0.0289  0.3088
 6740SOL    HW131682   2.259   4.506   2.992  0.1590 -0.1035  0.1436
 6740SOL    HW231683   2.310   4.610   2.905  0.9614  0.8474  3.3790
 6741SOL     OW31684   1.429   2.179   8.358 -0.0784  0.8953  0.5396
 6741SOL    HW131685   1.340   2.211   8.374  0.1621  1.4825  0.7120
 6741SOL    HW231686   1.456   2.231   8.282  2.8679  0.0715  1.0211
 6742SOL     OW31687   3.484   1.970   2.134  0.1995  0.1248  0.2923
 6742SOL    HW131688   3.489   2.036   2.203 -1.5835  1.5016 -0.9092
 6742SOL    HW231689   3.452   1.894   2.183 -0.0067  1.0667  1.5976
 6743SOL     OW31690   0.785   1.610  16.538  0.2193  0.0272  0.3713
 6743SOL    HW131691   0.787   1.664  16.459 -4.0870  2.0175  1.6544
 6743SOL    HW231692   0.859   1.646  16.588  0.1768 -0.0870  0.5164
 6744SOL     OW31693   2.123   3.230   4.203  0.0995 -0.4957  0.6891
 6744SOL    HW131694   2.185   3.158   4.194  0.2471 -0.3382  0.4380
 6744SOL    HW231695   2.103   3.215   4.295  0.0761 -1.8021  0.4672
 6745SOL     OW31696   3.563   4.184   4.153  0.1502  0.1716 -0.1373
 6745SOL    HW131697   3.514   4.205   4.232 -0.6457 -2.8345  0.1619
 6745SOL    HW231698   3.522   4.100   4.133  1.4726 -1.2047  2.9687
 6746SOL     OW31699   4.130   1.340  16.889 -0.7026 -0.5785 -0.1864
 6746SOL    HW131700   4.086   1.306  16.810 -0.7733  0.0218 -0.4044
 6746SOL    HW231701   4.147   1.433  16.875  1.3870 -0.7516  1.3273
 6747SOL     OW31702   1.827   3.400   8.084  0.6426  0.3986 -0.4317
 6747SOL    HW131703   1.889   3.410   8.012  0.9347  1.6952 -0.0069
 6747SOL    HW231704   1.804   3.492   8.094 -0.4988  0.4275 -3.3101
 6748SOL     OW31705   2.344   1.405   0.668  0.1112  0.5070  0.0510
 6748SOL    HW131706   2.406   1.333   0.668 -0.2612  0.1875  0.1990
 6748SOL    HW231707   2.263   1.366   0.700  0.1508  0.1089 -0.3377
 6749SOL     OW31708   4.131   3.540   4.690  0.2349  0.8452 -0.7190
 6749SOL    HW131709   4.215   3.565   4.651  0.0312  3.5229  0.5437
 6749SOL    HW231710   4.072   3.540   4.615 -1.1883 -0.7527  0.4157
 6750SOL     OW31711   2.884   2.858  12.767 -0.2197 -0.0576  0.5102
 6750SOL    HW131712   2.906   2.867  12.674 -1.3173  0.0115  0.2623
 6750SOL    HW231713   2.974   2.862  12.798 -0.8903  0.9570  2.3000
 6751SOL     OW31714   2.160   1.375  15.932  0.4825 -0.3987  0.2974
 6751SOL    HW131715   2.085   1.416  15.976  0.6994  0.2151  0.0954
 6751SOL    HW231716   2.114   1.343  15.855 -0.3971 -1.1940  1.1474
 6752SOL     OW31717   0.843   1.662  11.318 -0.1894  0.0163 -0.2811
 6752SOL    HW131718   0.780   1.733  11.303 -0.2615 -0.1150 -0.5891
 6752SOL    HW231719   0.802   1.611  11.387  0.2955  0.6869  0.5064
 6753SOL     OW31720   4.616   0.559   8.398  0.0023 -0.0398 -0.4421
 6753SOL    HW131721   4.708   0.562   8.425 -0.3010  0.5581  0.5210
 6753SOL    HW231722   4.601   0.654   8.401 -0.3622 -0.1106 -0.1760
 6754SOL     OW31723   1.785   1.720   2.069  0.4223 -0.0046 -0.5409
 6754SOL    HW131724   1.767   1.739   1.977 -2.6792  0.8205  0.2464
 6754SOL    HW231725   1.849   1.789   2.086  1.5012 -1.3828  1.0069
 6755SOL     OW31726   0.096   3.218   4.672 -0.0276 -0.0846 -0.2771
 6755SOL    HW131727   0.004   3.230   4.695  0.3968  0.3065  1.2555
 6755SOL    HW231728   0.130   3.306   4.692 -1.7082  0.2847  0.9546
 6756SOL     OW31729   4.030   2.028  16.376 -0.0192 -0.2733 -0.7517
 6756SOL    HW131730   3.953   2.069  16.416 -0.3584 -2.2476  0.6168
 6756SOL    HW231731   3.995   1.939  16.381 -0.0303 -0.1257  1.7893
 6757SOL     OW31732   0.453   0.407   0.369 -0.4314 -0.2517 -0.0978
 6757SOL    HW131733   0.415   0.407   0.457 -0.9930 -1.0556 -0.3453
 6757SOL    HW231734   0.395   0.339   0.336 -2.0882  0.2155  1.8997
 6758SOL     OW31735   2.701   2.582   6.899 -0.1805  0.1478 -0.2438
 6758SOL    HW131736   2.615   2.569   6.858 -0.4282  1.4885 -0.1533
 6758SOL    HW231737   2.739   2.651   6.844  0.0452 -2.1442 -2.9922
 6759SOL     OW31738   0.240   3.136   4.887 -0.2428  0.5290 -0.5919
 6759SOL    HW131739   0.186   3.161   4.962 -0.0818 -2.6160  0.5591
 6759SOL    HW231740   0.178   3.133   4.814 -0.1297  0.8844 -0.7043
 6760SOL     OW31741   1.095   3.151   7.916 -0.3343 -0.2137 -0.3816
 6760SOL    HW131742   1.006   3.116   7.907 -0.2702 -0.4963  0.0717
 6760SOL    HW231743   1.137   3.080   7.965 -2.4721 -0.8227  0.6059
 6761SOL     OW31744   1.331   2.666  14.208  1.0609 -0.6015  0.2724
 6761SOL    HW131745   1.252   2.709  14.239  0.4341 -1.5563  0.0335
 6761SOL    HW231746   1.308   2.578  14.240 -0.0727 -0.6172 -0.6008
 6762SOL     OW31747   2.317   0.757  12.694  0.0246 -0.1381 -0.2130
 6762SOL    HW131748   2.306   0.679  12.640 -1.2429  0.2240 -0.4802
 6762SOL    HW231749   2.351   0.729  12.779 -1.4727 -1.8879 -0.2088
 6763SOL     OW31750   2.179   3.652   8.719 -0.0335  0.0965  0.2592
 6763SOL    HW131751   2.249   3.593   8.749  0.7618  1.4283  1.0122
 6763SOL    HW231752   2.194   3.638   8.625 -2.9098  1.1213 -0.3396
 6764SOL     OW31753   3.429   4.467   5.458  0.1597 -0.3694  0.2097
 6764SOL    HW131754   3.396   4.550   5.493 -0.6924 -1.0942  1.1287
 6764SOL    HW231755   3.461   4.500   5.374  2.0927 -0.7675  0.8018
 6765SOL     OW31756   1.036   1.969   2.103 -0.3877  0.2141  0.3824
 6765SOL    HW131757   0.973   1.952   2.173 -2.6442 -0.3631 -1.8082
 6765SOL    HW231758   1.114   1.952   2.156 -0.1946 -2.0663 -0.6286
 6766SOL     OW31759   1.015   2.129   3.813  0.2795 -0.2852  0.5170
 6766SOL    HW131760   1.031   2.090   3.728 -2.4880  0.6544 -0.4218
 6766SOL    HW231761   0.966   2.061   3.859  1.9575 -0.8140  1.5644
 6767SOL     OW31762   3.790   2.347   2.742  0.4407 -0.2892  0.3046
 6767SOL    HW131763   3.746   2.427   2.772 -0.9371 -0.7459 -0.4633
 6767SOL    HW231764   3.755   2.346   2.653  0.6439  0.7272  0.2169
 6768SOL     OW31765   2.764   1.264   2.539 -0.8029  0.1857  0.0578
 6768SOL    HW131766   2.735   1.173   2.553  0.7289 -0.4822 -1.0740
 6768SOL    HW231767   2.695   1.293   2.480  0.0376  0.7615 -0.6392
 6769SOL     OW31768   0.411   2.846   7.588  0.0141 -0.3170 -0.2051
 6769SOL    HW131769   0.468   2.902   7.641 -1.3772  1.3404 -0.4382
 6769SOL    HW231770   0.326   2.872   7.623 -1.3467 -3.8863 -0.9741
 6770SOL     OW31771   2.355   0.306   8.359  0.1066 -0.3704  0.2052
 6770SOL    HW131772   2.316   0.344   8.438 -3.3917 -1.4371 -0.9994
 6770SOL    HW231773   2.382   0.219   8.389 -0.2957 -0.4753  0.2744
 6771SOL     OW31774   3.741   4.407   5.860  0.1059 -0.3506 -0.2632
 6771SOL    HW131775   3.814   4.348   5.878  0.5484  0.4322  0.5046
 6771SOL    HW231776   3.705   4.376   5.777  1.0710 -0.4174 -0.6556
 6772SOL     OW31777   1.498   1.349  13.896  0.4976  0.2385  0.2144
 6772SOL    HW131778   1.516   1.345  13.990  0.8993  2.9072  0.2541
 6772SOL    HW231779   1.514   1.443  13.884  0.2817  0.5334  2.2238
 6773SOL     OW31780   0.010   2.697   3.684  0.1019  0.5876  0.0841
 6773SOL    HW131781   4.689   2.698   3.600 -0.7723 -2.4186  0.5022
 6773SOL    HW231782   0.088   2.646   3.661 -0.1791 -0.1071  0.6469
 6774SOL     OW31783   3.695   2.324   8.550 -0.3347  0.2757 -0.8134
 6774SOL    HW131784   3.776   2.364   8.518  0.8502 -2.0008 -0.7064
 6774SOL    HW231785   3.732   2.281   8.627 -0.6656  0.4624 -0.5537
 6775SOL     OW31786   3.712   3.687   8.710  0.2311  0.0830  0.0816
 6775SOL    HW131787   3.725   3.593   8.702 -0.5809  0.0884 -1.3845
 6775SOL    HW231788   3.617   3.676   8.710  0.1646  0.6734  0.1742
 6776SOL     OW31789   4.129   3.017  15.861 -0.5399 -0.4657  0.0468
 6776SOL    HW131790   4.170   3.027  15.775 -0.8968 -1.7856 -0.2656
 6776SOL    HW231791   4.056   3.077  15.845  2.4101  2.9322 -0.7761
 6777SOL     OW31792   3.240   0.462   9.983 -0.4135 -0.1598  0.1850
 6777SOL    HW131793   3.295   0.385   9.995  2.0207  1.4107 -0.9623
 6777SOL    HW231794   3.229   0.492  10.073  0.7088  1.3398 -0.1681
 6778SOL     OW31795   2.824   1.871   2.476 -0.1512  0.5952  0.5405
 6778SOL    HW131796   2.758   1.802   2.488  1.2324 -0.7835  0.1770
 6778SOL    HW231797   2.780   1.929   2.414  0.3841  1.0019  0.5462
 6779SOL     OW31798   1.934   0.254   8.626 -0.3649  0.0530 -0.2799
 6779SOL    HW131799   1.918   0.180   8.567  2.1763 -0.5338 -0.1939
 6779SOL    HW231800   2.021   0.226   8.653  0.6598  2.8984 -0.6521
 6780SOL     OW31801   3.627   4.585  10.201 -0.5641 -0.0445 -0.0975
 6780SOL    HW131802   3.680   4.536  10.264 -1.1701 -0.3232  0.1879
 6780SOL    HW231803   3.544   4.586  10.248 -0.2326 -0.3413  0.4985
 6781SOL     OW31804   0.232   4.180   6.346 -0.4547 -0.3522 -0.1821
 6781SOL    HW131805   0.313   4.132   6.363 -1.5147 -1.4630  1.6882
 6781SOL    HW231806   0.237   4.256   6.405  0.8220  0.4935 -1.3710
 6782SOL     OW31807   1.018   4.462   2.803  0.6818  0.6804 -0.1632
 6782SOL    HW131808   1.071   4.491   2.878 -2.4936  2.6043  1.3509
 6782SOL    HW231809   0.925   4.486   2.808  0.7240  0.7094  0.5701
 6783SOL     OW31810   0.893   4.262   2.132 -0.0349 -0.2827 -0.4346
 6783SOL    HW131811   0.927   4.263   2.221 -1.4124  1.5027  0.0756
 6783SOL    HW231812   0.799   4.253   2.149  0.3376 -2.1129  0.5805
 6784SOL     OW31813   4.546   2.575  13.526 -0.6752  0.1205 -0.3899
 6784SOL    HW131814   4.624   2.521  13.543 -2.1264 -1.7092  0.4354
 6784SOL    HW231815   4.575   2.653  13.479  1.4309 -0.9785 -0.9223
 6785SOL     OW31816   0.431   1.108   5.117  0.3471 -0.5008  0.4178
 6785SOL    HW131817   0.416   1.022   5.157  1.4343 -1.1272 -0.5079
 6785SOL    HW231818   0.444   1.088   5.025  3.0754  0.0140  0.6948
 6786SOL     OW31819   4.622   2.409   1.171 -0.2802  1.1499 -0.0282
 6786SOL    HW131820   4.706   2.393   1.214 -0.7940  1.7523  1.2212
 6786SOL    HW231821   4.615   2.328   1.121 -0.0154  0.1667  1.5450
 6787SOL     OW31822   2.471   2.933   2.740 -0.4224  0.1405 -0.0809
 6787SOL    HW131823   2.413   2.966   2.671  0.0502 -0.2037 -0.6408
 6787SOL    HW231824   2.487   3.008   2.797 -0.2632  1.5024 -1.9034
 6788SOL     OW31825   1.470   4.272   7.715  0.3997 -0.3670 -0.4464
 6788SOL    HW131826   1.425   4.328   7.779 -0.6055 -2.6106  0.8264
 6788SOL    HW231827   1.417   4.192   7.719 -5.2441  3.3298 -1.5986
 6789SOL     OW31828   3.663   0.220   3.568  0.4781  0.0153  0.0685
 6789SOL    HW131829   3.722   0.266   3.627  1.1007 -2.0844  1.0749
 6789SOL    HW231830   3.583   0.217   3.620 -0.1627  1.1037 -0.8551
 6790SOL     OW31831   0.439   2.636  11.450  0.0704  0.4051 -0.0111
 6790SOL    HW131832   0.528   2.611  11.424 -1.3585 -3.4889 -1.2201
 6790SOL    HW231833   0.407   2.549  11.476 -0.3844 -0.2318 -2.7585
 6791SOL     OW31834   0.693   0.319   9.526 -0.2799  0.5033 -0.0288
 6791SOL    HW131835   0.630   0.390   9.535 -1.1510  0.1004 -2.9772
 6791SOL    HW231836   0.652   0.245   9.571 -0.8273  1.2029  0.5971
 6792SOL     OW31837   2.081   4.695   2.976 -0.2169 -0.3902 -0.3087
 6792SOL    HW131838   2.066   4.683   3.070  1.0942 -1.2215 -0.2004
 6792SOL    HW231839   2.147   0.041   2.972  0.2013 -0.8466 -1.2339
 6793SOL     OW31840   0.396   1.433   5.241 -0.1667 -0.2233 -0.6318
 6793SOL    HW131841   0.453   1.510   5.242  0.2318 -0.5309  1.3408
 6793SOL    HW231842   0.347   1.436   5.323 -1.2026  0.6953 -1.2811
 6794SOL     OW31843   3.242   2.932   8.322  0.2051 -1.2581 -0.4864
 6794SOL    HW131844   3.279   2.877   8.391  1.1143 -0.6222 -0.4623
 6794SOL    HW231845   3.317   2.970   8.277  0.2207 -1.1359 -0.3571
 6795SOL     OW31846   2.594   2.079  13.927 -0.7069 -0.4744  0.6500
 6795SOL    HW131847   2.631   2.015  13.988 -0.3176  1.1462  2.1062
 6795SOL    HW231848   2.505   2.048  13.909 -1.2320  1.2618  0.2858
 6796SOL     OW31849   3.880   4.424  12.760 -0.4124 -0.0489 -0.1653
 6796SOL    HW131850   3.843   4.388  12.680  0.3958  1.1803 -1.0827
 6796SOL    HW231851   3.964   4.457  12.727 -0.0492  1.0780  1.8868
 6797SOL     OW31852   1.989   2.690   3.158  0.1650  0.4308  0.0374
 6797SOL    HW131853   2.029   2.671   3.242  0.8036  4.5735  0.6794
 6797SOL    HW231854   1.932   2.613   3.166  0.8974 -0.1653 -0.5358
 6798SOL     OW31855   4.278   2.176   0.246  0.4552 -0.1537 -0.1507
 6798SOL    HW131856   4.308   2.177   0.155  2.1895 -1.0531  0.4089
 6798SOL    HW231857   4.272   2.081   0.254  1.8770 -0.4783 -2.8542
 6799SOL     OW31858   4.608   4.606  14.027  0.1359 -0.3321  0.2076
 6799SOL    HW131859   4.648   4.547  14.091 -1.4730 -1.1241  0.4932
 6799SOL    HW231860   4.669   4.594  13.954  0.4332  1.0816  0.2208
 6800SOL     OW31861   2.982   2.064  10.599 -0.1080 -0.4166  0.1267
 6800SOL    HW131862   3.039   1.988  10.610  0.4747  0.2389  1.6627
 6800SOL    HW231863   2.933   2.050  10.518  0.1026  0.3892 -0.1363
 6801SOL     OW31864   4.042   0.831   7.890 -0.5592  0.4369 -0.1612
 6801SOL    HW131865   4.134   0.805   7.883 -0.6659 -0.0610  0.2483
 6801SOL    HW231866   4.008   0.761   7.945  0.2933 -0.6427 -0.9997
 6802SOL     OW31867   2.551   0.681  10.123  0.4583  0.2324  0.0781
 6802SOL    HW131868   2.634   0.704  10.164  0.0322 -0.6626  1.4399
 6802SOL    HW231869   2.544   0.590  10.152  3.1693 -0.3833 -1.1768
 6803SOL     OW31870   3.220   0.167   1.500  0.1581  0.3392  0.4492
 6803SOL    HW131871   3.176   0.085   1.479  0.8052  0.0395  0.2548
 6803SOL    HW231872   3.159   0.230   1.462  0.0709 -0.3225 -0.5062
 6804SOL     OW31873   3.842   2.893  13.530  0.2644 -0.2559 -0.8098
 6804SOL    HW131874   3.751   2.888  13.558  0.3125  1.2656 -0.3638
 6804SOL    HW231875   3.890   2.856  13.605 -0.3134 -0.7302 -0.6770
 6805SOL     OW31876   2.177   3.589  15.770 -0.1009  0.3697  0.2355
 6805SOL    HW131877   2.095   3.545  15.745  0.6384 -0.1863 -1.2269
 6805SOL    HW231878   2.167   3.608  15.863  1.3957 -0.1580  0.4919
 6806SOL     OW31879   2.017   3.692  10.432 -0.8707 -0.0194 -0.2088
 6806SOL    HW131880   2.048   3.650  10.512  0.7024  0.8039 -0.3756
 6806SOL    HW231881   2.103   3.719  10.399 -1.0419  0.5933 -0.1683
 6807SOL     OW31882   2.402   2.364   8.340  0.2905  0.0983  0.3836
 6807SOL    HW131883   2.318   2.363   8.385 -0.5470  1.1461 -1.1341
 6807SOL    HW231884   2.404   2.450   8.298 -3.4132  1.4076  2.9411
 6808SOL     OW31885   0.419   0.053   2.298  0.4796 -0.4157  0.1449
 6808SOL    HW131886   0.327   0.054   2.325  0.6406  1.1760  0.6486
 6808SOL    HW231887   0.418   0.018   2.209  0.3040  0.6220 -0.2596
 6809SOL     OW31888   1.702   1.481   9.948 -0.4637 -0.0601  0.3342
 6809SOL    HW131889   1.678   1.444  10.033 -1.0797 -0.1086  0.1413
 6809SOL    HW231890   1.760   1.551   9.977 -2.1179  1.4766 -0.0559
 6810SOL     OW31891   2.782   4.153   8.609 -0.0013 -0.3550 -0.5512
 6810SOL    HW131892   2.751   4.115   8.691 -0.5071 -0.0591 -0.6048
 6810SOL    HW231893   2.845   4.084   8.586  2.1162  0.8381  1.6613
 6811SOL     OW31894   2.453   4.339   2.780 -0.3279 -0.2087  0.7079
 6811SOL    HW131895   2.476   4.264   2.835 -0.7644 -0.7915  0.1027
 6811SOL    HW231896   2.396   4.392   2.836 -0.3388 -0.9885  1.4290
 6812SOL     OW31897   3.451   3.530  10.466  0.6235 -0.5961 -0.3194
 6812SOL    HW131898   3.372   3.521  10.519  1.3253 -0.0011  0.8202
 6812SOL    HW231899   3.508   3.563  10.536  0.8709  2.5543 -2.0131
 6813SOL     OW31900   2.639   2.364  11.223  0.0341 -0.3512  0.4526
 6813SOL    HW131901   2.644   2.430  11.154 -2.3990 -1.0770 -0.4091
 6813SOL    HW231902   2.547   2.338  11.226 -0.0567  0.0098  0.8673
 6814SOL     OW31903   0.471   2.181   5.690  0.0275 -0.4257 -0.2791
 6814SOL    HW131904   0.406   2.139   5.633  0.3519  0.3391 -1.2116
 6814SOL    HW231905   0.445   2.272   5.674 -1.8439 -0.9245 -0.1087
 6815SOL     OW31906   1.773   3.055   8.139 -0.0267  0.4247 -0.4998
 6815SOL    HW131907   1.837   3.126   8.132  1.2045 -0.6417 -0.0899
 6815SOL    HW231908   1.824   2.979   8.169 -2.0210 -0.7079  0.0345
 6816SOL     OW31909   3.304   3.597   3.608  0.3353  0.3170  0.0630
 6816SOL    HW131910   3.392   3.587   3.570  1.9342  3.2307  3.0434
 6816SOL    HW231911   3.267   3.661   3.547  3.1385  1.5891 -0.3387
 6817SOL     OW31912   1.923   0.170   3.565 -0.0764 -0.5512  0.1149
 6817SOL    HW131913   1.828   0.166   3.555 -0.1497 -1.3255  1.0825
 6817SOL    HW231914   1.951   0.222   3.490  2.2872 -2.0750 -0.0327
 6818SOL     OW31915   3.527   0.062   6.232 -0.0441 -0.0717  0.3066
 6818SOL    HW131916   3.542   0.034   6.142  0.3598  3.1584 -0.6318
 6818SOL    HW231917   3.498   4.704   6.272  0.3606 -1.5439 -2.4397
 6819SOL     OW31918   3.024   4.504   5.589  0.0823 -0.8600  0.5115
 6819SOL    HW131919   3.119   4.490   5.590  0.0208 -1.3980 -1.1114
 6819SOL    HW231920   3.010   4.540   5.502  0.0342 -0.2051  0.7908
 6820SOL     OW31921   0.198   3.920   7.353 -0.4870 -0.5927 -0.1823
 6820SOL    HW131922   0.213   3.981   7.425 -2.8609 -0.3869  0.1409
 6820SOL    HW231923   0.275   3.945   7.303  1.4856 -2.6482  1.8020
 6821SOL     OW31924   4.614   2.575   2.916  0.5616 -0.1489 -0.4822
 6821SOL    HW131925   4.625   2.669   2.933 -1.4275 -0.0956  0.4972
 6821SOL    HW231926   4.523   2.573   2.887  0.7682  0.4020 -1.1865
 6822SOL     OW31927   3.808   1.166   8.194 -0.4432 -0.3547 -0.3633
 6822SOL    HW131928   3.826   1.172   8.100 -0.2185 -0.8019 -0.3496
 6822SOL    HW231929   3.899   1.160   8.224 -0.0190 -0.9776 -1.7147
 6823SOL     OW31930   2.085   1.034   2.939 -0.4414  0.0301 -0.6652
 6823SOL    HW131931   2.124   0.949   2.956 -0.5086  1.1349  4.8686
 6823SOL    HW231932   2.165   1.078   2.968  0.3560 -1.0039 -1.3091
 6824SOL     OW31933   3.494   1.467  13.228 -0.2102  0.3349 -0.5564
 6824SOL    HW131934   3.429   1.402  13.255 -0.7597  0.7388 -0.8952
 6824SOL    HW231935   3.560   1.452  13.295 -1.4118  0.5082  0.6647
 6825SOL     OW31936   3.908   3.769   2.077 -0.5798 -0.3412  0.2659
 6825SOL    HW131937   3.864   3.698   2.029  1.2579 -0.3045 -1.4603
 6825SOL    HW231938   3.904   3.735   2.166 -0.3238  0.8251  0.7178
 6826SOL     OW31939   3.931   1.946   6.046  0.7150 -0.0788  0.1994
 6826SOL    HW131940   3.941   1.896   5.965  1.1943  0.6229 -0.1799
 6826SOL    HW231941   3.911   2.034   6.012 -1.3710  0.3694  2.6186
 6827SOL     OW31942   4.452   0.555   7.586  0.0537  0.3055 -0.5069
 6827SOL    HW131943   4.358   0.547   7.570  0.1584 -1.6520 -0.0727
 6827SOL    HW231944   4.495   0.470   7.582 -2.3903 -1.1217  2.8797
 6828SOL     OW31945   2.313   1.346   3.755  0.1888 -0.0015 -0.2783
 6828SOL    HW131946   2.364   1.377   3.830 -0.0994  2.1867 -0.9948
 6828SOL    HW231947   2.322   1.420   3.695  1.0220  1.0863  1.1897
 6829SOL     OW31948   1.538   1.661   1.581 -0.0725 -0.1245 -0.1620
 6829SOL    HW131949   1.460   1.635   1.631 -0.8001  0.0205 -1.2053
 6829SOL    HW231950   1.522   1.753   1.564 -1.8567 -0.3837  0.0352
 6830SOL     OW31951   4.350   1.609   5.050 -0.0428 -0.1236  0.0848
 6830SOL    HW131952   4.324   1.584   4.961 -1.6278  0.5065  0.3662
 6830SOL    HW231953   4.370   1.522   5.084  2.4627  0.9416  1.2983
 6831SOL     OW31954   3.658   1.644   2.751  0.9928 -0.4094 -0.0599
 6831SOL    HW131955   3.633   1.602   2.669  0.1738  0.5025 -0.2693
 6831SOL    HW231956   3.743   1.681   2.725  0.6913  0.9176  0.8599
 6832SOL     OW31957   2.596   0.783   3.928 -0.4147  0.8523 -0.0700
 6832SOL    HW131958   2.573   0.818   4.014 -0.9651  3.5887 -1.3239
 6832SOL    HW231959   2.656   0.716   3.961 -0.4583 -0.5194 -2.6988
 6833SOL     OW31960   2.781   0.350   1.141 -0.4661  0.0780  0.8536
 6833SOL    HW131961   2.816   0.423   1.193  2.3266  0.9073 -2.2041
 6833SOL    HW231962   2.690   0.349   1.169  0.5009  0.7189  4.1136
 6834SOL     OW31963   3.246   0.017   5.015 -0.1262 -0.2203 -0.7805
 6834SOL    HW131964   3.289   0.012   4.929 -0.3636  0.7870 -0.9607
 6834SOL    HW231965   3.305   0.053   5.081  0.2307 -1.8206 -0.2323
 6835SOL     OW31966   3.469   1.980   3.438  0.1985 -0.2665  0.5516
 6835SOL    HW131967   3.455   2.016   3.526  1.3649  1.5255 -0.0167
 6835SOL    HW231968   3.432   1.891   3.441 -0.1705 -0.0869  1.5088
 6836SOL     OW31969   1.184   2.625  14.816 -0.1220 -0.4858  0.3299
 6836SOL    HW131970   1.257   2.563  14.819  1.0654  0.8851  0.0872
 6836SOL    HW231971   1.225   2.711  14.805 -1.5786  0.1504 -0.0945
 6837SOL     OW31972   1.943   3.265  16.268 -0.1876 -0.3977 -0.0534
 6837SOL    HW131973   2.024   3.282  16.221  0.4621 -1.6404  0.6314
 6837SOL    HW231974   1.895   3.223  16.197  0.0763 -2.6042  1.0788
 6838SOL     OW31975   0.533   1.665   3.266 -0.6438 -0.2859 -0.0925
 6838SOL    HW131976   0.548   1.613   3.187  1.0898 -0.3478  0.2896
 6838SOL    HW231977   0.598   1.734   3.264  0.6529 -1.5715 -3.3207
 6839SOL     OW31978   2.562   0.884   0.833  0.2518 -0.3436 -0.0943
 6839SOL    HW131979   2.656   0.886   0.845  0.0919 -0.8598  1.2458
 6839SOL    HW231980   2.549   0.979   0.839  1.4573 -0.2600  1.1246
 6840SOL     OW31981   3.710   1.474   2.163 -0.2458 -0.4223 -0.2895
 6840SOL    HW131982   3.666   1.531   2.226  0.7668  0.9033 -0.7669
 6840SOL    HW231983   3.680   1.518   2.084 -2.0508 -0.7256  0.2424
 6841SOL     OW31984   1.393   3.878  17.019  0.2897 -0.3479 -0.7785
 6841SOL    HW131985   1.468   3.925  17.053 -2.1023  1.6002  1.7602
 6841SOL    HW231986   1.362   3.826  17.093  0.1936 -0.6563 -1.0337
 6842SOL     OW31987   4.181   2.242   5.280  0.2200 -0.6628 -0.0608
 6842SOL    HW131988   4.240   2.317   5.291  1.7104 -2.0220  1.2362
 6842SOL    HW231989   4.103   2.268   5.329 -1.3799 -1.4104 -2.2645
 6843SOL     OW31990   3.506   1.101   3.988 -0.4616 -0.1831 -0.0068
 6843SOL    HW131991   3.446   1.043   3.940 -0.7838 -2.5054  3.2126
 6843SOL    HW231992   3.581   1.109   3.929 -2.8192 -1.6698 -3.2136
 6844SOL     OW31993   2.863   0.250   0.031  0.8019  0.0601 -0.0732
 6844SOL    HW131994   2.826   0.161   0.028 -0.8749  0.7441  0.6562
 6844SOL    HW231995   2.929   0.245   0.100  2.4360 -1.1779 -1.6869
 6845SOL     OW31996   1.695   1.566   8.618  0.4336 -0.1397 -0.5173
 6845SOL    HW131997   1.670   1.652   8.653  0.2094  0.4476 -2.1180
 6845SOL    HW231998   1.754   1.590   8.547 -0.4214 -0.8040 -1.4560
 6846SOL     OW31999   3.057   0.138   9.561 -0.1407  0.2208  0.3902
 6846SOL    HW132000   3.073   0.193   9.638 -1.4763 -3.0275  3.0135
 6846SOL    HW232001   2.972   0.094   9.572 -0.9480  1.7692  0.3329
 6847SOL     OW32002   2.467   0.372   2.220  0.4861 -0.3091  0.2437
 6847SOL    HW132003   2.555   0.384   2.257  0.3980  3.1445 -0.6391
 6847SOL    HW232004   2.462   0.277   2.209  1.9768 -0.3101 -0.4190
 6848SOL     OW32005   3.018   3.820  12.412  0.2284 -0.1530 -0.0307
 6848SOL    HW132006   3.105   3.850  12.386  1.0007 -0.4613  2.1264
 6848SOL    HW232007   3.017   3.794  12.504 -2.3499 -1.0374 -0.2937
 6849SOL     OW32008   2.413   2.365  15.474 -0.8037 -0.3433 -0.1166
 6849SOL    HW132009   2.406   2.301  15.403 -0.8191 -1.6561  1.0657
 6849SOL    HW232010   2.452   2.323  15.551 -2.2377  0.5296  1.0855
 6850SOL     OW32011   2.307   2.133  10.469 -0.1574  0.6592  0.7406
 6850SOL    HW132012   2.266   2.218  10.479 -0.5828  0.2874  2.1668
 6850SOL    HW232013   2.250   2.090  10.533 -0.4972 -1.2064 -0.7967
 6851SOL     OW32014   4.250   3.474   6.691  0.0870 -0.1401  0.4528
 6851SOL    HW132015   4.336   3.500   6.724  0.1311  1.6448 -1.0933
 6851SOL    HW232016   4.200   3.546   6.728  1.4406  1.9507 -1.7616
 6852SOL     OW32017   2.418   3.301  16.889 -0.1385 -0.0174  0.1083
 6852SOL    HW132018   2.354   3.246  16.844  0.7218  0.4719 -1.7273
 6852SOL    HW232019   2.499   3.262  16.856  0.0080 -1.6666  2.4819
 6853SOL     OW32020   0.386   0.295  10.551  0.0477 -0.1157  0.0286
 6853SOL    HW132021   0.418   0.313  10.639 -0.1170 -0.1333  0.0919
 6853SOL    HW232022   0.390   0.201  10.532 -1.6339 -0.0565 -0.5792
 6854SOL     OW32023   0.724   2.130   2.565 -0.5721 -0.4547 -0.0907
 6854SOL    HW132024   0.819   2.135   2.580 -1.0839 -1.3759  3.3982
 6854SOL    HW232025   0.690   2.180   2.638  0.0709  0.1669 -0.2152
 6855SOL     OW32026   0.471   4.254   3.055  0.3115  0.1234 -0.3020
 6855SOL    HW132027   0.404   4.209   3.107  1.0330  1.3044  1.6363
 6855SOL    HW232028   0.496   4.336   3.097 -1.2513  0.4984 -0.0989
 6856SOL     OW32029   0.315   3.330   7.445  0.2258 -0.2986  0.0371
 6856SOL    HW132030   0.243   3.385   7.415  2.3396  2.8221  0.7579
 6856SOL    HW232031   0.389   3.349   7.387  0.0376 -0.2134 -0.1734
 6857SOL     OW32032   3.604   2.314  15.398  0.5887 -0.3079 -0.5145
 6857SOL    HW132033   3.678   2.267  15.435  0.4812  0.4352  0.6173
 6857SOL    HW232034   3.520   2.276  15.425 -0.0555  1.2816 -0.2862
 6858SOL     OW32035   0.820   4.192   6.210  0.0594  0.0749 -0.1907
 6858SOL    HW132036   0.830   4.097   6.202 -2.0646 -0.0887 -0.7745
 6858SOL    HW232037   0.867   4.219   6.131 -1.0833  1.4660 -0.3853
 6859SOL     OW32038   3.438   2.622   2.688 -0.1372  0.1866  0.1173
 6859SOL    HW132039   3.397   2.682   2.626 -1.1554 -0.4672  0.1452
 6859SOL    HW232040   3.364   2.595   2.744  1.0716 -0.3059  1.4830
 6860SOL     OW32041   0.319   1.089  13.998 -0.1212 -0.8038  1.0334
 6860SOL    HW132042   0.286   1.161  14.052 -1.0419 -0.7085  0.3497
 6860SOL    HW232043   0.398   1.052  14.039  0.4512 -0.5115  0.2063
 6861SOL     OW32044   1.183   1.801  13.165  0.0612 -0.4089  0.3586
 6861SOL    HW132045   1.162   1.887  13.129  1.6900 -0.3274 -0.3848
 6861SOL    HW232046   1.121   1.749  13.114 -1.5209  0.2485  1.6058
 6862SOL     OW32047   2.077   0.907   2.090  0.5639 -0.3690 -0.0309
 6862SOL    HW132048   2.055   0.888   2.181 -1.6083  0.1906 -0.4290
 6862SOL    HW232049   2.011   0.975   2.072  0.1225 -1.3299 -2.1131
 6863SOL     OW32050   2.443   4.587   6.961  0.1541  0.5675  0.0681
 6863SOL    HW132051   2.358   4.628   6.944 -1.2738 -1.8599  1.3944
 6863SOL    HW232052   2.430   4.504   6.914  2.0764 -0.1260  0.7477
 6864SOL     OW32053   2.758   2.026   4.198  0.5573 -0.1306 -0.2160
 6864SOL    HW132054   2.806   2.069   4.268  0.3734  1.3679 -1.0230
 6864SOL    HW232055   2.685   1.987   4.246  0.5542 -0.2536 -0.3194
 6865SOL     OW32056   3.284   1.261   8.976 -0.4261  0.0778  0.0760
 6865SOL    HW132057   3.254   1.331   9.033 -1.8082  1.2116 -2.0669
 6865SOL    HW232058   3.352   1.224   9.033 -0.2207  0.5774  0.1566
 6866SOL     OW32059   4.196   1.676   9.808 -0.0084 -0.0663 -0.0380
 6866SOL    HW132060   4.190   1.644   9.898 -1.0434  1.6422  0.4887
 6866SOL    HW232061   4.145   1.755   9.823 -2.5513 -1.5485 -0.8216
 6867SOL     OW32062   4.187   0.006  17.134  0.2676  0.6481 -0.2802
 6867SOL    HW132063   4.161   4.638  17.144 -1.7283  0.7783 -4.4794
 6867SOL    HW232064   4.251   0.017  17.205  0.0051 -1.5290  0.2810
 6868SOL     OW32065   3.285   1.632   1.166  0.2579  0.0743 -0.5882
 6868SOL    HW132066   3.322   1.699   1.108 -0.0498 -2.7872 -4.0700
 6868SOL    HW232067   3.231   1.692   1.217  2.4900  0.2865  1.5585
 6869SOL     OW32068   4.493   1.288   6.375 -0.0666  0.2951 -0.8001
 6869SOL    HW132069   4.500   1.205   6.328  1.5645  0.5032 -0.9028
 6869SOL    HW232070   4.573   1.297   6.426 -1.0877 -1.0524  1.0585
 6870SOL     OW32071   1.328   2.351   6.492 -0.6655 -0.0841  0.2233
 6870SOL    HW132072   1.261   2.315   6.434 -3.2652  2.0516  1.9095
 6870SOL    HW232073   1.377   2.271   6.511  0.0642  0.0197 -1.2786
 6871SOL     OW32074   4.657   1.933   2.900 -0.3186  0.3613 -0.2642
 6871SOL    HW132075   4.572   1.977   2.902 -1.7254 -2.4638  2.5582
 6871SOL    HW232076   4.679   1.928   2.807  0.6701 -1.6081  0.0777
 6872SOL     OW32077   1.616   4.547   5.042  0.3258 -0.0474  0.4349
 6872SOL    HW132078   1.585   4.603   5.113 -2.2408  1.2514 -1.7073
 6872SOL    HW232079   1.627   4.465   5.090  2.5654 -0.0933 -0.1506
 6873SOL     OW32080   3.429   3.586   9.293 -0.1987 -0.1515  0.2499
 6873SOL    HW132081   3.518   3.621   9.290 -0.1747 -0.2004  0.4044
 6873SOL    HW232082   3.399   3.627   9.211  1.9147  2.9263  1.0201
 6874SOL     OW32083   3.963   3.040   1.991  0.3726  0.3750 -0.0780
 6874SOL    HW132084   4.055   3.029   1.967  0.0124 -1.1220 -0.8016
 6874SOL    HW232085   3.960   3.000   2.078 -0.6759 -0.4851 -0.5106
 6875SOL     OW32086   1.500   2.980   7.657 -0.3645  0.3641  0.4255
 6875SOL    HW132087   1.474   2.937   7.738 -3.2650  0.6315 -0.3801
 6875SOL    HW232088   1.588   2.943   7.651  0.2922  1.5860  2.3615
 6876SOL     OW32089   4.543   2.428  14.860 -0.0846 -0.1971 -0.0164
 6876SOL    HW132090   4.530   2.420  14.955  0.2672 -1.0747 -0.0506
 6876SOL    HW232091   4.521   2.521  14.851 -0.4716 -0.0358  2.5824
 6877SOL     OW32092   0.343   1.243  16.613 -0.3314 -0.7413 -0.0582
 6877SOL    HW132093   0.346   1.338  16.609 -0.9560 -0.7048  0.3450
 6877SOL    HW232094   0.349   1.227  16.519  0.9404  0.0046 -0.0919
 6878SOL     OW32095   3.507   3.161  16.076  0.0885 -0.0782  0.0924
 6878SOL    HW132096   3.412   3.158  16.063 -0.1309 -0.1240  1.7131
 6878SOL    HW232097   3.528   3.068  16.088  0.9371 -0.0416 -1.0594
 6879SOL     OW32098   4.703   1.551   2.965 -0.0765 -0.3717  0.4628
 6879SOL    HW132099   0.018   1.515   3.045 -2.3065  0.3554  1.8797
 6879SOL    HW232100   0.011   1.641   2.979 -2.7284  0.4106  1.5200
 6880SOL     OW32101   1.455   4.073  12.531 -0.0905  0.6729 -0.9639
 6880SOL    HW132102   1.536   4.118  12.507  0.1371  1.1003  0.6060
 6880SOL    HW232103   1.407   4.055  12.451  1.2449  2.1850 -2.1010
 6881SOL     OW32104   3.683   4.414  13.588 -0.1401 -0.0007  0.3498
 6881SOL    HW132105   3.686   4.330  13.635 -1.0682  1.5991  3.2680
 6881SOL    HW232106   3.642   4.379  13.508  1.7870  0.1833 -0.7050
 6882SOL     OW32107   1.763   1.363   8.758  0.1578 -0.2496  0.3969
 6882SOL    HW132108   1.776   1.307   8.681 -1.7768 -0.4191  0.1965
 6882SOL    HW232109   1.709   1.428   8.713 -1.5054 -0.0737  2.6745
 6883SOL     OW32110   2.333   3.383   3.999  0.2697  0.6362  0.0503
 6883SOL    HW132111   2.327   3.389   3.904 -1.4941  3.4290  0.3299
 6883SOL    HW232112   2.416   3.337   3.998  0.2003  0.5208 -0.2682
 6884SOL     OW32113   3.113   0.520  13.498  0.0328  0.3298  0.2830
 6884SOL    HW132114   3.197   0.481  13.474  0.0829  2.0811 -2.4009
 6884SOL    HW232115   3.128   0.563  13.582  0.8371  1.4446 -0.4339
 6885SOL     OW32116   1.314   1.350  15.442  0.2161  0.8660  0.6647
 6885SOL    HW132117   1.347   1.439  15.447 -0.0841  1.0231 -0.1321
 6885SOL    HW232118   1.223   1.362  15.415 -0.1712 -0.8105  1.1602
 6886SOL     OW32119   0.463   0.443   6.706 -0.1998  0.3393  0.1066
 6886SOL    HW132120   0.393   0.481   6.653  0.7604  1.9433  0.0147
 6886SOL    HW232121   0.537   0.442   6.646 -1.0913  0.4669 -1.0007
 6887SOL     OW32122   3.825   2.231   1.545  0.2976 -0.1625  0.1108
 6887SOL    HW132123   3.803   2.276   1.627 -2.4778 -3.4849  1.1695
 6887SOL    HW232124   3.820   2.302   1.480  0.4855 -2.3216 -2.2554
 6888SOL     OW32125   4.645   1.253   5.421  0.2367 -0.4045 -0.4294
 6888SOL    HW132126   4.661   1.299   5.503 -1.2587  1.5162 -1.2027
 6888SOL    HW232127   0.001   1.203   5.406  0.6410  0.0763  0.1607
 6889SOL     OW32128   1.701   3.400   4.383 -0.0742 -0.1756 -0.3529
 6889SOL    HW132129   1.683   3.319   4.336  1.8096 -1.1273  0.5632
 6889SOL    HW232130   1.688   3.459   4.309  0.4853 -1.7011 -1.6599
 6890SOL     OW32131   3.358   2.745   4.515  0.0329 -0.3415 -0.4581
 6890SOL    HW132132   3.365   2.723   4.422  2.1695 -1.7918  0.0364
 6890SOL    HW232133   3.316   2.664   4.546  0.2034 -0.4592 -0.5316
 6891SOL     OW32134   2.821   3.672  14.802  1.0370  0.3076  0.3398
 6891SOL    HW132135   2.912   3.693  14.782  0.9433 -0.6610 -1.0801
 6891SOL    HW232136   2.810   3.610  14.730  0.0271 -0.9914  1.6389
 6892SOL     OW32137   1.107   3.350   0.871 -0.1514  0.2365 -0.1265
 6892SOL    HW132138   1.117   3.319   0.782 -1.9711  0.2634 -0.3478
 6892SOL    HW232139   1.048   3.425   0.872 -1.4472 -0.8035  1.8340
 6893SOL     OW32140   3.921   2.246   2.322 -0.2332 -0.0909  0.0915
 6893SOL    HW132141   3.834   2.286   2.323 -0.1200  0.2827 -2.3941
 6893SOL    HW232142   3.908   2.157   2.352 -0.9735  0.1962  0.6401
 6894SOL     OW32143   2.936   3.677  12.183 -0.3782 -0.1068 -0.1987
 6894SOL    HW132144   2.963   3.688  12.274 -1.1311 -1.2252  0.1650
 6894SOL    HW232145   2.851   3.634  12.198 -0.8318  1.1071  0.6943
 6895SOL     OW32146   1.981   2.873   8.219 -0.6042 -0.1732  0.0472
 6895SOL    HW132147   1.963   2.788   8.177 -1.0466  0.2409 -0.6015
 6895SOL    HW232148   1.954   2.862   8.310  0.1934 -1.3617  0.1394
 6896SOL     OW32149   1.959   3.416  15.888  0.7385  0.1237  0.7226
 6896SOL    HW132150   1.951   3.500  15.935 -0.2467  0.8797 -0.7960
 6896SOL    HW232151   2.003   3.367  15.958  1.9403  0.6265  0.3146
 6897SOL     OW32152   3.595   1.085   0.607 -0.3313  0.1773 -0.2133
 6897SOL    HW132153   3.675   1.044   0.641 -0.4585  1.2867  1.4401
 6897SOL    HW232154   3.612   1.098   0.514 -0.0443  0.4524 -0.1247
 6898SOL     OW32155   3.312   4.209   4.302 -0.0630 -0.3688 -0.4602
 6898SOL    HW132156   3.346   4.292   4.268  0.5652 -0.0507  0.9600
 6898SOL    HW232157   3.270   4.174   4.223  0.6196  0.5849 -1.2532
 6899SOL     OW32158   0.762   1.219   3.270 -0.0923  0.3516  0.0623
 6899SOL    HW132159   0.677   1.254   3.240 -2.3355 -3.1101  2.3699
 6899SOL    HW232160   0.814   1.299   3.260 -0.3026  0.4008 -0.6792
 6900SOL     OW32161   0.166   1.338   4.380  0.4487  0.1570 -0.7146
 6900SOL    HW132162   0.250   1.293   4.371  1.9089  2.4513  1.5693
 6900SOL    HW232163   0.191   1.431   4.376 -0.5444  0.4778  0.8289
 6901SOL     OW32164   0.320   1.187  16.333 -0.1808 -0.2848  0.1273
 6901SOL    HW132165   0.293   1.214  16.245  0.2541  0.0261  0.0893
 6901SOL    HW232166   0.375   1.116  16.300 -1.8946 -2.1682  1.3223
 6902SOL     OW32167   0.508   3.177   5.511  0.9921  0.1184 -0.1797
 6902SOL    HW132168   0.530   3.207   5.423 -0.8612 -4.0640 -2.0673
 6902SOL    HW232169   0.589   3.129   5.526  1.0865  0.2653 -0.2200
 6903SOL     OW32170   4.626   1.346  14.662 -0.1352  0.0396 -1.0140
 6903SOL    HW132171   4.560   1.291  14.619  0.1340 -0.0360 -1.3295
 6903SOL    HW232172   4.651   1.409  14.595 -0.5803 -0.6751 -1.8636
 6904SOL     OW32173   1.369   0.736  11.189  0.5355  0.3153 -0.3284
 6904SOL    HW132174   1.429   0.806  11.164 -0.4758  0.3794 -2.5580
 6904SOL    HW232175   1.339   0.695  11.108  0.4468 -1.5983  0.6663
 6905SOL     OW32176   2.051   3.390   3.638  0.2521  0.0876 -0.1656
 6905SOL    HW132177   2.086   3.477   3.656 -2.6327  1.5101 -1.4390
 6905SOL    HW232178   1.992   3.407   3.565 -1.0171 -1.1259  0.5818
 6906SOL     OW32179   1.196   4.072  17.487  0.1795  0.0114 -0.1871
 6906SOL    HW132180   1.240   4.078  17.572 -0.3016  0.1209  0.0573
 6906SOL    HW232181   1.163   3.982  17.485 -2.3154  0.8656  1.6213
 6907SOL     OW32182   1.326   3.981   3.868 -0.1434 -0.3041  0.2000
 6907SOL    HW132183   1.331   3.973   3.773 -1.5379  1.7945 -0.0528
 6907SOL    HW232184   1.245   4.027   3.893 -0.0584  0.0969 -0.2673
 6908SOL     OW32185   1.419   0.960  12.667  0.0195 -0.0299 -0.1054
 6908SOL    HW132186   1.338   0.955  12.616  0.8674 -0.9832 -1.3587
 6908SOL    HW232187   1.407   0.882  12.720  0.7236 -0.7606 -1.0046
 6909SOL     OW32188   1.294   2.165   7.845  0.6688  0.7374  0.2142
 6909SOL    HW132189   1.313   2.142   7.936  0.9809 -1.8824 -0.4958
 6909SOL    HW232190   1.384   2.186   7.819 -0.7066  1.4504 -3.9248
 6910SOL     OW32191   1.052   2.673  14.314 -0.5245 -0.1524  0.2771
 6910SOL    HW132192   1.020   2.591  14.277 -2.7410  0.6424  0.4354
 6910SOL    HW232193   1.051   2.650  14.407  1.6755 -2.2712 -0.2217
 6911SOL     OW32194   1.909   0.599   9.817 -0.3288  0.5026  0.8498
 6911SOL    HW132195   1.923   0.515   9.775  1.4955 -0.3916  3.2214
 6911SOL    HW232196   1.965   0.653   9.762 -2.1413  0.5235 -0.9644
 6912SOL     OW32197   2.445   3.163   4.631 -0.8981 -0.2950 -0.2898
 6912SOL    HW132198   2.373   3.105   4.609 -1.5465 -0.6341  2.6754
 6912SOL    HW232199   2.499   3.114   4.693  0.8452  0.0728 -1.5056
 6913SOL     OW32200   4.658   2.824   6.746  0.2178  0.8461  0.1725
 6913SOL    HW132201   4.607   2.774   6.810 -1.3232 -0.0035 -1.7218
 6913SOL    HW232202   0.012   2.768   6.744  0.8882  1.6802  2.9195
 6914SOL     OW32203   4.242   4.718   7.926 -0.4525 -0.2905  0.6754
 6914SOL    HW132204   4.232   4.666   7.846 -2.4293  2.0120 -0.5646
 6914SOL    HW232205   4.337   4.719   7.941 -0.3290 -2.1709  0.0497
 6915SOL     OW32206   0.866   0.308   3.651  0.4084  0.4663  0.0871
 6915SOL    HW132207   0.920   0.319   3.573  1.2948 -1.8183  0.3581
 6915SOL    HW232208   0.809   0.384   3.647  1.4490  1.3438  2.1968
 6916SOL     OW32209   4.044   2.100  11.226 -0.0517 -0.4178 -0.0502
 6916SOL    HW132210   4.075   2.013  11.250 -2.0068 -0.4975  2.3199
 6916SOL    HW232211   4.093   2.155  11.287  1.1926 -2.4936  0.8107
 6917SOL     OW32212   0.569   1.193   5.469 -0.1429  0.1705 -0.0216
 6917SOL    HW132213   0.598   1.272   5.513  1.6797  0.4159 -1.6441
 6917SOL    HW232214   0.477   1.217   5.456  0.1511 -0.7236 -3.8110
 6918SOL     OW32215   0.992   3.395   9.510 -0.2302  0.4904 -0.6518
 6918SOL    HW132216   0.956   3.393   9.421  0.4185 -0.7979 -0.8871
 6918SOL    HW232217   0.938   3.459   9.556 -0.2483 -0.4734  0.6722
 6919SOL     OW32218   3.030   2.354   0.029  0.0036 -0.5476 -0.3880
 6919SOL    HW132219   3.084   2.421  17.685  0.9776 -0.8016  0.4728
 6919SOL    HW232220   2.988   2.401   0.100 -0.9780  0.9356 -1.9457
 6920SOL     OW32221   1.084   2.750   2.161 -0.2554 -0.2126 -0.1101
 6920SOL    HW132222   0.996   2.762   2.198 -1.7434  0.4705 -3.8884
 6920SOL    HW232223   1.096   2.835   2.119 -1.0408 -0.5823 -1.0761
 6921SOL     OW32224   4.288   0.945  17.073  0.0159 -0.4289 -0.2789
 6921SOL    HW132225   4.203   0.989  17.072  0.4585  0.4333  2.5625
 6921SOL    HW232226   4.329   0.997  17.004 -0.7703  0.5968  0.0302
 6922SOL     OW32227   0.138   1.730   5.056 -0.5440 -0.3389 -0.5573
 6922SOL    HW132228   0.180   1.654   5.016  0.7340 -0.0993  0.3400
 6922SOL    HW232229   0.083   1.682   5.118 -1.2576 -0.1705 -1.0585
 6923SOL     OW32230   1.059   0.887   4.349  0.1628 -0.7245 -0.0352
 6923SOL    HW132231   0.967   0.866   4.338 -0.0188  0.6532 -1.1576
 6923SOL    HW232232   1.090   0.814   4.402  0.0705 -1.1216 -0.5339
 6924SOL     OW32233   2.115   1.985   3.706  0.1540 -0.4612 -0.4978
 6924SOL    HW132234   2.034   2.010   3.660 -0.5423 -0.2017  0.8596
 6924SOL    HW232235   2.076   1.963   3.791  0.1842  0.0213 -0.3586
 6925SOL     OW32236   3.566   3.060   2.405  0.0745 -0.1467  0.2181
 6925SOL    HW132237   3.584   3.080   2.313 -1.8091  1.1178  0.0995
 6925SOL    HW232238   3.471   3.050   2.406 -0.1459  2.1308  2.0408
 6926SOL     OW32239   3.833   4.141  13.569 -0.1700  0.1769  0.0451
 6926SOL    HW132240   3.837   4.104  13.481  1.8335 -2.0445  1.0674
 6926SOL    HW232241   3.753   4.103  13.604 -0.2002 -0.6472 -0.9423
 6927SOL     OW32242   1.382   4.242   4.444  0.5446 -0.1299  0.5029
 6927SOL    HW132243   1.344   4.219   4.359  2.6324 -0.1824 -0.4021
 6927SOL    HW232244   1.363   4.336   4.445  1.1671  0.0008 -1.4584
 6928SOL     OW32245   4.228   1.029   3.379 -0.1792 -0.5574  0.0627
 6928SOL    HW132246   4.225   1.105   3.320  2.3564  0.6647  1.5114
 6928SOL    HW232247   4.299   1.049   3.439 -0.9908  0.3320  0.7318
 6929SOL     OW32248   1.275   2.874   6.396  0.0498  0.0728  0.0660
 6929SOL    HW132249   1.307   2.901   6.482  2.0753  0.7289 -0.9044
 6929SOL    HW232250   1.204   2.936   6.381  0.3191  0.2766 -0.3806
 6930SOL     OW32251   3.974   2.564   2.582 -0.2239 -0.5140  0.3985
 6930SOL    HW132252   4.030   2.490   2.560  0.3913 -0.1401  0.7054
 6930SOL    HW232253   4.006   2.631   2.522  1.3290  0.5310  2.4188
 6931SOL     OW32254   3.469   3.964   3.556 -0.4909 -0.0981  0.4253
 6931SOL    HW132255   3.437   3.951   3.467  0.1664 -0.9494  0.3159
 6931SOL    HW232256   3.552   3.917   3.551  0.5101  1.7489 -0.3740
 6932SOL     OW32257   4.374   4.246  13.341 -0.2982 -0.0037 -0.3384
 6932SOL    HW132258   4.436   4.292  13.398 -1.2834 -0.2773  0.9748
 6932SOL    HW232259   4.423   4.177  13.297  1.6651  1.3736 -0.3020
 6933SOL     OW32260   3.812   0.253   2.821 -0.8540 -0.2344 -0.4549
 6933SOL    HW132261   3.802   0.283   2.912 -1.0217  1.4062 -1.0169
 6933SOL    HW232262   3.906   0.246   2.811 -0.8351  0.3586 -0.7009
 6934SOL     OW32263   3.965   0.283   4.604 -0.5206  0.0546  0.7647
 6934SOL    HW132264   3.957   0.378   4.595 -0.6430 -0.1302 -1.1870
 6934SOL    HW232265   3.946   0.257   4.514 -0.6629 -1.7839  1.3180
 6935SOL     OW32266   3.131   2.167   3.103  0.1017  0.2088  0.2060
 6935SOL    HW132267   3.194   2.117   3.156 -0.6426 -1.0662 -0.1008
 6935SOL    HW232268   3.138   2.257   3.134  2.7105 -0.8099  2.6112
 6936SOL     OW32269   4.297   2.524  12.068  0.2071  0.4095  0.2585
 6936SOL    HW132270   4.336   2.441  12.040 -0.2540  1.3348 -3.2242
 6936SOL    HW232271   4.375   2.572  12.094  2.5647 -2.3161 -1.7862
 6937SOL     OW32272   1.766   3.909   3.044 -0.3858  0.1004  0.2755
 6937SOL    HW132273   1.794   3.949   2.962  1.8836 -1.6125  0.2055
 6937SOL    HW232274   1.697   3.966   3.079 -0.3854  1.8215 -2.5883
 6938SOL     OW32275   4.533   3.105   6.449  0.5380 -0.2199 -0.1702
 6938SOL    HW132276   4.569   3.193   6.459  0.6886 -0.3802  0.6708
 6938SOL    HW232277   4.607   3.052   6.417  0.6613  0.4171 -0.9405
 6939SOL     OW32278   3.592   2.133  11.526  0.2829  0.3565 -0.4732
 6939SOL    HW132279   3.544   2.068  11.475 -0.6975 -0.2061  1.1648
 6939SOL    HW232280   3.679   2.093  11.522  0.2752  0.5254 -2.1894
 6940SOL     OW32281   3.843   0.813   1.006 -0.3016  0.2546 -0.2205
 6940SOL    HW132282   3.797   0.896   0.993 -0.8090 -0.1132 -0.8036
 6940SOL    HW232283   3.928   0.854   1.020 -0.3858  1.0116 -1.9137
 6941SOL     OW32284   1.334   3.315   3.078  0.0597 -0.1545  0.5087
 6941SOL    HW132285   1.248   3.312   3.035  0.5015 -2.3982 -0.2502
 6941SOL    HW232286   1.371   3.402   3.068 -0.1074 -0.1866 -0.4560
 6942SOL     OW32287   0.292   2.701   2.607  0.3996 -0.0119 -0.2084
 6942SOL    HW132288   0.290   2.642   2.532  0.5489  0.9823 -1.0053
 6942SOL    HW232289   0.202   2.686   2.637  1.2922 -0.6992  2.1038
 6943SOL     OW32290   2.513   3.984   1.420 -0.0288 -0.2845  0.3528
 6943SOL    HW132291   2.602   3.982   1.456 -0.0162  1.2085  0.4243
 6943SOL    HW232292   2.514   4.073   1.385 -0.6867 -0.5799 -0.4115
 6944SOL     OW32293   0.425   2.390   1.392 -0.3476  0.1036  0.2558
 6944SOL    HW132294   0.507   2.424   1.357 -0.4545 -0.7968 -0.9034
 6944SOL    HW232295   0.432   2.295   1.380 -0.4485  0.2021 -0.5633
 6945SOL     OW32296   4.276   2.198   8.405  0.5568  0.4713 -0.5894
 6945SOL    HW132297   4.338   2.259   8.445  0.8598 -0.7810  0.8553
 6945SOL    HW232298   4.288   2.227   8.314  0.5425  1.6053 -0.2203
 6946SOL     OW32299   3.569   3.682   3.025  0.0240 -0.0142  0.8949
 6946SOL    HW132300   3.647   3.629   3.005  1.0861  1.6223  0.6945
 6946SOL    HW232301   3.496   3.624   3.044 -1.3579  1.4107 -0.0663
 6947SOL     OW32302   0.815   2.683   4.252 -0.2394  0.2553  0.3237
 6947SOL    HW132303   0.890   2.662   4.196 -0.1721 -0.0092  0.5146
 6947SOL    HW232304   0.743   2.648   4.199 -1.2514  0.3986  1.5878
 6948SOL     OW32305   0.602   3.362   8.360 -0.3286  0.2641  0.4568
 6948SOL    HW132306   0.616   3.284   8.414  0.0338 -0.4341 -0.6293
 6948SOL    HW232307   0.555   3.413   8.426 -1.4558  1.8253 -1.5768
 6949SOL     OW32308   1.270   4.475   5.179  0.1297 -0.2061  0.8429
 6949SOL    HW132309   1.215   4.533   5.232  1.2613  0.2710  1.5001
 6949SOL    HW232310   1.354   4.509   5.211 -0.0341 -0.7968  1.9197
 6950SOL     OW32311   0.630   4.576   6.129  0.1415  0.4383  0.2044
 6950SOL    HW132312   0.667   4.659   6.098 -0.8279  0.2311 -1.5033
 6950SOL    HW232313   0.683   4.565   6.208 -1.2451 -2.0000  0.7788
 6951SOL     OW32314   1.084   1.536   6.964 -0.5172  0.0282  0.1731
 6951SOL    HW132315   1.063   1.504   6.876 -2.2985 -1.9354  1.3010
 6951SOL    HW232316   1.061   1.629   6.953 -2.8794 -0.7714 -1.6571
 6952SOL     OW32317   4.458   0.462  15.258  0.1386 -0.7109 -0.6787
 6952SOL    HW132318   4.429   0.372  15.273  0.2748 -0.7057 -0.3774
 6952SOL    HW232319   4.378   0.497  15.218 -0.4890 -0.4564  0.7894
 6953SOL     OW32320   4.627   2.467   3.260  0.1657  0.1629  0.0571
 6953SOL    HW132321   4.669   2.384   3.239  0.3254  0.6606 -1.6012
 6953SOL    HW232322   4.546   2.462   3.210  0.0972 -0.3118  0.2195
 6954SOL     OW32323   3.303   1.056   1.355 -0.3935  0.1177 -0.1994
 6954SOL    HW132324   3.280   1.045   1.447  0.0478 -1.1721 -0.2380
 6954SOL    HW232325   3.349   1.140   1.354  0.7965 -0.5314 -0.8740
 6955SOL     OW32326   3.067   1.336   5.568 -0.7222 -0.5773  0.0616
 6955SOL    HW132327   3.007   1.385   5.624  0.4512  1.2602 -0.2981
 6955SOL    HW232328   3.150   1.358   5.610 -0.7442  0.9359 -0.6624
 6956SOL     OW32329   3.864   3.854  14.024 -0.0869  0.0497 -0.0331
 6956SOL    HW132330   3.882   3.946  14.002  1.6773 -0.4406 -0.5896
 6956SOL    HW232331   3.909   3.852  14.109 -2.3100  0.2837  1.1646
 6957SOL     OW32332   1.229   0.151   6.612 -0.1129  0.4860  0.1780
 6957SOL    HW132333   1.254   0.059   6.599 -0.4362  0.8169 -2.6513
 6957SOL    HW232334   1.308   0.197   6.585  0.1895  0.0047  0.2305
 6958SOL     OW32335   0.439   2.792   7.988  0.0235  0.1603  0.2956
 6958SOL    HW132336   0.532   2.802   8.006 -0.2606 -0.1055  1.8817
 6958SOL    HW232337   0.423   2.703   8.020 -0.8202 -0.5347 -2.0520
 6959SOL     OW32338   4.267   0.078   0.672 -0.6570 -0.1489  0.1286
 6959SOL    HW132339   4.174   0.055   0.662 -1.1455  1.7898  0.2731
 6959SOL    HW232340   4.286   0.087   0.579 -1.7778  0.6461 -0.0271
 6960SOL     OW32341   4.418   0.610  15.514  0.5127 -0.0145  0.3308
 6960SOL    HW132342   4.327   0.582  15.521  0.7103 -0.7234  0.0237
 6960SOL    HW232343   4.469   0.541  15.472  0.1366 -0.3260  0.3893
 6961SOL     OW32344   0.761   3.697   5.801  0.2018 -0.2173  0.1935
 6961SOL    HW132345   0.681   3.685   5.751  2.3102 -1.3188 -2.8555
 6961SOL    HW232346   0.767   3.793   5.796 -0.9221 -0.0926  1.0656
 6962SOL     OW32347   1.100   3.886   5.946 -0.4950  0.5993  0.0473
 6962SOL    HW132348   1.088   3.845   5.860  0.2814 -2.0781  1.2086
 6962SOL    HW232349   1.193   3.868   5.960  0.1714  2.8397 -1.5435
 6963SOL     OW32350   3.632   3.099   8.432 -0.1983 -0.2350  0.0114
 6963SOL    HW132351   3.553   3.124   8.480  0.0684 -1.4517  1.1027
 6963SOL    HW232352   3.679   3.182   8.436 -0.9199  0.1142  1.2537
 6964SOL     OW32353   1.671   0.587   3.658  0.2066 -0.0527  0.1662
 6964SOL    HW132354   1.647   0.643   3.585  2.9406  1.2283  0.2547
 6964SOL    HW232355   1.764   0.598   3.638  0.8354 -1.7297  2.1243
 6965SOL     OW32356   4.104   4.266  15.124 -0.0970  0.0586  0.0644
 6965SOL    HW132357   4.056   4.228  15.050  0.9462 -0.2436 -0.4625
 6965SOL    HW232358   4.111   4.359  15.101 -1.7260  0.6125  1.8632
 6966SOL     OW32359   0.053   4.569   7.717  0.2054 -0.3855  0.8893
 6966SOL    HW132360   0.008   4.653   7.724 -1.1994 -1.0254 -0.2458
 6966SOL    HW232361   0.003   4.525   7.786  1.0657 -2.3774  0.2429
 6967SOL     OW32362   0.224   4.087  14.267  0.0476 -0.1115 -0.1809
 6967SOL    HW132363   0.295   4.141  14.233  0.8905 -0.9578  0.2112
 6967SOL    HW232364   0.280   4.019  14.306  0.0230 -0.0126  0.0273
 6968SOL     OW32365   0.883   0.130   7.689  0.0649  0.3013  0.5136
 6968SOL    HW132366   0.832   0.052   7.708 -1.3458  0.9830 -0.4777
 6968SOL    HW232367   0.924   0.121   7.603  0.8450  2.5264  0.6444
 6969SOL     OW32368   2.601   0.771   3.494  0.0182  0.4141  0.2301
 6969SOL    HW132369   2.530   0.807   3.442  1.7746  0.3947 -2.1911
 6969SOL    HW232370   2.626   0.835   3.560 -0.5642  0.6042  0.2616
 6970SOL     OW32371   0.109   2.779  10.182 -0.0075  0.3644 -0.4452
 6970SOL    HW132372   0.058   2.860  10.177  0.9676  0.8519 -2.5363
 6970SOL    HW232373   0.046   2.719  10.221 -0.1384  2.2366  2.1790
 6971SOL     OW32374   3.880   3.314   8.162 -0.1960  0.2776  0.1567
 6971SOL    HW132375   3.807   3.328   8.102  1.5663 -0.3571 -2.1387
 6971SOL    HW232376   3.924   3.239   8.121  0.5662 -0.1938  1.8168
 6972SOL     OW32377   4.103   3.010  17.580  0.3365 -0.1937  0.0149
 6972SOL    HW132378   4.113   2.916  17.592 -0.0079 -0.4546 -1.6610
 6972SOL    HW232379   4.190   3.023  17.542  1.4489 -4.5217  1.1350
 6973SOL     OW32380   0.677   3.830   4.337  0.0114  0.6312  0.3058
 6973SOL    HW132381   0.743   3.899   4.345 -1.0732  1.6164  0.7586
 6973SOL    HW232382   0.723   3.756   4.297 -1.4894  1.2391 -2.5198
 6974SOL     OW32383   2.820   1.810  16.358  0.3984 -0.0594 -0.2100
 6974SOL    HW132384   2.796   1.803  16.450 -0.0400 -0.8813 -0.3829
 6974SOL    HW232385   2.734   1.790  16.320  0.1312  0.0470  0.3392
 6975SOL     OW32386   2.000   0.826  13.674  0.0441 -0.6837  0.3342
 6975SOL    HW132387   2.079   0.861  13.715 -0.5348  0.8366  0.1556
 6975SOL    HW232388   2.032   0.736  13.665  1.0813 -0.1380 -1.4274
 6976SOL     OW32389   2.092   1.779   8.453 -0.1604 -0.0737  0.3852
 6976SOL    HW132390   2.184   1.767   8.429 -0.0913  0.1145  0.5508
 6976SOL    HW232391   2.086   1.875   8.457  3.0137  0.1535 -0.4639
 6977SOL     OW32392   2.861   1.548   7.747  0.3209 -0.2383 -0.0950
 6977SOL    HW132393   2.886   1.586   7.662 -1.3633  1.6494  0.2496
 6977SOL    HW232394   2.805   1.474   7.723  0.7661 -0.9173  0.9657
 6978SOL     OW32395   3.552   3.055   5.231  0.2696  0.1964  0.1541
 6978SOL    HW132396   3.520   2.968   5.255 -0.5047  0.7799  1.2528
 6978SOL    HW232397   3.643   3.052   5.260  1.0090 -1.7379 -2.3547
 6979SOL     OW32398   3.137   1.655   7.643 -0.6675  0.0369  0.4164
 6979SOL    HW132399   3.097   1.629   7.725  0.8570  0.4888  1.3070
 6979SOL    HW232400   3.222   1.612   7.651  0.4965  1.6055 -3.1700
 6980SOL     OW32401   2.036   2.700   2.910 -0.6392  0.1423  0.4014
 6980SOL    HW132402   2.012   2.703   3.003 -0.1738  2.2373  0.4589
 6980SOL    HW232403   2.129   2.722   2.922 -0.1108 -1.8819  0.0904
 6981SOL     OW32404   4.415   3.389   6.351  0.4800  0.0306  0.3817
 6981SOL    HW132405   4.460   3.469   6.380  0.4663 -0.0110  0.5158
 6981SOL    HW232406   4.420   3.397   6.255  0.1434 -1.5777  0.2379
 6982SOL     OW32407   0.128   0.221  12.149 -0.2307 -0.3295 -0.1419
 6982SOL    HW132408   0.183   0.277  12.095  0.6830 -1.8973 -0.8443
 6982SOL    HW232409   0.143   0.134  12.112  1.2262  1.1040 -2.8405
 6983SOL     OW32410   3.145   3.488  15.829  0.3107  0.0879 -0.2787
 6983SOL    HW132411   3.225   3.538  15.845  0.6918  0.0081 -1.9381
 6983SOL    HW232412   3.100   3.525  15.905  1.4681  1.3061 -0.1846
 6984SOL     OW32413   1.999   2.854  17.300 -0.2828 -0.3531 -0.2400
 6984SOL    HW132414   2.018   2.912  17.374  3.0698 -1.3587 -0.3057
 6984SOL    HW232415   2.054   2.781  17.329 -0.2358  0.1891  1.0329
 6985SOL     OW32416   1.004   0.565   0.326  0.4041 -0.3717  0.3731
 6985SOL    HW132417   0.912   0.571   0.300  0.4033 -1.4429  0.1111
 6985SOL    HW232418   1.018   0.653   0.362 -1.7952  1.7387 -3.9375
 6986SOL     OW32419   4.029   4.524  13.906 -0.3370  0.2689  0.3980
 6986SOL    HW132420   3.995   4.578  13.835 -1.5837  0.1683  0.9092
 6986SOL    HW232421   4.036   4.437  13.868  0.3594 -0.2396  1.6928
 6987SOL     OW32422   3.960   2.311  14.971  0.0506 -0.1720 -0.3242
 6987SOL    HW132423   3.911   2.296  15.051  0.8425  0.1580  0.2316
 6987SOL    HW232424   3.890   2.336  14.910  2.2968  0.2598 -2.7543
 6988SOL     OW32425   2.516   0.235   6.710  0.1404  0.1538  0.1089
 6988SOL    HW132426   2.536   0.305   6.649 -1.0535 -0.1910 -0.6654
 6988SOL    HW232427   2.447   0.183   6.669  0.9516 -0.5093 -0.4309
 6989SOL     OW32428   1.612   4.421   4.436  0.4308 -0.5107  0.4822
 6989SOL    HW132429   1.541   4.378   4.483  0.7029 -0.6660  0.7515
 6989SOL    HW232430   1.606   4.365   4.359 -0.7823  0.8831 -0.4326
 6990SOL     OW32431   4.556   0.913   3.530  0.4511 -0.8374  0.1508
 6990SOL    HW132432   4.631   0.940   3.477  0.2224  0.8258  0.6607
 6990SOL    HW232433   4.542   0.821   3.507  0.4245 -0.4990 -1.2005
 6991SOL     OW32434   3.914   1.342   7.695 -0.0864  0.5525  0.1889
 6991SOL    HW132435   3.909   1.330   7.600 -2.6499  2.4568  0.0941
 6991SOL    HW232436   4.005   1.311   7.700  0.2043  1.4688  0.4827
 6992SOL     OW32437   1.769   3.910   9.986 -0.3351 -0.2764  0.2295
 6992SOL    HW132438   1.802   3.995  10.015 -1.0010 -0.1566  0.6521
 6992SOL    HW232439   1.691   3.946   9.944 -0.4135 -0.2433  0.4004
 6993SOL     OW32440   2.371   2.951   6.471  0.0338 -0.0472  0.3885
 6993SOL    HW132441   2.389   2.902   6.391 -0.5392  0.9355 -0.3365
 6993SOL    HW232442   2.276   2.952   6.466 -0.0090 -3.1875  0.6746
 6994SOL     OW32443   1.893   1.207  16.454 -0.3112  0.6958  0.9175
 6994SOL    HW132444   1.838   1.280  16.481 -1.6945  0.0621 -0.1678
 6994SOL    HW232445   1.977   1.234  16.491  0.7843 -1.9523  0.3262
 6995SOL     OW32446   0.884   3.392   6.425 -0.2066  0.1728  0.6379
 6995SOL    HW132447   0.919   3.345   6.349  0.3166 -0.9610  1.5850
 6995SOL    HW232448   0.957   3.445   6.456  0.2258  0.3087 -0.5902
 6996SOL     OW32449   1.765   2.932   9.786  0.1601 -0.1365  0.4692
 6996SOL    HW132450   1.757   2.851   9.836  1.2962 -1.4884 -1.5518
 6996SOL    HW232451   1.711   2.912   9.710  1.5972 -1.3585 -0.2474
 6997SOL     OW32452   0.979   2.675  14.993  0.1185 -0.0882  0.2762
 6997SOL    HW132453   1.055   2.652  14.939 -0.1845  0.9145 -0.5594
 6997SOL    HW232454   0.920   2.602  14.973 -2.3405  2.3498 -1.4143
 6998SOL     OW32455   1.200   1.867   2.651  0.1864  0.8186  0.5445
 6998SOL    HW132456   1.245   1.784   2.665 -1.8657 -0.8604 -2.8463
 6998SOL    HW232457   1.175   1.896   2.739 -0.6223  0.1095  0.5546
 6999SOL     OW32458   4.257   1.694  12.402 -0.3179  0.0443 -0.3861
 6999SOL    HW132459   4.162   1.681  12.395 -0.3662 -0.3551  1.0325
 6999SOL    HW232460   4.279   1.718  12.312  1.2972 -0.9486 -0.2502
 7000SOL     OW32461   0.760   0.771  17.298 -0.0155 -0.2599  0.2139
 7000SOL    HW132462   0.815   0.849  17.294  0.8217 -0.8075  0.8078
 7000SOL    HW232463   0.678   0.798  17.257 -0.1276  1.1384  1.3834
 7001SOL     OW32464   3.282   2.653   6.550  0.3977  0.8300  0.1404
 7001SOL    HW132465   3.270   2.580   6.611  2.5241 -0.3423 -0.8455
 7001SOL    HW232466   3.245   2.610   6.473  0.8899 -0.7395  0.7854
 7002SOL     OW32467   0.664   4.171  14.554 -0.5853 -0.4300  0.5046
 7002SOL    HW132468   0.663   4.107  14.483 -0.9346 -1.0827  1.1016
 7002SOL    HW232469   0.669   4.118  14.633 -0.8034 -0.6653  0.3622
 7003SOL     OW32470   1.272   3.206   5.175  0.0668  0.8595  0.2979
 7003SOL    HW132471   1.360   3.209   5.137 -0.0371  1.4991  0.1028
 7003SOL    HW232472   1.223   3.243   5.101 -0.9894  0.8734  1.0104
 7004SOL     OW32473   4.334   1.205   6.723 -0.1352 -0.2650  0.1428
 7004SOL    HW132474   4.307   1.278   6.778  0.2935 -1.5285  2.0532
 7004SOL    HW232475   4.270   1.142   6.758 -1.4416  0.1051 -1.6070
 7005SOL     OW32476   0.327   1.000  16.748 -0.6371 -0.4587  0.4436
 7005SOL    HW132477   0.382   1.078  16.742 -0.1030 -0.9955 -1.5809
 7005SOL    HW232478   0.246   1.041  16.717 -0.3228  1.4945  2.2185
 7006SOL     OW32479   2.745   3.304   9.048 -0.1706 -0.4434 -0.7454
 7006SOL    HW132480   2.834   3.275   9.027 -0.2676 -0.8716 -0.5730
 7006SOL    HW232481   2.748   3.284   9.142  0.5424  1.9695 -0.2516
 7007SOL     OW32482   3.524   1.814  14.275  0.1010 -0.3870 -0.1962
 7007SOL    HW132483   3.573   1.734  14.257 -0.9109 -0.8707 -0.7862
 7007SOL    HW232484   3.537   1.835  14.368 -0.3661  2.8773 -0.8816
 7008SOL     OW32485   0.535   3.212   0.302  0.2833  0.5242  0.0849
 7008SOL    HW132486   0.455   3.259   0.279 -1.3159 -1.5608  1.4174
 7008SOL    HW232487   0.581   3.279   0.353 -0.2952  0.6924  0.3961
 7009SOL     OW32488   1.067   3.516  17.675  0.0594  0.2260 -0.5231
 7009SOL    HW132489   1.112   3.432  17.686 -1.2802 -0.3811  0.3693
 7009SOL    HW232490   1.016   3.543   0.055  1.2776  2.8329 -0.6203
 7010SOL     OW32491   3.860   2.332   4.228 -0.0290 -0.3224  0.0611
 7010SOL    HW132492   3.842   2.408   4.284  0.5168 -1.0456  1.2125
 7010SOL    HW232493   3.939   2.297   4.269 -1.2573 -1.3563  1.5219
 7011SOL     OW32494   4.242   1.789   5.885 -0.4611 -0.5293 -0.3394
 7011SOL    HW132495   4.146   1.785   5.892 -0.2313  0.4411  3.2500
 7011SOL    HW232496   4.242   1.725   5.814  1.8530  0.0223 -0.8215
 7012SOL     OW32497   3.894   3.729   2.350 -0.2782 -0.1618  0.2697
 7012SOL    HW132498   3.908   3.653   2.407  1.7655 -2.4663 -3.2826
 7012SOL    HW232499   3.943   3.805   2.383 -0.5239 -0.0235  0.3140
 7013SOL     OW32500   2.753   3.862  12.709  0.1188 -0.6078  0.1651
 7013SOL    HW132501   2.677   3.821  12.669  0.1005 -1.9220  1.5573
 7013SOL    HW232502   2.731   3.955  12.717  2.8276  0.2961 -2.7370
 7014SOL     OW32503   3.155   3.027   3.806  0.0503 -0.1335 -0.0472
 7014SOL    HW132504   3.104   3.074   3.741  3.0673  0.2795 -2.0666
 7014SOL    HW232505   3.241   3.062   3.786  0.3824  0.5546  2.5172
 7015SOL     OW32506   4.204   2.238   0.793  0.1427 -0.1310 -0.3542
 7015SOL    HW132507   4.202   2.221   0.887  2.6580 -0.2521 -0.3232
 7015SOL    HW232508   4.222   2.154   0.752 -1.7176 -1.1091  0.8084
 7016SOL     OW32509   2.028   1.794   1.111 -0.3634 -0.0909 -0.2258
 7016SOL    HW132510   1.996   1.864   1.054  1.0477  0.7241 -0.0084
 7016SOL    HW232511   1.987   1.825   1.192 -0.0229 -2.1494  0.7328
 7017SOL     OW32512   4.155   0.508   3.567  0.7655  0.4828 -0.3234
 7017SOL    HW132513   4.096   0.583   3.578  1.2752  0.7978  0.2526
 7017SOL    HW232514   4.187   0.502   3.657 -0.9499 -4.1050 -0.0633
 7018SOL     OW32515   3.099   3.445   8.267  0.3965  0.1229  0.0436
 7018SOL    HW132516   3.189   3.468   8.245  1.5422 -0.1242  4.4089
 7018SOL    HW232517   3.045   3.464   8.191 -0.3858 -0.2089  0.5163
 7019SOL     OW32518   4.459   2.704   4.472  0.2673  0.0528 -0.2897
 7019SOL    HW132519   4.553   2.688   4.461  0.3202  2.3066 -2.9159
 7019SOL    HW232520   4.439   2.739   4.386  0.3109  1.4117  0.2607
 7020SOL     OW32521   2.999   4.308   4.392 -0.5848 -0.0630  0.0667
 7020SOL    HW132522   2.953   4.245   4.337  0.0808 -2.3952  2.1965
 7020SOL    HW232523   3.083   4.264   4.404 -1.3282 -0.5124  3.7278
 7021SOL     OW32524   2.551   2.173  12.107  0.0867  0.1556  0.3017
 7021SOL    HW132525   2.458   2.197  12.096 -0.6749 -2.7020  0.4512
 7021SOL    HW232526   2.546   2.087  12.065  0.6669 -0.9456  2.4493
 7022SOL     OW32527   2.907   2.555   2.280  0.2465 -0.5202  0.0336
 7022SOL    HW132528   2.905   2.471   2.233 -0.7082  0.0354 -0.9184
 7022SOL    HW232529   2.933   2.612   2.207 -0.6556  1.8492  1.5935
 7023SOL     OW32530   3.904   1.593   0.703  0.1914 -0.3300  0.1080
 7023SOL    HW132531   3.818   1.553   0.719  0.0909  0.7088  2.1915
 7023SOL    HW232532   3.871   1.677   0.671 -2.8072 -1.0835  1.1251
 7024SOL     OW32533   2.545   4.117  10.157 -0.3203 -0.2070  0.0861
 7024SOL    HW132534   2.456   4.118  10.122  0.0048  1.2436 -0.6970
 7024SOL    HW232535   2.555   4.022  10.158 -2.1925 -0.4103  0.5230
 7025SOL     OW32536   0.042   2.563  12.004 -0.0351  0.4294  0.1239
 7025SOL    HW132537   0.122   2.588  12.050  0.2069 -0.2309  0.0632
 7025SOL    HW232538   0.071   2.476  11.977  1.1107  0.0452  2.5993
 7026SOL     OW32539   2.727   0.731   9.420 -0.5540 -0.1345  0.0310
 7026SOL    HW132540   2.707   0.648   9.377  2.1517 -0.8311  0.1222
 7026SOL    HW232541   2.688   0.724   9.507  3.4362 -1.8114  1.6724
 7027SOL     OW32542   0.538   1.572   6.123 -0.5100  0.0781  0.3316
 7027SOL    HW132543   0.504   1.483   6.119  2.0120 -0.9171  0.6992
 7027SOL    HW232544   0.464   1.633   6.121 -0.4003  0.2470  1.4314
 7028SOL     OW32545   0.528   2.560   4.490  0.3135 -0.1220 -0.6315
 7028SOL    HW132546   0.470   2.527   4.559  0.0443  0.4981 -0.5617
 7028SOL    HW232547   0.578   2.479   4.482 -1.7775 -1.4585 -0.0521
 7029SOL     OW32548   3.290   4.270   2.317 -0.4309 -0.0688  0.3489
 7029SOL    HW132549   3.360   4.206   2.327 -0.8825 -0.7144 -0.6145
 7029SOL    HW232550   3.239   4.231   2.388  0.0932  1.8644  1.7734
 7030SOL     OW32551   1.744   4.168  17.510 -0.0772 -0.2804  0.2832
 7030SOL    HW132552   1.690   4.179  17.433  1.5152  2.2103 -0.4937
 7030SOL    HW232553   1.704   4.232  17.569 -0.6129  0.8867 -1.3653
 7031SOL     OW32554   2.515   3.472   1.546 -0.0606 -0.2574  0.2038
 7031SOL    HW132555   2.489   3.427   1.627 -0.3964  1.8744  1.2704
 7031SOL    HW232556   2.436   3.526   1.538 -0.5149 -1.1702 -1.4272
 7032SOL     OW32557   1.837   4.050   1.010 -1.1477  0.1756  0.3306
 7032SOL    HW132558   1.924   4.048   1.051 -0.4351  0.4589 -1.1552
 7032SOL    HW232559   1.868   4.066   0.920  0.9711  0.3087  1.0841
 7033SOL     OW32560   0.963   3.436   1.365 -0.1546 -0.2516  0.0083
 7033SOL    HW132561   0.986   3.477   1.282 -0.3580  1.9679  1.0566
 7033SOL    HW232562   0.882   3.485   1.382  0.5874  0.7389  0.6486
 7034SOL     OW32563   4.114   1.334  17.670  0.2191  0.0457 -0.2075
 7034SOL    HW132564   4.169   1.390  17.615  2.1052 -1.9887 -0.3800
 7034SOL    HW232565   4.148   1.247  17.652 -0.1212  0.3387 -2.2745
 7035SOL     OW32566   0.685   0.451   4.847  0.0458  0.2891  0.4020
 7035SOL    HW132567   0.664   0.413   4.932 -1.6967 -0.8749 -0.5501
 7035SOL    HW232568   0.724   0.374   4.805 -2.5218 -0.4030 -0.6674
 7036SOL     OW32569   3.812   0.307  12.491  0.0052 -0.1579 -0.0697
 7036SOL    HW132570   3.894   0.280  12.451 -0.3266 -1.3002  0.0323
 7036SOL    HW232571   3.765   0.224  12.497  1.1555 -0.6114  2.4061
 7037SOL     OW32572   1.543   1.990   0.899 -0.2207  0.2453 -0.5036
 7037SOL    HW132573   1.520   2.075   0.860 -0.8464 -0.5107 -1.7731
 7037SOL    HW232574   1.505   1.935   0.831 -0.3451 -0.6444  0.2793
 7038SOL     OW32575   3.127   1.176   9.318 -0.4474  0.3493  0.1448
 7038SOL    HW132576   3.081   1.115   9.259 -1.4275  0.9765  0.2682
 7038SOL    HW232577   3.188   1.117   9.362  0.0112  0.9684  0.3292
 7039SOL     OW32578   1.167   1.144   8.125  0.3205  0.2401  0.4390
 7039SOL    HW132579   1.117   1.139   8.206 -0.8368  0.0869 -0.2755
 7039SOL    HW232580   1.154   1.238   8.111 -0.4447 -0.1214 -1.3061
 7040SOL     OW32581   2.957   4.202   8.345  0.7534 -0.3211  0.6806
 7040SOL    HW132582   3.013   4.205   8.423  0.3718  2.5408  0.8589
 7040SOL    HW232583   3.015   4.175   8.274  2.2965  1.2758  1.3128
 7041SOL     OW32584   2.667   3.482   6.437 -0.9978  0.1356  0.1453
 7041SOL    HW132585   2.613   3.560   6.449  2.2192  2.5598 -1.0252
 7041SOL    HW232586   2.602   3.413   6.452 -0.7453  0.0992  1.0781
 7042SOL     OW32587   0.854   0.643   2.827  0.7277  1.0689 -0.5426
 7042SOL    HW132588   0.868   0.661   2.920  0.1085 -1.3332  0.0044
 7042SOL    HW232589   0.764   0.609   2.824  0.9491  0.5958 -1.9099
 7043SOL     OW32590   3.474   0.325   5.486 -0.1015 -0.0612  0.3437
 7043SOL    HW132591   3.390   0.305   5.445 -1.6577  1.9558  2.5563
 7043SOL    HW232592   3.534   0.332   5.411  0.0984 -2.3572  0.2879
 7044SOL     OW32593   1.255   3.807   1.049  0.0575  0.7199 -0.4319
 7044SOL    HW132594   1.268   3.751   1.126 -1.2332  0.5944 -0.3064
 7044SOL    HW232595   1.172   3.850   1.069 -0.3579  0.5637 -1.8141
 7045SOL     OW32596   0.694   0.169  11.512 -0.3626 -0.6686 -0.0307
 7045SOL    HW132597   0.648   0.163  11.596  1.1890  0.2775  0.8979
 7045SOL    HW232598   0.770   0.111  11.518  1.5705  1.8149 -0.6728
 7046SOL     OW32599   4.481   1.201  17.506 -0.3186 -0.6927 -0.2654
 7046SOL    HW132600   4.492   1.151  17.426  1.9853 -0.7359  0.0837
 7046SOL    HW232601   4.568   1.237  17.519 -0.8439  0.4658  0.0733
 7047SOL     OW32602   1.539   0.027   7.491 -0.3951  0.3443 -0.4344
 7047SOL    HW132603   1.572   4.667   7.524 -1.7982  0.4559  1.1920
 7047SOL    HW232604   1.593   0.084   7.545 -1.2938  0.0459  0.7707
 7048SOL     OW32605   2.981   3.249   0.777 -0.2243  0.1040 -0.1110
 7048SOL    HW132606   3.074   3.268   0.770  0.0489 -1.3230 -0.4148
 7048SOL    HW232607   2.948   3.292   0.856  1.2478 -1.1848  1.2056
 7049SOL     OW32608   3.666   0.882  17.670  0.0098  0.0261 -0.1153
 7049SOL    HW132609   3.713   0.903  17.589 -0.9457 -0.1562 -0.7084
 7049SOL    HW232610   3.686   0.789  17.678 -1.0835 -0.1426  0.6012
 7050SOL     OW32611   2.924   3.005   8.959 -0.3839  0.0886  0.3980
 7050SOL    HW132612   2.885   2.941   9.019  1.6630  0.6592  2.3472
 7050SOL    HW232613   2.856   3.015   8.893  0.6437 -1.3482 -0.8486
 7051SOL     OW32614   0.644   4.338   4.262 -0.2979  0.6188 -0.3076
 7051SOL    HW132615   0.585   4.266   4.285 -1.1509  1.2632 -0.4829
 7051SOL    HW232616   0.653   4.328   4.168  0.4138 -0.5859 -0.1077
 7052SOL     OW32617   0.234   3.448   2.345  0.2943  0.2986 -0.1573
 7052SOL    HW132618   0.283   3.530   2.345  0.2337  0.3361  1.1051
 7052SOL    HW232619   0.146   3.466   2.378  0.6047  0.2081  0.7222
 7053SOL     OW32620   3.397   0.737  15.436 -0.0915 -0.0570 -0.3387
 7053SOL    HW132621   3.373   0.646  15.416  0.8660 -0.1653 -1.0115
 7053SOL    HW232622   3.463   0.747  15.368  0.4998 -0.7458  0.1296
 7054SOL     OW32623   0.920   1.779  12.329  0.1683 -0.2332 -0.0032
 7054SOL    HW132624   0.888   1.697  12.367 -1.3487 -0.2616 -1.3557
 7054SOL    HW232625   0.881   1.851  12.378 -0.9606 -1.5154  0.9815
 7055SOL     OW32626   1.244   2.774   8.310  0.3467  0.0638 -0.5318
 7055SOL    HW132627   1.177   2.841   8.305 -2.5203 -2.7190  0.4843
 7055SOL    HW232628   1.203   2.727   8.382  0.6090  3.1461  1.6212
 7056SOL     OW32629   1.904   0.900   5.823  0.5981 -0.1108 -0.2283
 7056SOL    HW132630   1.890   0.878   5.731 -1.0585 -0.4002  0.1009
 7056SOL    HW232631   1.840   0.849   5.872  0.9991 -1.6441 -1.3177
 7057SOL     OW32632   1.862   2.894   5.880  0.2758 -0.3692 -0.4360
 7057SOL    HW132633   1.893   2.839   5.951  2.3331  0.5553 -0.6283
 7057SOL    HW232634   1.780   2.934   5.908 -0.5319 -2.6453  0.4143
 7058SOL     OW32635   2.739   0.712   4.794 -0.1870 -0.1338  0.0154
 7058SOL    HW132636   2.773   0.799   4.812 -0.7761 -0.1212  1.0463
 7058SOL    HW232637   2.671   0.707   4.861  0.0296  0.2017  0.2529
 7059SOL     OW32638   0.318   2.322   6.336  0.4687  0.4700 -0.4367
 7059SOL    HW132639   0.232   2.279   6.333  1.8175 -2.3616  1.5487
 7059SOL    HW232640   0.352   2.298   6.250  0.5183 -2.6390  0.4385
 7060SOL     OW32641   2.577   3.016  11.954  0.0489 -0.2981 -0.0206
 7060SOL    HW132642   2.492   3.036  11.915  0.7433 -1.1352 -2.0088
 7060SOL    HW232643   2.560   3.023  12.047  1.0157  1.5828  0.0263
 7061SOL     OW32644   0.622   4.235   2.158 -0.1537  0.0763 -0.1117
 7061SOL    HW132645   0.565   4.182   2.102  1.0526 -1.7046  0.3364
 7061SOL    HW232646   0.567   4.299   2.204 -0.1990 -0.1081  0.0934
 7062SOL     OW32647   4.229   1.113  10.708  0.1690 -0.0175 -0.3609
 7062SOL    HW132648   4.232   1.046  10.776  0.1846 -1.8747 -2.1987
 7062SOL    HW232649   4.209   1.191  10.760 -2.3562 -0.2062 -1.0440
 7063SOL     OW32650   3.235   0.134   6.690  0.2876  0.3024 -0.2324
 7063SOL    HW132651   3.183   0.166   6.764  0.3778  1.7779 -0.8126
 7063SOL    HW232652   3.251   0.216   6.644 -0.5298  0.8398  0.4355
 7064SOL     OW32653   4.355   1.372   4.815  0.0451  0.1709  0.4692
 7064SOL    HW132654   4.265   1.343   4.829  0.1388 -1.3013 -2.0013
 7064SOL    HW232655   4.401   1.294   4.848 -0.6846  0.6189  2.5476
 7065SOL     OW32656   0.449   3.221   2.035  0.3280  0.0222 -0.1364
 7065SOL    HW132657   0.433   3.305   1.991  5.0406  2.0539  1.9840
 7065SOL    HW232658   0.542   3.201   2.029 -0.0914 -1.5913 -1.2327
 7066SOL     OW32659   0.721   4.038   4.550  0.1783  0.3079  0.6442
 7066SOL    HW132660   0.651   4.047   4.614 -0.5249  0.4278 -0.1429
 7066SOL    HW232661   0.788   3.992   4.600 -0.6662 -0.9752  0.6064
 7067SOL     OW32662   0.489   3.085   8.319  0.4435  0.2289  0.3381
 7067SOL    HW132663   0.449   3.169   8.294 -2.5420 -1.3792 -0.3023
 7067SOL    HW232664   0.417   3.023   8.308  0.8249 -0.0994 -0.2745
 7068SOL     OW32665   3.339   3.014   1.210 -0.8356 -0.6559 -0.5914
 7068SOL    HW132666   3.284   3.090   1.229  0.2999  0.2625 -1.0017
 7068SOL    HW232667   3.385   3.007   1.294  0.6907  0.5863 -1.3370
 7069SOL     OW32668   4.257   2.023  15.573 -0.5552  0.0292 -0.5783
 7069SOL    HW132669   4.214   2.065  15.648 -0.5439  1.2015 -1.2239
 7069SOL    HW232670   4.332   1.984  15.617 -0.6438  1.1921  0.6081
 7070SOL     OW32671   0.350   4.442   7.303  0.1777  0.6159  0.1316
 7070SOL    HW132672   0.412   4.390   7.354 -0.5570  1.1533  1.5789
 7070SOL    HW232673   0.280   4.453   7.368  0.5809  1.1080  0.4839
 7071SOL     OW32674   0.403   4.025   5.224  0.2780  0.0277 -0.5500
 7071SOL    HW132675   0.385   4.037   5.317 -2.2687  0.6697 -1.1398
 7071SOL    HW232676   0.435   4.112   5.201  0.3660 -0.0156 -0.5946
 7072SOL     OW32677   4.076   3.808   5.186 -0.0897  0.2369 -0.4135
 7072SOL    HW132678   4.035   3.762   5.259  3.6889 -0.6196  1.1619
 7072SOL    HW232679   4.012   3.801   5.115 -2.0889  1.9163  1.2038
 7073SOL     OW32680   2.472   4.250  15.987  0.4546 -0.4269 -0.6871
 7073SOL    HW132681   2.461   4.284  16.076  1.1847  2.0752 -1.5425
 7073SOL    HW232682   2.479   4.336  15.944  0.7412  0.1410  0.4943
 7074SOL     OW32683   2.337   0.826   7.423 -0.2153 -0.0202  0.0606
 7074SOL    HW132684   2.255   0.780   7.403  1.4337 -2.1917 -1.6783
 7074SOL    HW232685   2.374   0.763   7.484  1.1547 -0.7081 -1.4872
 7075SOL     OW32686   1.265   4.501   2.670  0.2031  0.0123  0.0745
 7075SOL    HW132687   1.181   4.459   2.691 -0.7566  2.4947  1.2095
 7075SOL    HW232688   1.320   4.433   2.708  1.2090  0.4552 -0.5765
 7076SOL     OW32689   3.785   4.402   5.475  0.4790  0.4521 -0.0295
 7076SOL    HW132690   3.792   4.336   5.406  2.0718  1.1220 -0.5160
 7076SOL    HW232691   3.710   4.364   5.520  0.3377 -1.1132 -1.5813
 7077SOL     OW32692   3.110   3.778   5.115  0.1904  0.5460  0.2574
 7077SOL    HW132693   3.066   3.805   5.196 -0.4833  0.7492 -0.1738
 7077SOL    HW232694   3.069   3.695   5.091  1.2961 -0.0333  0.3759
 7078SOL     OW32695   0.029   1.484   6.962  0.1727 -0.6215  0.2689
 7078SOL    HW132696   4.715   1.569   6.985 -0.7821 -0.4518 -1.9651
 7078SOL    HW232697   4.697   1.466   6.886  1.7204 -0.0242 -1.0040
 7079SOL     OW32698   3.274   4.519   7.849 -0.9780  0.4962  0.0634
 7079SOL    HW132699   3.231   4.561   7.923 -0.0044 -1.9005  1.9888
 7079SOL    HW232700   3.306   4.444   7.899 -0.3208  0.8235  0.1321
 7080SOL     OW32701   1.158   2.406   7.830  0.0669  0.3497 -0.3687
 7080SOL    HW132702   1.093   2.392   7.762  0.4113  1.0415 -0.8310
 7080SOL    HW232703   1.203   2.321   7.835  0.3822  0.6070  1.1783
 7081SOL     OW32704   3.720   0.788   3.285 -0.0203 -0.0999  0.3236
 7081SOL    HW132705   3.639   0.838   3.274  1.5806  2.2208 -0.9397
 7081SOL    HW232706   3.764   0.790   3.200  0.4360 -0.2324  0.5567
 7082SOL     OW32707   0.103   1.261   1.588 -0.1248 -0.2398 -0.1248
 7082SOL    HW132708   0.135   1.207   1.661  1.0893 -0.6309 -0.9361
 7082SOL    HW232709   0.180   1.310   1.560 -0.4951  0.4697  0.0935
 7083SOL     OW32710   4.401   1.120  11.606 -0.0748 -0.1704  0.3298
 7083SOL    HW132711   4.400   1.029  11.636 -0.4566 -0.9008 -1.8658
 7083SOL    HW232712   4.464   1.160  11.665  0.1388  1.9435 -1.3301
 7084SOL     OW32713   0.074   2.153  17.279  0.2977  0.2584 -0.6908
 7084SOL    HW132714   0.153   2.203  17.259 -0.4493  1.6109 -0.2119
 7084SOL    HW232715   0.049   2.185  17.366  3.2488 -1.2759  0.7419
 7085SOL     OW32716   0.098   0.763   6.337  0.0160  0.0673  0.3761
 7085SOL    HW132717   0.134   0.690   6.386 -0.4264  0.0561  0.6873
 7085SOL    HW232718   0.090   0.838   6.396 -1.7324  0.0369  0.1912
 7086SOL     OW32719   1.925   4.369  14.927 -0.1398 -0.3821 -0.0997
 7086SOL    HW132720   2.012   4.330  14.929 -0.3769 -1.1536 -3.6453
 7086SOL    HW232721   1.939   4.463  14.916  1.4817 -0.7215 -0.9917
 7087SOL     OW32722   3.516   3.126  15.189  0.4976  0.0224 -0.2695
 7087SOL    HW132723   3.460   3.075  15.131  0.3795  2.3221 -2.1676
 7087SOL    HW232724   3.531   3.206  15.138  3.4772  0.1102  0.7257
 7088SOL     OW32725   3.640   2.552   2.851  0.2397  0.1845 -0.0620
 7088SOL    HW132726   3.571   2.585   2.794 -2.4362 -3.5342  0.9643
 7088SOL    HW232727   3.596   2.556   2.936 -0.2291  0.3663 -0.3150
 7089SOL     OW32728   0.345   3.361   5.272 -0.3838 -0.4599  0.2334
 7089SOL    HW132729   0.277   3.370   5.205 -0.8072 -0.8158  0.6184
 7089SOL    HW232730   0.303   3.388   5.354  0.0030  2.9501 -0.6696
 7090SOL     OW32731   0.106   3.162  17.063  0.3668 -0.1391  0.1306
 7090SOL    HW132732   0.034   3.103  17.085  1.2340 -1.8880 -1.7964
 7090SOL    HW232733   0.065   3.189  16.980  0.5767 -1.6034 -0.4487
 7091SOL     OW32734   3.227   2.642   7.357  0.6410 -0.6061 -0.3514
 7091SOL    HW132735   3.236   2.733   7.385 -0.8545 -0.5567 -0.0313
 7091SOL    HW232736   3.317   2.611   7.369  1.8395  4.3419  3.4649
 7092SOL     OW32737   0.059   4.137  10.162 -0.5107  0.5419 -0.4213
 7092SOL    HW132738   4.708   4.170  10.211  0.6190  0.5087  1.3402
 7092SOL    HW232739   0.031   4.047  10.151 -1.4360  0.6738  0.9025
 7093SOL     OW32740   1.745   3.700   5.339 -0.9360 -0.4302 -0.2417
 7093SOL    HW132741   1.829   3.730   5.373 -0.2875 -0.4332 -1.8514
 7093SOL    HW232742   1.703   3.660   5.415 -0.3676 -0.8279 -0.1397
 7094SOL     OW32743   1.428   2.368   5.860 -0.1175 -0.0651  0.1545
 7094SOL    HW132744   1.404   2.439   5.800 -1.9360 -2.1992 -1.6574
 7094SOL    HW232745   1.350   2.373   5.915 -0.9047  3.6994 -1.2756
 7095SOL     OW32746   2.636   3.168   0.672 -0.4992  0.3086 -0.3691
 7095SOL    HW132747   2.580   3.108   0.623 -0.3728 -0.3188  0.2431
 7095SOL    HW232748   2.616   3.248   0.624  2.2416  0.0093 -2.0293
 7096SOL     OW32749   0.694   3.485   4.648 -0.1831  0.2841 -0.0087
 7096SOL    HW132750   0.760   3.522   4.589  0.4194 -1.3155 -0.3556
 7096SOL    HW232751   0.650   3.567   4.668 -0.2439  1.2881 -4.2191
 7097SOL     OW32752   3.175   2.582   8.394 -0.8032 -0.0284 -0.2466
 7097SOL    HW132753   3.176   2.523   8.470 -3.3974 -1.4374 -1.3384
 7097SOL    HW232754   3.133   2.659   8.432 -1.5660  0.6341 -2.4759
 7098SOL     OW32755   3.830   3.772   8.239 -0.6056  0.3140 -0.4691
 7098SOL    HW132756   3.820   3.721   8.159 -3.1739 -0.2718  0.2265
 7098SOL    HW232757   3.866   3.709   8.302 -1.0955  1.3313  0.8344
 7099SOL     OW32758   1.854   4.048   5.192  0.1086  0.2862  0.0082
 7099SOL    HW132759   1.865   4.136   5.154  0.4997  0.0301 -0.4769
 7099SOL    HW232760   1.939   4.027   5.232  0.5026  0.7882 -0.5472
 7100SOL     OW32761   2.271   0.183   2.428  0.2649  0.3037  0.5941
 7100SOL    HW132762   2.235   0.150   2.346  1.1139  0.2784  0.2370
 7100SOL    HW232763   2.193   0.189   2.483  0.2597  0.4201  0.5729
 7101SOL     OW32764   2.603   2.926  14.276 -0.6687  0.1495  0.2092
 7101SOL    HW132765   2.607   3.016  14.245 -0.9396  0.0780 -0.0245
 7101SOL    HW232766   2.693   2.901  14.300  0.2636  1.5803 -1.8293
 7102SOL     OW32767   1.930   3.105   7.483 -0.4415 -0.2797  0.0348
 7102SOL    HW132768   1.892   3.156   7.555  0.1072 -0.6720  0.6064
 7102SOL    HW232769   1.926   3.163   7.408  0.7203  0.2375  0.3809
 7103SOL     OW32770   0.112   0.531   8.716 -0.1800  0.0860  0.3333
 7103SOL    HW132771   0.171   0.580   8.774  0.6202  0.0025 -0.4004
 7103SOL    HW232772   0.040   0.590   8.735 -0.5795 -0.0316 -0.8608
 7104SOL     OW32773   3.745   0.458  11.062 -0.3162  0.5205  0.1763
 7104SOL    HW132774   3.754   0.511  11.141 -1.3347  1.3457 -0.2683
 7104SOL    HW232775   3.680   0.399  11.099  0.9220 -0.9117  0.0703
 7105SOL     OW32776   1.104   1.310  16.271 -0.2774  0.3563  0.0376
 7105SOL    HW132777   1.057   1.331  16.351 -0.8086 -0.9701  0.0701
 7105SOL    HW232778   1.160   1.235  16.294  0.8636  0.8602 -1.0445
 7106SOL     OW32779   1.933   1.522  16.097 -0.9105  0.3430  0.4179
 7106SOL    HW132780   1.866   1.549  16.160 -0.7945  2.5739 -0.4353
 7106SOL    HW232781   1.879   1.464  16.043  1.0189  1.5335 -2.7570
 7107SOL     OW32782   1.762   4.297   2.778  0.0388  0.0243 -0.0250
 7107SOL    HW132783   1.791   4.377   2.820 -1.4212  0.1879  0.6630
 7107SOL    HW232784   1.821   4.298   2.702 -0.5070  0.9989 -0.4363
 7108SOL     OW32785   3.058   4.600   9.780 -0.2630 -0.3559  0.6167
 7108SOL    HW132786   2.992   4.590   9.711  1.5195 -0.2761 -1.0970
 7108SOL    HW232787   2.995   4.618   9.850 -1.9580 -1.1121 -0.7038
 7109SOL     OW32788   1.581   2.061  12.419 -0.3294  0.5130  0.4830
 7109SOL    HW132789   1.550   1.990  12.362 -1.0358  0.5367  0.8378
 7109SOL    HW232790   1.600   2.001  12.492 -1.0190  0.7371  0.8466
 7110SOL     OW32791   3.709   0.792   8.178  0.1114 -0.3023 -0.0679
 7110SOL    HW132792   3.743   0.868   8.130  0.2161 -0.0713  0.3739
 7110SOL    HW232793   3.656   0.831   8.247  0.8237 -0.2686  0.4625
 7111SOL     OW32794   2.672   1.817   7.178  0.6383  0.5965 -0.0601
 7111SOL    HW132795   2.675   1.910   7.203 -1.9265 -0.0583  2.6499
 7111SOL    HW232796   2.663   1.768   7.259  1.5851  1.2432  0.4377
 7112SOL     OW32797   2.396   0.600   3.091  0.1288 -0.2570  0.3065
 7112SOL    HW132798   2.477   0.617   3.044 -1.0017 -0.7963 -1.8223
 7112SOL    HW232799   2.424   0.529   3.149 -2.1026 -1.7664 -0.4457
 7113SOL     OW32800   1.857   1.065   5.574  0.3194 -0.1524 -0.1517
 7113SOL    HW132801   1.952   1.054   5.585  0.1317  0.4591  2.0287
 7113SOL    HW232802   1.866   1.142   5.517 -0.9211  0.4239  0.4326
 7114SOL     OW32803   0.034   1.088   2.205  0.1825 -0.6499  0.4512
 7114SOL    HW132804   0.006   1.179   2.209 -1.7064 -1.0903 -2.3964
 7114SOL    HW232805   4.694   1.041   2.259 -2.0857  2.6471  0.6132
 7115SOL     OW32806   3.200   0.523   1.052 -0.1905  0.5464  0.1745
 7115SOL    HW132807   3.154   0.576   0.987  1.0677  0.2460 -0.9585
 7115SOL    HW232808   3.289   0.529   1.018 -1.0463  0.2069 -2.1161
 7116SOL     OW32809   3.545   0.772   9.438 -0.1734 -0.1172 -0.5262
 7116SOL    HW132810   3.573   0.703   9.377  0.4207  0.2240 -0.6329
 7116SOL    HW232811   3.504   0.717   9.505  1.5502 -1.4547 -0.5846
 7117SOL     OW32812   3.490   3.328   3.350  0.0166  0.0292 -0.1016
 7117SOL    HW132813   3.555   3.265   3.381 -0.1927  0.3568  1.0040
 7117SOL    HW232814   3.502   3.328   3.255  1.8486 -0.7220  0.1327
 7118SOL     OW32815   3.352   1.644   8.870  0.0552  0.2057 -0.1495
 7118SOL    HW132816   3.352   1.738   8.853 -2.9078  0.6407  2.1832
 7118SOL    HW232817   3.261   1.614   8.877  1.0534 -2.9221 -0.6220
 7119SOL     OW32818   0.886   1.775   3.562  0.7569  0.0137  0.8020
 7119SOL    HW132819   0.956   1.841   3.568  1.4840 -0.7139  0.3764
 7119SOL    HW232820   0.877   1.751   3.654  0.9096 -2.1601  0.2383
 7120SOL     OW32821   4.285   4.243   1.632  0.0269 -0.4869 -0.3254
 7120SOL    HW132822   4.304   4.159   1.590 -0.4750 -1.7500  1.9569
 7120SOL    HW232823   4.375   4.276   1.638 -0.6619  1.5710 -1.7659
 7121SOL     OW32824   4.340   2.556   3.495  0.2117 -0.1504 -0.1613
 7121SOL    HW132825   4.319   2.463   3.484  0.8681 -0.4004  0.6821
 7121SOL    HW232826   4.432   2.556   3.466  0.2734  1.1062  0.0156
 7122SOL     OW32827   2.888   3.375   1.004 -0.2207  0.1398 -0.4136
 7122SOL    HW132828   2.893   3.455   1.057 -2.8324  0.1078 -0.1309
 7122SOL    HW232829   2.796   3.353   0.992 -0.1551 -0.1998 -0.2910
 7123SOL     OW32830   4.351   1.934   8.035  0.2860 -0.6598  0.1098
 7123SOL    HW132831   4.332   1.859   7.977 -0.2589 -0.2257 -0.2710
 7123SOL    HW232832   4.343   1.887   8.118 -1.5708  0.4520  0.5623
 7124SOL     OW32833   1.003   3.349   4.544  0.1473  0.3310  0.0531
 7124SOL    HW132834   1.028   3.352   4.452 -2.0641 -0.0621 -0.5528
 7124SOL    HW232835   0.961   3.434   4.558 -0.3810  0.1053 -0.1920
 7125SOL     OW32836   2.643   0.259   5.380 -0.4046 -0.3321  0.0052
 7125SOL    HW132837   2.661   0.291   5.468 -0.6254  0.5680 -0.2808
 7125SOL    HW232838   2.620   0.340   5.335 -1.1348  0.1093  1.1734
 7126SOL     OW32839   0.721   3.752   1.664  0.1376 -0.5492  0.3152
 7126SOL    HW132840   0.751   3.800   1.586  0.7187 -1.8295 -0.2517
 7126SOL    HW232841   0.646   3.704   1.629  1.2645 -0.4671 -2.2392
 7127SOL     OW32842   4.249   4.203   6.021  0.1985 -0.5554  0.1801
 7127SOL    HW132843   4.235   4.208   6.115  1.7135 -4.1148  0.5963
 7127SOL    HW232844   4.309   4.128   6.015  0.3316 -0.4453  0.1326
 7128SOL     OW32845   0.133   1.846   4.646  0.0340 -0.4126  0.3178
 7128SOL    HW132846   0.066   1.788   4.682 -0.5038 -0.9385 -1.5511
 7128SOL    HW232847   0.085   1.903   4.586  0.8255  0.2411  0.3141
 7129SOL     OW32848   0.760   3.259  17.672  0.0170  0.5363  0.4458
 7129SOL    HW132849   0.776   3.326   0.041 -0.6757  2.3284 -1.1931
 7129SOL    HW232850   0.666   3.269  17.656 -0.3546 -2.0943  1.0091
 7130SOL     OW32851   4.519   0.299   7.527  0.3420  0.7623 -0.4777
 7130SOL    HW132852   4.461   0.270   7.598  0.6540  0.9671 -0.1448
 7130SOL    HW232853   4.515   0.228   7.463 -0.2844 -1.1890  1.7277
 7131SOL     OW32854   1.078   3.267   1.122  0.1781  0.3358  0.1348
 7131SOL    HW132855   1.049   3.355   1.146  1.2745 -0.1375  3.2667
 7131SOL    HW232856   1.083   3.279   1.027 -2.5617  1.6148  0.1447
 7132SOL     OW32857   4.531   3.469  16.736  0.6255 -0.2706 -0.0035
 7132SOL    HW132858   4.564   3.542  16.788  0.5059  0.1981 -0.5768
 7132SOL    HW232859   4.436   3.480  16.738  0.5724 -0.4282 -1.7971
 7133SOL     OW32860   2.690   4.671  16.987  0.2774  0.3210  0.5764
 7133SOL    HW132861   2.758   4.619  16.945  0.8129  0.4654  1.2555
 7133SOL    HW232862   2.725   0.037  16.991 -0.1040  0.4961  0.0329
 7134SOL     OW32863   3.886   1.274   9.726 -0.6901 -0.2135 -0.5963
 7134SOL    HW132864   3.914   1.336   9.660  0.3017  0.1013  0.1236
 7134SOL    HW232865   3.834   1.330   9.784 -0.0441 -0.2256 -0.0055
 7135SOL     OW32866   4.382   0.886  13.951  0.1597 -0.4028 -0.2240
 7135SOL    HW132867   4.346   0.800  13.932 -0.1844 -0.3002 -0.0289
 7135SOL    HW232868   4.452   0.873  14.016 -0.2727  0.8139  0.4895
 7136SOL     OW32869   2.549   4.008   3.112 -0.0389  0.3482 -0.3997
 7136SOL    HW132870   2.555   4.082   3.172 -0.3906  0.2875 -0.2878
 7136SOL    HW232871   2.465   4.033   3.072  0.0962 -0.4566 -1.1864
 7137SOL     OW32872   3.444   0.480   5.716 -0.4940  0.3715 -0.3457
 7137SOL    HW132873   3.448   0.416   5.787  2.1695  0.8479 -0.0493
 7137SOL    HW232874   3.444   0.425   5.638 -1.9687  0.2971 -0.2975
 7138SOL     OW32875   0.831   1.448  16.158  0.5051 -0.2845  0.3253
 7138SOL    HW132876   0.888   1.478  16.087  0.7986  2.1336  1.5660
 7138SOL    HW232877   0.891   1.388  16.201  0.8612 -0.3616 -0.2772
 7139SOL     OW32878   1.229   3.165  15.521  0.3373  0.0050  0.6822
 7139SOL    HW132879   1.201   3.096  15.581  1.6202 -2.1394 -1.2094
 7139SOL    HW232880   1.148   3.217  15.522 -0.4072 -1.1507  0.8986
 7140SOL     OW32881   4.460   3.579   2.899 -0.4069  0.3124  0.7160
 7140SOL    HW132882   4.539   3.596   2.847 -0.8769  2.3937  0.6978
 7140SOL    HW232883   4.476   3.643   2.968 -0.8112  0.7277  0.4228
 7141SOL     OW32884   3.527   0.043   3.010 -0.3633  0.3363 -0.1230
 7141SOL    HW132885   3.432   0.046   3.021 -0.2705  0.0267  0.7142
 7141SOL    HW232886   3.545   4.690   2.956  1.2295  2.5118 -2.6954
 7142SOL     OW32887   2.149   2.816   9.265  0.5022 -0.3453  0.4494
 7142SOL    HW132888   2.162   2.903   9.302 -1.4317 -0.8175  2.2159
 7142SOL    HW232889   2.090   2.841   9.194  2.8064  1.5377 -0.7869
 7143SOL     OW32890   1.959   3.201   7.826  0.4171  0.2115  1.0168
 7143SOL    HW132891   1.998   3.178   7.910  1.4558 -0.3759  0.3678
 7143SOL    HW232892   1.973   3.296   7.822  0.0572  0.3064  1.9346
 7144SOL     OW32893   2.331   3.526   4.924 -0.1309  0.2717  0.2018
 7144SOL    HW132894   2.338   3.456   4.859  1.1494 -0.5954  1.2680
 7144SOL    HW232895   2.266   3.491   4.986 -1.1586 -1.1363 -1.6572
 7145SOL     OW32896   1.860   3.139   0.038 -0.0334  0.0875  0.1851
 7145SOL    HW132897   1.808   3.174   0.110  0.4060 -1.4719  1.2515
 7145SOL    HW232898   1.946   3.160   0.073 -0.7960 -2.1475  3.3357
 7146SOL     OW32899   3.677   2.374   2.498  0.0901  0.6977  0.8306
 7146SOL    HW132900   3.583   2.355   2.499  0.3735 -0.6499  1.7130
 7146SOL    HW232901   3.693   2.387   2.405 -1.6695  3.0253  0.8527
 7147SOL     OW32902   0.687   2.526   0.031 -0.5517 -1.0086 -0.0409
 7147SOL    HW132903   0.680   2.622   0.026  1.3538 -0.8180  0.5981
 7147SOL    HW232904   0.745   2.515  17.653  1.4747  1.4381  1.1374
 7148SOL     OW32905   3.223   2.318   8.138 -0.4620 -0.1962 -0.3429
 7148SOL    HW132906   3.218   2.277   8.051  0.4569 -0.0223 -0.4810
 7148SOL    HW232907   3.175   2.249   8.182  0.2595 -0.1978  0.4460
 7149SOL     OW32908   3.718   3.123  12.211  0.0078  0.0001 -0.1359
 7149SOL    HW132909   3.664   3.046  12.196  1.0528 -0.2453 -2.4869
 7149SOL    HW232910   3.716   3.111  12.306 -0.6666 -2.4194 -0.4632
 7150SOL     OW32911   1.915   4.534   4.967  0.4835  0.1870 -0.3302
 7150SOL    HW132912   1.878   4.476   5.034  1.8294  0.3146  0.5226
 7150SOL    HW232913   1.961   4.469   4.913 -2.1141 -2.3516  0.4716
 7151SOL     OW32914   2.913   3.873   4.097 -0.0233 -0.4334 -0.1064
 7151SOL    HW132915   2.978   3.805   4.083  1.8779  1.0939  1.2603
 7151SOL    HW232916   2.838   3.845   4.044  0.2383 -2.5083  0.6406
 7152SOL     OW32917   0.761   1.269   3.977  0.0787  0.0448  0.2838
 7152SOL    HW132918   0.709   1.326   3.922 -0.4548 -0.3247  0.4092
 7152SOL    HW232919   0.785   1.197   3.918  1.6964  0.3153  0.5991
 7153SOL     OW32920   1.974   1.262   3.683 -0.3641  0.1660 -0.3265
 7153SOL    HW132921   2.066   1.262   3.657 -0.2658  1.5802 -0.0025
 7153SOL    HW232922   1.973   1.300   3.771  2.5022  1.1351 -0.7074
 7154SOL     OW32923   3.336   3.154   5.049 -0.3937  0.5180 -0.1371
 7154SOL    HW132924   3.420   3.120   5.081 -0.9321  0.1383  0.8796
 7154SOL    HW232925   3.335   3.244   5.081 -0.3123  0.5320 -0.1724
 7155SOL     OW32926   2.298   0.263   3.657 -0.4404  0.4503 -0.1437
 7155SOL    HW132927   2.274   0.330   3.720 -1.6394 -1.3670  1.3346
 7155SOL    HW232928   2.287   0.188   3.715  1.0599  0.4854  0.1754
 7156SOL     OW32929   3.432   2.227   3.009  0.2489  0.3775 -0.3105
 7156SOL    HW132930   3.381   2.215   2.929 -0.1180  2.2434 -0.3743
 7156SOL    HW232931   3.386   2.165   3.065 -1.5378  0.9126 -1.1973
 7157SOL     OW32932   2.524   1.063  16.483  0.5265  0.0903  0.2653
 7157SOL    HW132933   2.609   1.106  16.490  0.4882  0.4495 -1.7061
 7157SOL    HW232934   2.476   1.103  16.555  1.0664 -1.2095  1.3495
 7158SOL     OW32935   0.751   3.298   7.758  0.1081  0.6553  0.1235
 7158SOL    HW132936   0.786   3.259   7.678  1.4444  1.6958  0.2167
 7158SOL    HW232937   0.797   3.381   7.765 -1.4167  1.4428  0.8352
 7159SOL     OW32938   4.347   1.682   2.908  0.3886 -0.5115  0.2364
 7159SOL    HW132939   4.253   1.669   2.894  0.1983  0.0180  1.0372
 7159SOL    HW232940   4.375   1.596   2.940 -0.2072 -1.3084 -1.3563
 7160SOL     OW32941   4.443   3.123   4.800 -0.2409 -0.5211 -0.5667
 7160SOL    HW132942   4.408   3.124   4.889 -1.5720  0.6764 -1.1133
 7160SOL    HW232943   4.376   3.076   4.749  0.0357 -1.8569  0.2889
 7161SOL     OW32944   3.463   1.827   7.158  0.1658  0.2780  0.3949
 7161SOL    HW132945   3.533   1.764   7.175  0.4852 -0.7254 -4.6020
 7161SOL    HW232946   3.506   1.881   7.091 -0.6788 -0.5160 -0.7847
 7162SOL     OW32947   1.676   3.654  13.907 -0.0638  0.3323 -0.3396
 7162SOL    HW132948   1.598   3.645  13.962 -1.0007  2.0015 -1.3925
 7162SOL    HW232949   1.734   3.596  13.955 -1.3906  0.8373  1.9083
 7163SOL     OW32950   1.894   4.055   0.388 -0.0160  0.2113  0.4433
 7163SOL    HW132951   1.869   4.135   0.434 -0.8000  0.3188 -0.1556
 7163SOL    HW232952   1.871   3.988   0.452 -0.5206 -0.1555 -0.1090
 7164SOL     OW32953   2.005   2.191   7.220  0.6367  0.2629  0.0291
 7164SOL    HW132954   2.013   2.108   7.267 -1.3612  0.2236  0.2840
 7164SOL    HW232955   2.030   2.168   7.131  0.8307 -1.5608  0.5647
 7165SOL     OW32956   0.311   3.340   0.193  0.4237  0.0020  0.4234
 7165SOL    HW132957   0.312   3.434   0.176  0.0292 -0.0462  0.1169
 7165SOL    HW232958   0.273   3.303   0.113  0.2685 -2.3256  1.5722
 7166SOL     OW32959   3.137   4.249   8.571  0.0835 -0.7436  0.0115
 7166SOL    HW132960   3.101   4.172   8.614  2.3849 -2.4414 -1.1056
 7166SOL    HW232961   3.182   4.277   8.652  1.5515 -0.5917 -0.8519
 7167SOL     OW32962   2.094   2.062  14.286  0.0184  0.8229  0.2274
 7167SOL    HW132963   2.185   2.070  14.314  0.4772  2.1918 -1.5926
 7167SOL    HW232964   2.090   2.133  14.222  0.0098  0.5670 -0.0546
 7168SOL     OW32965   0.296   4.528   6.238  0.2286  0.5400  0.3767
 7168SOL    HW132966   0.338   4.462   6.182  1.6855 -0.7195  2.9793
 7168SOL    HW232967   0.330   4.510   6.325 -0.8695  0.4773  0.7818
 7169SOL     OW32968   2.831   0.982   9.358 -0.2335  0.0014 -0.1424
 7169SOL    HW132969   2.864   0.980   9.268 -0.1879  0.2256 -0.1306
 7169SOL    HW232970   2.808   0.889   9.366  1.6214 -0.1383  3.3536
 7170SOL     OW32971   0.544   4.561  14.858  0.0664 -0.7968  0.3370
 7170SOL    HW132972   0.449   4.547  14.861 -0.3530  1.9364 -0.2398
 7170SOL    HW232973   0.571   4.511  14.782 -3.2744 -1.1546 -0.6287
 7171SOL     OW32974   0.476   2.152  14.748  0.9558 -0.5110  0.0483
 7171SOL    HW132975   0.528   2.106  14.815  2.0315  1.0670  0.2812
 7171SOL    HW232976   0.471   2.239  14.786 -0.3191 -1.7847  2.7960
 7172SOL     OW32977   2.481   0.780   8.813  0.3151  0.5566 -0.7555
 7172SOL    HW132978   2.435   0.702   8.844  0.0966  0.3219 -1.6732
 7172SOL    HW232979   2.410   0.843   8.799 -0.8152 -0.2385  1.4091
 7173SOL     OW32980   3.163   2.153   8.835  0.1039 -0.9170 -0.4724
 7173SOL    HW132981   3.082   2.200   8.852  0.4107 -0.7667  0.5958
 7173SOL    HW232982   3.222   2.228   8.832  0.4242 -1.1446  0.1368
 7174SOL     OW32983   4.237   0.539   3.303  0.1348 -0.3490  0.3376
 7174SOL    HW132984   4.328   0.525   3.276  0.1662 -1.2683  0.9395
 7174SOL    HW232985   4.236   0.528   3.398  0.8675 -1.4314  0.2207
 7175SOL     OW32986   1.659   1.674   1.239 -0.1186 -0.0761  0.3419
 7175SOL    HW132987   1.668   1.634   1.325  0.6514  1.2947  0.8923
 7175SOL    HW232988   1.567   1.697   1.239 -0.4657 -1.4303 -0.8289
 7176SOL     OW32989   2.164   3.992   7.629 -0.6363 -0.4891 -0.2339
 7176SOL    HW132990   2.111   3.914   7.640  0.0272 -0.9668 -0.4429
 7176SOL    HW232991   2.097   4.060   7.627  0.9226  0.9970 -1.5922
 7177SOL     OW32992   3.530   2.266   5.236  0.2234  0.1252 -0.4966
 7177SOL    HW132993   3.571   2.226   5.160  2.0999 -0.2407  0.6958
 7177SOL    HW232994   3.497   2.351   5.206 -0.3582  0.0466 -0.0818
 7178SOL     OW32995   4.181   0.864   7.590 -0.1334 -0.2349  0.2725
 7178SOL    HW132996   4.161   0.846   7.499 -1.4105 -0.4521  0.5986
 7178SOL    HW232997   4.093   0.863   7.627  0.3782 -1.6991  1.4497
 7179SOL     OW32998   3.199   3.248   8.785  0.3376  0.6179 -0.2347
 7179SOL    HW132999   3.131   3.314   8.800  0.3132  0.1153  1.8686
 7179SOL    HW233000   3.264   3.292   8.730 -1.6266  0.9012 -2.3571
 7180SOL     OW33001   3.979   4.129   0.195  0.2323 -0.5342 -0.1891
 7180SOL    HW133002   3.983   4.081   0.113 -0.3498  0.4052 -0.7609
 7180SOL    HW233003   4.057   4.094   0.239 -0.9991 -1.3103  1.3798
 7181SOL     OW33004   4.562   4.088  13.226  0.1628  0.4580  0.3249
 7181SOL    HW133005   4.632   4.149  13.203  0.3414 -1.2866 -3.8277
 7181SOL    HW233006   4.564   4.020  13.159  2.4152  1.9776 -1.1503
 7182SOL     OW33007   4.274   3.786  15.053  0.3088 -0.2340 -0.0913
 7182SOL    HW133008   4.335   3.749  14.990  0.6858  0.0861  0.0784
 7182SOL    HW233009   4.277   3.716  15.118 -0.3963 -0.4658 -0.3075
 7183SOL     OW33010   2.478   0.936  12.034  0.1623  0.1124 -0.2483
 7183SOL    HW133011   2.443   0.894  12.113 -1.2228 -0.7610 -1.3092
 7183SOL    HW233012   2.569   0.906  12.028  1.3630  3.5348  1.0779
 7184SOL     OW33013   2.861   0.214  10.353  0.0325 -0.1514  0.0883
 7184SOL    HW133014   2.840   0.167  10.433  0.2873  2.1408  1.5024
 7184SOL    HW233015   2.842   0.305  10.376 -2.9873 -0.1019 -2.6405
 7185SOL     OW33016   4.571   3.673   8.879  0.0968 -0.3062  0.1562
 7185SOL    HW133017   4.594   3.684   8.786  1.2144  1.5247  0.6528
 7185SOL    HW233018   4.609   3.754   8.912 -0.8162 -0.4745  1.6169
 7186SOL     OW33019   4.315   1.715  14.420 -0.7922 -0.3881  0.1432
 7186SOL    HW133020   4.348   1.779  14.356 -1.7987 -1.0639 -1.0474
 7186SOL    HW233021   4.224   1.700  14.396  0.0121 -0.2726 -2.9709
 7187SOL     OW33022   0.013   0.959   4.044  0.5088  0.4742  0.5443
 7187SOL    HW133023   0.055   0.874   4.043  0.6946  0.5596  0.9637
 7187SOL    HW233024   0.065   1.007   3.980 -0.7248  1.6918  0.4566
 7188SOL     OW33025   1.053   1.709  14.226 -0.1932  0.2236 -0.3641
 7188SOL    HW133026   0.969   1.687  14.185 -0.0294 -1.2817  0.0807
 7188SOL    HW233027   1.074   1.626  14.269 -0.8717  0.7568  0.9988
 7189SOL     OW33028   2.735   0.805   7.552  0.2068 -0.0139 -0.2774
 7189SOL    HW133029   2.792   0.731   7.574 -1.4492 -0.5070  2.4511
 7189SOL    HW233030   2.743   0.862   7.629  0.6352  0.7220 -0.8665
 7190SOL     OW33031   4.584   1.233   9.230 -0.5481 -0.1104 -0.1858
 7190SOL    HW133032   4.676   1.260   9.229 -1.0654  1.7071  1.4910
 7190SOL    HW233033   4.572   1.214   9.137 -0.6207 -0.1968 -0.1588
 7191SOL     OW33034   3.313   0.650   4.682  0.5069  0.1768  0.5191
 7191SOL    HW133035   3.261   0.665   4.603 -0.8015 -0.7048  1.2106
 7191SOL    HW233036   3.346   0.567   4.650  1.8269  0.5239  0.9584
 7192SOL     OW33037   2.533   4.059  10.536 -0.4835  0.2638 -0.4106
 7192SOL    HW133038   2.571   4.025  10.617  3.5700  0.5939 -2.2214
 7192SOL    HW233039   2.442   4.049  10.566 -0.9545  0.9983 -1.5887
 7193SOL     OW33040   3.459   1.478   6.210 -0.3005  0.3134  0.4611
 7193SOL    HW133041   3.537   1.529   6.191 -0.5048  1.3296  2.3838
 7193SOL    HW233042   3.447   1.501   6.302  0.6927  0.8035  0.4546
 7194SOL     OW33043   2.721   4.228  10.383  1.0145  0.0269  0.0725
 7194SOL    HW133044   2.793   4.177  10.347  1.0086  1.1646 -1.5375
 7194SOL    HW233045   2.644   4.171  10.379 -0.2870  1.7065  0.9601
 7195SOL     OW33046   0.474   2.147   1.270  0.3450  0.1200 -0.9747
 7195SOL    HW133047   0.553   2.095   1.256 -0.6598 -1.7178  0.1398
 7195SOL    HW233048   0.474   2.200   1.191 -1.3100 -0.1354 -1.1434
 7196SOL     OW33049   2.793   0.715  10.233  0.0654 -0.3645 -0.2054
 7196SOL    HW133050   2.856   0.737  10.302  0.4401  2.9374 -1.6318
 7196SOL    HW233051   2.843   0.674  10.162 -0.1183 -2.0736  0.6483
 7197SOL     OW33052   2.206   0.821   3.050 -0.2085 -0.3295 -0.2551
 7197SOL    HW133053   2.282   0.765   3.065  1.1617  1.4374 -0.6128
 7197SOL    HW233054   2.168   0.797   3.134  1.0361  0.3712  0.5021
 7198SOL     OW33055   1.754   0.722   6.593  0.5007 -1.0452 -0.4827
 7198SOL    HW133056   1.746   0.811   6.559 -1.2931 -1.8276 -2.0764
 7198SOL    HW233057   1.686   0.738   6.659  0.2009  1.1762 -1.3518
 7199SOL     OW33058   1.065   0.833   4.955  0.3201 -0.1690  0.3691
 7199SOL    HW133059   1.001   0.903   4.971  0.3781  0.0951 -0.5238
 7199SOL    HW233060   1.028   0.807   4.871  0.6185 -1.3597  0.6198
 7200SOL     OW33061   2.990   2.807  10.432  0.3830 -0.3636 -0.0239
 7200SOL    HW133062   2.953   2.870  10.494 -1.0147  0.0623 -1.3039
 7200SOL    HW233063   2.988   2.856  10.350  0.7569 -0.9205 -0.3636
 7201SOL     OW33064   0.323   1.514   6.897  0.0466  0.1533  0.3762
 7201SOL    HW133065   0.232   1.508   6.927 -0.0080 -0.6197  0.0659
 7201SOL    HW233066   0.368   1.446   6.946  2.6876  1.6213 -0.0343
 7202SOL     OW33067   4.496   2.675   6.924  0.4835 -0.6835  0.3386
 7202SOL    HW133068   4.439   2.650   6.996  2.3227 -3.7376  0.7403
 7202SOL    HW233069   4.478   2.592   6.879 -0.7922  1.5289 -3.1965
 7203SOL     OW33070   4.254   1.376   7.170 -0.5337 -0.2288 -0.2628
 7203SOL    HW133071   4.182   1.351   7.228 -1.0800 -0.9254 -1.2370
 7203SOL    HW233072   4.297   1.291   7.159  2.6999  1.5654 -1.6098
 7204SOL     OW33073   4.023   3.100   8.427  0.0639  0.5211 -0.4568
 7204SOL    HW133074   4.116   3.088   8.444  0.4303 -0.3657 -2.9743
 7204SOL    HW233075   4.019   3.066   8.337 -0.3391  0.1022 -0.2793
 7205SOL     OW33076   0.095   3.359  12.564  0.1292  0.4441  0.0652
 7205SOL    HW133077   0.001   3.363  12.585 -0.0215  0.0036 -0.5062
 7205SOL    HW233078   0.137   3.431  12.610 -1.9382  0.4855  1.9243
 7206SOL     OW33079   0.659   3.238  13.256  0.3605 -0.1680 -0.1826
 7206SOL    HW133080   0.660   3.333  13.271  1.5231 -0.0381 -1.1187
 7206SOL    HW233081   0.570   3.224  13.223  0.7344 -1.5406 -0.5919
 7207SOL     OW33082   1.009   0.757  14.755 -0.6198 -0.1771 -0.1961
 7207SOL    HW133083   1.041   0.677  14.714 -3.5828 -0.8301 -1.2243
 7207SOL    HW233084   0.995   0.730  14.845 -1.9013  0.8478 -0.0862
 7208SOL     OW33085   3.510   2.876   5.916 -0.0796 -0.4893  0.3028
 7208SOL    HW133086   3.430   2.859   5.966  0.4340 -1.0147  0.9436
 7208SOL    HW233087   3.556   2.940   5.970  0.8142 -0.7842 -0.0966
 7209SOL     OW33088   1.321   3.505  16.326  0.1770 -0.7255  0.2010
 7209SOL    HW133089   1.280   3.419  16.333  1.8342 -1.3974  1.7500
 7209SOL    HW233090   1.413   3.490  16.351 -0.1481 -2.7346  0.1957
 7210SOL     OW33091   1.461   4.559   8.306  0.0359  0.2744  0.0612
 7210SOL    HW133092   1.510   4.515   8.238 -1.6101 -0.5499 -0.5844
 7210SOL    HW233093   1.385   4.501   8.308 -1.6074  2.4579  0.9754
 7211SOL     OW33094   4.200   2.137   1.050 -0.0578 -0.1542 -0.6976
 7211SOL    HW133095   4.123   2.179   1.088 -0.9356 -2.2830 -0.1516
 7211SOL    HW233096   4.202   2.043   1.067  0.6115  0.0081  0.0977
 7212SOL     OW33097   3.443   4.649   0.717 -0.0185 -0.2706 -0.3329
 7212SOL    HW133098   3.403   4.568   0.747  2.2986 -1.2432  0.0631
 7212SOL    HW233099   3.429   4.645   0.622 -3.0165 -0.5601  0.1141
 7213SOL     OW33100   0.214   4.177  16.261 -0.3897 -0.1262 -0.0363
 7213SOL    HW133101   0.204   4.190  16.356  1.5830 -1.1861  0.3160
 7213SOL    HW233102   0.122   4.189  16.236 -0.0529  2.3346 -0.0988
 7214SOL     OW33103   4.551   2.828   2.990 -0.0892  0.2650 -0.2388
 7214SOL    HW133104   4.529   2.920   3.001 -0.0057  0.2130  0.3704
 7214SOL    HW233105   4.483   2.789   3.046  0.0509  0.8433  0.3259
 7215SOL     OW33106   2.812   3.644   6.644  0.0393  0.3630 -0.0712
 7215SOL    HW133107   2.794   3.738   6.651  2.3282  0.7098  1.2098
 7215SOL    HW233108   2.757   3.616   6.571  0.0241 -0.4180  0.2410
 7216SOL     OW33109   1.076   2.949   3.478  0.5436  0.0305 -0.2316
 7216SOL    HW133110   1.100   2.868   3.522  2.0929  0.5088 -0.1837
 7216SOL    HW233111   1.161   2.992   3.474  1.8327 -2.6030 -1.2609
 7217SOL     OW33112   2.336   1.502  16.092 -0.1024  0.1061  0.0684
 7217SOL    HW133113   2.306   1.587  16.059 -0.6736 -0.5634 -1.1508
 7217SOL    HW233114   2.259   1.447  16.075  1.7295 -2.0654 -1.0983
 7218SOL     OW33115   4.521   3.806   0.242  0.5711 -0.8886  0.5766
 7218SOL    HW133116   4.584   3.776   0.308  0.1209 -2.3586  0.3493
 7218SOL    HW233117   4.455   3.849   0.297 -0.4604 -0.7810 -0.7471
 7219SOL     OW33118   0.009   4.456   3.300 -0.7803 -0.0342  0.0594
 7219SOL    HW133119   0.072   4.476   3.230 -0.1030 -1.4611  0.2749
 7219SOL    HW233120   0.068   4.409   3.359 -2.7590 -0.7807  1.4395
 7220SOL     OW33121   2.355   1.476  10.213  0.9180 -0.7101  0.6507
 7220SOL    HW133122   2.315   1.419  10.148  0.8789  1.7318 -1.4525
 7220SOL    HW233123   2.419   1.414  10.248  0.4508 -0.0499  2.6743
 7221SOL     OW33124   1.093   2.497   4.113  0.2382  0.1054  0.1374
 7221SOL    HW133125   1.153   2.432   4.077 -1.1942 -0.9738 -0.3292
 7221SOL    HW233126   1.083   2.555   4.037  1.1712  1.1567  0.8280
 7222SOL     OW33127   0.641   2.294   7.088 -0.1254  0.2998  0.3451
 7222SOL    HW133128   0.725   2.287   7.135  1.0865  1.3445 -1.6857
 7222SOL    HW233129   0.587   2.291   7.166 -0.8575 -0.0445 -0.1788
 7223SOL     OW33130   3.052   4.606  16.576 -0.5364  0.5352 -0.5234
 7223SOL    HW133131   3.099   4.682  16.540  1.1281  0.3218  1.2000
 7223SOL    HW233132   3.132   4.556  16.590 -0.8512  0.5410  1.2532
 7224SOL     OW33133   4.108   1.922   4.415 -0.1138 -0.1283  0.1410
 7224SOL    HW133134   4.168   1.868   4.364 -2.6066 -1.3318 -1.5580
 7224SOL    HW233135   4.152   1.921   4.500  1.6492 -2.2109 -0.7959
 7225SOL     OW33136   1.357   1.929   5.168  0.2688 -0.2414  0.6500
 7225SOL    HW133137   1.375   1.903   5.258  0.4776  0.7715  0.8999
 7225SOL    HW233138   1.394   2.016   5.176 -0.1410 -0.3155  3.4080
 7226SOL     OW33139   1.778   3.646   8.148 -0.6215 -0.4694 -0.4928
 7226SOL    HW133140   1.702   3.659   8.205  0.9090  1.3610  1.1348
 7226SOL    HW233141   1.840   3.711   8.182  0.9054 -0.7577 -2.7297
 7227SOL     OW33142   1.273   3.045  14.578 -0.2393 -0.1496  0.0831
 7227SOL    HW133143   1.265   3.051  14.483  2.1896  1.3308 -0.0282
 7227SOL    HW233144   1.233   3.130  14.599  0.5223  0.4756 -1.0469
 7228SOL     OW33145   0.811   3.845  14.520 -0.0677  0.2026  0.0199
 7228SOL    HW133146   0.855   3.916  14.567 -0.9544  0.3437  0.6303
 7228SOL    HW233147   0.756   3.890  14.457  0.6601  0.1161 -0.6744
 7229SOL     OW33148   2.745   3.004   0.877  0.0527  0.3422  0.1427
 7229SOL    HW133149   2.758   3.061   0.952 -0.2938 -1.6440  1.7146
 7229SOL    HW233150   2.742   3.070   0.807  0.6481 -1.0927 -1.2427
 7230SOL     OW33151   4.443   4.659   6.117  0.1897  0.6178 -0.1780
 7230SOL    HW133152   4.438   4.589   6.182  1.2619 -0.0335 -0.8003
 7230SOL    HW233153   4.459   0.013   6.170 -0.6656 -0.1457  1.1866
 7231SOL     OW33154   1.311   3.387   1.402 -0.1471 -0.5565 -0.2395
 7231SOL    HW133155   1.323   3.292   1.391  0.2546 -0.4103 -1.0258
 7231SOL    HW233156   1.399   3.424   1.410  0.0274 -1.1650  0.6385
 7232SOL     OW33157   4.623   3.298   8.413  0.1330 -0.3698 -0.2865
 7232SOL    HW133158   4.695   3.360   8.397  0.7405 -0.9525  0.2026
 7232SOL    HW233159   4.577   3.301   8.329 -0.2366 -0.8637 -0.0990
 7233SOL     OW33160   3.198   3.702   4.378 -0.5017 -0.1941  0.3383
 7233SOL    HW133161   3.285   3.735   4.401  0.9155 -4.8526  1.7182
 7233SOL    HW233162   3.215   3.609   4.392 -0.7806  0.2606  3.6989
 7234SOL     OW33163   2.426   1.003   9.413  0.3682  0.8098  0.4771
 7234SOL    HW133164   2.502   0.986   9.469 -0.6305 -1.3987  1.1660
 7234SOL    HW233165   2.440   0.938   9.344 -2.9558 -1.4241  1.8626
 7235SOL     OW33166   3.501   1.100  12.928 -0.3196  0.0323 -0.0638
 7235SOL    HW133167   3.518   1.006  12.929 -0.0499  0.0975  1.4790
 7235SOL    HW233168   3.415   1.096  12.886 -1.1265  1.6253  1.3949
 7236SOL     OW33169   4.504   4.534   3.418 -0.0360  0.1334 -0.4021
 7236SOL    HW133170   4.580   4.521   3.361  0.1806  2.9266 -0.7565
 7236SOL    HW233171   4.518   4.473   3.491 -1.5024  0.8341  0.4750
 7237SOL     OW33172   4.306   0.402  11.245 -0.1397 -0.0069 -0.5316
 7237SOL    HW133173   4.232   0.435  11.195  0.3987 -0.9987 -1.9717
 7237SOL    HW233174   4.372   0.470  11.231 -0.1931  0.7267  2.6587
 7238SOL     OW33175   2.851   3.820   8.208 -0.1967  0.1336 -0.2619
 7238SOL    HW133176   2.942   3.847   8.219 -0.0951  0.1828 -1.1684
 7238SOL    HW233177   2.795   3.898   8.207 -2.5084 -1.5356 -0.2976
 7239SOL     OW33178   4.096   1.144   8.423 -0.3673 -0.3110  0.1563
 7239SOL    HW133179   4.074   1.056   8.453  0.5992 -0.6949 -0.2876
 7239SOL    HW233180   4.028   1.197   8.466  0.1396  2.4107 -2.3649
 7240SOL     OW33181   0.782   3.801   3.938  0.6535 -0.6115  0.1037
 7240SOL    HW133182   0.796   3.811   3.844  1.2238  0.0073  0.2515
 7240SOL    HW233183   0.872   3.783   3.967  1.7095 -0.2048 -2.9062
 7241SOL     OW33184   0.749   2.760   9.450 -0.1557 -0.3723  0.3368
 7241SOL    HW133185   0.789   2.846   9.466  1.3607 -0.9752 -0.1839
 7241SOL    HW233186   0.827   2.729   9.404 -0.5424 -0.7403 -0.0646
 7242SOL     OW33187   0.059   3.036  16.316  0.4295  0.3409  0.4489
 7242SOL    HW133188   0.030   3.083  16.238  0.9344  0.4329  0.3198
 7242SOL    HW233189   0.010   3.073  16.390 -0.9006 -1.2690  0.3790
 7243SOL     OW33190   1.946   0.292  10.579  0.0166  0.5241 -0.6596
 7243SOL    HW133191   1.879   0.328  10.637  0.1069  0.6622 -0.6426
 7243SOL    HW233192   1.920   0.200  10.568 -1.9176  1.0940 -0.8244
 7244SOL     OW33193   2.161   4.182   5.603  0.5257 -0.2898  0.1760
 7244SOL    HW133194   2.233   4.244   5.589 -0.1486  0.6078  0.6740
 7244SOL    HW233195   2.110   4.225   5.671 -0.1288  1.4678 -1.4021
 7245SOL     OW33196   1.614   1.815   8.183  0.0472 -0.4019  0.0684
 7245SOL    HW133197   1.659   1.900   8.192 -0.6042 -0.0420 -0.0964
 7245SOL    HW233198   1.691   1.758   8.176  1.0034  0.6242  2.2068
 7246SOL     OW33199   3.885   2.018   4.243 -0.0093 -0.3452 -0.0326
 7246SOL    HW133200   3.906   2.097   4.292 -2.0263 -0.7591  1.4971
 7246SOL    HW233201   3.976   1.990   4.234  0.0500 -0.1819  0.0588
 7247SOL     OW33202   4.582   1.633  10.122  0.7838 -0.3356  0.0319
 7247SOL    HW133203   4.664   1.606  10.080  2.2747  1.1718  1.9295
 7247SOL    HW233204   4.541   1.687  10.055 -0.2457 -0.0817  0.8774
 7248SOL     OW33205   3.734   2.439  14.879 -0.0025 -0.0218  0.3289
 7248SOL    HW133206   3.721   2.534  14.883  0.8032  0.0476  1.2232
 7248SOL    HW233207   3.665   2.409  14.938 -1.1981  0.7387 -0.6571
 7249SOL     OW33208   1.842   3.225   9.819  0.0711 -0.3818  0.1654
 7249SOL    HW133209   1.936   3.232   9.805 -0.0854  1.5544 -0.0453
 7249SOL    HW233210   1.821   3.318   9.832 -2.6679 -0.6238 -2.4434
 7250SOL     OW33211   4.262   1.728  12.139 -0.4045 -0.0992  0.4652
 7250SOL    HW133212   4.347   1.770  12.130 -1.0223  1.1660  0.4449
 7250SOL    HW233213   4.210   1.806  12.161  0.0605  0.6101 -0.9365
 7251SOL     OW33214   2.324   3.066  11.132  0.1067  0.6946  0.4318
 7251SOL    HW133215   2.240   3.024  11.149  0.3393 -0.2864 -0.7878
 7251SOL    HW233216   2.367   2.989  11.093 -2.3748 -0.3473 -0.2503
 7252SOL     OW33217   4.137   4.564   7.370  0.2188 -0.3295  0.1082
 7252SOL    HW133218   4.102   4.508   7.439  0.9679  1.7342  2.1809
 7252SOL    HW233219   4.136   4.647   7.418 -1.5587 -0.4541  0.2687
 7253SOL     OW33220   2.816   0.834  10.615 -0.3869 -0.0445  0.0464
 7253SOL    HW133221   2.862   0.835  10.531 -1.5507  0.7620 -0.5844
 7253SOL    HW233222   2.832   0.747  10.651  2.2640  0.2910 -0.3264
 7254SOL     OW33223   1.635   1.120   5.735 -0.2237  0.3325  0.0593
 7254SOL    HW133224   1.700   1.171   5.783 -1.4464  0.0507  2.0247
 7254SOL    HW233225   1.700   1.081   5.677  1.2470  0.9513  1.2802
 7255SOL     OW33226   3.094   1.328   1.312 -0.1694 -0.3654  0.0180
 7255SOL    HW133227   3.171   1.313   1.366  0.8778  0.9199 -1.1374
 7255SOL    HW233228   3.094   1.421   1.332 -0.4320 -0.1972 -0.7708
 7256SOL     OW33229   0.085   2.693   7.546 -0.0886  0.4668  0.4250
 7256SOL    HW133230   0.150   2.647   7.493  1.5284  1.6563  1.3645
 7256SOL    HW233231   0.120   2.782   7.557 -1.5830  1.0751  0.2146
 7257SOL     OW33232   4.544   4.679  14.771 -0.1304 -0.1931 -0.0986
 7257SOL    HW133233   4.536   4.627  14.851 -2.5832  1.6219  0.8345
 7257SOL    HW233234   4.519   4.619  14.701  0.4137  0.4960 -0.8906
 7258SOL     OW33235   4.707   1.024   7.482 -0.9293 -0.1216 -0.4617
 7258SOL    HW133236   4.659   0.946   7.510 -0.7555  0.2658  0.8835
 7258SOL    HW233237   4.654   1.052   7.407 -1.1820 -0.4048 -0.3877
 7259SOL     OW33238   0.449   2.165   6.500  0.3099  0.0258 -0.5007
 7259SOL    HW133239   0.389   2.214   6.444  0.6353 -0.7923 -1.5530
 7259SOL    HW233240   0.524   2.224   6.502  1.2175 -1.1869  1.2929
 7260SOL     OW33241   2.022   2.141   2.624  0.6680  0.2350 -0.1304
 7260SOL    HW133242   2.060   2.146   2.536 -1.1770  0.2431 -0.9134
 7260SOL    HW233243   2.048   2.222   2.669  0.9921 -1.4813  2.7804
 7261SOL     OW33244   0.171   4.196  16.551  0.2761 -0.0798 -0.1053
 7261SOL    HW133245   0.136   4.148  16.626  2.1432 -1.2769  0.0071
 7261SOL    HW233246   0.265   4.183  16.565  0.3908 -1.2511 -2.0163
 7262SOL     OW33247   3.806   1.633   4.864  0.1786 -0.4410 -0.6176
 7262SOL    HW133248   3.773   1.548   4.835  1.6803 -1.0031 -0.6963
 7262SOL    HW233249   3.732   1.694   4.865  0.4381 -0.1021 -1.4291
 7263SOL     OW33250   2.802   4.662   3.787 -0.3640 -0.2849  0.0756
 7263SOL    HW133251   2.785   4.642   3.695  0.1449  0.5232 -0.2031
 7263SOL    HW233252   2.832   0.029   3.783 -0.1868 -0.2754  2.0022
 7264SOL     OW33253   0.152   0.542  10.711 -0.3786 -0.4482  0.0889
 7264SOL    HW133254   0.135   0.455  10.676 -1.1691  0.1910 -1.1090
 7264SOL    HW233255   0.098   0.600  10.658 -2.1085 -1.3510  0.8664
 7265SOL     OW33256   3.630   0.015  10.887 -0.2205 -0.2283 -0.2781
 7265SOL    HW133257   3.545   0.044  10.855  0.5608  0.2476 -1.9890
 7265SOL    HW233258   3.667   0.097  10.852 -1.2586  0.4010  0.1202
 7266SOL     OW33259   2.521   2.671  17.650  0.4433 -0.1715 -0.0907
 7266SOL    HW133260   2.529   2.577  17.665  1.1922 -0.6086 -3.2579
 7266SOL    HW233261   2.584   2.704   0.017 -1.1132  1.6590  0.4932
 7267SOL     OW33262   1.450   2.775  11.034 -0.2677  0.2759  0.0584
 7267SOL    HW133263   1.499   2.707  11.079 -0.1622 -0.8398 -1.7388
 7267SOL    HW233264   1.512   2.795  10.964  2.1982 -2.7764  1.4077
 7268SOL     OW33265   2.457   2.127   4.687  0.1560 -0.3273  0.1416
 7268SOL    HW133266   2.449   2.076   4.767 -0.1129 -1.2527 -0.4720
 7268SOL    HW233267   2.375   2.108   4.641 -0.3105  1.2712  0.3319
 7269SOL     OW33268   3.665   3.096   4.333  0.2257 -0.3195 -0.1067
 7269SOL    HW133269   3.639   3.024   4.276  1.2578 -0.2163 -0.7144
 7269SOL    HW233270   3.598   3.161   4.314  0.7495 -0.0765 -1.0858
 7270SOL     OW33271   2.677   3.667  10.046  0.0842  0.3875 -0.0740
 7270SOL    HW133272   2.750   3.609  10.025  0.1013  0.2941  0.2374
 7270SOL    HW233273   2.697   3.749  10.000  0.5501 -0.7560 -1.8981
 7271SOL     OW33274   0.306   3.177  17.620 -0.8050  0.0708 -0.0238
 7271SOL    HW133275   0.388   3.205  17.580 -0.7192  0.5950  0.5197
 7271SOL    HW233276   0.242   3.225  17.568  1.4992 -0.0490 -2.9547
 7272SOL     OW33277   3.397   1.395   7.312  0.0834  0.2008 -0.1520
 7272SOL    HW133278   3.326   1.449   7.278 -0.0444  1.2179  1.6985
 7272SOL    HW233279   3.358   1.325   7.364 -0.5200 -0.0125 -0.8991
 7273SOL     OW33280   3.802   0.400   5.088  0.0368 -0.4199 -0.3800
 7273SOL    HW133281   3.799   0.328   5.025 -1.7906  0.6466 -1.4691
 7273SOL    HW233282   3.824   0.467   5.024 -1.2400 -0.4551 -0.8559
 7274SOL     OW33283   2.493   4.327   1.583 -0.4448  0.0908  0.1559
 7274SOL    HW133284   2.510   4.317   1.490  0.9998  2.3368  0.1803
 7274SOL    HW233285   2.428   4.257   1.592  1.0062 -1.2515  0.3679
 7275SOL     OW33286   3.938   4.523   8.819 -0.4560 -0.1873 -0.1613
 7275SOL    HW133287   3.943   4.438   8.864 -1.7812  0.0298  0.3891
 7275SOL    HW233288   3.908   4.580   8.890 -1.8250 -2.0419  0.7331
 7276SOL     OW33289   2.297   1.929   6.542  0.3625  0.1159  0.0675
 7276SOL    HW133290   2.235   1.859   6.520  0.9754 -0.2550 -0.4825
 7276SOL    HW233291   2.297   1.958   6.451 -0.2872  0.4053  0.1632
 7277SOL     OW33292   1.178   2.443  13.003  0.6243 -0.1222  0.1503
 7277SOL    HW133293   1.254   2.385  13.011 -0.7787 -1.8767  0.7292
 7277SOL    HW233294   1.130   2.429  13.085  1.4607 -0.8797  0.5124
 7278SOL     OW33295   0.021   1.640   7.487  0.2088 -0.2944 -0.3144
 7278SOL    HW133296   4.715   1.721   7.445  0.6357  0.2185  0.3802
 7278SOL    HW233297   4.723   1.659   7.578 -0.6825 -0.9871 -0.3925
 7279SOL     OW33298   3.078   4.555  15.172  0.3755  0.2253 -0.1188
 7279SOL    HW133299   3.035   4.472  15.151  0.4877  0.5890 -1.8325
 7279SOL    HW233300   3.167   4.522  15.183 -0.8882 -1.8156  4.0280
 7280SOL     OW33301   3.588   1.899   0.937  0.5507 -0.0256 -0.3123
 7280SOL    HW133302   3.503   1.865   0.907  0.2942 -0.3527  0.7793
 7280SOL    HW233303   3.573   1.890   1.031 -1.3971 -0.7239 -0.6693
 7281SOL     OW33304   4.283   3.106   8.412 -0.1814  0.0914 -0.0478
 7281SOL    HW133305   4.308   3.158   8.336 -1.4731  0.9030  0.0728
 7281SOL    HW233306   4.372   3.081   8.436 -1.5246 -0.7176  4.2067
 7282SOL     OW33307   0.818   4.283  10.065  0.0512  0.0746 -0.4206
 7282SOL    HW133308   0.850   4.216  10.125  0.9261  0.2693 -0.6673
 7282SOL    HW233309   0.860   4.358  10.107  0.8392 -0.5567 -0.0822
 7283SOL     OW33310   3.365   1.445  11.371  0.3505 -0.0108 -0.4725
 7283SOL    HW133311   3.420   1.468  11.446  0.3459 -0.8571 -0.2059
 7283SOL    HW233312   3.306   1.519  11.359 -1.0575 -1.0604 -0.1179
 7284SOL     OW33313   3.880   4.562  13.662 -0.2649 -0.0526  0.3558
 7284SOL    HW133314   3.797   4.514  13.666 -0.1632 -0.2653 -0.1074
 7284SOL    HW233315   3.917   4.531  13.580 -3.2025  1.7753 -1.6625
 7285SOL     OW33316   3.127   3.647   9.925 -0.4620 -0.2945 -0.8201
 7285SOL    HW133317   3.136   3.655  10.020  0.7579  0.2598 -0.9801
 7285SOL    HW233318   3.128   3.738   9.893 -3.0621  0.0459  0.1036
 7286SOL     OW33319   4.407   0.461   5.025 -0.1363 -0.0054  0.0980
 7286SOL    HW133320   4.356   0.493   5.099  0.0087  0.7807 -0.1432
 7286SOL    HW233321   4.341   0.435   4.960  0.3789  0.6966 -0.7215
 7287SOL     OW33322   4.011   0.021   1.757 -0.4632  0.0761 -0.4621
 7287SOL    HW133323   3.919   0.006   1.736 -0.9878  3.0208 -0.3010
 7287SOL    HW233324   4.043   4.654   1.754 -1.0499 -0.1255 -0.5738
 7288SOL     OW33325   1.742   4.459   6.832  0.7523 -0.4642  0.2348
 7288SOL    HW133326   1.713   4.535   6.780  0.1354 -1.6323 -1.1105
 7288SOL    HW233327   1.833   4.485   6.848 -0.6053  2.1838  3.6150
 7289SOL     OW33328   4.558   0.800   7.495  0.6295  0.4114 -0.0683
 7289SOL    HW133329   4.639   0.754   7.475  0.4185 -0.3714  0.8648
 7289SOL    HW233330   4.510   0.724   7.530 -1.5397  2.3746  1.2675
 7290SOL     OW33331   3.763   0.113  11.992  0.4163 -0.4679  0.0390
 7290SOL    HW133332   3.803   0.193  12.025  1.0917 -1.1860  1.0014
 7290SOL    HW233333   3.818   0.046  12.033  1.0527 -0.2456 -0.4587
 7291SOL     OW33334   4.133   0.069   9.388 -0.3550  0.0294  0.2806
 7291SOL    HW133335   4.160   0.117   9.466 -0.2698  0.1316  0.1876
 7291SOL    HW233336   4.099   0.137   9.331  1.9217  1.4803  0.6369
 7292SOL     OW33337   2.675   0.387   8.476 -0.2588 -0.1183  0.1654
 7292SOL    HW133338   2.647   0.426   8.559  0.1230  1.8675 -0.6350
 7292SOL    HW233339   2.627   0.437   8.410 -1.1574  0.8964  1.5946
 7293SOL     OW33340   2.062   4.389   4.813 -0.0060  0.3111 -0.3396
 7293SOL    HW133341   2.058   4.309   4.761  0.9825  1.2748 -1.8838
 7293SOL    HW233342   2.154   4.411   4.802 -0.4466  0.9753 -2.7271
 7294SOL     OW33343   3.043   1.293  11.373  0.4964  0.4149  0.0606
 7294SOL    HW133344   3.072   1.356  11.307 -0.8744 -1.4936 -2.3972
 7294SOL    HW233345   2.949   1.299  11.355  0.0065  0.7134  2.7003
 7295SOL     OW33346   4.252   1.692  13.997  0.4710  0.0160  0.0965
 7295SOL    HW133347   4.173   1.747  14.003  0.5655  0.0533  1.0148
 7295SOL    HW233348   4.311   1.737  13.936 -1.1546 -0.1923 -1.6450
 7296SOL     OW33349   0.786   2.629   8.239  0.3555  0.2132  0.2471
 7296SOL    HW133350   0.729   2.669   8.304  1.9302  1.0333  1.1321
 7296SOL    HW233351   0.781   2.691   8.166  1.4802  2.2752  1.9079
 7297SOL     OW33352   3.758   2.553  10.177  0.5001  0.5504 -0.0026
 7297SOL    HW133353   3.693   2.483  10.168  0.1720  1.4363 -4.3895
 7297SOL    HW233354   3.718   2.610  10.111 -0.0140  1.3120  0.9671
 7298SOL     OW33355   3.926   0.808   9.840 -0.2931 -0.2405 -0.2237
 7298SOL    HW133356   4.021   0.807   9.830  0.0001  2.4458  2.1456
 7298SOL    HW233357   3.896   0.877   9.782  1.1172  1.5051  1.1031
 7299SOL     OW33358   0.002   4.452   4.575  0.0277  0.3338 -1.0937
 7299SOL    HW133359   4.703   4.378   4.519  0.4806 -0.5423 -0.1098
 7299SOL    HW233360   0.097   4.445   4.585 -0.1950 -1.0032  0.0167
 7300SOL     OW33361   3.251   0.957   6.375  0.1159 -0.3663  0.2793
 7300SOL    HW133362   3.312   0.994   6.312  1.2121 -0.8680  1.0590
 7300SOL    HW233363   3.316   0.906   6.423  0.5678  0.9252  1.0396
 7301SOL     OW33364   2.308   0.794   0.757  0.1095 -0.2965  0.0586
 7301SOL    HW133365   2.399   0.791   0.787  0.2251  0.2737 -0.2298
 7301SOL    HW233366   2.259   0.855   0.812  0.1984 -0.5953  0.4692
 7302SOL     OW33367   0.233   1.376  10.160 -0.4306  0.4152  0.2989
 7302SOL    HW133368   0.297   1.323  10.112  0.7489  3.0701 -1.0632
 7302SOL    HW233369   0.280   1.447  10.203  0.1093 -0.7410  1.6555
 7303SOL     OW33370   1.775   0.090  13.897  0.5522 -0.3038  0.7041
 7303SOL    HW133371   1.779   0.180  13.866 -1.1005 -0.1280  0.9890
 7303SOL    HW233372   1.845   0.077  13.962 -0.1746 -0.5787  1.4354
 7304SOL     OW33373   4.403   0.060   1.133  0.2944  0.5427 -0.2293
 7304SOL    HW133374   4.371   4.716   1.073 -1.0943  1.7623 -0.8516
 7304SOL    HW233375   4.477   0.096   1.084  0.5038 -0.5223 -0.6963
 7305SOL     OW33376   3.443   1.032   7.856  0.1488  0.4385 -0.0959
 7305SOL    HW133377   3.476   0.945   7.833  2.1746  1.2741 -0.3524
 7305SOL    HW233378   3.528   1.068   7.882 -0.5874  1.1001  1.3852
 7306SOL     OW33379   2.520   4.710   3.970 -0.4023  0.1077 -0.0075
 7306SOL    HW133380   2.501   4.641   4.034  0.6712  1.6079  1.9379
 7306SOL    HW233381   2.612   4.691   3.950 -1.1726 -2.7136 -0.8959
 7307SOL     OW33382   0.260   4.658   5.978  0.3868 -0.4406  0.1724
 7307SOL    HW133383   0.166   4.660   5.998  0.3100  0.1720 -0.2436
 7307SOL    HW233384   0.290   4.634   6.066 -0.5981  0.2705  0.7083
 7308SOL     OW33385   1.983   0.092   1.379  0.4775  0.9226 -0.2605
 7308SOL    HW133386   1.964   4.723   1.389 -0.6113  1.2833  1.1549
 7308SOL    HW233387   2.070   0.098   1.340  0.7088  0.9135  0.2490
 7309SOL     OW33388   4.028   2.616   2.138  0.2121 -0.7466 -0.1253
 7309SOL    HW133389   4.089   2.583   2.073 -1.7445 -2.0052 -1.3428
 7309SOL    HW233390   3.946   2.582   2.100  0.8997 -0.7331 -1.6146
 7310SOL     OW33391   0.542   1.373   2.187 -0.0532  0.6196  0.3061
 7310SOL    HW133392   0.631   1.404   2.203 -0.8835  2.6724  0.8849
 7310SOL    HW233393   0.538   1.306   2.256 -1.9594  0.5289  0.1077
 7311SOL     OW33394   1.674   1.067   7.517  0.1068 -0.0469 -0.1489
 7311SOL    HW133395   1.605   1.133   7.512  0.5288  0.3269 -1.0511
 7311SOL    HW233396   1.670   1.051   7.423  1.2902  3.7701 -0.8616
 7312SOL     OW33397   2.063   4.462   5.357 -0.0547  0.0197  0.5384
 7312SOL    HW133398   1.973   4.438   5.378 -0.5834  1.5592  0.0131
 7312SOL    HW233399   2.106   4.386   5.318 -1.3973 -0.2487 -0.4416
 7313SOL     OW33400   0.604   0.617  11.025 -0.3316  0.2131 -0.1260
 7313SOL    HW133401   0.602   0.622  11.120 -0.0190 -1.7023 -0.0302
 7313SOL    HW233402   0.679   0.559  11.011 -1.7870 -0.9260 -3.2395
 7314SOL     OW33403   4.581   2.732   7.694 -0.0118 -1.3094 -0.1066
 7314SOL    HW133404   4.658   2.716   7.639  0.6198  0.6886  0.2138
 7314SOL    HW233405   4.540   2.790   7.630  2.1293 -1.0786 -1.2666
 7315SOL     OW33406   2.637   4.702   8.976 -0.0741  0.4921  0.4150
 7315SOL    HW133407   2.725   4.682   8.946 -0.7921 -0.6972 -0.8845
 7315SOL    HW233408   2.595   4.616   8.978 -0.6624  0.8037  1.5608
 7316SOL     OW33409   2.961   2.528   6.345 -0.2071 -0.9632 -0.7800
 7316SOL    HW133410   3.044   2.480   6.338  0.8354  0.4568  1.8332
 7316SOL    HW233411   2.945   2.523   6.439 -1.3612 -0.3133 -0.9456
 7317SOL     OW33412   1.733   4.332   3.949  0.5000 -0.8715  0.9285
 7317SOL    HW133413   1.712   4.351   3.857  0.1231  0.9356  1.3847
 7317SOL    HW233414   1.752   4.238   3.947  0.7754 -0.8197  1.0708
 7318SOL     OW33415   0.866   4.364   0.738 -0.2834 -0.4782  0.0732
 7318SOL    HW133416   0.961   4.356   0.743 -0.1684  0.9527 -0.0242
 7318SOL    HW233417   0.855   4.340   0.830  1.3104 -0.2343  0.3329
 7319SOL     OW33418   4.513   2.228  17.695 -0.8412  0.0133 -0.0923
 7319SOL    HW133419   4.508   2.324   0.002  1.4931  0.1277  0.4436
 7319SOL    HW233420   4.529   2.214   0.092 -0.9965 -0.2871 -0.1134
 7320SOL     OW33421   1.395   1.107   0.342  0.3304 -0.5551  0.0002
 7320SOL    HW133422   1.427   1.190   0.375  0.9952 -2.2288  3.5953
 7320SOL    HW233423   1.345   1.138   0.266 -1.3534  0.3018  1.4492
 7321SOL     OW33424   1.846   0.285   5.846 -0.1309 -0.3337 -0.5804
 7321SOL    HW133425   1.831   0.258   5.936  2.3681  1.3815  0.3222
 7321SOL    HW233426   1.929   0.240   5.826 -0.9915 -2.6207  1.0025
 7322SOL     OW33427   2.911   1.466   6.864 -0.6354 -0.0847  0.0019
 7322SOL    HW133428   2.903   1.410   6.787 -2.7421 -0.0566  0.2121
 7322SOL    HW233429   2.827   1.461   6.909 -0.3279  0.2273  0.6077
 7323SOL     OW33430   1.770   1.687   7.438  0.0530 -0.3204 -0.2153
 7323SOL    HW133431   1.798   1.679   7.529  1.2221 -2.6879 -0.8026
 7323SOL    HW233432   1.730   1.605   7.410  1.6479 -1.5871  1.2364
 7324SOL     OW33433   3.145   3.749   2.137 -0.0985 -0.4311 -0.4020
 7324SOL    HW133434   3.223   3.797   2.165  0.2582  0.0554 -2.2843
 7324SOL    HW233435   3.192   3.697   2.072  0.6800  1.6810 -1.5195
 7325SOL     OW33436   0.923   4.355  10.798 -0.3733 -0.2176  0.0262
 7325SOL    HW133437   0.954   4.324  10.713  1.1595 -0.3180  0.6033
 7325SOL    HW233438   0.838   4.312  10.809  0.7784 -2.1743  1.3982
 7326SOL     OW33439   4.081   2.661  16.750 -0.0345  0.3118 -0.3839
 7326SOL    HW133440   4.066   2.580  16.798  0.2447 -0.4051 -1.5074
 7326SOL    HW233441   4.078   2.640  16.656  0.1531 -0.5553 -0.1911
 7327SOL     OW33442   0.314   2.579   8.405  0.4737  0.5902  0.4186
 7327SOL    HW133443   0.298   2.617   8.491 -0.1868 -0.3529  0.7196
 7327SOL    HW233444   0.253   2.636   8.359  0.8403  1.7744  1.3964
 7328SOL     OW33445   1.631   4.177   5.390 -0.2979  0.1900  0.2665
 7328SOL    HW133446   1.539   4.153   5.397 -0.3867 -0.4145 -3.0623
 7328SOL    HW233447   1.661   4.092   5.356  2.8308  1.5117 -0.2711
 7329SOL     OW33448   1.608   0.100   8.117 -1.1265  0.0327 -0.5339
 7329SOL    HW133449   1.693   0.143   8.103  0.5822 -3.5128 -1.0398
 7329SOL    HW233450   1.637   0.009   8.126 -0.1270  0.4341  0.3004
 7330SOL     OW33451   0.990   1.283   8.664 -0.2787  0.0853  0.6008
 7330SOL    HW133452   1.006   1.292   8.570 -0.1645 -0.3159  0.5806
 7330SOL    HW233453   1.071   1.325   8.691  0.5036 -0.8597 -0.2687
 7331SOL     OW33454   2.766   4.635   6.103 -0.1986  0.2405  0.2687
 7331SOL    HW133455   2.779   4.635   6.198  0.9088  0.5596  0.1062
 7331SOL    HW233456   2.848   4.603   6.066 -1.0516 -2.2587  0.5266
 7332SOL     OW33457   2.722   1.343   7.679 -0.3586  0.0773  0.0781
 7332SOL    HW133458   2.693   1.311   7.593 -0.3258 -2.0632  0.8626
 7332SOL    HW233459   2.684   1.274   7.734 -0.0760 -0.7283 -0.7366
 7333SOL     OW33460   0.514   0.419   4.612 -0.1382 -0.5575 -0.2704
 7333SOL    HW133461   0.510   0.382   4.701 -1.5287 -1.1236 -0.5540
 7333SOL    HW233462   0.419   0.432   4.601  0.2046  1.4212 -0.7811
 7334SOL     OW33463   2.813   0.944   0.873 -0.0141 -0.1105  0.0081
 7334SOL    HW133464   2.882   0.974   0.933  0.5953 -2.6829  0.5908
 7334SOL    HW233465   2.856   0.929   0.790  0.8093 -0.3433  0.4763
 7335SOL     OW33466   2.480   0.353   7.598  0.2797 -0.1698  0.0161
 7335SOL    HW133467   2.524   0.405   7.666 -0.6999  0.2593  0.3186
 7335SOL    HW233468   2.543   0.359   7.526 -3.6454  1.5729 -3.2725
 7336SOL     OW33469   1.124   2.353   9.611 -0.6382  0.0270  1.0786
 7336SOL    HW133470   1.196   2.328   9.554 -0.0981  0.1556  1.7003
 7336SOL    HW233471   1.135   2.287   9.680 -0.1495 -2.2564 -1.2110
 7337SOL     OW33472   3.432   4.337  10.590  0.1959 -0.4638  0.4196
 7337SOL    HW133473   3.471   4.249  10.592  1.3936  0.1014  1.7565
 7337SOL    HW233474   3.384   4.342  10.673  0.6409  2.0965  0.5229
 7338SOL     OW33475   4.329   4.559   5.106  0.2150  0.3487  0.1165
 7338SOL    HW133476   4.383   4.637   5.099  0.3128  0.5157  2.7855
 7338SOL    HW233477   4.385   4.505   5.162  0.9221  0.3924 -0.5666
 7339SOL     OW33478   0.768   2.627   2.585  0.9694 -0.0836  0.1009
 7339SOL    HW133479   0.818   2.565   2.533  0.8163 -0.0748 -0.0566
 7339SOL    HW233480   0.723   2.682   2.521 -1.9967  0.5481  2.6993
 7340SOL     OW33481   4.307   3.492   4.369 -0.5089 -0.0521  0.3950
 7340SOL    HW133482   4.334   3.420   4.426 -1.3846 -1.2392 -0.7043
 7340SOL    HW233483   4.394   3.527   4.349 -0.5383 -0.1757  0.0661
 7341SOL     OW33484   1.842   3.375   5.049  0.4804 -0.1895 -0.8373
 7341SOL    HW133485   1.778   3.428   5.001  0.2430  1.1775  0.9671
 7341SOL    HW233486   1.855   3.290   5.008 -1.5915 -0.7035 -0.4443
 7342SOL     OW33487   1.172   1.639  12.326  0.3218 -0.0070  0.1413
 7342SOL    HW133488   1.235   1.653  12.396 -0.0554  1.8566  0.1209
 7342SOL    HW233489   1.115   1.715  12.309 -1.7937 -1.2095  1.8944
 7343SOL     OW33490   1.152   3.058   7.106 -0.3042 -0.1641  0.7669
 7343SOL    HW133491   1.079   3.112   7.075  0.5646 -0.7394 -2.3080
 7343SOL    HW233492   1.105   3.010   7.174 -1.6006 -1.4181 -1.0234
 7344SOL     OW33493   2.494   2.801  17.420 -0.2972 -0.1030 -0.1107
 7344SOL    HW133494   2.589   2.807  17.409 -0.1752  0.1784  1.1177
 7344SOL    HW233495   2.492   2.731  17.485 -4.7502  0.0070 -0.1478
 7345SOL     OW33496   1.617   1.533   9.176 -0.5538 -0.1537  0.2062
 7345SOL    HW133497   1.599   1.485   9.096  0.0354  1.0226 -0.6320
 7345SOL    HW233498   1.529   1.567   9.188 -1.1825 -1.2714 -1.3936
 7346SOL     OW33499   1.645   0.661   1.756 -0.1463 -0.1808  0.2731
 7346SOL    HW133500   1.581   0.718   1.799  0.5762  1.1207 -0.3952
 7346SOL    HW233501   1.722   0.708   1.787 -0.3653  1.6632 -1.9384
 7347SOL     OW33502   3.790   4.699   5.283  0.1497  0.0193 -0.2422
 7347SOL    HW133503   3.831   4.721   5.366  1.2153  0.4569 -0.8865
 7347SOL    HW233504   3.873   4.687   5.237  0.5652 -0.0131  0.5178
 7348SOL     OW33505   2.591   1.893  10.492  0.4836  0.1699  0.2660
 7348SOL    HW133506   2.571   1.836  10.418  2.6797  0.6250 -0.6671
 7348SOL    HW233507   2.515   1.874  10.548  0.2862  0.4982  0.1098
 7349SOL     OW33508   0.860   2.754  17.441 -0.0058  0.4450 -0.1313
 7349SOL    HW133509   0.807   2.733  17.518 -0.6520  1.7896 -0.2132
 7349SOL    HW233510   0.893   2.668  17.416 -2.7933 -0.3223 -1.1314
 7350SOL     OW33511   3.670   3.630   4.999  0.0690 -0.0480  0.4278
 7350SOL    HW133512   3.617   3.708   5.017  0.4459 -0.2273  2.2577
 7350SOL    HW233513   3.642   3.605   4.911  0.5164 -1.1976  0.6165
 7351SOL     OW33514   0.134   2.595  15.512  0.2236  0.5384  0.0767
 7351SOL    HW133515   0.064   2.648  15.475  0.9006  1.7150  0.4771
 7351SOL    HW233516   0.158   2.544  15.435 -0.3760  0.2451  0.0907
 7352SOL     OW33517   4.485   0.191   0.782  0.0866  0.3804 -0.6524
 7352SOL    HW133518   4.404   0.144   0.761 -1.2751  2.8288 -0.9318
 7352SOL    HW233519   4.508   0.207   0.690 -0.1182  2.8089 -0.2730
 7353SOL     OW33520   3.618   1.538   1.667 -0.1371 -0.2805 -0.3436
 7353SOL    HW133521   3.710   1.550   1.643  0.7789 -0.9243  2.9404
 7353SOL    HW233522   3.578   1.528   1.580 -0.8549  3.0412 -0.3937
 7354SOL     OW33523   3.922   0.042   7.855 -0.1494  0.0442  0.3714
 7354SOL    HW133524   3.907   4.672   7.870  2.1961 -0.3727  0.1262
 7354SOL    HW233525   3.865   0.053   7.779  2.3487  0.6496 -1.4189
 7355SOL     OW33526   4.511   1.473   0.571  0.9860 -0.1189  0.1615
 7355SOL    HW133527   4.583   1.514   0.524  1.6705  0.7628  1.9822
 7355SOL    HW233528   4.492   1.394   0.519  0.9552 -0.3032  0.4512
 7356SOL     OW33529   3.005   3.707   1.296  0.0682  0.5103  0.3896
 7356SOL    HW133530   3.051   3.629   1.325  1.4053  2.2251  2.9318
 7356SOL    HW233531   2.926   3.701   1.350 -1.0565 -2.3783 -1.6039
 7357SOL     OW33532   3.995   2.101   3.747 -1.0848 -0.0314  0.7470
 7357SOL    HW133533   4.065   2.167   3.747 -2.7314  1.7116 -0.8634
 7357SOL    HW233534   3.964   2.129   3.661 -0.2333 -1.4239 -0.0146
 7358SOL     OW33535   2.417   2.033   9.077  0.0597 -0.6583  0.6744
 7358SOL    HW133536   2.486   2.003   9.136  1.5731 -1.2023 -1.3621
 7358SOL    HW233537   2.477   2.080   9.019 -0.7166  0.8795  1.1133
 7359SOL     OW33538   1.024   1.320   7.653  0.1049  0.2677 -0.6414
 7359SOL    HW133539   1.011   1.399   7.601 -4.2069 -0.7723 -1.1590
 7359SOL    HW233540   0.963   1.338   7.725  1.3676  0.7375  0.3111
 7360SOL     OW33541   0.738   3.081   4.318  0.4884 -0.3223  0.3669
 7360SOL    HW133542   0.658   3.041   4.352 -0.1822  1.7814  1.2624
 7360SOL    HW233543   0.804   3.023   4.355 -1.4836 -1.7909  1.5428
 7361SOL     OW33544   1.454   1.824   3.915 -0.1826  0.5732 -0.0072
 7361SOL    HW133545   1.530   1.778   3.882 -1.0483 -0.4350 -0.5883
 7361SOL    HW233546   1.491   1.862   3.995  1.7223 -2.2072  0.3986
 7362SOL     OW33547   1.530   3.510   7.851 -0.1329  0.5613 -0.3015
 7362SOL    HW133548   1.551   3.437   7.909 -0.7769  1.0810  0.5791
 7362SOL    HW233549   1.494   3.458   7.779 -0.2245  1.1340 -0.6610
 7363SOL     OW33550   4.315   0.816  11.786  0.0088  0.3769  0.0865
 7363SOL    HW133551   4.286   0.728  11.759  0.1222  0.5821 -0.6866
 7363SOL    HW233552   4.233   0.863  11.767  0.5605  0.9232 -0.9202
 7364SOL     OW33553   3.823   0.732   5.917 -0.1466 -0.3918  0.6985
 7364SOL    HW133554   3.737   0.760   5.949 -0.5220  1.1091 -1.6371
 7364SOL    HW233555   3.816   0.648   5.872  1.7366  0.9079 -2.0004
 7365SOL     OW33556   4.338   4.165  10.793 -0.1859  0.1589 -0.3556
 7365SOL    HW133557   4.369   4.105  10.860  1.7027  1.4440 -0.0916
 7365SOL    HW233558   4.314   4.237  10.851  1.4280  0.7217 -0.4010
 7366SOL     OW33559   4.164   1.560   0.662  0.1930  0.1707 -0.1425
 7366SOL    HW133560   4.156   1.465   0.672 -2.4551  0.4730  0.5598
 7366SOL    HW233561   4.071   1.578   0.671  0.0584 -0.4880 -0.1932
 7367SOL     OW33562   0.182   2.324  11.194 -0.8185  0.3276 -0.0889
 7367SOL    HW133563   0.275   2.309  11.211 -1.0204  2.3602  2.8678
 7367SOL    HW233564   0.161   2.247  11.142  3.2161 -1.0443  0.2775
 7368SOL     OW33565   0.072   3.092   8.465  0.2157 -0.0803  0.7503
 7368SOL    HW133566   4.708   3.072   8.497  0.0251 -1.1158 -0.4165
 7368SOL    HW233567   0.049   3.166   8.409  1.1858 -0.4031 -0.0773
 7369SOL     OW33568   2.413   4.182  14.775 -0.0430  0.4102  0.3533
 7369SOL    HW133569   2.450   4.235  14.704  0.0955  0.3303  0.3666
 7369SOL    HW233570   2.395   4.099  14.733  1.8044  0.0048  0.3635
 7370SOL     OW33571   3.609   2.483   4.374 -0.2422 -0.5129 -0.4829
 7370SOL    HW133572   3.650   2.552   4.426 -0.3705  0.3404 -1.5348
 7370SOL    HW233573   3.632   2.508   4.285  1.6628 -1.7614 -0.3383
 7371SOL     OW33574   0.802   2.943   1.688 -0.5131  0.1631 -0.5764
 7371SOL    HW133575   0.780   2.902   1.771 -0.0656  0.6743 -0.2064
 7371SOL    HW233576   0.763   2.880   1.627  0.9777 -2.2444  0.9855
 7372SOL     OW33577   2.143   0.697  14.546 -0.2286  0.4373  0.0307
 7372SOL    HW133578   2.203   0.669  14.615 -0.8924  1.6621  1.1012
 7372SOL    HW233579   2.184   0.661  14.467  1.3397  0.2580  0.9327
 7373SOL     OW33580   1.978   2.695   5.288  0.6754  0.2526 -0.2807
 7373SOL    HW133581   1.951   2.653   5.370  2.6832  0.3634  0.4308
 7373SOL    HW233582   2.032   2.625   5.253 -0.7445 -0.4074 -1.1637
 7374SOL     OW33583   0.724   2.950   8.347  0.3577 -0.1137  0.2483
 7374SOL    HW133584   0.641   2.996   8.339  0.0746 -0.9485 -1.4746
 7374SOL    HW233585   0.695   2.875   8.398 -0.3000  1.7762  2.6878
 7375SOL     OW33586   1.662   4.140   4.562  0.3928 -0.0248  0.3007
 7375SOL    HW133587   1.643   4.134   4.656  1.2639  0.1901  0.4916
 7375SOL    HW233588   1.582   4.178   4.526  2.3011  3.6561 -0.0470
 7376SOL     OW33589   3.973   4.652  13.005 -0.1402 -0.3525  0.1874
 7376SOL    HW133590   3.918   4.575  13.012  0.5115 -0.9693 -1.5199
 7376SOL    HW233591   4.044   4.620  12.948 -0.6869 -1.0937 -0.0716
 7377SOL     OW33592   2.298   3.724   7.464  0.4720 -0.9573  0.1144
 7377SOL    HW133593   2.349   3.786   7.516  0.7978  0.0444 -1.4097
 7377SOL    HW233594   2.367   3.663   7.436  1.1528 -0.6059  1.0368
 7378SOL     OW33595   3.598   1.309   3.757 -0.0844  0.0586 -0.2879
 7378SOL    HW133596   3.589   1.253   3.680  0.0417  0.3537 -0.5164
 7378SOL    HW233597   3.691   1.331   3.759  0.3494 -1.8418  0.6497
 7379SOL     OW33598   3.756   0.604   2.190 -0.8964  0.2770 -0.2065
 7379SOL    HW133599   3.703   0.682   2.208  0.7047  0.4090  3.9405
 7379SOL    HW233600   3.690   0.548   2.150 -0.3926  0.1320 -0.8298
 7380SOL     OW33601   2.050   2.167   1.398  0.5201  0.0139 -0.6057
 7380SOL    HW133602   2.073   2.205   1.483  1.7333 -0.3982 -0.7471
 7380SOL    HW233603   2.137   2.163   1.359  0.8563  1.7600 -0.0170
 7381SOL     OW33604   1.424   4.596  14.496 -0.2303 -0.4049 -0.0943
 7381SOL    HW133605   1.510   4.635  14.477  0.1288 -0.3563  1.6194
 7381SOL    HW233606   1.366   4.669  14.475 -1.7631 -1.3151  1.0614
 7382SOL     OW33607   2.155   3.229  11.983  0.1398 -0.2520  0.5530
 7382SOL    HW133608   2.222   3.198  11.922 -1.8667  2.1610 -2.8819
 7382SOL    HW233609   2.183   3.316  12.008  0.0528  0.0434 -0.3591
 7383SOL     OW33610   0.263   4.175   5.730 -0.2272 -0.0870 -0.4479
 7383SOL    HW133611   0.276   4.270   5.734 -0.7456 -0.0505  0.3896
 7383SOL    HW233612   0.322   4.146   5.800 -0.4615 -2.2232 -1.1177
 7384SOL     OW33613   3.564   1.453   9.320 -0.1485  0.6686  0.3241
 7384SOL    HW133614   3.591   1.544   9.317 -1.9905  1.2335  1.0527
 7384SOL    HW233615   3.475   1.452   9.286 -0.6694 -0.9001  1.7312
 7385SOL     OW33616   2.224   3.968   1.367  0.1170  0.3319 -0.2786
 7385SOL    HW133617   2.250   3.889   1.414 -0.8415 -0.7126 -1.5183
 7385SOL    HW233618   2.268   4.035   1.420  0.8742 -0.9838  0.7532
 7386SOL     OW33619   0.560   2.486   4.796 -0.5659 -0.2108  0.4847
 7386SOL    HW133620   0.550   2.395   4.767 -2.9398  0.1314  0.2118
 7386SOL    HW233621   0.562   2.471   4.891  2.6128  1.5563  0.6889
 7387SOL     OW33622   4.163   3.101   6.591 -0.1660  0.0263 -0.2349
 7387SOL    HW133623   4.187   3.011   6.613 -2.4183 -1.1019 -2.4064
 7387SOL    HW233624   4.088   3.084   6.533  0.8737 -0.8380 -1.3314
 7388SOL     OW33625   3.043   3.248   3.458 -0.3671 -0.2842  0.3827
 7388SOL    HW133626   3.058   3.154   3.450 -1.2319 -0.4707  1.0184
 7388SOL    HW233627   3.131   3.278   3.481  0.2083 -1.3537 -0.4189
 7389SOL     OW33628   4.444   0.675  15.805  0.2000 -0.1388 -0.1503
 7389SOL    HW133629   4.437   0.592  15.853  2.4749  0.2654  0.8564
 7389SOL    HW233630   4.405   0.644  15.723 -2.8873  2.9285  0.1450
 7390SOL     OW33631   2.636   1.651   7.385  0.3118  0.3664 -0.1077
 7390SOL    HW133632   2.608   1.591   7.315 -0.6826  0.2038  0.4205
 7390SOL    HW233633   2.703   1.599   7.428  0.1602  0.8569  0.7152
 7391SOL     OW33634   4.612   4.041   8.608 -0.2266 -0.1994  0.7417
 7391SOL    HW133635   4.615   4.135   8.592 -0.0148 -0.4742 -0.8588
 7391SOL    HW233636   4.697   4.032   8.650  0.7564 -2.0388 -1.6303
 7392SOL     OW33637   2.056   1.142   8.798  0.0616  0.1954  0.1986
 7392SOL    HW133638   2.012   1.147   8.713 -0.7271  1.7008  0.6977
 7392SOL    HW233639   2.126   1.207   8.795 -0.5462  0.8289 -0.2047
 7393SOL     OW33640   2.209   1.056   4.392 -0.0665  0.1031 -0.6244
 7393SOL    HW133641   2.152   1.130   4.411 -0.3206 -0.4785  0.8378
 7393SOL    HW233642   2.262   1.090   4.319 -0.4254 -0.0710 -0.9666
 7394SOL     OW33643   1.330   3.821  16.756  0.4273 -0.1976 -0.0227
 7394SOL    HW133644   1.352   3.849  16.845  0.0977 -0.4338  0.1315
 7394SOL    HW233645   1.418   3.823  16.717  0.7734 -2.0214  0.6471
 7395SOL     OW33646   2.471   0.894   4.173  0.3652  0.5901  0.3081
 7395SOL    HW133647   2.445   0.985   4.183  1.3410  0.8998  0.0111
 7395SOL    HW233648   2.399   0.846   4.215  0.4235 -0.4580 -0.7780
 7396SOL     OW33649   1.967   0.683   7.107  0.0873 -0.1809  0.5378
 7396SOL    HW133650   1.970   0.612   7.043 -0.1051 -1.1593  1.6043
 7396SOL    HW233651   2.037   0.741   7.076  0.7931 -1.8859 -1.1108
 7397SOL     OW33652   0.505   0.399  10.782  0.0755  0.3089  0.2747
 7397SOL    HW133653   0.511   0.347  10.862  2.6571  0.5090  0.2275
 7397SOL    HW233654   0.438   0.462  10.808  0.7935 -0.2798  3.6285
 7398SOL     OW33655   3.550   3.272  16.345  0.1252 -0.0964 -0.3569
 7398SOL    HW133656   3.517   3.183  16.358 -0.0191  0.2555  1.7787
 7398SOL    HW233657   3.502   3.288  16.264 -0.3713  0.4306  0.0353
 7399SOL     OW33658   4.245   3.686   1.710  0.4557 -0.2633  0.1762
 7399SOL    HW133659   4.210   3.762   1.756  0.4320 -0.5854  0.6978
 7399SOL    HW233660   4.163   3.658   1.669 -0.2486  0.3553  1.1546
 7400SOL     OW33661   0.458   1.406   3.392  0.6948  0.4763 -0.4461
 7400SOL    HW133662   0.504   1.490   3.395  1.1232  0.2316 -0.1790
 7400SOL    HW233663   0.464   1.369   3.304  0.3096  0.5623 -0.5081
 7401SOL     OW33664   4.259   4.284   0.635 -0.3607 -0.0384  0.0961
 7401SOL    HW133665   4.317   4.309   0.562  0.3387  2.7062  1.5712
 7401SOL    HW233666   4.272   4.363   0.688  2.4248  1.7263 -3.1940
 7402SOL     OW33667   3.450   2.962   2.740 -0.1855  0.0150 -0.2718
 7402SOL    HW133668   3.393   2.942   2.666 -3.2887 -0.8865  2.3611
 7402SOL    HW233669   3.527   3.005   2.702 -0.0426 -0.0989 -0.1107
 7403SOL     OW33670   4.027   0.922   6.324 -0.1631  0.0828  0.2382
 7403SOL    HW133671   4.056   0.874   6.247  2.0485 -1.0346  1.7521
 7403SOL    HW233672   3.941   0.952   6.295 -0.7075  0.2478  1.9888
 7404SOL     OW33673   0.730   0.857   0.879  0.3921 -0.3191 -0.3051
 7404SOL    HW133674   0.760   0.943   0.908  2.3721 -1.0299 -0.2134
 7404SOL    HW233675   0.763   0.860   0.789  0.8544 -1.2517 -0.1750
 7405SOL     OW33676   3.635   0.941  17.292 -0.1043  0.2127 -0.1252
 7405SOL    HW133677   3.687   0.885  17.234 -2.2447  1.2704 -3.0501
 7405SOL    HW233678   3.689   1.019  17.294  3.6881 -2.4124  0.4324
 7406SOL     OW33679   1.190   2.990   8.092  0.3315  0.6993 -0.3566
 7406SOL    HW133680   1.121   2.951   8.145 -0.8240 -1.1409 -3.2663
 7406SOL    HW233681   1.242   3.040   8.155  0.1796 -1.2103  1.3044
 7407SOL     OW33682   3.999   3.629   1.603  0.0257 -0.4788  0.1573
 7407SOL    HW133683   4.030   3.603   1.516  1.5174 -0.7259  0.7706
 7407SOL    HW233684   3.931   3.564   1.619  0.8681 -1.2490  0.5765
 7408SOL     OW33685   0.587   3.243   5.258  0.0761  0.1481 -0.7146
 7408SOL    HW133686   0.642   3.320   5.241  1.0010 -0.1437  0.9761
 7408SOL    HW233687   0.500   3.274   5.231 -0.2862 -0.8935 -0.7693
 7409SOL     OW33688   2.169   1.381   5.541  0.4233  0.2317  0.0730
 7409SOL    HW133689   2.209   1.450   5.593  1.5140  0.4650 -1.0889
 7409SOL    HW233690   2.217   1.403   5.461 -0.8539 -2.4292 -1.4595
 7410SOL     OW33691   3.114   4.118   8.129 -0.8030  1.1592 -0.8258
 7410SOL    HW133692   3.144   4.030   8.154 -1.6491  0.7098 -1.4256
 7410SOL    HW233693   3.196   4.153   8.092  1.2063  0.5232  2.9815
 7411SOL     OW33694   2.112   2.279   5.201 -0.6071 -0.5889 -0.0618
 7411SOL    HW133695   2.077   2.251   5.285 -1.5601 -1.3362 -0.6972
 7411SOL    HW233696   2.152   2.194   5.180  0.6012 -0.4236  1.6259
 7412SOL     OW33697   1.981   1.279   8.335  0.1899  0.2333  0.1273
 7412SOL    HW133698   2.053   1.218   8.322  0.2872  0.4838 -0.5445
 7412SOL    HW233699   2.030   1.353   8.372  0.6138 -0.7977  1.5845
 7413SOL     OW33700   2.300   4.509   8.482 -0.4055  0.0468 -0.0592
 7413SOL    HW133701   2.236   4.527   8.550 -0.7775  0.9192 -0.6376
 7413SOL    HW233702   2.345   4.594   8.479 -0.4138  0.1275  2.6201
 7414SOL     OW33703   4.651   4.687   8.178  0.7511 -0.7184  0.1395
 7414SOL    HW133704   4.630   0.013   8.256 -0.0733  0.5392 -0.8869
 7414SOL    HW233705   4.658   4.600   8.216  1.1572  0.1643  2.0833
 7415SOL     OW33706   1.898   0.944   8.235  0.2928  0.1976  0.1668
 7415SOL    HW133707   1.876   0.941   8.328  0.5352 -1.3266  0.1776
 7415SOL    HW233708   1.844   1.020   8.214 -2.8697 -2.2422 -0.4767
 7416SOL     OW33709   4.043   4.577   2.103  0.0077 -0.1462 -0.1813
 7416SOL    HW133710   4.137   4.561   2.090 -0.2787 -1.5856 -0.4531
 7416SOL    HW233711   4.046   4.671   2.122 -2.2960  0.2037 -1.5864
 7417SOL     OW33712   0.765   1.564  11.039 -0.4008 -0.2709  0.1704
 7417SOL    HW133713   0.678   1.526  11.027 -0.7522 -0.4111  3.1285
 7417SOL    HW233714   0.752   1.598  11.127 -2.7609 -2.1807  0.5536
 7418SOL     OW33715   1.812   2.336   3.022  0.3663  0.2289  0.5695
 7418SOL    HW133716   1.795   2.325   2.929 -1.6635 -0.8286  1.0601
 7418SOL    HW233717   1.721   2.357   3.042  0.2807 -0.0225  0.4485
 7419SOL     OW33718   3.153   0.191   5.971 -0.1064 -0.2447  0.4117
 7419SOL    HW133719   3.229   0.248   5.985 -0.5952  0.9211 -1.7402
 7419SOL    HW233720   3.157   0.133   6.048  0.7822  0.1599  0.6770
 7420SOL     OW33721   0.808   4.092  13.352 -0.0036 -0.2265 -0.0094
 7420SOL    HW133722   0.743   4.030  13.321  0.8576  0.0837 -2.4627
 7420SOL    HW233723   0.877   4.031  13.379 -0.6345 -1.0435 -0.2660
 7421SOL     OW33724   3.300   2.305  16.969 -0.2739  0.0660 -0.0197
 7421SOL    HW133725   3.210   2.335  16.984 -0.1092 -0.1490  1.4090
 7421SOL    HW233726   3.313   2.331  16.878  0.8058 -0.4435 -0.0031
 7422SOL     OW33727   1.979   2.527   6.306  0.2433  0.0045 -0.4291
 7422SOL    HW133728   2.045   2.459   6.315  0.7252  0.2100 -2.2599
 7422SOL    HW233729   1.901   2.472   6.303 -0.8922  1.6203 -0.5526
 7423SOL     OW33730   3.820   3.878   5.650 -0.2966  0.3204  0.1949
 7423SOL    HW133731   3.772   3.908   5.573  0.1819 -1.0270 -0.6187
 7423SOL    HW233732   3.901   3.924   5.628 -1.6791  3.6143  1.9440
 7424SOL     OW33733   0.659   1.235   3.567  0.0287 -0.4824 -0.5990
 7424SOL    HW133734   0.590   1.220   3.503 -0.2280  0.7352 -0.6124
 7424SOL    HW233735   0.636   1.155   3.614 -0.3353  0.9817  1.7146
 7425SOL     OW33736   3.047   0.194  10.180 -0.5241  0.1180 -0.0055
 7425SOL    HW133737   3.008   0.175  10.094 -3.8453 -1.0471  1.7848
 7425SOL    HW233738   2.969   0.188  10.236 -1.2623  1.7333 -0.8491
 7426SOL     OW33739   1.799   3.311   1.634 -0.0109 -0.2156 -0.2516
 7426SOL    HW133740   1.802   3.222   1.670  0.3326 -1.0078 -2.2126
 7426SOL    HW233741   1.750   3.369   1.692 -0.0091 -0.5819  0.1150
 7427SOL     OW33742   3.445   0.244   9.981  0.0138 -0.2572  0.3683
 7427SOL    HW133743   3.396   0.203   9.911  0.8192  1.9073 -1.4571
 7427SOL    HW233744   3.468   0.184  10.052 -1.4066 -0.8468  0.3305
 7428SOL     OW33745   2.072   0.455   6.989 -0.2083 -0.5759 -0.2793
 7428SOL    HW133746   2.109   0.453   7.077  2.1446 -0.1977 -1.2787
 7428SOL    HW233747   2.097   0.369   6.958 -0.2548 -0.5342 -0.4336
 7429SOL     OW33748   1.839   2.457   4.835  0.3836  0.2774  0.1331
 7429SOL    HW133749   1.889   2.514   4.894 -1.0500  0.9884  0.6693
 7429SOL    HW233750   1.761   2.447   4.890  0.0891 -0.3571 -0.3929
 7430SOL     OW33751   4.176   3.333   7.903 -0.2768  0.1393  0.2387
 7430SOL    HW133752   4.219   3.404   7.856  0.5198 -0.5454 -0.0658
 7430SOL    HW233753   4.103   3.312   7.845  0.3308  2.2599 -1.2616
 7431SOL     OW33754   1.143   1.683   4.371  0.3737  0.1883 -0.6523
 7431SOL    HW133755   1.119   1.658   4.281  1.5458 -0.1527 -0.8784
 7431SOL    HW233756   1.122   1.775   4.384  1.9971  0.5776 -0.7583
 7432SOL     OW33757   3.765   3.527   4.432  0.0347 -0.3545 -0.4084
 7432SOL    HW133758   3.737   3.607   4.476 -2.3788 -0.1431 -2.2755
 7432SOL    HW233759   3.857   3.546   4.413 -0.1573  1.8094  0.8581
 7433SOL     OW33760   1.597   4.129   6.793 -0.2610 -0.3897 -0.0723
 7433SOL    HW133761   1.537   4.089   6.855  0.4442 -2.7152 -0.8923
 7433SOL    HW233762   1.609   4.058   6.730 -0.7051 -0.7751  0.2753
 7434SOL     OW33763   4.716   2.042  10.594  0.1042 -0.2676 -0.0764
 7434SOL    HW133764   0.085   2.065  10.594  0.3457 -1.3326  4.6146
 7434SOL    HW233765   4.715   1.950  10.568 -0.6120 -0.3971  0.4263
 7435SOL     OW33766   3.752   2.985   5.675  0.1740 -0.6593 -0.4425
 7435SOL    HW133767   3.680   3.044   5.652  2.0389  1.2441 -1.4744
 7435SOL    HW233768   3.762   3.003   5.769 -1.4214 -0.0439 -0.3913
 7436SOL     OW33769   3.345   0.902   1.138 -0.2393 -0.1323 -0.6675
 7436SOL    HW133770   3.431   0.862   1.151 -0.2628 -0.5338 -1.7138
 7436SOL    HW233771   3.321   0.954   1.215  2.5735 -1.2621  0.9612
 7437SOL     OW33772   4.380   0.206  15.286 -0.7430 -0.2618  0.1435
 7437SOL    HW133773   4.435   0.146  15.236 -0.7981  0.4308 -0.7451
 7437SOL    HW233774   4.356   0.147  15.357 -0.0612  0.0109  0.5989
 7438SOL     OW33775   3.163   4.436   4.013 -0.0980  0.1747  0.0875
 7438SOL    HW133776   3.241   4.433   3.957 -1.6327 -0.3113 -2.0493
 7438SOL    HW233777   3.196   4.461   4.099 -0.7036 -1.7525  0.8645
 7439SOL     OW33778   4.659   2.889  12.130  0.4678  0.3765  0.9725
 7439SOL    HW133779   4.624   2.978  12.134 -0.5587  0.0795 -1.2667
 7439SOL    HW233780   0.024   2.900  12.095  0.6061 -0.1879  1.1453
 7440SOL     OW33781   3.090   3.286  13.710 -0.0771  1.1383  0.6023
 7440SOL    HW133782   3.011   3.339  13.716  0.0214  1.4560 -0.8467
 7440SOL    HW233783   3.131   3.329  13.635  0.4973  0.1632  0.3638
 7441SOL     OW33784   3.531   4.446   6.948  0.3261 -0.0010 -0.2354
 7441SOL    HW133785   3.445   4.443   6.907  0.2221 -3.2485  0.2003
 7441SOL    HW233786   3.538   4.538   6.974 -1.0491 -0.5358  2.0686
 7442SOL     OW33787   0.554   3.875  12.131  0.0000  0.2986 -0.3735
 7442SOL    HW133788   0.551   3.794  12.181  0.4382 -0.2820 -1.2865
 7442SOL    HW233789   0.557   3.945  12.197 -2.1452 -1.1901  1.2997
 7443SOL     OW33790   1.842   4.531   1.966  0.0167  0.6911 -0.0874
 7443SOL    HW133791   1.874   4.605   2.017  0.4114 -0.4014  1.2602
 7443SOL    HW233792   1.776   4.578   1.915  0.5178  0.5382 -0.8644
 7444SOL     OW33793   4.079   0.367  13.134 -0.3847 -0.3451  0.2031
 7444SOL    HW133794   4.085   0.462  13.123 -0.0799 -0.3477  0.3418
 7444SOL    HW233795   4.124   0.355  13.218  1.5448 -1.0663 -0.9632
 7445SOL     OW33796   4.622   3.304   4.088 -0.5323  0.0283 -0.6072
 7445SOL    HW133797   4.650   3.258   4.009  2.2955 -1.2092  1.0997
 7445SOL    HW233798   4.530   3.318   4.067 -0.6567  1.2042  0.7215
 7446SOL     OW33799   1.575   3.098  16.472  0.2037  0.0741  0.4040
 7446SOL    HW133800   1.636   3.153  16.522  1.0558  0.6691 -1.2586
 7446SOL    HW233801   1.494   3.144  16.492 -0.7819 -1.3542 -0.2750
 7447SOL     OW33802   3.130   3.877   3.753 -0.1427 -0.5197 -0.3038
 7447SOL    HW133803   3.041   3.913   3.744  1.0330  1.9610 -1.9390
 7447SOL    HW233804   3.139   3.832   3.669 -1.7680 -1.9141  0.2734
 7448SOL     OW33805   1.957   3.275   4.440 -0.5404  0.0128  0.3256
 7448SOL    HW133806   1.876   3.325   4.429 -1.5826 -1.8450 -0.4572
 7448SOL    HW233807   1.998   3.315   4.516  0.1203  1.7344 -0.9368
 7449SOL     OW33808   4.626   2.951   7.041  0.0064  0.2251 -0.8245
 7449SOL    HW133809   4.564   2.881   7.022 -0.1396  0.7073 -2.1160
 7449SOL    HW233810   4.611   3.028   6.986 -2.4057  0.2332 -0.1486
 7450SOL     OW33811   4.084   2.332   0.579  0.3581  0.1004  0.3846
 7450SOL    HW133812   4.137   2.296   0.650  1.5130  0.8386 -0.1130
 7450SOL    HW233813   4.161   2.377   0.545  0.3116 -0.9765 -1.1541
 7451SOL     OW33814   3.605   4.099   7.506  0.2771 -0.4387  0.4467
 7451SOL    HW133815   3.518   4.061   7.516 -0.4833  1.7921  2.1733
 7451SOL    HW233816   3.661   4.040   7.456  0.4982 -0.2897  0.5149
 7452SOL     OW33817   0.552   1.772   1.918  0.7844  0.0958 -0.8283
 7452SOL    HW133818   0.618   1.839   1.901  2.2481 -0.6964  1.6898
 7452SOL    HW233819   0.501   1.813   1.988  0.3371 -1.1148 -0.4338
 7453SOL     OW33820   3.220   3.139   4.430  0.1488 -0.4867  0.4953
 7453SOL    HW133821   3.243   3.107   4.517  0.7674  0.0618  0.5345
 7453SOL    HW233822   3.136   3.097   4.410  1.3200 -1.2289 -2.8356
 7454SOL     OW33823   1.906   3.837   0.552 -0.1952 -0.7909  1.3475
 7454SOL    HW133824   1.987   3.829   0.604  2.1477  1.6319 -1.8998
 7454SOL    HW233825   1.843   3.808   0.618  0.2153  2.2543  3.0969
 7455SOL     OW33826   2.081   0.438   6.031 -0.1535 -0.2382  0.0614
 7455SOL    HW133827   2.068   0.532   6.023 -5.3006 -1.1250 -2.0197
 7455SOL    HW233828   2.029   0.430   6.111 -0.3947 -1.5853 -0.2335
 7456SOL     OW33829   3.084   3.115  15.816  0.2691  0.1365 -0.5569
 7456SOL    HW133830   3.019   3.181  15.842  0.6281  1.1624 -2.2488
 7456SOL    HW233831   3.032   3.046  15.775 -1.2339 -0.6576  2.7118
 7457SOL     OW33832   3.621   3.340  14.030  0.3913  0.4153 -0.1183
 7457SOL    HW133833   3.576   3.256  14.029 -2.4247  1.9124  0.8946
 7457SOL    HW233834   3.588   3.383  14.109  2.0150 -1.7377  1.7264
 7458SOL     OW33835   3.342   4.340   3.026 -0.0241 -0.2561 -0.5514
 7458SOL    HW133836   3.285   4.286   2.971 -0.2105  0.0207 -0.6292
 7458SOL    HW233837   3.424   4.318   2.981 -0.0610  2.8608 -2.1526
 7459SOL     OW33838   3.102   0.439   3.822 -0.2226 -0.0141  0.4585
 7459SOL    HW133839   3.127   0.369   3.762  0.2173 -0.6589  1.3969
 7459SOL    HW233840   3.020   0.471   3.785 -0.0121  2.5077  2.1289
 7460SOL     OW33841   2.971   1.290   1.904  0.0756 -0.3229  0.0862
 7460SOL    HW133842   2.960   1.272   1.810  1.7839 -0.4028 -0.1025
 7460SOL    HW233843   3.065   1.289   1.921  0.5212  1.1906 -2.3485
 7461SOL     OW33844   3.805   0.976   7.973 -0.0447 -0.1497  1.0693
 7461SOL    HW133845   3.796   1.064   7.936 -1.3703  0.7516  3.4843
 7461SOL    HW233846   3.897   0.953   7.961 -0.4771 -2.5947  2.4082
 7462SOL     OW33847   3.042   2.436   7.447  0.1378  0.6338  0.4723
 7462SOL    HW133848   3.054   2.344   7.470 -2.6389  0.3190  0.5673
 7462SOL    HW233849   3.134   2.463   7.453  0.5412 -0.1218 -2.5578
 7463SOL     OW33850   1.031   3.092   1.701  0.1451 -0.1243  0.1654
 7463SOL    HW133851   0.942   3.057   1.694 -0.5575  1.4908  1.0644
 7463SOL    HW233852   1.029   3.114   1.608 -1.6970  1.9598  0.7086
 7464SOL     OW33853   1.493   3.179   8.429 -0.5363  0.5809 -0.4547
 7464SOL    HW133854   1.412   3.188   8.378 -0.5943 -0.9437 -0.6295
 7464SOL    HW233855   1.534   3.265   8.418  1.1746 -0.2400 -0.6149
 7465SOL     OW33856   2.276   1.076   1.426  0.1779  0.2428 -0.0321
 7465SOL    HW133857   2.243   1.157   1.465  0.7613  0.6860 -0.4638
 7465SOL    HW233858   2.224   1.008   1.469 -0.2821  0.6320  0.0289
 7466SOL     OW33859   2.432   0.392   6.370  0.1506  0.4760 -0.1515
 7466SOL    HW133860   2.363   0.429   6.426 -0.0755  0.2953 -0.3098
 7466SOL    HW233861   2.396   0.390   6.281  1.7027  2.7762 -0.8402
 7467SOL     OW33862   2.493   1.927  10.092 -0.2795 -0.3893 -0.1344
 7467SOL    HW133863   2.484   1.872  10.169  1.6007 -1.0141 -0.3666
 7467SOL    HW233864   2.426   1.996  10.096  1.1363  0.7699  3.0684
 7468SOL     OW33865   0.189   4.480   8.006 -0.4959 -0.1891  0.0053
 7468SOL    HW133866   0.265   4.500   8.060 -0.7789  0.5243  0.1318
 7468SOL    HW233867   0.220   4.401   7.961  0.1284  0.4208 -0.6425
 7469SOL     OW33868   0.350   3.563  13.399 -0.1652 -0.2198  0.2930
 7469SOL    HW133869   0.298   3.578  13.477 -0.4943  2.4801 -0.4389
 7469SOL    HW233870   0.437   3.551  13.438  0.4004  2.6344 -0.1069
 7470SOL     OW33871   0.394   0.211   2.971  0.4885  0.3410  0.0476
 7470SOL    HW133872   0.412   0.121   2.996  0.3485 -0.1186 -1.5582
 7470SOL    HW233873   0.380   0.207   2.877 -0.0285 -0.6628  0.1749
 7471SOL     OW33874   1.720   0.272  14.504 -0.2719 -0.1253  0.0042
 7471SOL    HW133875   1.665   0.289  14.427 -0.4341  3.0416  0.7923
 7471SOL    HW233876   1.756   0.360  14.512 -1.6914  0.3223  1.4573
 7472SOL     OW33877   1.932   0.242  11.010  1.0399 -0.2308 -0.5448
 7472SOL    HW133878   1.909   0.334  10.994 -2.5805 -1.3404 -1.7323
 7472SOL    HW233879   1.933   0.244  11.106 -0.1548  0.0114 -0.5280
 7473SOL     OW33880   0.610   3.021   4.586  0.4118  0.3730  0.5075
 7473SOL    HW133881   0.703   3.040   4.594  0.9320 -1.8369 -0.3652
 7473SOL    HW233882   0.575   3.108   4.603 -3.0764 -1.0775  0.9241
 7474SOL     OW33883   2.658   0.751  10.851 -0.1874 -0.2686  0.9531
 7474SOL    HW133884   2.675   0.833  10.804  0.2652 -1.0044 -0.1783
 7474SOL    HW233885   2.732   0.697  10.823 -1.7948 -2.6673  1.3668
 7475SOL     OW33886   4.482   2.911  10.639  0.9312 -0.5787 -0.5374
 7475SOL    HW133887   4.538   2.896  10.715  2.2462  0.0940 -1.3804
 7475SOL    HW233888   4.481   2.823  10.600 -1.3395 -0.8551  0.1500
 7476SOL     OW33889   1.798   1.081   1.724  0.2611  0.0226 -0.9621
 7476SOL    HW133890   1.839   1.163   1.751 -0.2524  0.0347 -0.2251
 7476SOL    HW233891   1.722   1.064   1.781  0.5697 -0.2635 -0.6320
 7477SOL     OW33892   3.851   3.173   4.821  0.7551 -0.1215  0.0785
 7477SOL    HW133893   3.766   3.130   4.812  0.4785  1.0115 -2.5886
 7477SOL    HW233894   3.874   3.203   4.733  0.7935 -0.9735 -0.2053
 7478SOL     OW33895   0.892   2.329   4.233 -0.2174 -0.0683 -0.0118
 7478SOL    HW133896   0.948   2.394   4.192 -0.0913  0.2210  0.6286
 7478SOL    HW233897   0.921   2.247   4.194  1.8848  1.1237 -0.9197
 7479SOL     OW33898   3.639   0.829  14.255 -0.3746  0.0305 -0.4825
 7479SOL    HW133899   3.727   0.848  14.288 -0.9251  2.7671 -0.5863
 7479SOL    HW233900   3.583   0.897  14.292 -0.4248 -1.6264  2.4791
 7480SOL     OW33901   2.124   4.073   5.321 -0.3432 -0.6867 -0.3244
 7480SOL    HW133902   2.135   4.119   5.404  1.1059  1.4762 -1.7086
 7480SOL    HW233903   2.194   4.009   5.330 -0.9046 -0.7510  3.2833
 7481SOL     OW33904   2.499   4.375  14.169 -0.2610 -0.7884 -0.1033
 7481SOL    HW133905   2.553   4.454  14.172 -0.6732 -0.4317 -2.1481
 7481SOL    HW233906   2.460   4.385  14.083 -2.0424  2.0056  1.0479
 7482SOL     OW33907   3.303   0.793   3.633  0.1193 -0.2850  0.1329
 7482SOL    HW133908   3.255   0.859   3.583  1.4197 -0.5371 -1.4311
 7482SOL    HW233909   3.235   0.726   3.643 -0.0504 -0.0761  0.3922
 7483SOL     OW33910   3.761   1.281   9.160 -0.2763  0.4313  0.3642
 7483SOL    HW133911   3.689   1.320   9.210 -0.7432  0.7486 -0.5423
 7483SOL    HW233912   3.781   1.364   9.116 -0.0214 -0.2679 -0.8470
 7484SOL     OW33913   2.558   0.908  12.553  0.0577 -0.6901 -1.0584
 7484SOL    HW133914   2.562   1.003  12.567  0.5781 -0.9510  0.5988
 7484SOL    HW233915   2.617   0.880  12.623 -0.9313 -1.1129 -0.3933
 7485SOL     OW33916   2.509   3.823  12.620  0.0571 -0.0035 -0.3135
 7485SOL    HW133917   2.531   3.888  12.554  1.6702 -1.2555 -1.0042
 7485SOL    HW233918   2.430   3.858  12.661 -0.0614 -0.9427  0.2799
 7486SOL     OW33919   4.623   2.232   1.715 -0.0259 -0.1498 -0.1791
 7486SOL    HW133920   4.626   2.141   1.744  1.9656 -0.5404 -1.6377
 7486SOL    HW233921   4.552   2.264   1.771  0.4512 -1.1591  0.9933
 7487SOL     OW33922   3.360   3.700  15.930 -0.0015  0.2271 -0.2077
 7487SOL    HW133923   3.411   3.628  15.968  1.7777 -0.3268 -3.6176
 7487SOL    HW233924   3.438   3.736  15.887 -0.5597  0.8450 -0.7103
 7488SOL     OW33925   2.601   3.770   2.892  0.4276 -0.5730  0.4716
 7488SOL    HW133926   2.661   3.804   2.826  0.5727  0.9396  1.3866
 7488SOL    HW233927   2.522   3.792   2.842  0.5452 -3.3677 -0.9553
 7489SOL     OW33928   2.461   2.023   8.239  0.4203 -0.3609 -0.1321
 7489SOL    HW133929   2.501   2.006   8.153  0.7850 -0.3318  0.0292
 7489SOL    HW233930   2.366   2.019   8.234  0.2536  1.8210  1.3260
 7490SOL     OW33931   3.685   0.544   8.260  0.1386  0.2445 -0.0063
 7490SOL    HW133932   3.689   0.565   8.353  0.8417 -0.4497  0.1271
 7490SOL    HW233933   3.684   0.633   8.224 -0.9252  0.6126  0.9355
 7491SOL     OW33934   0.423   1.582  15.639 -0.0557  0.0136  0.0868
 7491SOL    HW133935   0.394   1.584  15.548 -0.3292 -3.4435  0.1228
 7491SOL    HW233936   0.494   1.523  15.614  0.9576  0.3428  2.1793
 7492SOL     OW33937   0.159   2.653   5.192  0.5027 -0.7808  0.4471
 7492SOL    HW133938   0.226   2.720   5.204  0.9394 -1.6969  3.1039
 7492SOL    HW233939   0.188   2.599   5.118  0.5714  1.2043 -0.9646
 7493SOL     OW33940   3.603   1.730   8.053 -0.2875 -0.4506  0.0378
 7493SOL    HW133941   3.508   1.740   8.042 -0.3989 -0.6903  0.7827
 7493SOL    HW233942   3.626   1.807   8.105 -1.9343  0.1514 -0.1106
 7494SOL     OW33943   4.066   0.048   7.563  0.0870  0.6507  0.0061
 7494SOL    HW133944   4.111   0.132   7.574 -0.7876  0.9461  1.3958
 7494SOL    HW233945   4.110   0.004   7.635 -1.3630  0.0359  0.5320
 7495SOL     OW33946   0.686   0.452   1.145  0.0649 -0.0413  0.0480
 7495SOL    HW133947   0.603   0.497   1.157 -0.0567 -1.0722  3.1663
 7495SOL    HW233948   0.658   0.361   1.154  1.7362 -0.4746  1.0366
 7496SOL     OW33949   3.749   3.949   8.849  0.0907  0.3370  0.4704
 7496SOL    HW133950   3.728   4.021   8.789  0.1851 -1.5157 -1.7849
 7496SOL    HW233951   3.776   3.992   8.930 -1.7296  1.5431  0.4327
 7497SOL     OW33952   2.647   2.244   4.005 -0.0169 -0.7320 -0.8423
 7497SOL    HW133953   2.722   2.303   4.003 -0.6562  0.1000 -0.1799
 7497SOL    HW233954   2.655   2.190   4.084  0.0382  0.7104  0.1279
 7498SOL     OW33955   4.113   3.925   2.698 -0.2231  0.0192  0.0866
 7498SOL    HW133956   4.088   3.921   2.605 -1.1455 -3.1009  0.4878
 7498SOL    HW233957   4.178   3.855   2.707  0.4432  0.5425 -0.6827
 7499SOL     OW33958   1.446   2.201   5.008  0.1289  0.3673  0.0770
 7499SOL    HW133959   1.359   2.210   4.968 -1.3728  0.9161  3.3698
 7499SOL    HW233960   1.490   2.151   4.940  0.0857 -0.4665  0.6687
 7500SOL     OW33961   3.083   2.810   8.144  0.5990  0.2383  0.2911
 7500SOL    HW133962   3.135   2.730   8.138  1.7729  1.0418 -0.3132
 7500SOL    HW233963   3.117   2.856   8.221 -1.2295  2.0130  0.0514
 7501SOL     OW33964   2.324   2.239   1.837 -0.1878  0.4624 -0.5393
 7501SOL    HW133965   2.334   2.243   1.742  2.1240 -1.3201 -0.3740
 7501SOL    HW233966   2.344   2.330   1.860  1.2043 -0.1724  0.8206
 7502SOL     OW33967   1.863   1.114  13.644  0.4963  0.0042  0.5405
 7502SOL    HW133968   1.791   1.176  13.641 -0.2924 -0.7123  4.2156
 7502SOL    HW233969   1.937   1.168  13.673  1.3030  0.6471 -2.7043
 7503SOL     OW33970   4.022   1.179  13.786  0.3614  0.0099 -0.7363
 7503SOL    HW133971   4.071   1.128  13.850  2.1525  3.5653  0.7760
 7503SOL    HW233972   4.081   1.233  13.733  0.4507  0.4813 -0.1618
 7504SOL     OW33973   2.595   3.842   4.959 -0.2055  0.4317  0.2951
 7504SOL    HW133974   2.530   3.835   4.890 -1.1161  2.3994  0.9445
 7504SOL    HW233975   2.614   3.936   4.954  1.0737  0.2190  1.0233
 7505SOL     OW33976   2.482   4.649  16.245  0.0051  0.2951  0.1481
 7505SOL    HW133977   2.566   4.651  16.200  0.8188  0.7559  1.6624
 7505SOL    HW233978   2.422   4.649  16.171  1.3823  0.7446 -0.9556
 7506SOL     OW33979   1.436   0.282   7.057  0.0248  0.4538  0.0164
 7506SOL    HW133980   1.363   0.268   6.998 -0.0737 -1.7369  0.6277
 7506SOL    HW233981   1.393   0.335   7.124 -1.0555 -0.6967  0.2254
 7507SOL     OW33982   3.193   3.826   0.385  0.4376 -0.5192  0.0972
 7507SOL    HW133983   3.138   3.899   0.413  0.0811 -0.1414 -1.5448
 7507SOL    HW233984   3.215   3.796   0.473 -0.2597 -0.3963  0.3178
 7508SOL     OW33985   2.865   3.328   6.367  0.7305  0.1427  0.7878
 7508SOL    HW133986   2.893   3.390   6.299  0.4021 -0.6859 -0.0984
 7508SOL    HW233987   2.799   3.383   6.411 -0.2737  0.4362 -1.0986
 7509SOL     OW33988   3.649   1.611   1.935  0.5276  0.4256 -0.1834
 7509SOL    HW133989   3.631   1.613   1.841  0.0671  0.9374 -0.0863
 7509SOL    HW233990   3.682   1.701   1.947  1.1462  0.1983 -0.1787
 7510SOL     OW33991   4.040   3.863   8.953  0.1225  0.1294 -0.0860
 7510SOL    HW133992   4.041   3.902   9.041  0.0357 -0.3306  0.1168
 7510SOL    HW233993   4.121   3.900   8.917  0.2370  0.8680  0.9283
 7511SOL     OW33994   2.810   1.606   2.276  0.2048  0.1661 -0.0721
 7511SOL    HW133995   2.799   1.532   2.216  0.9203  0.9535 -1.1774
 7511SOL    HW233996   2.873   1.661   2.230 -0.6547  0.5267 -0.8185
 7512SOL     OW33997   3.103   1.737  12.655 -0.0262  0.0686 -0.1320
 7512SOL    HW133998   3.052   1.724  12.575 -0.3857 -2.5198  0.5134
 7512SOL    HW233999   3.041   1.753  12.727  0.7861 -3.3969  1.2955
 7513SOL     OW34000   2.996   1.318   3.223  0.0191 -0.3375 -0.2495
 7513SOL    HW134001   2.978   1.265   3.301  0.8841 -0.7444 -0.3296
 7513SOL    HW234002   3.015   1.404   3.260 -1.6198 -0.8567  1.7927
 7514SOL     OW34003   0.373   0.716   0.367 -0.1372 -0.1786  0.1346
 7514SOL    HW134004   0.281   0.701   0.342 -1.1791  1.5220  2.9040
 7514SOL    HW234005   0.371   0.809   0.342 -0.2966  0.2889  1.8745
 7515SOL     OW34006   3.646   1.487   7.340  0.3027 -0.0837  0.7377
 7515SOL    HW134007   3.551   1.479   7.330  0.3229  1.6558 -0.7609
 7515SOL    HW234008   3.662   1.560   7.281 -1.7189 -0.6491 -0.4798
 7516SOL     OW34009   0.643   3.930   8.340  0.8051 -0.4664 -0.4000
 7516SOL    HW134010   0.730   3.895   8.360  1.7641  1.1799 -1.7813
 7516SOL    HW234011   0.662   4.023   8.352 -4.3719  0.6609 -0.9387
 7517SOL     OW34012   3.520   3.875   1.998 -0.5561  0.3991 -0.1305
 7517SOL    HW134013   3.529   3.817   2.074 -0.2069  1.4109  0.5960
 7517SOL    HW234014   3.453   3.936   2.028 -2.3849 -1.3836 -0.5580
 7518SOL     OW34015   1.676   4.608   1.775  0.0725  0.7761  0.2138
 7518SOL    HW134016   1.615   4.653   1.717 -0.3972  0.8323  0.7636
 7518SOL    HW234017   1.679   4.522   1.733  0.2618  0.9389 -0.1104
 7519SOL     OW34018   0.143   2.615  14.222 -0.1934 -0.0216 -0.6086
 7519SOL    HW134019   0.069   2.674  14.205 -0.9750 -0.7048  0.3664
 7519SOL    HW234020   0.175   2.593  14.135  0.7054  1.8185 -0.7448
 7520SOL     OW34021   3.846   2.397   7.389  0.2414 -0.3059 -0.4083
 7520SOL    HW134022   3.810   2.308   7.396 -1.6977  0.3370 -2.0707
 7520SOL    HW234023   3.824   2.394   7.296 -1.9290  2.7574  0.0114
 7521SOL     OW34024   4.287   3.723   6.149  0.5169 -0.6634  0.1191
 7521SOL    HW134025   4.192   3.720   6.162  0.5549 -0.5266  0.4166
 7521SOL    HW234026   4.322   3.789   6.208 -2.4212  1.4056 -0.4696
 7522SOL     OW34027   3.941   0.196   3.312 -0.2812  0.2530 -0.0261
 7522SOL    HW134028   4.007   0.238   3.257  0.1220  0.5332  0.6619
 7522SOL    HW234029   3.981   0.226   3.394 -2.2903  2.3002  0.2075
 7523SOL     OW34030   3.361   3.000  12.398 -0.5552  0.4692 -1.1086
 7523SOL    HW134031   3.351   3.069  12.463  1.3162 -0.1631 -0.1270
 7523SOL    HW234032   3.354   3.043  12.313 -0.2081  0.3864 -1.1808
 7524SOL     OW34033   4.402   2.429   3.105 -0.1469 -0.4395 -0.1846
 7524SOL    HW134034   4.395   2.414   3.011 -1.4820  1.6268 -0.4048
 7524SOL    HW234035   4.366   2.348   3.142 -0.4285  0.8800  2.4430
 7525SOL     OW34036   4.294   3.951  13.148 -0.0037  0.4697  0.3555
 7525SOL    HW134037   4.243   4.025  13.118  1.8637  1.1817 -1.0275
 7525SOL    HW234038   4.284   3.973  13.241 -0.5435 -0.6527  0.5669
 7526SOL     OW34039   4.230   1.703  16.575 -0.1597  0.6416 -0.0019
 7526SOL    HW134040   4.172   1.630  16.594  1.3050 -0.6156 -0.3127
 7526SOL    HW234041   4.283   1.694  16.654  2.2625  2.5786 -1.3689
 7527SOL     OW34042   1.651   1.154   6.083 -0.4162 -0.5816 -0.3727
 7527SOL    HW134043   1.572   1.186   6.037 -1.2873  1.9560  2.8954
 7527SOL    HW234044   1.712   1.197   6.023 -1.1433  0.2321 -0.5371
 7528SOL     OW34045   1.072   3.957   6.766  0.1579  0.1416 -0.5946
 7528SOL    HW134046   1.052   4.044   6.731 -0.9685  0.5286  0.9722
 7528SOL    HW234047   0.989   3.933   6.807  0.3044  0.1102 -0.3134
 7529SOL     OW34048   1.527   3.145   7.020 -0.2529  0.0915  0.0485
 7529SOL    HW134049   1.476   3.147   6.939 -0.7857  1.9251  0.4293
 7529SOL    HW234050   1.474   3.212   7.064  1.0298 -0.0492  1.8193
 7530SOL     OW34051   3.021   1.827   8.426 -0.1300 -0.4392  0.0767
 7530SOL    HW134052   3.011   1.899   8.489  2.0229  0.1868 -0.3014
 7530SOL    HW234053   3.095   1.793   8.477  0.0587  0.4867  0.4240
 7531SOL     OW34054   2.437   3.853   3.453 -0.7048  0.1242 -0.2481
 7531SOL    HW134055   2.394   3.901   3.382 -0.8695 -1.3352 -1.1292
 7531SOL    HW234056   2.408   3.768   3.418  1.3447 -0.9782  0.7389
 7532SOL     OW34057   3.932   2.034  11.913  0.4394 -0.4687 -0.4732
 7532SOL    HW134058   3.924   2.129  11.922 -0.8849 -0.6510  0.2322
 7532SOL    HW234059   3.900   2.023  11.824  0.9492 -0.9503 -0.5968
 7533SOL     OW34060   0.898   1.959   4.047 -0.1475 -0.3473 -0.1531
 7533SOL    HW134061   0.825   1.943   3.987  0.4029  1.0535 -1.2129
 7533SOL    HW234062   0.868   1.911   4.125  1.6965 -0.1828  0.6590
 7534SOL     OW34063   3.101   4.076   9.622 -0.3879  0.1526  0.9596
 7534SOL    HW134064   3.189   4.097   9.588 -1.2078  1.0613 -0.6053
 7534SOL    HW234065   3.045   4.137   9.574  1.0984 -1.0528 -2.3427
 7535SOL     OW34066   1.239   1.623  13.971 -0.3732 -0.5235  0.2883
 7535SOL    HW134067   1.222   1.717  13.965 -0.8133 -0.6327 -0.1575
 7535SOL    HW234068   1.267   1.603  14.061 -0.6865 -0.3768  0.4195
 7536SOL     OW34069   2.424   1.387   4.300  0.2142  0.0915  0.3114
 7536SOL    HW134070   2.430   1.475   4.261 -0.3630 -0.5160 -1.1748
 7536SOL    HW234071   2.509   1.375   4.342  0.3121  0.8727  0.3387
 7537SOL     OW34072   3.817   2.367   0.588  0.2970 -0.1252  0.5662
 7537SOL    HW134073   3.912   2.357   0.590  0.4899  1.6005  0.3966
 7537SOL    HW234074   3.796   2.322   0.669  3.1581 -0.8963  0.8716
 7538SOL     OW34075   3.226   1.322   4.688  0.1007 -0.6215 -0.0489
 7538SOL    HW134076   3.203   1.243   4.737 -1.4071 -0.1200  0.0310
 7538SOL    HW234077   3.309   1.289   4.653  0.2802  0.6512 -0.8031
 7539SOL     OW34078   1.758   4.214   3.432 -0.0342  0.3634 -0.1475
 7539SOL    HW134079   1.788   4.297   3.397  1.3964  0.0037  0.2187
 7539SOL    HW234080   1.798   4.140   3.387  0.5094  0.2662  0.4996
 7540SOL     OW34081   3.560   1.091  14.067 -0.0090  0.3145 -0.3286
 7540SOL    HW134082   3.598   1.018  14.019  0.4929  0.8677 -0.7749
 7540SOL    HW234083   3.500   1.044  14.124 -1.4515  0.1348 -1.9941
 7541SOL     OW34084   1.060   1.964  15.284  0.3424 -0.4622  0.4191
 7541SOL    HW134085   1.065   1.917  15.201 -1.2032 -0.3895  0.2906
 7541SOL    HW234086   0.965   1.963  15.299  0.2382  0.6286 -0.1690
 7542SOL     OW34087   2.416   3.410  12.535  0.3455 -0.5632  0.1251
 7542SOL    HW134088   2.494   3.441  12.581 -1.6447  1.4913  2.1247
 7542SOL    HW234089   2.376   3.353  12.600 -1.8555 -0.8388 -1.4879
 7543SOL     OW34090   3.602   2.553   0.551  0.6896 -0.1050 -0.1752
 7543SOL    HW134091   3.679   2.497   0.550 -1.0510 -2.5360  1.2303
 7543SOL    HW234092   3.632   2.612   0.621  1.0294  0.6562 -0.9650
 7544SOL     OW34093   1.077   0.750  13.215  0.1801 -0.1911  0.3805
 7544SOL    HW134094   1.004   0.740  13.276 -0.0058  1.2798  0.3894
 7544SOL    HW234095   1.136   0.811  13.259  0.2688 -1.2723  1.7581
 7545SOL     OW34096   1.854   0.980   4.448 -0.1008  0.5441 -0.1465
 7545SOL    HW134097   1.790   0.914   4.476 -2.2085  2.6125 -0.0845
 7545SOL    HW234098   1.930   0.930   4.418 -1.6414 -2.4068  0.9019
 7546SOL     OW34099   1.842   2.088   3.132  0.6361  0.2954  0.4635
 7546SOL    HW134100   1.912   2.096   3.197  2.3210 -2.9873 -0.9401
 7546SOL    HW234101   1.844   2.174   3.091  0.1722 -0.3320 -0.8524
 7547SOL     OW34102   1.623   2.223  10.667  0.7913 -0.6691  0.1365
 7547SOL    HW134103   1.635   2.311  10.704  1.1147 -0.3460 -0.7424
 7547SOL    HW234104   1.581   2.173  10.737 -0.6449  1.1700  0.5824
 7548SOL     OW34105   2.218   4.278  13.772 -0.4265  0.1563 -0.2824
 7548SOL    HW134106   2.273   4.304  13.699 -0.5560 -0.1422 -0.4878
 7548SOL    HW234107   2.152   4.225  13.727  0.6404 -1.7552  0.3984
 7549SOL     OW34108   1.364   0.808   6.060 -0.1385  0.3059 -0.2232
 7549SOL    HW134109   1.303   0.882   6.053 -0.1629  0.2797 -0.2922
 7549SOL    HW234110   1.404   0.831   6.143 -0.0239 -0.5659 -0.0347
 7550SOL     OW34111   1.332   1.621   2.737 -0.4396 -0.1747 -0.5206
 7550SOL    HW134112   1.344   1.577   2.821 -0.2657 -0.6169 -0.7793
 7550SOL    HW234113   1.425   1.641   2.726 -0.4863  0.6150  0.4952
 7551SOL     OW34114   0.342   2.512   5.593  0.3235 -0.0798 -0.2065
 7551SOL    HW134115   0.294   2.574   5.539 -1.2074 -1.9490 -0.9934
 7551SOL    HW234116   0.417   2.564   5.623 -0.1919  0.3283  0.3686
 7552SOL     OW34117   0.547   2.616   2.067 -0.0864 -0.4353 -0.1208
 7552SOL    HW134118   0.611   2.594   2.135 -1.9594 -1.7478  1.2579
 7552SOL    HW234119   0.529   2.526   2.038 -0.6454 -0.7493  1.1877
 7553SOL     OW34120   3.592   0.378   6.724 -0.4443  0.4384  0.3425
 7553SOL    HW134121   3.617   0.396   6.815  2.8081  0.1889 -0.5242
 7553SOL    HW234122   3.591   0.283   6.727 -1.5353  0.3903 -1.2903
 7554SOL     OW34123   3.716   0.579   5.690  0.2602 -0.0604  0.0826
 7554SOL    HW134124   3.644   0.517   5.699 -0.1728  0.5136  0.5640
 7554SOL    HW234125   3.709   0.601   5.597 -2.3855  0.6885  0.4783
 7555SOL     OW34126   4.682   1.362  17.145 -0.1688  0.6259 -0.1146
 7555SOL    HW134127   4.627   1.339  17.070  0.8106 -1.2097 -0.2623
 7555SOL    HW234128   0.042   1.375  17.102  0.2741  1.6437  1.0583
 7556SOL     OW34129   4.006   3.216   7.477 -0.2803 -0.0358 -0.4724
 7556SOL    HW134130   3.989   3.181   7.390 -0.8626 -1.6224  0.2808
 7556SOL    HW234131   4.064   3.291   7.461  0.2989  0.1966  2.7380
 7557SOL     OW34132   1.422   3.611  17.263 -0.2808 -0.2605  0.3911
 7557SOL    HW134133   1.486   3.549  17.298  0.8416  0.2039 -0.8196
 7557SOL    HW234134   1.361   3.625  17.335 -0.8346 -0.6241 -0.0101
 7558SOL     OW34135   4.164   0.438   2.649  0.2709 -0.3380  0.8496
 7558SOL    HW134136   4.090   0.385   2.619 -0.9995  1.4870  0.7841
 7558SOL    HW234137   4.199   0.476   2.569 -0.3424  0.2827  0.8690
 7559SOL     OW34138   4.626   3.574  14.360  0.3975  0.4783  0.1530
 7559SOL    HW134139   4.532   3.587  14.354  0.4869  1.0724  0.0860
 7559SOL    HW234140   4.617   3.483  14.331 -1.6290  0.2244  1.5711
 7560SOL     OW34141   0.818   2.061   3.467 -0.5452 -0.0282  0.0490
 7560SOL    HW134142   0.852   1.973   3.449 -2.2056  0.0465 -3.5286
 7560SOL    HW234143   0.846   2.105   3.386 -0.0542 -1.9413 -0.8379
 7561SOL     OW34144   1.475   1.267   2.612 -0.5800 -0.0650  0.0812
 7561SOL    HW134145   1.532   1.344   2.614  0.5505 -0.9245  1.1424
 7561SOL    HW234146   1.493   1.239   2.702  0.9172  0.3018 -0.0924
 7562SOL     OW34147   3.150   0.092   5.675 -0.2195  0.1064 -0.0938
 7562SOL    HW134148   3.114   0.166   5.626  0.0027 -0.4694 -1.1143
 7562SOL    HW234149   3.170   0.118   5.765 -0.9026  1.9627 -0.4724
 7563SOL     OW34150   0.028   1.878   7.675  0.1604 -0.1759  0.2501
 7563SOL    HW134151   0.041   1.852   7.766  3.5671  3.5864  0.8371
 7563SOL    HW234152   4.666   1.921   7.670 -1.3541 -3.1495  0.8105
 7564SOL     OW34153   1.058   0.821  10.027  0.6384 -0.1998 -0.0696
 7564SOL    HW134154   1.088   0.892  10.083 -0.9117  2.1964 -2.2737
 7564SOL    HW234155   1.114   0.751  10.059  0.5010  0.6079  1.9114
 7565SOL     OW34156   3.146   0.653  15.181  1.0247  0.9336 -0.2446
 7565SOL    HW134157   3.165   0.647  15.087  1.7711 -1.3451  0.0635
 7565SOL    HW234158   3.215   0.597  15.217 -0.2755 -1.4054 -1.3684
 7566SOL     OW34159   0.903   0.659   5.443  0.3106 -0.4427 -0.6711
 7566SOL    HW134160   0.936   0.572   5.466  1.0556  0.4548  1.6589
 7566SOL    HW234161   0.940   0.679   5.356 -1.4510 -0.4017 -1.4183
 7567SOL     OW34162   3.073   2.620  12.702 -0.0056 -0.0137 -0.4543
 7567SOL    HW134163   3.141   2.685  12.684  0.7756 -0.3722  1.1650
 7567SOL    HW234164   3.101   2.580  12.784 -0.2367 -0.8417 -0.7833
 7568SOL     OW34165   2.282   0.465   8.607  0.1424 -0.0352 -0.4505
 7568SOL    HW134166   2.352   0.411   8.643  1.4290  1.4331 -0.7007
 7568SOL    HW234167   2.211   0.458   8.671 -0.3148 -1.2938 -1.0976
 7569SOL     OW34168   1.993   2.867   9.653  0.7266  0.0435  0.2312
 7569SOL    HW134169   1.918   2.898   9.705 -0.5133  2.7917 -3.1291
 7569SOL    HW234170   2.060   2.861   9.720 -1.5648  0.6242  2.5827
 7570SOL     OW34171   2.481   0.918   2.152 -0.2473  0.1841  0.4363
 7570SOL    HW134172   2.460   0.825   2.162  2.0725 -0.4880 -0.7820
 7570SOL    HW234173   2.428   0.943   2.077  0.3679  1.3797  0.3994
 7571SOL     OW34174   0.791   4.173   3.237  0.3668  0.0411 -0.2190
 7571SOL    HW134175   0.726   4.215   3.292  0.3158 -0.1217 -0.1560
 7571SOL    HW234176   0.862   4.156   3.299 -1.1105  2.2449  2.0313
 7572SOL     OW34177   1.412   2.258   0.524 -0.5740  0.1223 -0.2850
 7572SOL    HW134178   1.398   2.187   0.586 -2.6270  0.1990 -0.6573
 7572SOL    HW234179   1.356   2.327   0.559 -2.0678  0.2284 -2.8153
 7573SOL     OW34180   4.029   4.157   8.659 -0.2533 -0.3358 -0.0509
 7573SOL    HW134181   4.048   4.146   8.752  3.4555 -1.6553 -0.9761
 7573SOL    HW234182   4.016   4.252   8.650  1.6725 -0.0471  0.1547
 7574SOL     OW34183   2.422   2.011   1.361 -0.2751 -0.3442  1.5035
 7574SOL    HW134184   2.396   2.082   1.302 -1.1106  0.1599  2.4929
 7574SOL    HW234185   2.440   1.953   1.287 -1.0783 -0.6850  1.5783
 7575SOL     OW34186   4.607   4.396  13.399  0.4089  0.1168 -0.0259
 7575SOL    HW134187   4.669   4.380  13.328  0.0912 -1.2520  0.0007
 7575SOL    HW234188   4.643   4.342  13.470  0.0521 -1.4331 -1.0316
 7576SOL     OW34189   4.509   3.481  12.081  0.0874 -0.2246 -0.2104
 7576SOL    HW134190   4.602   3.484  12.058  0.4621 -0.6122  1.2312
 7576SOL    HW234191   4.497   3.429  12.161  1.5676  1.1313  0.9007
 7577SOL     OW34192   2.576   2.270   8.684  0.2347 -0.2896 -0.2689
 7577SOL    HW134193   2.587   2.362   8.662  2.7998 -0.9308 -1.6263
 7577SOL    HW234194   2.568   2.229   8.598 -0.2227  1.4633 -1.0512
 7578SOL     OW34195   1.343   2.743  14.520 -0.2561  0.4864  0.4880
 7578SOL    HW134196   1.322   2.824  14.566 -2.4224 -0.9920  2.0696
 7578SOL    HW234197   1.257   2.701  14.516 -0.9857  1.9163  1.3182
 7579SOL     OW34198   0.316   1.731  15.068 -0.1557 -0.0848  0.4885
 7579SOL    HW134199   0.287   1.698  14.982 -0.5746  0.6107  0.3631
 7579SOL    HW234200   0.339   1.650  15.112  2.2295  0.2068 -0.2397
 7580SOL     OW34201   1.399   1.560   8.487 -0.5530 -0.4048  0.7556
 7580SOL    HW134202   1.481   1.582   8.532  0.6485 -0.8765 -1.1945
 7580SOL    HW234203   1.397   1.627   8.419 -0.6547  0.7732  1.9127
 7581SOL     OW34204   2.929   4.406   6.593 -0.1268  0.1478 -0.3563
 7581SOL    HW134205   2.926   4.484   6.647 -1.0939  0.2462 -0.5448
 7581SOL    HW234206   2.893   4.341   6.653 -0.6563  0.2221 -0.5911
 7582SOL     OW34207   4.500   3.891   8.418  0.1823  0.0748  0.6699
 7582SOL    HW134208   4.500   3.936   8.333  3.1600  1.0022  1.1586
 7582SOL    HW234209   4.533   3.952   8.484  0.5685 -0.3392  0.8602
 7583SOL     OW34210   3.355   1.121   2.412 -0.7838  0.0047 -0.1816
 7583SOL    HW134211   3.295   1.180   2.367 -0.8036 -1.5831 -2.2587
 7583SOL    HW234212   3.332   1.040   2.366  1.0877  0.2792 -1.5924
 7584SOL     OW34213   3.522   3.278   5.379 -0.9600 -0.2718 -0.2442
 7584SOL    HW134214   3.538   3.353   5.322  2.4672 -0.4159  0.4905
 7584SOL    HW234215   3.518   3.220   5.303 -1.2278 -1.4354  0.6533
 7585SOL     OW34216   1.952   1.745   6.065  0.3754  0.6388 -0.1118
 7585SOL    HW134217   1.976   1.740   6.157 -0.3337  0.6943  0.0779
 7585SOL    HW234218   1.856   1.749   6.068  0.3453  0.3164 -0.6413
 7586SOL     OW34219   3.399   2.217   1.923 -0.0473 -0.2349  0.2172
 7586SOL    HW134220   3.414   2.136   1.972 -1.2968 -0.8657 -0.4370
 7586SOL    HW234221   3.355   2.265   1.994 -0.2814 -1.4093  0.8659
 7587SOL     OW34222   0.382   3.556   4.518 -0.3602  0.2549  0.1900
 7587SOL    HW134223   0.423   3.639   4.541  2.0788 -0.9124  0.1619
 7587SOL    HW234224   0.429   3.546   4.435  1.8785  1.6505  1.2956
 7588SOL     OW34225   0.884   1.717   5.103 -0.5385 -0.4246  0.2928
 7588SOL    HW134226   0.885   1.803   5.061 -2.4335 -0.4241  0.2507
 7588SOL    HW234227   0.949   1.719   5.173 -1.4637  1.0414  1.1153
 7589SOL     OW34228   1.769   2.442   7.550  0.4365 -0.1474 -0.4025
 7589SOL    HW134229   1.860   2.463   7.571 -0.1004  2.0212 -0.2241
 7589SOL    HW234230   1.743   2.401   7.633  0.2427  0.4171 -0.1853
 7590SOL     OW34231   0.230   1.797   6.364  0.0159 -0.4420 -0.2390
 7590SOL    HW134232   0.189   1.857   6.426  2.1955  0.4581  0.3386
 7590SOL    HW234233   0.266   1.728   6.419 -1.5763  0.5439  2.0553
 7591SOL     OW34234   0.731   0.750   5.025 -0.1562  0.6086  0.4600
 7591SOL    HW134235   0.753   0.685   4.959 -0.1843  1.2080 -0.1398
 7591SOL    HW234236   0.757   0.833   4.986  3.0576  0.1928  1.7235
 7592SOL     OW34237   0.898   2.844   7.679  0.0782 -0.3804 -0.1299
 7592SOL    HW134238   0.875   2.919   7.734  0.7645 -0.4750  0.2956
 7592SOL    HW234239   0.949   2.798   7.746  0.8722  0.5165 -0.1204
 7593SOL     OW34240   3.333   1.948  12.338 -0.7076  0.1706 -0.6216
 7593SOL    HW134241   3.328   1.911  12.426 -1.6442  1.2695 -0.2054
 7593SOL    HW234242   3.249   1.931  12.295 -1.6577 -0.8522  1.6508
 7594SOL     OW34243   1.524   1.422   8.953 -0.1252  0.4862 -0.7068
 7594SOL    HW134244   1.501   1.492   8.892  1.3763 -1.0265 -3.0346
 7594SOL    HW234245   1.443   1.374   8.968 -0.0314  0.7158  0.5456
 7595SOL     OW34246   0.176   3.182   6.897 -0.4129 -0.3639  0.2314
 7595SOL    HW134247   0.101   3.127   6.877 -1.5603  1.2405  0.1581
 7595SOL    HW234248   0.207   3.209   6.811 -0.0196 -5.2561 -1.2043
 7596SOL     OW34249   3.417   3.884   2.903 -0.1003  0.0799  0.0858
 7596SOL    HW134250   3.475   3.815   2.936  2.2252  1.4312 -1.1810
 7596SOL    HW234251   3.486   3.920   2.847 -0.4438 -2.1372 -1.7883
 7597SOL     OW34252   3.602   0.900   4.457  0.3412  1.1060 -0.5331
 7597SOL    HW134253   3.558   0.882   4.540 -0.1401 -0.2470 -1.0671
 7597SOL    HW234254   3.543   0.867   4.388  0.5436  2.7187 -1.4814
 7598SOL     OW34255   4.000   2.238   5.919 -0.2914 -0.1840 -0.5057
 7598SOL    HW134256   4.015   2.328   5.889 -0.8767  0.0368 -0.1369
 7598SOL    HW234257   4.077   2.192   5.887 -0.5297 -0.5830 -0.4995
 7599SOL     OW34258   3.797   0.717  10.900  0.4441 -0.3656 -0.4915
 7599SOL    HW134259   3.788   0.623  10.916 -2.1555 -0.0196 -0.0311
 7599SOL    HW234260   3.716   0.749  10.940  1.1526  0.2163  0.4988
 7600SOL     OW34261   3.790   2.721  16.686 -0.9387 -0.6927  0.0264
 7600SOL    HW134262   3.838   2.804  16.684 -0.1562 -1.1389  0.8820
 7600SOL    HW234263   3.857   2.665  16.647 -1.5737 -1.7341  0.4471
 7601SOL     OW34264   2.161   2.154  10.229 -0.1715  0.1070  0.3188
 7601SOL    HW134265   2.216   2.150  10.308  3.2173  1.3023 -1.9887
 7601SOL    HW234266   2.207   2.202  10.160 -3.0447 -0.1681 -1.7654
 7602SOL     OW34267   3.003   2.990   0.973  0.2962  0.3188  0.3921
 7602SOL    HW134268   3.075   3.051   0.955 -0.0411 -0.1669 -2.6422
 7602SOL    HW234269   2.946   3.007   0.898 -0.5835 -1.6738  0.6111
 7603SOL     OW34270   3.172   1.027  11.080  0.4868  0.0420  0.4703
 7603SOL    HW134271   3.242   1.085  11.110  0.7655 -0.1808  0.2505
 7603SOL    HW234272   3.108   1.098  11.089 -0.0512 -0.4247  0.2606
 7604SOL     OW34273   2.895   2.547   4.996 -0.5882  0.5219 -0.7139
 7604SOL    HW134274   2.918   2.633   4.961 -0.4379 -0.1959 -2.3547
 7604SOL    HW234275   2.864   2.506   4.915 -0.5573 -0.9915  0.0411
 7605SOL     OW34276   4.261   0.622  13.431 -0.7088 -0.1871 -0.1500
 7605SOL    HW134277   4.180   0.643  13.386 -0.7818 -0.2880 -0.0665
 7605SOL    HW234278   4.265   0.526  13.424  0.4577 -0.0575 -1.2607
 7606SOL     OW34279   1.674   3.507   5.665 -0.0535  0.0340  0.1587
 7606SOL    HW134280   1.674   3.425   5.715 -0.3746 -0.3824 -0.5222
 7606SOL    HW234281   1.745   3.481   5.607  0.4171 -0.8949  1.1376
 7607SOL     OW34282   3.325   1.521   5.284  0.3814 -0.1783  0.5063
 7607SOL    HW134283   3.343   1.445   5.339 -1.0990 -0.7462  0.1984
 7607SOL    HW234284   3.405   1.530   5.232 -0.2540 -0.5089 -0.5403
 7608SOL     OW34285   1.776   4.663  15.860 -0.1425  0.2703 -0.4650
 7608SOL    HW134286   1.712   4.701  15.920 -0.7557 -1.2369 -0.1752
 7608SOL    HW234287   1.818   0.018  15.825  0.2449  0.2811  0.0127
 7609SOL     OW34288   0.724   0.563  13.605  0.0853 -0.5452 -0.0764
 7609SOL    HW134289   0.672   0.619  13.663  0.6915 -0.6548  0.5737
 7609SOL    HW234290   0.666   0.487  13.602  0.6994 -1.0273  0.1919
 7610SOL     OW34291   3.585   0.866   5.978  0.3090 -0.2624  0.1485
 7610SOL    HW134292   3.525   0.901   5.912 -3.1048 -3.1074  1.7763
 7610SOL    HW234293   3.529   0.805   6.025 -0.6130  0.4778  0.0068
 7611SOL     OW34294   2.720   4.242  11.762 -0.1924 -0.4019 -0.1378
 7611SOL    HW134295   2.728   4.336  11.780  0.7503  0.0180 -2.8194
 7611SOL    HW234296   2.683   4.256  11.675 -0.4995 -1.6131 -0.1986
 7612SOL     OW34297   2.146   3.665   1.793 -0.2161  0.3282  0.6055
 7612SOL    HW134298   2.235   3.694   1.773  0.0814 -0.4501  0.7955
 7612SOL    HW234299   2.153   3.634   1.883 -1.0602  0.7872  0.8327
 7613SOL     OW34300   0.640   1.291   9.025 -0.4347 -0.2572 -0.1237
 7613SOL    HW134301   0.674   1.267   8.939 -0.1393  0.7524 -0.2917
 7613SOL    HW234302   0.601   1.215   9.068  1.9566 -1.5159 -0.1799
 7614SOL     OW34303   1.628   1.865  15.530  0.1387  0.2553 -0.6621
 7614SOL    HW134304   1.554   1.926  15.536 -1.6643 -1.9646 -0.0499
 7614SOL    HW234305   1.699   1.929  15.521  0.7809 -0.5468 -1.2650
 7615SOL     OW34306   3.487   2.506   7.753  0.2915  0.0753  0.8047
 7615SOL    HW134307   3.444   2.434   7.707  1.6545  0.1019 -0.5100
 7615SOL    HW234308   3.414   2.567   7.769 -0.6255 -0.7558 -0.1936
 7616SOL     OW34309   3.236   3.648  10.681 -0.0918 -0.2045  0.7680
 7616SOL    HW134310   3.162   3.615  10.731 -0.4613 -0.3275  0.1320
 7616SOL    HW234311   3.232   3.739  10.713  0.2769 -1.1756  3.5556
 7617SOL     OW34312   1.413   2.967   2.658 -0.4387  0.1795  0.6252
 7617SOL    HW134313   1.365   2.909   2.598  0.1560  0.3272  0.0130
 7617SOL    HW234314   1.505   2.942   2.666 -1.1041 -2.3239  0.4702
 7618SOL     OW34315   2.889   4.582   8.857  0.2263 -0.8531  0.0359
 7618SOL    HW134316   2.868   4.539   8.774  2.6075 -2.3945  0.2512
 7618SOL    HW234317   2.973   4.544   8.882  1.8542  1.3395 -1.9875
 7619SOL     OW34318   2.160   2.939   7.438  0.6170  0.5554  0.1317
 7619SOL    HW134319   2.085   2.997   7.449  0.4284  0.3662 -0.1900
 7619SOL    HW234320   2.119   2.867   7.391  1.9722  0.0894 -0.3503
 7620SOL     OW34321   1.086   0.628   3.275  0.2082 -0.2534  0.2581
 7620SOL    HW134322   1.005   0.677   3.270 -0.7170 -1.8469 -0.4047
 7620SOL    HW234323   1.130   0.659   3.196  1.6132  1.5773  1.7662
 7621SOL     OW34324   1.690   3.529   4.859  0.0460 -1.0108 -0.2535
 7621SOL    HW134325   1.633   3.537   4.782 -0.7498  0.7194  0.5252
 7621SOL    HW234326   1.646   3.587   4.921  0.9550 -0.0208 -0.5502
 7622SOL     OW34327   1.113   2.573   1.951  0.5759 -0.3886 -0.8029
 7622SOL    HW134328   1.143   2.626   2.025  1.9120 -0.5400 -1.2467
 7622SOL    HW234329   1.081   2.494   1.994 -0.1255  0.2284 -0.1913
 7623SOL     OW34330   3.253   4.228  17.508  0.1430  0.3009 -0.1460
 7623SOL    HW134331   3.207   4.199  17.587 -0.4028  2.3130  0.2633
 7623SOL    HW234332   3.178   4.234  17.448 -0.0736  2.2211  0.3118
 7624SOL     OW34333   2.532   1.534   9.165 -0.0459  0.5694  0.4697
 7624SOL    HW134334   2.557   1.624   9.145  1.2840  0.2286  0.6394
 7624SOL    HW234335   2.546   1.531   9.260  2.5984  1.7166  0.1223
 7625SOL     OW34336   3.754   3.098   7.591 -0.2468 -0.1824  0.0351
 7625SOL    HW134337   3.684   3.112   7.654 -2.1252  1.1331 -2.3349
 7625SOL    HW234338   3.758   3.181   7.544  3.4457 -0.5464 -0.2844
 7626SOL     OW34339   2.795   0.248  17.058  0.1136  0.2302 -0.4157
 7626SOL    HW134340   2.817   0.338  17.034 -0.3143  0.3984 -0.1960
 7626SOL    HW234341   2.822   0.242  17.150  0.3984 -3.3999 -0.7540
 7627SOL     OW34342   2.011   3.766   7.684  0.7041  0.7850  0.0041
 7627SOL    HW134343   1.931   3.763   7.737 -0.8205  1.8786 -2.2489
 7627SOL    HW234344   1.983   3.737   7.598  0.9002  1.8723 -0.4245
 7628SOL     OW34345   2.375   1.538   3.318  0.4029 -0.0813 -0.3747
 7628SOL    HW134346   2.430   1.471   3.277  0.9441  0.0043  0.2202
 7628SOL    HW234347   2.422   1.621   3.303  1.1680 -0.3694  0.4699
 7629SOL     OW34348   3.094   0.702   8.846 -0.2438  0.5316  0.3613
 7629SOL    HW134349   3.155   0.659   8.906  2.2152  3.0161 -0.3455
 7629SOL    HW234350   3.012   0.694   8.895 -0.0573  1.0227  0.7582
 7630SOL     OW34351   2.542   3.238   4.354  0.1577 -0.3352  0.2456
 7630SOL    HW134352   2.490   3.206   4.428  1.8135  0.2282  1.6582
 7630SOL    HW234353   2.509   3.326   4.339 -0.2480 -0.3763  0.9153
 7631SOL     OW34354   1.493   2.207  10.907 -0.3964 -0.2045 -0.3490
 7631SOL    HW134355   1.553   2.178  10.976 -1.2340 -0.7179  0.1596
 7631SOL    HW234356   1.448   2.271  10.961  0.3527 -0.2455  0.3233
 7632SOL     OW34357   2.268   2.114   5.859  0.4341 -0.0535 -0.5895
 7632SOL    HW134358   2.319   2.035   5.878 -0.2459 -0.3011  0.2260
 7632SOL    HW234359   2.212   2.101   5.936 -0.0438 -0.5342 -1.0225
 7633SOL     OW34360   3.353   1.847   7.946 -0.2871 -0.0496  0.0882
 7633SOL    HW134361   3.301   1.767   7.945  1.9162 -1.4524 -0.6789
 7633SOL    HW234362   3.343   1.876   8.036 -1.3996 -0.7473  0.1880
 7634SOL     OW34363   4.064   3.552  14.278  0.6248  0.0546  0.3951
 7634SOL    HW134364   3.978   3.556  14.236  1.3776 -1.3803 -1.2619
 7634SOL    HW234365   4.047   3.484  14.343 -1.3088 -0.4514 -0.6478
 7635SOL     OW34366   3.268   2.742   5.639  0.2715 -0.7687  0.2941
 7635SOL    HW134367   3.343   2.796   5.614  0.0604 -0.9239 -0.6736
 7635SOL    HW234368   3.219   2.811   5.683 -1.9784 -0.5357 -2.5267
 7636SOL     OW34369   2.943   2.324   8.838 -0.3305 -0.4369  0.5218
 7636SOL    HW134370   2.954   2.385   8.765  1.1496 -0.9200  0.3579
 7636SOL    HW234371   2.937   2.386   8.911  2.2817 -0.7232  0.9632
 7637SOL     OW34372   3.294   0.652   2.719  0.4741  0.2551  0.0628
 7637SOL    HW134373   3.342   0.570   2.703  0.6534  0.4681 -0.5098
 7637SOL    HW234374   3.369   0.706   2.746  0.7475 -0.0171 -0.1447
 7638SOL     OW34375   1.452   3.711   0.882 -0.3038 -0.0712  1.1193
 7638SOL    HW134376   1.512   3.671   0.944  1.3951 -0.5741 -0.8558
 7638SOL    HW234377   1.379   3.747   0.932 -0.0847  0.4166  1.0907
 7639SOL     OW34378   2.441   4.316  12.309  0.1435  0.0564 -0.0904
 7639SOL    HW134379   2.424   4.408  12.327  0.9309  0.1121  0.3956
 7639SOL    HW234380   2.393   4.308  12.226 -0.1931 -0.7977  0.1832
 7640SOL     OW34381   2.876   1.764   5.824  0.2782 -0.1414 -0.0248
 7640SOL    HW134382   2.791   1.722   5.835  0.0232 -0.0467 -1.6083
 7640SOL    HW234383   2.897   1.806   5.907  1.5186 -0.1362 -0.3383
 7641SOL     OW34384   3.268   0.518   7.333 -0.1885 -0.4357 -0.1627
 7641SOL    HW134385   3.188   0.470   7.355 -0.2444  0.4839  1.6567
 7641SOL    HW234386   3.279   0.496   7.241 -1.4551  1.6671 -0.8236
 7642SOL     OW34387   2.319   1.162   3.008 -0.2414 -0.0331 -0.0946
 7642SOL    HW134388   2.403   1.148   2.964 -0.5143  2.9871 -1.5609
 7642SOL    HW234389   2.303   1.253   2.983  0.0816  0.0492 -0.0002
 7643SOL     OW34390   3.195   2.930   2.892  0.0384  0.0907  0.4759
 7643SOL    HW134391   3.155   3.010   2.859  1.7702  0.9054  0.3084
 7643SOL    HW234392   3.283   2.942   2.856 -0.4881  0.1982 -0.7658
 7644SOL     OW34393   2.436   3.777   2.047 -0.4375 -0.0788 -0.4776
 7644SOL    HW134394   2.440   3.699   2.103  0.7293 -0.2021 -0.7352
 7644SOL    HW234395   2.358   3.815   2.088  0.9401  0.9131  1.2505
 7645SOL     OW34396   3.762   1.736   1.449  0.0849 -0.0307  0.5961
 7645SOL    HW134397   3.854   1.755   1.428 -0.7165  2.3396 -0.6839
 7645SOL    HW234398   3.765   1.674   1.522  0.9911 -1.0784 -0.3262
 7646SOL     OW34399   0.686   4.242  10.751 -0.1300 -0.0197  0.4780
 7646SOL    HW134400   0.728   4.171  10.799 -0.1353  0.2189  0.8287
 7646SOL    HW234401   0.598   4.235  10.788 -1.2956 -1.2516 -2.4926
 7647SOL     OW34402   0.932   2.105   3.188  0.4826 -0.0548  0.1629
 7647SOL    HW134403   1.005   2.072   3.134  1.0925 -0.1233  1.0285
 7647SOL    HW234404   0.949   2.198   3.199  1.2240  0.0670 -1.8519
 7648SOL     OW34405   1.204   2.327   1.813 -0.0578  0.4410  0.2738
 7648SOL    HW134406   1.195   2.235   1.837 -0.1678  0.5972  0.8339
 7648SOL    HW234407   1.299   2.335   1.826  0.1009 -0.9718 -0.0347
 7649SOL     OW34408   3.267   0.919   3.321 -0.1371  0.2656  0.5183
 7649SOL    HW134409   3.250   1.005   3.361 -0.5566  1.1808 -1.6619
 7649SOL    HW234410   3.250   0.939   3.229 -1.9706 -0.8925  0.6162
 7650SOL     OW34411   0.670   0.159   5.619  0.4118 -0.0963  0.1178
 7650SOL    HW134412   0.633   0.150   5.707 -0.3350 -0.7510 -0.2698
 7650SOL    HW234413   0.676   0.068   5.591  0.8213  0.0392 -0.2316
 7651SOL     OW34414   4.707   4.029  14.147 -0.0546 -0.5931 -0.0168
 7651SOL    HW134415   0.049   4.070  14.203 -0.8918  0.4770  0.1901
 7651SOL    HW234416   4.719   4.092  14.075  0.7910 -1.3747 -0.5592
 7652SOL     OW34417   0.162   2.701   1.594 -0.2611  0.1047  0.4496
 7652SOL    HW134418   0.184   2.695   1.501  0.6684  3.1721  0.4623
 7652SOL    HW234419   0.248   2.731   1.623 -0.7805 -0.6135  2.7774
 7653SOL     OW34420   1.400   1.184   3.745 -0.8132 -0.7292 -0.7504
 7653SOL    HW134421   1.489   1.197   3.777 -0.4069  0.4991 -2.3506
 7653SOL    HW234422   1.412   1.125   3.671  0.2553 -1.0396 -0.3286
 7654SOL     OW34423   0.860   4.504   8.921  0.3594  0.3513  0.2618
 7654SOL    HW134424   0.884   4.425   8.873  0.1032 -0.1488  0.9519
 7654SOL    HW234425   0.886   4.481   9.011 -0.4697  0.6551  0.5783
 7655SOL     OW34426   1.374   3.435   6.986  0.4035  0.4489  0.1184
 7655SOL    HW134427   1.345   3.388   7.064 -0.8273  1.4516  0.2606
 7655SOL    HW234428   1.365   3.524   7.021  1.9595 -0.0049  1.6808
 7656SOL     OW34429   2.014   0.613   2.685  0.4157 -0.3999  0.3461
 7656SOL    HW134430   1.961   0.619   2.606  0.0608 -1.4316  0.5070
 7656SOL    HW234431   1.957   0.552   2.731 -0.0294 -0.7873 -0.7261
 7657SOL     OW34432   0.027   2.570   0.384 -0.0490  0.1860 -0.1918
 7657SOL    HW134433   0.099   2.614   0.339 -0.5224  1.0618 -0.0925
 7657SOL    HW234434   0.049   2.478   0.370  0.6701  0.2859  0.2940
 7658SOL     OW34435   4.092   2.475  12.246 -0.4142  0.5107  0.3515
 7658SOL    HW134436   4.160   2.518  12.193 -0.2016  0.0510  0.2541
 7658SOL    HW234437   4.153   2.412  12.285 -1.3807 -1.2565 -1.0714
 7659SOL     OW34438   3.186   1.290   8.169 -0.2985 -0.3621 -0.4259
 7659SOL    HW134439   3.139   1.238   8.103  2.3655 -3.5245  0.1509
 7659SOL    HW234440   3.202   1.230   8.243 -2.8587  1.2461  1.3971
 7660SOL     OW34441   4.326   1.152  16.913  0.0103  0.1352  0.2147
 7660SOL    HW134442   4.269   1.228  16.900 -1.4135 -1.2327 -1.4648
 7660SOL    HW234443   4.338   1.111  16.828 -1.8082 -1.9047  0.9268
 7661SOL     OW34444   0.538   3.591   7.822 -0.2543 -0.4400  0.0303
 7661SOL    HW134445   0.593   3.577   7.899 -0.2624 -1.5699 -0.1649
 7661SOL    HW234446   0.451   3.576   7.860  0.4552  0.3404  1.9450
 7662SOL     OW34447   2.247   0.635  16.049 -0.2849  0.2993 -0.4634
 7662SOL    HW134448   2.182   0.689  16.005  1.7822  2.2980 -1.0570
 7662SOL    HW234449   2.271   0.702  16.114 -0.2105 -0.2921  0.1299
 7663SOL     OW34450   2.056   3.576   5.964 -0.1324 -0.2773 -0.3083
 7663SOL    HW134451   1.980   3.604   5.912  0.3647 -1.3844 -1.6440
 7663SOL    HW234452   2.094   3.502   5.918 -0.2872 -1.2078  1.0773
 7664SOL     OW34453   2.305   4.103  10.038 -0.0744  1.2942 -0.1121
 7664SOL    HW134454   2.336   4.044   9.968  0.4394  0.2786  0.9802
 7664SOL    HW234455   2.289   4.176   9.978  0.7324  0.3647 -1.4619
 7665SOL     OW34456   3.053   2.637   2.508  0.1313 -0.0374  0.3342
 7665SOL    HW134457   2.971   2.596   2.480  1.1363 -1.8081 -0.0102
 7665SOL    HW234458   3.092   2.663   2.425  0.4795 -4.3878 -0.8385
 7666SOL     OW34459   2.271   1.780   6.194  0.0951  0.2454  0.0901
 7666SOL    HW134460   2.269   1.747   6.284  2.9396  3.4633  1.3350
 7666SOL    HW234461   2.183   1.810   6.176  0.1031  0.1936 -0.0332
 7667SOL     OW34462   0.467   0.138   6.508 -0.1513 -0.0394  0.6061
 7667SOL    HW134463   0.449   0.116   6.417  2.2709  1.8879 -0.3152
 7667SOL    HW234464   0.542   0.194   6.492 -0.6499  1.2870  2.9332
 7668SOL     OW34465   2.796   0.656   5.557  0.1654 -0.3093  0.5078
 7668SOL    HW134466   2.803   0.619   5.469 -0.5373  2.6622 -0.7746
 7668SOL    HW234467   2.719   0.608   5.588 -0.7437  1.5432  1.1112
 7669SOL     OW34468   1.432   1.965   1.791  0.0699 -0.2372  0.1441
 7669SOL    HW134469   1.344   1.997   1.812  0.3550  1.1002 -0.6962
 7669SOL    HW234470   1.419   1.940   1.700  1.0542 -0.8107  0.1716
 7670SOL     OW34471   0.647   1.077   1.447 -0.7988 -0.2260 -0.3499
 7670SOL    HW134472   0.696   1.156   1.423 -0.5960  0.1265  1.2284
 7670SOL    HW234473   0.635   1.086   1.541  2.1614  0.8270 -0.0937
 7671SOL     OW34474   2.865   2.566   8.992 -0.4607 -0.3794  0.0841
 7671SOL    HW134475   2.906   2.615   9.063  0.8261  1.2148 -1.7531
 7671SOL    HW234476   2.883   2.623   8.917  1.7666  1.3864  1.9533
 7672SOL     OW34477   4.025   4.376   9.912  0.2497 -0.0559  0.2363
 7672SOL    HW134478   4.076   4.435   9.967  0.4433 -0.4723  0.5076
 7672SOL    HW234479   3.937   4.408   9.930  0.8141  0.4681  2.0207
 7673SOL     OW34480   0.916   0.308   8.042  0.0805 -0.7084 -0.0501
 7673SOL    HW134481   1.012   0.314   8.044 -0.0011  0.4282  0.1007
 7673SOL    HW234482   0.899   0.290   8.135 -0.0226  1.5628  0.3775
 7674SOL     OW34483   1.999   1.916   2.976  0.1971  0.0141 -0.3063
 7674SOL    HW134484   1.942   1.899   2.902 -0.0939 -0.4464  0.0275
 7674SOL    HW234485   1.951   1.971   3.038  0.6955  0.6430 -0.4734
 7675SOL     OW34486   0.117   1.981   0.503 -0.5764 -0.6354  0.4285
 7675SOL    HW134487   0.054   1.930   0.554 -2.0267 -0.6530 -1.3831
 7675SOL    HW234488   0.199   1.952   0.545  0.4167  0.8894 -0.4858
 7676SOL     OW34489   0.363   2.314   8.527  0.5429  0.1182 -0.5983
 7676SOL    HW134490   0.335   2.384   8.468  1.0373  2.4734  2.0129
 7676SOL    HW234491   0.282   2.275   8.561 -0.3218  2.0623 -0.4463
 7677SOL     OW34492   4.637   3.684  13.454  0.4999 -0.1530 -0.0576
 7677SOL    HW134493   4.605   3.633  13.379 -1.6541  0.2204  0.6182
 7677SOL    HW234494   4.585   3.762  13.436  0.4972 -0.3354 -0.8719
 7678SOL     OW34495   4.220   2.129  17.297  0.0596 -0.0423  0.0865
 7678SOL    HW134496   4.197   2.076  17.221  0.8150 -0.2627  0.0069
 7678SOL    HW234497   4.136   2.147  17.338  0.4625  1.3671  0.3278
 7679SOL     OW34498   0.844   2.676  10.493 -0.2125 -0.0926 -0.0363
 7679SOL    HW134499   0.826   2.732  10.418  0.6343 -0.4734 -0.5276
 7679SOL    HW234500   0.909   2.726  10.542 -0.0631 -0.6227  0.3075
 7680SOL     OW34501   1.686   3.326   5.255  0.1486 -0.4793 -0.1022
 7680SOL    HW134502   1.751   3.373   5.202 -0.2229 -0.2426 -0.3463
 7680SOL    HW234503   1.728   3.251   5.298  2.5605  0.7692 -0.2248
 7681SOL     OW34504   2.748   2.629   3.876  0.3548  0.1334  0.1816
 7681SOL    HW134505   2.727   2.692   3.945 -0.4605  1.7414 -1.5530
 7681SOL    HW234506   2.783   2.555   3.925 -1.4808 -0.1247  1.0981
 7682SOL     OW34507   3.247   4.486   9.632 -0.1506  0.2441 -0.3876
 7682SOL    HW134508   3.191   4.537   9.691  0.9097 -0.3806  1.1705
 7682SOL    HW234509   3.327   4.537   9.640  0.1982 -0.3316 -0.2194
 7683SOL     OW34510   1.356   2.861   9.873  0.0044  0.0199  0.3079
 7683SOL    HW134511   1.270   2.824   9.855  0.4519 -0.1230 -1.5252
 7683SOL    HW234512   1.390   2.797   9.936 -1.8917 -2.0063 -0.7433
 7684SOL     OW34513   3.086   2.789   8.556 -0.8365 -0.5015  0.0445
 7684SOL    HW134514   3.090   2.834   8.641 -0.7538 -0.1312 -0.1561
 7684SOL    HW234515   3.175   2.797   8.522 -0.7570 -3.6655 -0.5153
 7685SOL     OW34516   1.469   2.955   4.259 -0.6137  0.0869 -0.7116
 7685SOL    HW134517   1.481   2.869   4.219 -0.3258 -0.7482  1.1918
 7685SOL    HW234518   1.479   2.924   4.349  0.2017  3.2245  0.3030
 7686SOL     OW34519   1.686   1.831   1.804  0.6362  0.3769  0.2751
 7686SOL    HW134520   1.599   1.870   1.807  1.4303  2.0282  1.9588
 7686SOL    HW234521   1.692   1.825   1.709 -0.8994 -1.2515  0.2863
 7687SOL     OW34522   0.387   0.324   9.369  0.4802  0.0081 -0.0989
 7687SOL    HW134523   0.417   0.241   9.404 -1.1692 -0.5735 -0.0912
 7687SOL    HW234524   0.410   0.375   9.446 -0.7944 -2.6334  1.9996
 7688SOL     OW34525   2.459   1.516   5.811 -0.4831  0.2120  0.3149
 7688SOL    HW134526   2.390   1.545   5.751  0.8475 -0.3967 -1.5186
 7688SOL    HW234527   2.430   1.427   5.829 -2.0333  0.1703 -2.2866
 7689SOL     OW34528   4.356   4.627   2.897  0.1647 -0.4048 -0.0306
 7689SOL    HW134529   4.378   4.689   2.827  0.6010  1.0810  1.4259
 7689SOL    HW234530   4.315   4.557   2.847 -0.6128  0.9212 -1.2790
 7690SOL     OW34531   2.228   1.711  11.463  0.0995  0.5397 -0.5013
 7690SOL    HW134532   2.289   1.664  11.406 -1.1040 -0.7873 -0.6737
 7690SOL    HW234533   2.283   1.786  11.488  2.0869 -1.1461  0.1145
 7691SOL     OW34534   3.257   3.323  15.178 -0.0198 -0.2995 -0.3165
 7691SOL    HW134535   3.202   3.271  15.120 -1.5570 -0.3636  1.2143
 7691SOL    HW234536   3.197   3.374  15.232  1.6410  0.2315  1.0453
 7692SOL     OW34537   3.823   0.853   8.961  0.1071 -0.3222  0.4621
 7692SOL    HW134538   3.776   0.849   9.044  1.6081  1.5889  1.4339
 7692SOL    HW234539   3.906   0.883   9.000 -1.2720 -0.7595  3.7135
 7693SOL     OW34540   2.872   3.172   3.241 -0.9011  0.6686 -0.2149
 7693SOL    HW134541   2.909   3.212   3.320 -0.8718 -1.0200  0.6363
 7693SOL    HW234542   2.782   3.168   3.275  0.1468 -0.5125  2.4065
 7694SOL     OW34543   0.127   2.924   9.602 -0.4786 -0.1442  0.2318
 7694SOL    HW134544   0.119   2.976   9.681 -0.0185 -0.1380  0.2759
 7694SOL    HW234545   0.040   2.923   9.562  0.7065  1.2882 -2.4085
 7695SOL     OW34546   0.689   3.790  11.930 -0.4025  0.0048 -0.1600
 7695SOL    HW134547   0.666   3.854  11.862  2.0590  1.0446 -0.0164
 7695SOL    HW234548   0.661   3.844  12.004 -2.1489  0.1226 -0.9204
 7696SOL     OW34549   1.414   4.515   2.144  0.2480  0.0888  0.2032
 7696SOL    HW134550   1.372   4.534   2.227  0.4594  1.8985 -0.0953
 7696SOL    HW234551   1.420   4.422   2.165 -0.8769  0.1775  0.8807
 7697SOL     OW34552   2.910   4.633   9.286  0.6103  0.3887  0.2413
 7697SOL    HW134553   2.923   0.004   9.282  4.0977 -0.0503  0.9516
 7697SOL    HW234554   2.849   4.632   9.212  0.6789  2.7323  0.1543
 7698SOL     OW34555   2.146   2.374   8.426  1.2919  0.6128  0.5316
 7698SOL    HW134556   2.138   2.323   8.507 -0.5338  0.3349  0.1708
 7698SOL    HW234557   2.132   2.460   8.468 -0.1347  1.1783 -1.1145
 7699SOL     OW34558   4.346   1.604   4.102  0.1168  0.1546 -0.2904
 7699SOL    HW134559   4.420   1.598   4.163  1.8629  0.1375 -2.4219
 7699SOL    HW234560   4.279   1.615   4.169  1.5114  1.7824  0.8431
 7700SOL     OW34561   2.277   0.593   9.735 -0.1546 -0.1791 -0.4452
 7700SOL    HW134562   2.343   0.654   9.767 -1.2630  0.9249 -0.2241
 7700SOL    HW234563   2.201   0.651   9.726 -1.6194 -2.1866 -1.0072
 7701SOL     OW34564   4.187   0.604   7.700 -0.1152 -0.3729  0.2698
 7701SOL    HW134565   4.267   0.567   7.738  1.2214 -0.3649 -2.4847
 7701SOL    HW234566   4.215   0.696   7.692 -0.4789 -0.3637 -0.8619
 7702SOL     OW34567   2.246   4.244   7.109  0.0581 -0.2551 -0.0103
 7702SOL    HW134568   2.217   4.315   7.050 -0.8107  0.3773  1.1713
 7702SOL    HW234569   2.156   4.221   7.129 -0.9008  0.8835 -2.9276
 7703SOL     OW34570   1.862   1.686   8.151 -0.1097 -0.3523  0.2848
 7703SOL    HW134571   1.868   1.714   8.242  0.7549  0.3789  0.0203
 7703SOL    HW234572   1.955   1.698   8.128  0.2046 -0.1501  1.6465
 7704SOL     OW34573   0.318   0.440  15.337  0.1573  0.3211 -0.1511
 7704SOL    HW134574   0.321   0.531  15.308 -0.1263  0.3954  0.0558
 7704SOL    HW234575   0.223   0.427  15.339  0.2303  0.3346  2.6894
 7705SOL     OW34576   2.975   0.575  15.767  0.2116  0.7004  0.5833
 7705SOL    HW134577   2.899   0.619  15.806  0.5100  0.6190  1.2359
 7705SOL    HW234578   2.957   0.483  15.785 -0.2905  0.4646 -1.1167
 7706SOL     OW34579   0.000   0.438   4.457  0.0317  0.1498 -0.2034
 7706SOL    HW134580   4.667   0.431   4.533  3.0542 -0.0689  2.0236
 7706SOL    HW234581   0.066   0.369   4.467  0.9416  0.8539 -1.3481
 7707SOL     OW34582   1.466   0.334  15.941 -0.1223  0.0397 -0.2442
 7707SOL    HW134583   1.474   0.429  15.929  0.5095  0.0593  0.3400
 7707SOL    HW234584   1.532   0.314  16.008 -0.5549  1.3192  0.5614
 7708SOL     OW34585   1.869   4.656   6.155  0.6159 -0.3178 -0.7619
 7708SOL    HW134586   1.962   4.677   6.148  0.3678  1.0174 -0.1044
 7708SOL    HW234587   1.882   4.602   6.234 -2.2805  0.5310  0.3015
 7709SOL     OW34588   1.234   2.285   6.037  0.2570  0.5188 -0.2966
 7709SOL    HW134589   1.296   2.216   6.062  0.1324  0.3867 -0.3466
 7709SOL    HW234590   1.174   2.243   5.975  0.0400  1.0614 -0.4510
 7710SOL     OW34591   4.710   0.772   8.756  0.3193 -0.5433  0.2491
 7710SOL    HW134592   0.049   0.831   8.714  0.2964 -0.0394  0.9222
 7710SOL    HW234593   4.643   0.834   8.784  1.3124 -0.9696  3.4988
 7711SOL     OW34594   3.585   0.787  11.065  0.1486 -0.5948 -0.8413
 7711SOL    HW134595   3.492   0.775  11.083 -0.3589  1.7067 -1.9781
 7711SOL    HW234596   3.602   0.828  11.150  1.1657 -0.0140 -1.3345
 7712SOL     OW34597   3.294   0.068   9.798 -0.1294  0.1995  0.6988
 7712SOL    HW134598   3.208   0.028   9.784  0.4581 -1.3761  1.5783
 7712SOL    HW234599   3.349   0.011   9.743 -1.1752  0.9235 -1.0723
 7713SOL     OW34600   2.813   0.632   7.065  0.1745  0.0087  0.6415
 7713SOL    HW134601   2.798   0.724   7.089 -1.1265 -1.0212  3.7800
 7713SOL    HW234602   2.893   0.641   7.014 -1.0239  1.6597 -0.9864
 7714SOL     OW34603   0.506   0.727  10.419 -0.2579  0.3876  0.3875
 7714SOL    HW134604   0.582   0.775  10.386 -0.5904  0.7644  0.1693
 7714SOL    HW234605   0.486   0.779  10.496 -0.2409 -1.1620  1.4382
 7715SOL     OW34606   3.026   1.081   0.966  0.2458 -0.8717 -0.0276
 7715SOL    HW134607   3.069   1.090   0.881  1.7569  1.9373  1.0697
 7715SOL    HW234608   3.098   1.119   1.016  0.5467  0.8012 -1.7550
 7716SOL     OW34609   2.004   4.242  11.566 -0.0249  0.7463  0.3539
 7716SOL    HW134610   1.972   4.152  11.563  0.4175  0.6231 -0.5039
 7716SOL    HW234611   2.075   4.240  11.502 -0.1069 -0.4084  0.3015
 7717SOL     OW34612   2.438   3.293   8.550  0.3114 -0.0126  0.2786
 7717SOL    HW134613   2.399   3.211   8.520  0.1826  0.6162 -1.2688
 7717SOL    HW234614   2.467   3.267   8.637 -2.1621 -0.7740  0.8742
 7718SOL     OW34615   2.785   0.715   2.776  0.3501  0.3418  0.1169
 7718SOL    HW134616   2.798   0.662   2.697 -2.3116 -3.0534  1.9452
 7718SOL    HW234617   2.836   0.793   2.754  0.3774  0.6079  1.1406
 7719SOL     OW34618   1.806   2.034  17.355  0.2751 -0.8485 -0.2787
 7719SOL    HW134619   1.718   2.065  17.333  0.6784 -0.9184 -2.0609
 7719SOL    HW234620   1.834   2.104  17.413 -0.5336 -0.9495  0.2312
 7720SOL     OW34621   1.789   1.292   5.882  0.6525  0.0913  0.6130
 7720SOL    HW134622   1.871   1.331   5.852  0.2771 -1.0410 -1.9046
 7720SOL    HW234623   1.741   1.374   5.871  1.7787  0.9670  2.3112
 7721SOL     OW34624   2.977   3.657  15.989 -0.2995  0.2480  0.2529
 7721SOL    HW134625   2.953   3.671  16.081 -1.6558 -1.2195  0.1214
 7721SOL    HW234626   3.020   3.739  15.966 -1.3159 -0.0145 -2.5156
 7722SOL     OW34627   4.495   4.205  11.802 -0.9522 -0.0852  0.5174
 7722SOL    HW134628   4.470   4.276  11.861 -1.0493  0.4766 -0.2053
 7722SOL    HW234629   4.488   4.127  11.857 -1.4358  0.7079  1.5791
 7723SOL     OW34630   0.414   4.450   3.248  0.3196  0.6225  0.1157
 7723SOL    HW134631   0.362   4.507   3.191  0.6320  0.2255 -0.5653
 7723SOL    HW234632   0.347   4.387   3.274 -0.4960  1.3616 -0.2047
 7724SOL     OW34633   3.122   4.378   1.459 -0.0332 -0.2169  0.2969
 7724SOL    HW134634   3.092   4.467   1.474  0.3138  0.2971 -2.0155
 7724SOL    HW234635   3.064   4.323   1.512  1.2253 -0.6730  1.2052
 7725SOL     OW34636   3.103   3.651   0.185 -0.1167  0.0955  0.3954
 7725SOL    HW134637   3.104   3.704   0.264 -0.8423  0.4441  0.1705
 7725SOL    HW234638   3.150   3.573   0.214  0.2145  0.3327  0.4858
 7726SOL     OW34639   2.538   1.170   7.086  0.0370  0.8879 -0.0786
 7726SOL    HW134640   2.591   1.108   7.135 -0.1552  0.5727 -0.2676
 7726SOL    HW234641   2.527   1.239   7.152  0.1144 -0.7146  1.5941
 7727SOL     OW34642   4.416   1.744  13.200  0.2662  0.2290 -0.0823
 7727SOL    HW134643   4.509   1.750  13.223 -0.5899 -2.4981  4.1479
 7727SOL    HW234644   4.419   1.677  13.132  1.8556  1.3000 -1.0483
 7728SOL     OW34645   1.412   3.718  11.407 -0.2360  0.0517 -0.2791
 7728SOL    HW134646   1.395   3.730  11.313  0.2381  1.0330 -0.2365
 7728SOL    HW234647   1.386   3.805  11.438 -0.5217 -0.5834  1.2235
 7729SOL     OW34648   0.546   0.428   4.327  0.4251 -0.5165 -0.2995
 7729SOL    HW134649   0.478   0.479   4.283  0.8003  0.5779  0.3959
 7729SOL    HW234650   0.529   0.432   4.421 -0.9476  2.7996 -0.7033
 7730SOL     OW34651   2.650   2.370   8.123  0.0361 -0.2433  0.1621
 7730SOL    HW134652   2.687   2.379   8.211 -0.9975 -0.8173  0.6677
 7730SOL    HW234653   2.627   2.461   8.106 -2.3628 -1.1215 -1.3244
 7731SOL     OW34654   0.683   1.614   8.291 -0.0263 -0.1876 -0.4661
 7731SOL    HW134655   0.675   1.710   8.295  1.4250 -0.0810  0.0160
 7731SOL    HW234656   0.705   1.590   8.381 -0.5164  1.9129  0.2304
 7732SOL     OW34657   3.629   1.106   7.510 -0.1426  0.3669  0.1273
 7732SOL    HW134658   3.621   1.012   7.526 -0.4754  0.2540 -0.7105
 7732SOL    HW234659   3.582   1.114   7.427  1.2896 -2.4593 -0.9266
 7733SOL     OW34660   1.601   4.030  10.970 -0.0048 -0.6403  0.3811
 7733SOL    HW134661   1.558   3.970  11.031  1.0832 -1.1979  0.6037
 7733SOL    HW234662   1.654   4.091  11.022  0.3441 -0.6250  0.0112
 7734SOL     OW34663   1.057   3.562   3.596 -0.1654  0.6047  0.1265
 7734SOL    HW134664   1.094   3.626   3.536  0.6394 -0.0538 -0.0761
 7734SOL    HW234665   1.033   3.492   3.535  3.5691 -1.5935  1.1797
 7735SOL     OW34666   4.240   4.302  17.669 -0.1105  0.4878  0.6153
 7735SOL    HW134667   4.167   4.359  17.694 -1.5995 -0.3535 -1.7957
 7735SOL    HW234668   4.197   4.216  17.671  1.2874 -0.2680 -1.7137
 7736SOL     OW34669   0.831   3.715   7.603 -0.0949  0.6548 -0.0775
 7736SOL    HW134670   0.841   3.655   7.677  0.9739 -0.8068 -1.3997
 7736SOL    HW234671   0.908   3.771   7.618  0.4178  0.7496 -2.9554
 7737SOL     OW34672   4.407   1.611  16.749  0.4704  0.2804 -0.0995
 7737SOL    HW134673   4.397   1.529  16.701  1.8210 -0.6087  1.1117
 7737SOL    HW234674   4.484   1.587  16.800  2.4644 -0.1020 -3.2815
 7738SOL     OW34675   1.546   0.728   6.756 -0.3509 -0.7515 -0.1099
 7738SOL    HW134676   1.495   0.653   6.784  0.1620 -0.8494  0.5714
 7738SOL    HW234677   1.475   0.786   6.729 -0.1955  0.5133  2.1955
 7739SOL     OW34678   1.006   0.167   2.742  0.1049 -0.5021  0.1762
 7739SOL    HW134679   1.081   0.128   2.698  0.3011  1.5516 -1.2898
 7739SOL    HW234680   0.936   0.178   2.677 -0.3970  0.7219  0.9224
 7740SOL     OW34681   3.227   3.343  13.935  0.4442 -0.0072  0.1590
 7740SOL    HW134682   3.190   3.304  13.855  1.2893  0.9213 -0.6886
 7740SOL    HW234683   3.224   3.434  13.906 -0.0656 -0.7908 -2.3194
 7741SOL     OW34684   3.924   0.617   0.697  0.4869  0.5260  0.6414
 7741SOL    HW134685   3.862   0.609   0.770 -0.2814  2.7225  0.2132
 7741SOL    HW234686   3.959   0.528   0.692  0.2841  0.4135  1.2419
 7742SOL     OW34687   4.080   0.815   1.982 -0.1398  0.2093  0.1951
 7742SOL    HW134688   4.155   0.856   1.940  0.9971  1.0747  3.0832
 7742SOL    HW234689   4.024   0.890   1.998  2.0736  1.6781  1.0290
 7743SOL     OW34690   0.810   2.851   7.213  0.7621  0.4624 -0.0581
 7743SOL    HW134691   0.783   2.786   7.277  0.4231 -0.9811 -1.6782
 7743SOL    HW234692   0.903   2.858   7.235  0.4053  0.0620  1.5898
 7744SOL     OW34693   1.862   3.486   9.928  0.5870  0.4774 -0.2887
 7744SOL    HW134694   1.884   3.554   9.864 -1.9275  0.0850 -1.5672
 7744SOL    HW234695   1.938   3.483   9.986  0.5222 -1.4727 -0.3178
 7745SOL     OW34696   1.513   1.558  17.182  0.4959  0.4935  0.8049
 7745SOL    HW134697   1.568   1.485  17.209 -1.1465 -1.4973 -1.2024
 7745SOL    HW234698   1.546   1.626  17.241 -2.2613  1.7661  0.9279
 7746SOL     OW34699   3.434   3.282   4.312 -0.2205  0.0204  0.0287
 7746SOL    HW134700   3.428   3.312   4.403  0.0283 -1.6538  0.5956
 7746SOL    HW234701   3.348   3.239   4.312 -0.8500  1.2874 -0.4990
 7747SOL     OW34702   2.707   3.640   2.303 -0.3248  0.6222 -0.1166
 7747SOL    HW134703   2.612   3.635   2.290 -0.4408  1.0165  0.5749
 7747SOL    HW234704   2.709   3.717   2.360  1.9159 -0.6701  1.5468
 7748SOL     OW34705   0.944   1.634   1.968  0.1523  0.0112  0.6317
 7748SOL    HW134706   0.851   1.657   1.960  0.9038  4.0392  3.0400
 7748SOL    HW234707   0.979   1.700   1.908  0.9204 -1.6321 -0.6872
 7749SOL     OW34708   1.524   1.987  12.897 -0.7213  0.9120  0.0470
 7749SOL    HW134709   1.527   1.918  12.964  0.4597  0.8474 -0.0780
 7749SOL    HW234710   1.514   1.948  12.810  0.4329  0.7717 -0.0196
 7750SOL     OW34711   3.635   1.394   7.992  0.4115  0.3312 -0.1074
 7750SOL    HW134712   3.571   1.356   8.052  1.4592 -1.5935 -0.2234
 7750SOL    HW234713   3.666   1.475   8.033  0.7458 -0.4566  1.1798
 7751SOL     OW34714   3.365   2.377   5.779 -0.0578 -0.0209  0.1642
 7751SOL    HW134715   3.353   2.296   5.730 -2.2117 -0.0947  0.7838
 7751SOL    HW234716   3.349   2.434   5.703 -0.4033  0.0938  0.3205
 7752SOL     OW34717   1.606   1.406  15.442 -0.1355 -0.0431 -0.3282
 7752SOL    HW134718   1.569   1.448  15.365  1.4037 -0.6229 -1.3796
 7752SOL    HW234719   1.534   1.391  15.503 -0.0598  2.4291  0.3751
 7753SOL     OW34720   1.683   2.161   4.178  0.0401  0.1131 -0.3250
 7753SOL    HW134721   1.774   2.190   4.181 -0.4634  1.5320  1.0256
 7753SOL    HW234722   1.695   2.067   4.163  0.4064  0.5057 -2.4424
 7754SOL     OW34723   3.299   1.430   9.213  0.0877  0.2165  0.1187
 7754SOL    HW134724   3.235   1.394   9.273 -0.6060 -0.3744 -0.9837
 7754SOL    HW234725   3.268   1.521   9.210 -1.9056 -0.3946  2.2050
 7755SOL     OW34726   2.500   3.579  16.013  0.4577 -0.5530 -0.1695
 7755SOL    HW134727   2.515   3.557  15.921 -4.9337 -2.2906 -0.6831
 7755SOL    HW234728   2.507   3.674  16.019  0.7998 -0.6049  0.2596
 7756SOL     OW34729   4.483   2.136   2.834 -0.1584  0.0270 -0.1627
 7756SOL    HW134730   4.402   2.085   2.836 -0.3048  0.1357 -2.9454
 7756SOL    HW234731   4.453   2.226   2.835 -1.2045 -0.3069 -0.8725
 7757SOL     OW34732   3.376   1.693  13.121  0.0467 -0.2646  0.0522
 7757SOL    HW134733   3.367   1.669  13.029 -0.6258 -1.5393  0.4462
 7757SOL    HW234734   3.418   1.613  13.155 -0.0456 -1.0650 -1.7007
 7758SOL     OW34735   1.372   4.130   8.448  0.1726 -0.5622  0.3198
 7758SOL    HW134736   1.323   4.052   8.472 -2.2720  0.7962 -0.3012
 7758SOL    HW234737   1.385   4.159   8.538  0.3029  0.2949  0.0221
 7759SOL     OW34738   4.547   0.796   7.800  0.1146 -0.5103  0.1646
 7759SOL    HW134739   4.613   0.835   7.857  0.0157  0.5869 -0.4811
 7759SOL    HW234740   4.607   0.738   7.751  0.4194 -0.0454 -0.0084
 7760SOL     OW34741   2.614   3.803  12.009  0.0933  0.4550  0.0865
 7760SOL    HW134742   2.588   3.729  11.955 -1.4440  0.0869  1.3358
 7760SOL    HW234743   2.692   3.825  11.958  0.3389 -0.6013  0.0085
 7761SOL     OW34744   4.399   4.005   2.775  0.5886 -0.0629  0.0586
 7761SOL    HW134745   4.381   4.040   2.688 -0.0998  0.5822  0.4698
 7761SOL    HW234746   4.368   4.081   2.824  0.8135 -0.0376  0.1592
 7762SOL     OW34747   3.415   1.001   9.384  0.0244 -0.3865 -0.1340
 7762SOL    HW134748   3.431   0.910   9.409 -1.2339 -0.4472  0.4626
 7762SOL    HW234749   3.448   0.990   9.295 -1.1398  0.5889 -0.6856
 7763SOL     OW34750   0.268   3.774   3.228 -0.1022 -0.0069 -0.3107
 7763SOL    HW134751   0.224   3.803   3.148 -0.9301 -1.4192 -0.3571
 7763SOL    HW234752   0.327   3.707   3.192  0.5821  0.0199  0.7546
 7764SOL     OW34753   0.473   1.682   3.958  0.4795  0.0410 -0.0524
 7764SOL    HW134754   0.429   1.764   3.982  1.9515  0.6023  0.7061
 7764SOL    HW234755   0.556   1.699   4.003  0.8949  2.4064 -1.6830
 7765SOL     OW34756   1.598   4.218  12.831  0.1580 -0.0689  0.5865
 7765SOL    HW134757   1.692   4.201  12.829  0.3430  1.2956 -2.3074
 7765SOL    HW234758   1.595   4.313  12.823 -2.8569 -0.1989  0.3336
 7766SOL     OW34759   2.539   1.341   2.428 -0.0755 -0.2576  0.1188
 7766SOL    HW134760   2.489   1.288   2.366  0.5778 -1.2330  0.4169
 7766SOL    HW234761   2.471   1.405   2.449 -0.4844 -0.1399 -1.5287
 7767SOL     OW34762   4.057   0.852   1.611 -0.5254  0.2817 -0.2574
 7767SOL    HW134763   3.962   0.851   1.620 -0.2739 -0.8023  2.2292
 7767SOL    HW234764   4.066   0.944   1.589  1.7362 -0.4024 -2.1641
 7768SOL     OW34765   3.896   1.321   6.145 -0.1945 -0.1293 -0.5526
 7768SOL    HW134766   3.833   1.251   6.127  1.4675 -1.8700  0.4524
 7768SOL    HW234767   3.964   1.291   6.084  0.0048 -0.4925 -0.1512
 7769SOL     OW34768   4.696   1.781  15.008  0.1798 -0.2160 -0.1477
 7769SOL    HW134769   0.021   1.811  14.931 -0.7188  1.6667  0.0178
 7769SOL    HW234770   4.670   1.691  14.987 -0.7629  0.3145 -1.2826
 7770SOL     OW34771   0.456   0.109  13.587 -0.3445 -0.0087 -0.1613
 7770SOL    HW134772   0.411   0.112  13.671  0.3346  1.5029  0.1641
 7770SOL    HW234773   0.510   0.033  13.607 -1.9010 -0.7339  1.2028
 7771SOL     OW34774   0.080   0.221   4.948 -0.3932  0.0221  0.0264
 7771SOL    HW134775   0.012   0.255   5.007  0.1381  1.6366 -0.2834
 7771SOL    HW234776   0.116   0.303   4.914  2.9064  0.0023  3.3949
 7772SOL     OW34777   1.685   0.090  17.449 -0.6962  0.8908  0.3761
 7772SOL    HW134778   1.676   4.720  17.465  1.7713  0.7844  1.2077
 7772SOL    HW234779   1.779   0.108  17.456 -0.5496  1.0924 -2.0335
 7773SOL     OW34780   3.867   3.151  11.082  0.3362  0.1628 -0.1363
 7773SOL    HW134781   3.856   3.222  11.146 -0.3604 -0.4345  0.4084
 7773SOL    HW234782   3.945   3.168  11.030  0.2332  0.6028 -0.1521
 7774SOL     OW34783   4.378   0.292   3.792 -0.1189  0.4104 -0.7918
 7774SOL    HW134784   4.397   0.242   3.872 -4.3479 -0.4690 -0.2960
 7774SOL    HW234785   4.448   0.268   3.731  2.0576  2.1951  1.0270
 7775SOL     OW34786   1.427   3.335   0.446 -0.7016  0.2099  0.1648
 7775SOL    HW134787   1.507   3.293   0.478 -1.0324 -1.9261 -1.7828
 7775SOL    HW234788   1.427   3.405   0.511 -1.6682  0.4988 -0.1520
 7776SOL     OW34789   0.963   0.988   6.933  0.8583  0.0261  0.0922
 7776SOL    HW134790   0.870   0.979   6.910  0.6765 -1.1534  1.3028
 7776SOL    HW234791   1.009   0.967   6.852 -1.5490 -0.4416 -1.1606
 7777SOL     OW34792   0.428   1.655   2.431  0.5835  0.1840 -0.0928
 7777SOL    HW134793   0.364   1.606   2.483 -1.4120  1.4603 -1.3744
 7777SOL    HW234794   0.504   1.598   2.447  0.1349 -0.1703  0.7782
 7778SOL     OW34795   1.556   2.972   3.894  0.5880 -0.2419 -0.3213
 7778SOL    HW134796   1.637   3.022   3.890  0.2184  0.4517  0.9254
 7778SOL    HW234797   1.585   2.901   3.951  0.2032  0.0979  0.2968
 7779SOL     OW34798   1.947   4.036  17.406 -0.7284 -0.1950  0.1595
 7779SOL    HW134799   2.016   4.022  17.470  0.1133  2.6235 -0.1599
 7779SOL    HW234800   1.893   4.094  17.459  0.1906  0.0275  0.8473
 7780SOL     OW34801   2.403   3.924  14.674 -0.0779 -0.2445 -0.0301
 7780SOL    HW134802   2.341   3.852  14.659 -1.7098  1.6463 -2.3927
 7780SOL    HW234803   2.463   3.894  14.742  0.1920  1.5753  0.5278
 7781SOL     OW34804   0.472   2.506  14.379 -0.9577  0.1278 -0.1398
 7781SOL    HW134805   0.481   2.468  14.291  0.8956 -0.9107  0.5042
 7781SOL    HW234806   0.434   2.433  14.427 -2.2348  0.3077 -0.8790
 7782SOL     OW34807   3.333   1.225   7.663 -0.3691  0.1182 -0.3284
 7782SOL    HW134808   3.322   1.181   7.578  0.0838 -0.7659  0.0699
 7782SOL    HW234809   3.356   1.146   7.712 -0.7722 -0.3762 -0.9347
 7783SOL     OW34810   1.446   1.372   0.390 -0.1834  0.1642 -0.2025
 7783SOL    HW134811   1.465   1.360   0.483 -1.0965  4.3720  0.5491
 7783SOL    HW234812   1.350   1.367   0.398 -0.1385  1.1996  1.0362
 7784SOL     OW34813   1.821   1.140   4.653 -0.3385  0.1829  0.0179
 7784SOL    HW134814   1.807   1.059   4.703 -2.0579  0.7135  0.4257
 7784SOL    HW234815   1.845   1.102   4.569 -3.5189 -0.9650 -0.3967
 7785SOL     OW34816   3.723   1.869   2.007  0.1001 -0.3346  0.9087
 7785SOL    HW134817   3.794   1.846   2.067  0.1131  0.7261  1.3058
 7785SOL    HW234818   3.648   1.910   2.050  0.1890  0.9307 -0.1302
 7786SOL     OW34819   1.812   3.484   3.176  0.1253 -0.0204 -0.1747
 7786SOL    HW134820   1.804   3.501   3.082  0.3818 -0.8735 -0.3490
 7786SOL    HW234821   1.847   3.569   3.202 -0.9638  0.3659  0.0247
 7787SOL     OW34822   2.510   3.496   5.433 -0.0896  0.0835  0.1171
 7787SOL    HW134823   2.528   3.412   5.391 -1.6487  0.6209 -1.6129
 7787SOL    HW234824   2.594   3.542   5.430  0.7667 -1.4422  0.8267
 7788SOL     OW34825   2.448   3.365  14.290  0.2981  0.1881 -0.2405
 7788SOL    HW134826   2.498   3.300  14.240  0.7240  0.3300 -0.0023
 7788SOL    HW234827   2.416   3.312  14.363  0.9570 -0.0792 -0.1417
 7789SOL     OW34828   1.736   3.725   6.260 -0.0087 -0.5447  0.7483
 7789SOL    HW134829   1.643   3.733   6.282  0.1022  0.2824  0.9311
 7789SOL    HW234830   1.761   3.644   6.305 -0.4770 -0.6606  0.7973
 7790SOL     OW34831   2.885   3.502  15.054 -0.3032  0.6148 -0.0998
 7790SOL    HW134832   2.826   3.525  14.982  0.5104 -1.0610 -1.3054
 7790SOL    HW234833   2.958   3.452  15.017 -0.3149  0.7815 -0.3481
 7791SOL     OW34834   2.646   2.341  14.219  0.1323  0.0265  0.6243
 7791SOL    HW134835   2.686   2.263  14.257  1.0046  0.1735 -0.0095
 7791SOL    HW234836   2.637   2.318  14.126 -1.4192 -1.1540  1.0681
 7792SOL     OW34837   4.062   1.938   7.454 -0.3135  0.2108 -0.1218
 7792SOL    HW134838   4.060   1.883   7.532 -1.0125  1.2531  0.5897
 7792SOL    HW234839   4.148   1.974   7.474 -0.1394  0.3326 -1.0710
 7793SOL     OW34840   1.451   3.394   9.367 -0.6429  0.1062  0.0417
 7793SOL    HW134841   1.540   3.428   9.377  0.0640 -1.9612  0.8349
 7793SOL    HW234842   1.437   3.347   9.450  2.6078  0.3120  0.7063
 7794SOL     OW34843   4.365   0.670  10.682  0.1203  0.3842  0.0981
 7794SOL    HW134844   4.408   0.584  10.686 -0.0737  0.3642  1.6499
 7794SOL    HW234845   4.333   0.670  10.772  0.4741 -0.1419  0.2259
 7795SOL     OW34846   2.779   4.583   3.531 -0.5621  0.1383 -0.6060
 7795SOL    HW134847   2.706   4.521   3.539 -0.0603  0.0466  3.2583
 7795SOL    HW234848   2.823   4.533   3.463  0.0535  2.9458 -2.2517
 7796SOL     OW34849   4.245   0.910  10.894 -0.3143  0.1110  0.1596
 7796SOL    HW134850   4.173   0.874  10.945 -1.9819  1.7193 -1.0563
 7796SOL    HW234851   4.315   0.851  10.921  0.0787  0.3722 -0.2905
 7797SOL     OW34852   4.091   0.156   8.674  0.4755  0.5050 -0.4940
 7797SOL    HW134853   4.068   0.193   8.759 -2.0903 -1.8882 -0.1267
 7797SOL    HW234854   4.002   0.148   8.641  0.2546  0.4715  0.1166
 7798SOL     OW34855   3.313   0.705   1.879  0.8177 -0.9094 -0.2962
 7798SOL    HW134856   3.407   0.685   1.873  1.5538  2.7327 -1.0642
 7798SOL    HW234857   3.284   0.648   1.807  0.7464 -0.7267 -0.4137
 7799SOL     OW34858   2.472   1.082   6.177  0.0810  0.1393 -0.3997
 7799SOL    HW134859   2.534   1.086   6.250 -0.0605 -0.3566 -0.2472
 7799SOL    HW234860   2.489   0.999   6.132  1.9996  0.8650 -1.0233
 7800SOL     OW34861   2.482   2.983   5.729  0.2052 -0.0719  0.2604
 7800SOL    HW134862   2.543   3.040   5.775  2.3220 -2.3834  0.3506
 7800SOL    HW234863   2.427   2.945   5.798 -0.5786 -0.7705 -0.7461
 7801SOL     OW34864   0.198   4.234   2.832  0.6893  0.0613  0.1932
 7801SOL    HW134865   0.130   4.290   2.795  0.9491 -1.1283 -2.0905
 7801SOL    HW234866   0.157   4.192   2.908  0.6227  0.2068  0.2384
 7802SOL     OW34867   1.966   3.478   5.293 -0.1810  0.0409  0.1971
 7802SOL    HW134868   1.933   3.415   5.228 -0.2491  0.0913  0.1830
 7802SOL    HW234869   2.031   3.527   5.243 -0.3385 -1.3357 -1.3588
 7803SOL     OW34870   4.344   2.373   2.828 -0.3466 -0.1989  0.1230
 7803SOL    HW134871   4.251   2.367   2.804  0.1216  0.2303 -1.7648
 7803SOL    HW234872   4.366   2.453   2.781  5.3233 -1.9877 -0.2592
 7804SOL     OW34873   0.921   2.492   2.802  0.4968 -0.2681  0.5626
 7804SOL    HW134874   0.873   2.548   2.742  0.4614 -0.4054  0.4618
 7804SOL    HW234875   0.992   2.466   2.743 -1.4158 -0.6228 -1.6038
 7805SOL     OW34876   2.107   1.096   3.312 -0.2655  0.3237  0.5088
 7805SOL    HW134877   2.101   1.094   3.217 -1.6083  2.3069  0.5551
 7805SOL    HW234878   2.086   1.004   3.332  1.5743 -0.5630 -1.6570
 7806SOL     OW34879   0.509   1.640   0.940  0.7608 -0.4105 -0.9602
 7806SOL    HW134880   0.587   1.621   0.888  1.3224  0.9488 -0.6075
 7806SOL    HW234881   0.515   1.735   0.953  0.9817 -0.6589  0.7845
 7807SOL     OW34882   3.937   4.427   7.602  0.5999  0.9750  0.4888
 7807SOL    HW134883   3.914   4.350   7.654 -0.8325  0.4376 -0.9357
 7807SOL    HW234884   3.925   4.496   7.666 -3.2699  0.3972  0.3705
 7808SOL     OW34885   3.404   2.666   7.097  0.2293 -0.2974  0.0343
 7808SOL    HW134886   3.309   2.674   7.104  0.1309 -0.8821 -0.6896
 7808SOL    HW234887   3.431   2.660   7.189  0.7577  0.8535 -0.0428
 7809SOL     OW34888   4.472   1.746   3.157 -0.0399  0.3082 -0.1716
 7809SOL    HW134889   4.465   1.781   3.068  0.4996  0.1507 -0.2795
 7809SOL    HW234890   4.567   1.748   3.168 -0.1550 -0.8812  0.9597
 7810SOL     OW34891   0.160   2.953  14.286 -0.5176  0.8696  0.0473
 7810SOL    HW134892   0.229   2.904  14.242  0.3229  1.5423  0.6019
 7810SOL    HW234893   0.156   3.031  14.229 -0.5549  1.8430  1.3748
 7811SOL     OW34894   0.971   2.237  15.009 -0.0168 -0.1103  0.6330
 7811SOL    HW134895   0.982   2.145  14.983  1.7152  0.0144  0.9100
 7811SOL    HW234896   1.061   2.263  15.032  0.5572 -2.1769  0.7504
 7812SOL     OW34897   4.464   4.645   7.495 -0.0042  0.3393  0.5695
 7812SOL    HW134898   4.547   4.668   7.537 -0.3342  0.8668  0.9299
 7812SOL    HW234899   4.476   4.694   7.414  0.2599  0.6637  0.8031
 7813SOL     OW34900   2.261   3.882   1.034  0.7795  0.1076 -0.4992
 7813SOL    HW134901   2.340   3.859   1.082 -0.2335  0.4267  1.3145
 7813SOL    HW234902   2.230   3.791   1.033 -0.7920  0.6273  1.0577
 7814SOL     OW34903   2.719   1.803   6.603  0.6836 -0.3826  0.5507
 7814SOL    HW134904   2.644   1.783   6.660 -0.6256  2.5518 -0.1553
 7814SOL    HW234905   2.690   1.771   6.517 -2.1251  0.7563  1.0739
 7815SOL     OW34906   1.132   4.318   5.448 -0.1871 -0.0024  0.2622
 7815SOL    HW134907   1.059   4.255   5.443 -0.3038  0.0627  1.0844
 7815SOL    HW234908   1.100   4.407   5.437  0.6684  0.3816  0.9328
 7816SOL     OW34909   2.930   3.812   7.523  0.1917 -0.3828  0.1528
 7816SOL    HW134910   2.909   3.720   7.512  1.7345 -0.7880  0.5374
 7816SOL    HW234911   2.993   3.812   7.451  1.0590 -1.7228  0.9103
 7817SOL     OW34912   3.212   0.939  15.321  0.4172 -0.0169  0.2339
 7817SOL    HW134913   3.121   0.964  15.301  1.0623  0.5433 -2.0788
 7817SOL    HW234914   3.217   0.869  15.257 -1.2601  1.3827 -1.4527
 7818SOL     OW34915   3.221   2.107  16.231  0.4697 -0.5257 -0.4810
 7818SOL    HW134916   3.242   2.060  16.150 -0.1922 -1.4223 -0.1413
 7818SOL    HW234917   3.262   2.191  16.212  1.8798 -1.2899 -0.8619
 7819SOL     OW34918   3.978   2.795   3.731  0.9599 -0.2786  0.5644
 7819SOL    HW134919   3.904   2.818   3.673  0.1701  0.0237  1.7005
 7819SOL    HW234920   3.988   2.702   3.710 -0.0147 -0.1327 -0.6312
 7820SOL     OW34921   4.600   0.722   1.828  0.1938  0.4210  0.0014
 7820SOL    HW134922   4.645   0.792   1.876  1.8750 -1.6384  1.4210
 7820SOL    HW234923   4.513   0.725   1.867 -0.0218 -1.2653 -0.3693
 7821SOL     OW34924   3.615   4.534   6.517  0.0012 -0.2516  0.6051
 7821SOL    HW134925   3.527   4.559   6.545  0.4526  0.9587  0.9290
 7821SOL    HW234926   3.598   4.439   6.514 -1.5097 -0.0087  1.4023
 7822SOL     OW34927   1.916   2.626   0.176 -0.3246 -0.8107 -0.8002
 7822SOL    HW134928   1.985   2.600   0.115  0.4747  1.8568 -1.0338
 7822SOL    HW234929   1.836   2.617   0.125 -0.8676  3.3909 -0.6471
 7823SOL     OW34930   4.313   1.103  11.153 -0.3190  0.4293  0.3115
 7823SOL    HW134931   4.383   1.142  11.205  0.8242  1.8522 -2.2658
 7823SOL    HW234932   4.359   1.085  11.071 -0.6046 -0.9407  0.4583
 7824SOL     OW34933   2.885   3.554  15.329  0.2108 -0.2805  0.2880
 7824SOL    HW134934   2.895   3.546  15.235  1.5150  1.0858  0.3137
 7824SOL    HW234935   2.851   3.643  15.336 -0.0090 -0.2931 -0.6956
 7825SOL     OW34936   0.223   0.968   7.697  0.1977  0.2481 -0.2202
 7825SOL    HW134937   0.242   0.962   7.604 -2.0489 -1.4166 -0.5866
 7825SOL    HW234938   0.130   0.946   7.690  0.6901 -1.6365 -0.8522
 7826SOL     OW34939   1.409   2.008  16.625  0.0697  0.5510 -0.2058
 7826SOL    HW134940   1.342   2.023  16.559 -2.3292 -1.3005  1.8275
 7826SOL    HW234941   1.389   2.074  16.692 -2.9435  1.1619 -1.6854
 7827SOL     OW34942   2.667   4.299   7.919 -0.5958 -0.2961  0.2158
 7827SOL    HW134943   2.759   4.313   7.897 -0.5004 -0.2367  0.6571
 7827SOL    HW234944   2.623   4.379   7.890 -3.2138 -1.3043  1.3932
 7828SOL     OW34945   2.753   1.582  11.253 -0.4633 -0.0123  0.5992
 7828SOL    HW134946   2.782   1.496  11.283 -0.7248 -0.6546 -0.9973
 7828SOL    HW234947   2.709   1.610  11.334  0.1461  0.6470  0.7101
 7829SOL     OW34948   3.115   2.972   7.794 -0.1087  0.8055  0.1211
 7829SOL    HW134949   3.207   2.957   7.770 -0.7349  0.1560 -1.8232
 7829SOL    HW234950   3.066   2.897   7.761  2.8182 -0.6432 -0.9464
 7830SOL     OW34951   3.587   2.100   1.523 -0.1562  0.2052  0.4312
 7830SOL    HW134952   3.559   2.096   1.431  0.4601  2.4973  0.1485
 7830SOL    HW234953   3.678   2.131   1.525 -0.2981  0.3768  3.6794
 7831SOL     OW34954   1.790   0.968   7.910  0.2633 -0.1563 -0.4636
 7831SOL    HW134955   1.698   0.964   7.935  0.1292 -0.3183 -0.9801
 7831SOL    HW234956   1.790   1.056   7.873 -1.8553  0.9133  2.0683
 7832SOL     OW34957   2.050   0.219   4.898  0.4474 -0.9584 -0.6133
 7832SOL    HW134958   2.103   0.296   4.876 -1.2458  0.2604 -0.4877
 7832SOL    HW234959   2.081   0.202   4.987 -2.0007  0.1090  0.4588
 7833SOL     OW34960   0.187   1.022   4.556 -0.1030 -0.0953 -0.2069
 7833SOL    HW134961   0.184   0.953   4.489 -0.9498 -0.4235  0.1692
 7833SOL    HW234962   0.272   1.059   4.531 -0.7045  2.5474  1.6356
 7834SOL     OW34963   2.833   2.752   8.811  0.0183 -0.1535  0.1952
 7834SOL    HW134964   2.822   2.841   8.779  0.9960  0.2444  0.9572
 7834SOL    HW234965   2.752   2.747   8.862 -0.4157  0.1980 -0.4694
 7835SOL     OW34966   0.540   0.255   5.921 -0.2930 -0.3850  0.2148
 7835SOL    HW134967   0.510   0.310   5.849  1.1818  2.1232  1.5045
 7835SOL    HW234968   0.611   0.311   5.954  0.6790 -1.7881  0.5256
 7836SOL     OW34969   4.441   4.218   3.109  0.3184 -0.4142  0.5372
 7836SOL    HW134970   4.381   4.231   3.036 -1.6929 -2.4205  1.7929
 7836SOL    HW234971   4.382   4.251   3.176  2.4377 -0.3985  2.4148
 7837SOL     OW34972   3.117   3.558   7.584  0.4327  0.4266  0.4798
 7837SOL    HW134973   3.105   3.479   7.637  0.7109 -0.2951 -0.5304
 7837SOL    HW234974   3.046   3.544   7.521  0.2657 -1.9395  1.1785
 7838SOL     OW34975   1.961   1.977  11.577  0.0449 -0.3204 -0.3199
 7838SOL    HW134976   1.944   2.061  11.620  1.1071  0.0733 -0.6942
 7838SOL    HW234977   1.988   2.001  11.489 -2.8527  1.6429 -0.6983
 7839SOL     OW34978   3.270   1.011   1.633 -0.3709  0.6499 -0.1451
 7839SOL    HW134979   3.246   0.921   1.613 -1.2946  0.7264  0.6507
 7839SOL    HW234980   3.265   1.013   1.728  1.0503  1.2748 -0.0794
 7840SOL     OW34981   0.411   1.457  15.156 -0.4714  0.2897  0.0664
 7840SOL    HW134982   0.470   1.384  15.172 -0.0534  0.3989 -0.9948
 7840SOL    HW234983   0.423   1.455  15.061  1.7750  0.2397  0.3507
 7841SOL     OW34984   2.914   0.580   7.523  0.5228  0.0443  0.3387
 7841SOL    HW134985   2.953   0.653   7.475  0.5003  0.7524  1.3955
 7841SOL    HW234986   2.912   0.521   7.447  0.3645 -0.4798  0.7497
 7842SOL     OW34987   2.265   2.090   7.761 -0.2931  0.6939  0.4845
 7842SOL    HW134988   2.264   2.175   7.803 -1.2546  0.8179  0.2058
 7842SOL    HW234989   2.284   2.038   7.839 -0.7365 -0.8741 -0.4514
 7843SOL     OW34990   3.527   2.895   4.210 -0.8639  0.6399 -0.1547
 7843SOL    HW134991   3.509   2.868   4.120 -0.9207  2.1441 -0.5956
 7843SOL    HW234992   3.437   2.919   4.232 -0.0508  0.0707  3.8656
 7844SOL     OW34993   2.093   0.184  10.794  0.4766  0.2970  0.4979
 7844SOL    HW134994   2.058   0.244  10.728  1.0590 -0.6421 -0.6560
 7844SOL    HW234995   2.040   0.207  10.871  0.5993  0.9456  0.3857
 7845SOL     OW34996   3.175   1.875   0.334  0.1931  0.1033 -0.6134
 7845SOL    HW134997   3.196   1.845   0.246 -1.7590 -0.0062 -1.0554
 7845SOL    HW234998   3.252   1.927   0.356 -0.0802  0.0602  0.4375
 7846SOL     OW34999   2.496   0.382   4.501 -0.4025  0.1032 -0.1357
 7846SOL    HW135000   2.518   0.474   4.514 -1.0815  0.0554  1.3832
 7846SOL    HW235001   2.512   0.347   4.589  0.2821 -3.9025 -1.8507
 7847SOL     OW35002   0.925   1.158   3.563 -0.4895 -0.0273 -0.0407
 7847SOL    HW135003   0.909   1.129   3.652 -1.0067  1.3567  0.3259
 7847SOL    HW235004   0.840   1.189   3.534 -1.3250  0.7449  3.2217
 7848SOL     OW35005   2.893   4.135   5.054 -0.2086 -0.5702 -0.1352
 7848SOL    HW135006   2.895   4.115   5.148  0.1429 -2.5811 -0.5704
 7848SOL    HW235007   2.801   4.134   5.029 -0.0492 -0.9399 -0.7090
 7849SOL     OW35008   2.768   3.228   2.688 -0.2788  0.1412 -0.1424
 7849SOL    HW135009   2.732   3.182   2.613  0.7651  0.6679 -0.9773
 7849SOL    HW235010   2.806   3.151   2.731  0.6135  1.7025  1.8653
 7850SOL     OW35011   1.359   2.368  11.078  0.3717  0.4473  0.2211
 7850SOL    HW135012   1.330   2.280  11.101 -1.3698  0.4122 -2.1582
 7850SOL    HW235013   1.352   2.421  11.158 -1.2827  2.2398 -1.1254
 7851SOL     OW35014   1.011   0.018   5.817 -0.2846 -0.2377 -0.1680
 7851SOL    HW135015   1.029   0.106   5.849 -1.3521  0.8364 -2.5622
 7851SOL    HW235016   1.078   4.685   5.856 -0.3816 -0.2176  0.0230
 7852SOL     OW35017   3.280   3.367  10.726  0.6446 -0.0603  0.1220
 7852SOL    HW135018   3.350   3.351  10.789 -0.6153 -2.7628  0.8414
 7852SOL    HW235019   3.281   3.462  10.714 -1.9526 -0.0927 -0.2941
 7853SOL     OW35020   3.634   1.966  11.775 -0.2830 -0.6754  0.1395
 7853SOL    HW135021   3.564   2.008  11.725  1.5668  3.3031  0.8837
 7853SOL    HW235022   3.696   1.940  11.707 -0.2049 -1.0437  0.3546
 7854SOL     OW35023   2.402   1.991   6.310  0.0299 -0.7115 -0.1151
 7854SOL    HW135024   2.397   1.910   6.259  3.3211  0.3612 -2.1696
 7854SOL    HW235025   2.432   2.054   6.244 -1.7881  1.7200  1.3714
 7855SOL     OW35026   1.308   3.551   3.321 -0.9352  0.5516  0.5433
 7855SOL    HW135027   1.318   3.568   3.227  0.4562  1.1304  0.7977
 7855SOL    HW235028   1.235   3.605   3.352 -1.5325 -0.1190  0.2942
 7856SOL     OW35029   3.690   3.374   2.404 -0.0500 -0.9362  0.5990
 7856SOL    HW135030   3.638   3.396   2.327 -0.2290 -1.7841  0.4800
 7856SOL    HW235031   3.782   3.391   2.383 -0.2448  0.2168  0.6869
 7857SOL     OW35032   1.404   4.274   0.424  0.1591  0.4225  0.2629
 7857SOL    HW135033   1.315   4.264   0.392  0.1826  0.8955  0.0524
 7857SOL    HW235034   1.396   4.338   0.495 -0.9626  0.8252 -0.2297
 7858SOL     OW35035   2.550   1.049  15.879 -0.0773 -0.7676  0.1988
 7858SOL    HW135036   2.488   1.106  15.924 -1.2646 -0.9835 -1.1573
 7858SOL    HW235037   2.590   1.011  15.957  0.1094 -0.1351  0.4108
 7859SOL     OW35038   1.215   3.607   1.260 -0.8585  0.2363  0.6290
 7859SOL    HW135039   1.135   3.587   1.211 -0.8848 -0.3767  0.9181
 7859SOL    HW235040   1.250   3.521   1.284 -1.0029 -0.4470 -1.6136
 7860SOL     OW35041   2.942   1.034   3.316 -0.0425  0.0555 -0.5551
 7860SOL    HW135042   2.944   0.939   3.300 -2.5896  0.0298 -0.7182
 7860SOL    HW235043   2.911   1.060   3.229  2.5113  0.5115 -1.3336
 7861SOL     OW35044   0.017   1.487   2.678  0.1473  0.3099 -0.1442
 7861SOL    HW135045   4.687   1.542   2.735 -0.0367  1.8669 -1.8266
 7861SOL    HW235046   4.680   1.452   2.613 -0.5376  2.5099 -0.6910
 7862SOL     OW35047   3.963   1.401   1.982  0.1030  0.6461  0.4017
 7862SOL    HW135048   4.041   1.352   2.010 -0.3701  0.2735  1.0962
 7862SOL    HW235049   3.936   1.438   2.066 -0.5226  1.7273 -0.2816
 7863SOL     OW35050   0.720   4.602   9.641  0.4087 -0.5260 -0.6572
 7863SOL    HW135051   0.807   4.574   9.670  0.2208 -0.0521  0.3629
 7863SOL    HW235052   0.666   4.525   9.659 -1.4113  1.5004  2.5532
 7864SOL     OW35053   0.948   3.460   8.687  0.3839  0.5406 -0.4378
 7864SOL    HW135054   0.893   3.442   8.764  0.4831 -1.7321 -0.9052
 7864SOL    HW235055   0.951   3.555   8.678 -0.6588  0.5764 -0.3816
 7865SOL     OW35056   2.685   3.748   1.811  0.4198  0.2354  0.1031
 7865SOL    HW135057   2.762   3.731   1.758 -0.2728  0.8056 -1.0793
 7865SOL    HW235058   2.722   3.730   1.898 -3.5578 -2.7197  1.2051
 7866SOL     OW35059   4.031   0.040   0.288 -0.8721  0.1198  0.1975
 7866SOL    HW135060   4.070   0.005   0.208  2.4909 -0.2830  2.0035
 7866SOL    HW235061   3.946   0.068   0.254 -0.1494  1.4413 -0.5136
 7867SOL     OW35062   1.079   0.305   0.259 -0.0629 -0.9503 -0.8126
 7867SOL    HW135063   1.167   0.327   0.227  0.4263 -1.9227 -0.1367
 7867SOL    HW235064   1.051   0.395   0.279 -1.4958 -2.2478  2.9731
 7868SOL     OW35065   4.349   4.571   2.579 -0.2087  0.6669 -0.4382
 7868SOL    HW135066   4.315   4.657   2.606 -1.2453  0.1821 -0.2100
 7868SOL    HW235067   4.440   4.575   2.609 -0.6464  3.4341  0.5465
 7869SOL     OW35068   3.023   1.272   7.263 -0.6616  0.0488 -0.2853
 7869SOL    HW135069   3.063   1.312   7.186 -0.2436 -0.3758 -0.2888
 7869SOL    HW235070   3.077   1.199   7.294  1.1875  1.6241  0.2335
 7870SOL     OW35071   0.969   1.016  15.058  0.2871 -0.1857 -0.4829
 7870SOL    HW135072   0.928   1.016  14.971  0.8125  0.6087 -0.7281
 7870SOL    HW235073   0.979   0.923  15.076  0.9495  0.1427  0.8417
 7871SOL     OW35074   1.763   0.402   0.781  0.1746  0.2363 -0.2766
 7871SOL    HW135075   1.702   0.346   0.829  0.4756  0.4250  0.3237
 7871SOL    HW235076   1.820   0.343   0.732  0.2546 -0.0825  0.2055
 7872SOL     OW35077   3.713   3.757   3.477 -0.3656  0.1030 -0.0189
 7872SOL    HW135078   3.770   3.776   3.552  1.8339  0.1332 -1.6876
 7872SOL    HW235079   3.773   3.714   3.416  1.4024  1.8827  0.4679
 7873SOL     OW35080   0.352   4.651   8.602  0.3349 -0.1811 -0.4676
 7873SOL    HW135081   0.337   0.008   8.554  0.1945  1.0043  1.5603
 7873SOL    HW235082   0.350   4.687   8.691  0.7642 -2.0710  0.3201
 7874SOL     OW35083   1.846   4.265   0.533  0.0344  0.6443  0.2506
 7874SOL    HW135084   1.790   4.322   0.481 -0.7547  0.5154  0.9801
 7874SOL    HW235085   1.893   4.332   0.582  0.0417  1.3988 -0.7825
 7875SOL     OW35086   4.062   1.921   6.268 -0.0737  0.7828 -0.2724
 7875SOL    HW135087   4.022   1.926   6.181 -0.0999  0.8973 -0.2549
 7875SOL    HW235088   4.007   1.853   6.307 -0.0018  0.6881 -0.3388
 7876SOL     OW35089   3.186   3.478   3.147  0.1956  0.0100 -0.2468
 7876SOL    HW135090   3.109   3.448   3.098  1.8754 -3.0971 -0.9565
 7876SOL    HW235091   3.236   3.397   3.138  1.3639  0.6123  0.7137
 7877SOL     OW35092   4.359   4.416  11.914  0.3463  0.3299  0.0133
 7877SOL    HW135093   4.348   4.501  11.872  0.0433  0.2778 -0.0093
 7877SOL    HW235094   4.341   4.443  12.004 -0.2258  1.6873 -0.5141
 7878SOL     OW35095   1.809   0.490   8.672  0.2622  0.5679 -0.2845
 7878SOL    HW135096   1.871   0.419   8.660  0.7297  0.7510  1.0078
 7878SOL    HW235097   1.730   0.439   8.691 -0.2670  0.7603 -1.9656
 7879SOL     OW35098   2.098   3.902  11.922 -0.0410 -0.2333 -0.4746
 7879SOL    HW135099   2.049   3.984  11.917 -0.0718 -0.0779  2.2180
 7879SOL    HW235100   2.046   3.846  11.864 -1.5346 -0.8072  1.4188
 7880SOL     OW35101   1.453   3.046   0.127  0.2669  0.4299  0.0928
 7880SOL    HW135102   1.431   3.067   0.218  1.9142 -0.6903  0.7594
 7880SOL    HW235103   1.364   3.052   0.093  0.3515  0.7658 -0.0622
 7881SOL     OW35104   2.122   4.141   4.695  0.4052  0.5696  0.2525
 7881SOL    HW135105   2.049   4.115   4.638  1.9181 -0.6689 -1.0913
 7881SOL    HW235106   2.196   4.140   4.635 -0.1358 -1.8910 -0.4138
 7882SOL     OW35107   1.806   2.451   8.375 -0.0038 -0.3924 -0.0654
 7882SOL    HW135108   1.808   2.378   8.437 -2.1289 -0.2217  0.1951
 7882SOL    HW235109   1.792   2.523   8.436 -2.7450 -1.9128  1.0832
 7883SOL     OW35110   0.645   0.816  11.345 -0.3102 -0.3118 -0.5015
 7883SOL    HW135111   0.682   0.728  11.338 -0.9772 -0.6667  0.5751
 7883SOL    HW235112   0.720   0.861  11.385 -0.4632 -1.8636  1.5295
 7884SOL     OW35113   1.887   3.834  13.896 -0.4644  0.2172  0.6252
 7884SOL    HW135114   1.807   3.782  13.904 -0.1562 -0.3731 -0.1614
 7884SOL    HW235115   1.948   3.783  13.950 -0.5736  1.2325  1.7113
 7885SOL     OW35116   0.759   4.658   0.087 -0.3342  0.7715 -0.2825
 7885SOL    HW135117   0.782   4.638   0.178 -1.9066  0.3426  0.0288
 7885SOL    HW235118   0.812   0.014   0.088  1.5198 -0.4838  1.2614
 7886SOL     OW35119   0.624   3.237   8.588 -0.1480 -0.1061 -0.2052
 7886SOL    HW135120   0.566   3.161   8.594 -0.8255  0.4862  0.8111
 7886SOL    HW235121   0.616   3.287   8.669 -0.9249  0.7319 -0.7922
 7887SOL     OW35122   2.051   1.792   1.824 -0.1393 -0.0995  0.1273
 7887SOL    HW135123   1.991   1.808   1.752 -0.6415 -3.0147 -0.1062
 7887SOL    HW235124   2.070   1.883   1.848 -1.9869  0.3447 -0.1051
 7888SOL     OW35125   2.684   3.221   7.720  0.6947 -0.1079 -0.6326
 7888SOL    HW135126   2.675   3.145   7.778 -1.0519 -0.0089 -0.7706
 7888SOL    HW235127   2.610   3.216   7.660  0.0530  2.0643 -0.0217
 7889SOL     OW35128   4.079   1.037   0.803 -0.4271  0.7285  0.5418
 7889SOL    HW135129   4.109   1.068   0.889  2.1531 -0.4740  0.0665
 7889SOL    HW235130   4.164   1.003   0.777 -0.5010  1.1192 -0.1968
 7890SOL     OW35131   3.702   0.462   1.938 -0.0255 -0.4279 -0.3277
 7890SOL    HW135132   3.662   0.376   1.925  1.5225 -1.1116 -0.5617
 7890SOL    HW235133   3.789   0.450   1.899  0.2687 -0.3647  0.3003
 7891SOL     OW35134   3.956   0.511   9.284  0.4953  0.4163  0.3824
 7891SOL    HW135135   4.026   0.560   9.328 -0.1908  0.0066  1.9113
 7891SOL    HW235136   3.892   0.522   9.354 -0.2302  0.6898 -0.3141
 7892SOL     OW35137   1.030   3.720   1.666  0.0485 -0.1306 -0.1828
 7892SOL    HW135138   1.048   3.812   1.688 -1.2057 -0.0031  0.2920
 7892SOL    HW235139   0.942   3.714   1.629  0.0035 -1.0580  0.0868
 7893SOL     OW35140   1.587   3.151   3.607 -0.0486  0.1602  0.2232
 7893SOL    HW135141   1.633   3.227   3.642  1.2554 -0.4391 -0.1597
 7893SOL    HW235142   1.557   3.185   3.522 -0.6501 -0.4402  0.1918
 7894SOL     OW35143   4.596   3.075   5.666 -0.4235  0.1602 -0.2452
 7894SOL    HW135144   4.634   3.049   5.582  0.7520 -0.7509  0.5642
 7894SOL    HW235145   4.509   3.035   5.659 -0.2052 -0.3631 -0.0211
 7895SOL     OW35146   0.577   2.314  15.074 -0.1710  0.1595  0.1606
 7895SOL    HW135147   0.593   2.225  15.041 -0.9092  0.1890 -0.2634
 7895SOL    HW235148   0.665   2.348  15.092  0.6868 -1.3720 -1.1377
 7896SOL     OW35149   2.544   4.294   4.744 -0.4226 -0.4206  0.1351
 7896SOL    HW135150   2.471   4.232   4.740 -1.9065  1.3012  0.6188
 7896SOL    HW235151   2.594   4.256   4.672 -1.6453  0.7336 -1.3089
 7897SOL     OW35152   3.326   3.885   2.256 -0.2440 -0.2200 -0.3535
 7897SOL    HW135153   3.309   3.861   2.347 -0.1212  1.2360  0.0548
 7897SOL    HW235154   3.393   3.954   2.261  1.3070 -1.6840 -0.7828
 7898SOL     OW35155   4.519   1.665  14.624 -0.4298  0.3936  0.1828
 7898SOL    HW135156   4.578   1.613  14.571 -0.2782  0.0554  0.6811
 7898SOL    HW235157   4.455   1.691  14.558  1.1384  0.7329 -1.1930
 7899SOL     OW35158   0.239   3.200  14.528 -0.2686  0.1503  0.2593
 7899SOL    HW135159   0.243   3.104  14.531 -0.8887  0.1819  2.3475
 7899SOL    HW235160   0.325   3.226  14.497 -0.9043  2.6889  0.6779
 7900SOL     OW35161   4.214   0.676   1.457  0.2271 -0.4330 -0.0987
 7900SOL    HW135162   4.171   0.726   1.527 -0.4113 -0.8459 -0.1911
 7900SOL    HW235163   4.249   0.598   1.499  0.4743 -0.3736 -0.1924
 7901SOL     OW35164   1.452   0.450   2.466 -0.2465  0.3108 -0.1010
 7901SOL    HW135165   1.413   0.525   2.422 -0.5032 -0.2512 -0.8352
 7901SOL    HW235166   1.366   0.411   2.486  0.9406 -1.7706  0.9867
 7902SOL     OW35167   2.383   4.575   7.530 -0.1845 -0.1098  0.4716
 7902SOL    HW135168   2.372   4.605   7.439  2.2443 -0.6666  0.0033
 7902SOL    HW235169   2.341   4.489   7.532  1.3156 -0.7957  1.5427
 7903SOL     OW35170   2.562   0.500   7.839 -0.3974  0.2833  0.0424
 7903SOL    HW135171   2.544   0.442   7.914  0.3134  0.4999  0.3843
 7903SOL    HW235172   2.657   0.489   7.843 -0.4510 -0.3087 -0.2839
 7904SOL     OW35173   3.198   0.307   9.379  0.3113 -0.0279  0.1864
 7904SOL    HW135174   3.153   0.240   9.430  0.8456  1.9483  3.2563
 7904SOL    HW235175   3.252   0.325   9.456 -2.7072  2.5841  1.7045
 7905SOL     OW35176   1.300   0.386   7.302  0.5929 -0.0939 -0.3205
 7905SOL    HW135177   1.253   0.469   7.299 -2.4022 -1.8083 -0.7413
 7905SOL    HW235178   1.230   0.321   7.314 -0.6594  1.2310 -0.4848
 7906SOL     OW35179   1.206   1.155  12.352  0.1099  0.3350  0.7275
 7906SOL    HW135180   1.179   1.213  12.424 -0.5170 -0.4892  1.1498
 7906SOL    HW235181   1.130   1.099  12.337 -0.5583  0.3799  3.9697
 7907SOL     OW35182   0.135   2.229   1.080  0.1265 -0.1166 -0.0831
 7907SOL    HW135183   0.163   2.304   1.027  0.6117  0.3112  0.7916
 7907SOL    HW235184   0.146   2.261   1.169  0.1727 -1.7581  0.5011
 7908SOL     OW35185   2.447   2.260  15.729  0.2635 -0.4322  0.1030
 7908SOL    HW135186   2.534   2.287  15.699  0.3260 -1.0560 -0.2918
 7908SOL    HW235187   2.459   2.166  15.741 -2.6851 -0.7479  0.5597
 7909SOL     OW35188   4.012   0.820  11.041 -0.3664 -0.0769 -0.0919
 7909SOL    HW135189   3.935   0.809  10.986  0.1279  1.0460 -1.0113
 7909SOL    HW235190   3.966   0.828  11.124 -0.5920  1.1490 -0.3366
 7910SOL     OW35191   0.641   2.317   1.717 -0.3325 -0.0840 -0.5064
 7910SOL    HW135192   0.736   2.302   1.721  0.2049  3.0331 -1.3509
 7910SOL    HW235193   0.637   2.403   1.759  2.8699 -1.2820  2.3169
 7911SOL     OW35194   4.015   4.239   3.799  0.5002  0.1116 -0.3393
 7911SOL    HW135195   4.015   4.209   3.890 -1.0015 -0.6221 -0.5909
 7911SOL    HW235196   3.998   4.332   3.808  0.8084  0.0689  0.7358
 7912SOL     OW35197   2.388   2.539   6.392  0.1221 -0.0008  0.4864
 7912SOL    HW135198   2.390   2.471   6.325 -0.9758  1.7031 -1.2796
 7912SOL    HW235199   2.457   2.596   6.359  0.8713 -0.7705  0.7281
 7913SOL     OW35200   0.286   4.609   2.628 -0.1554 -0.6649 -0.2322
 7913SOL    HW135201   0.210   4.606   2.569 -1.3086  1.1731  1.1324
 7913SOL    HW235202   0.357   4.604   2.564 -1.3018  1.1869 -1.6413
 7914SOL     OW35203   2.867   1.432   6.219  0.3805  0.0950 -0.0310
 7914SOL    HW135204   2.850   1.405   6.129 -0.4351  0.4302  0.0273
 7914SOL    HW235205   2.861   1.348   6.264 -2.2110 -1.0282 -2.5299
 7915SOL     OW35206   0.187   3.916   5.697  0.0211 -0.0798 -0.3609
 7915SOL    HW135207   0.103   3.919   5.742  0.9288 -0.5133  1.3546
 7915SOL    HW235208   0.219   4.006   5.705 -0.0038 -0.1736  0.7964
 7916SOL     OW35209   1.885   4.641  13.379 -0.1179  0.0818  0.5786
 7916SOL    HW135210   1.821   4.697  13.423 -1.1138  0.5165 -1.4400
 7916SOL    HW235211   1.965   4.662  13.427  0.6974  0.6917 -1.0489
 7917SOL     OW35212   0.788   1.649   7.541 -0.0104 -0.3372 -0.0422
 7917SOL    HW135213   0.764   1.692   7.623 -3.4018  0.4563 -1.4364
 7917SOL    HW235214   0.706   1.603   7.525  0.3065 -1.0870  0.5048
 7918SOL     OW35215   0.561   2.796   4.727  0.7601 -0.4375  0.0486
 7918SOL    HW135216   0.484   2.818   4.780  0.1280 -0.5679 -0.8082
 7918SOL    HW235217   0.583   2.883   4.695 -1.4895  0.1046 -0.0545
 7919SOL     OW35218   0.206   1.480   0.570  0.1272 -0.0739 -0.4184
 7919SOL    HW135219   0.191   1.441   0.656  2.9414  1.2525  0.6699
 7919SOL    HW235220   0.286   1.533   0.580  0.2678 -0.8962  2.6654
 7920SOL     OW35221   1.847   0.646   2.484 -0.0810 -0.3624 -0.2312
 7920SOL    HW135222   1.760   0.679   2.506  0.9801  2.6135 -0.4942
 7920SOL    HW235223   1.826   0.609   2.399 -0.1279 -1.1784  0.1395
 7921SOL     OW35224   1.101   2.023   7.717 -0.0827 -0.1463 -0.7423
 7921SOL    HW135225   1.173   2.072   7.757 -1.1433 -0.1842  1.2025
 7921SOL    HW235226   1.123   1.935   7.749  0.9525  0.6021  0.6018
 7922SOL     OW35227   0.169   0.295   7.260 -0.1360 -0.2689 -0.0772
 7922SOL    HW135228   0.128   0.368   7.215 -1.4324 -0.4665  0.7760
 7922SOL    HW235229   0.171   0.224   7.195 -0.1770 -0.2098 -0.1421
 7923SOL     OW35230   1.761   4.380   2.364 -0.4007  0.4062  0.1627
 7923SOL    HW135231   1.812   4.440   2.419  0.5330 -0.0016 -0.2657
 7923SOL    HW235232   1.821   4.352   2.296 -0.0522 -0.1256  0.6857
 7924SOL     OW35233   0.408   1.590  16.706  0.2770 -0.2305 -0.1029
 7924SOL    HW135234   0.422   1.683  16.688 -1.1997 -0.5521 -3.0315
 7924SOL    HW235235   0.476   1.543  16.659  0.7701 -1.2145  1.6069
 7925SOL     OW35236   1.647   2.387   5.067  0.2297 -0.0792 -0.1152
 7925SOL    HW135237   1.605   2.301   5.076  0.8752 -0.3562  0.2653
 7925SOL    HW235238   1.729   2.363   5.111  1.4511  2.1422 -1.2118
 7926SOL     OW35239   3.661   3.684   5.747 -0.0200 -0.0703  0.1385
 7926SOL    HW135240   3.727   3.740   5.706  0.7114 -1.7683 -0.9861
 7926SOL    HW235241   3.587   3.745   5.748 -0.3362 -0.4363 -0.4279
 7927SOL     OW35242   3.703   1.611   6.533 -0.2901 -0.0138  0.0148
 7927SOL    HW135243   3.669   1.693   6.569  1.4504  0.4579  0.5859
 7927SOL    HW235244   3.778   1.641   6.481 -0.5348 -0.2512 -0.4799
 7928SOL     OW35245   2.296   0.999   5.253  0.5618  0.1979  0.1522
 7928SOL    HW135246   2.271   0.912   5.284 -2.5002  0.1068 -2.6068
 7928SOL    HW235247   2.304   1.049   5.335  0.0700 -0.5018  0.6283
 7929SOL     OW35248   1.531   1.692   5.137 -0.4393 -0.0965  0.3700
 7929SOL    HW135249   1.444   1.731   5.136  0.7510  2.5885  2.3971
 7929SOL    HW235250   1.583   1.750   5.080 -3.9604 -0.2971 -3.1042
 7930SOL     OW35251   0.681   1.365   1.001 -0.0408 -1.0231  0.4058
 7930SOL    HW135252   0.603   1.353   0.947  1.1193 -0.4538 -1.4224
 7930SOL    HW235253   0.733   1.292   0.967 -0.1022  0.0104 -1.8773
 7931SOL     OW35254   2.605   0.849   6.966  0.0258 -0.3904  0.2188
 7931SOL    HW135255   2.554   0.900   7.029  0.2466 -0.5618  0.5406
 7931SOL    HW235256   2.698   0.866   6.985 -0.6619  2.4374  1.0409
 7932SOL     OW35257   3.850   0.330   2.278 -0.1066 -0.3531 -0.4262
 7932SOL    HW135258   3.835   0.423   2.260 -1.2074 -0.4937 -0.2503
 7932SOL    HW235259   3.777   0.295   2.227  0.2175 -1.4513 -0.1399
 7933SOL     OW35260   4.035   1.278   7.277 -0.4505  0.2540 -0.2968
 7933SOL    HW135261   3.976   1.246   7.345  0.5483 -0.3441  0.2965
 7933SOL    HW235262   4.043   1.190   7.238  1.5222  0.2046  0.2171
 7934SOL     OW35263   1.411   1.909   1.548  0.2657 -0.7425 -0.3776
 7934SOL    HW135264   1.436   1.980   1.490 -0.8595 -0.8646 -1.0195
 7934SOL    HW235265   1.317   1.912   1.530  0.3778  3.2214 -0.1155
 7935SOL     OW35266   0.321   2.988  10.576 -0.0138 -0.1362 -0.1268
 7935SOL    HW135267   0.405   3.002  10.620 -0.7487 -1.7576  1.7971
 7935SOL    HW235268   0.317   3.054  10.506  4.3934 -1.5474 -1.7001
 7936SOL     OW35269   3.400   0.674   6.051 -0.1333  0.7475 -0.0834
 7936SOL    HW135270   3.347   0.647   5.976 -3.7451  1.8667  2.0982
 7936SOL    HW235271   3.339   0.668   6.124 -0.0185 -0.5790 -0.0901
 7937SOL     OW35272   4.025   1.181   6.443 -0.1821  0.0771  0.6649
 7937SOL    HW135273   4.025   1.091   6.412 -0.5111  0.0240  0.8093
 7937SOL    HW235274   4.008   1.234   6.365  0.0355 -0.8495 -0.0103
 7938SOL     OW35275   1.653   2.489  10.743 -0.3606  0.1132 -0.3169
 7938SOL    HW135276   1.576   2.539  10.716 -0.9935 -0.6440  0.0845
 7938SOL    HW235277   1.672   2.526  10.829 -0.2801  0.1108 -0.3333
 7939SOL     OW35278   2.936   1.518   2.494 -0.0703 -0.0234  0.0073
 7939SOL    HW135279   2.879   1.554   2.426  0.8528  1.0726 -0.1923
 7939SOL    HW235280   2.902   1.432   2.518 -1.8168  0.8570  0.6932
 7940SOL     OW35281   1.337   3.248   8.209 -0.0182  0.1666  0.3349
 7940SOL    HW135282   1.265   3.283   8.157 -0.1531 -0.3244  0.1870
 7940SOL    HW235283   1.401   3.317   8.195 -1.0789  0.8896 -0.9303
 7941SOL     OW35284   2.479   3.254   7.535  0.2392 -0.4283 -0.1781
 7941SOL    HW135285   2.425   3.215   7.604  0.2788  0.6140  0.4550
 7941SOL    HW235286   2.425   3.236   7.458 -0.0836  1.6285 -0.4307
 7942SOL     OW35287   2.211   0.249  16.649  0.3597 -0.2185  0.2800
 7942SOL    HW135288   2.256   0.188  16.708 -1.2420 -2.1181 -0.4807
 7942SOL    HW235289   2.275   0.242  16.578  0.7004  1.2942  0.4440
 7943SOL     OW35290   1.842   4.544   5.914 -0.7132 -0.2850 -0.0160
 7943SOL    HW135291   1.848   4.569   6.007 -0.8882 -3.2755  0.7919
 7943SOL    HW235292   1.795   4.461   5.916 -1.1568 -0.0215  0.6143
 7944SOL     OW35293   0.021   3.490  17.198  0.0096  0.5740 -0.4312
 7944SOL    HW135294   4.657   3.469  17.167 -0.0514  0.1544  0.0259
 7944SOL    HW235295   0.071   3.448  17.128 -1.2335 -2.6283  0.5759
 7945SOL     OW35296   0.382   2.350   8.153  0.2533 -0.3203 -0.0358
 7945SOL    HW135297   0.413   2.422   8.207  1.3972 -0.2052 -0.8642
 7945SOL    HW235298   0.365   2.400   8.073  1.4236  0.8036  0.4155
 7946SOL     OW35299   2.963   2.738   7.778  0.0408 -0.0591  0.6290
 7946SOL    HW135300   2.887   2.719   7.833 -1.8879  0.3933 -1.9491
 7946SOL    HW235301   2.920   2.731   7.693  0.7006 -2.2894  0.4838
 7947SOL     OW35302   0.487   4.510   0.425 -0.4826  0.3674  0.9569
 7947SOL    HW135303   0.556   4.446   0.408 -1.0096  0.4423 -1.4821
 7947SOL    HW235304   0.419   4.444   0.437 -1.0603  0.4720 -1.5600
 7948SOL     OW35305   3.674   0.574   0.413  0.0114 -0.7639 -0.5031
 7948SOL    HW135306   3.669   0.653   0.361 -0.0574 -0.4448 -0.0159
 7948SOL    HW235307   3.692   0.608   0.501 -2.0237  1.1000 -0.8288
 7949SOL     OW35308   3.852   4.242  14.777  0.5069  0.5707 -0.1249
 7949SOL    HW135309   3.880   4.276  14.692  0.3755 -2.3103 -1.3331
 7949SOL    HW235310   3.886   4.153  14.780 -2.4895 -0.5060  1.9446
 7950SOL     OW35311   4.459   0.543   1.316 -0.4238  0.3224  0.6966
 7950SOL    HW135312   4.481   0.617   1.260 -1.1557 -0.9839 -1.3393
 7950SOL    HW235313   4.366   0.563   1.327 -0.9253  0.0068 -2.7429
 7951SOL     OW35314   2.965   2.153   7.052  0.3834  0.5420 -0.1660
 7951SOL    HW135315   3.012   2.132   7.133  0.3320 -0.2521 -0.3437
 7951SOL    HW235316   2.954   2.065   7.017  2.0512  1.2490 -2.4672
 7952SOL     OW35317   0.793   3.514   8.276  0.4802  0.6840 -0.2807
 7952SOL    HW135318   0.795   3.559   8.361  1.3379 -0.5088  0.3343
 7952SOL    HW235319   0.718   3.459   8.299  0.7342  0.7117  0.6251
 7953SOL     OW35320   1.747   2.874   7.621  0.6618 -0.2814 -0.4007
 7953SOL    HW135321   1.785   2.953   7.584 -2.5611  0.7477 -1.4696
 7953SOL    HW235322   1.821   2.835   7.668  1.8751  0.3684 -1.7737
 7954SOL     OW35323   2.961   3.428   2.634 -0.1814  0.1897  0.2636
 7954SOL    HW135324   3.024   3.357   2.626 -0.4120  0.1252 -1.0076
 7954SOL    HW235325   2.879   3.381   2.650 -0.9602  1.0926 -1.0812
 7955SOL     OW35326   1.095   0.561  11.066 -0.2615  0.2293  0.7396
 7955SOL    HW135327   1.112   0.491  11.003  0.8076 -0.5729  1.9478
 7955SOL    HW235328   1.112   0.637  11.010 -0.5794  0.5029  1.0118
 7956SOL     OW35329   1.087   1.132   4.072  0.0254 -0.3677 -0.1039
 7956SOL    HW135330   1.170   1.112   4.115  0.2991  0.8367 -0.0754
 7956SOL    HW235331   1.097   1.133   3.977 -1.1986 -0.5033 -0.2410
 7957SOL     OW35332   4.210   0.444   4.269 -0.0298  0.2376 -0.1058
 7957SOL    HW135333   4.201   0.529   4.225  0.9270  0.5250  0.2390
 7957SOL    HW235334   4.306   0.440   4.271  0.0139  0.7772 -1.4958
 7958SOL     OW35335   3.192   3.056   6.996  0.5504  0.1667  0.0901
 7958SOL    HW135336   3.275   3.009   7.000  0.6809  0.4350  0.5975
 7958SOL    HW235337   3.161   3.045   6.906 -1.6343 -1.4699  1.0716
 7959SOL     OW35338   1.015   1.508   6.690  0.1165 -0.1789  0.5346
 7959SOL    HW135339   0.944   1.561   6.655 -0.3191 -1.4101 -0.4615
 7959SOL    HW235340   1.017   1.426   6.639  0.9799  0.1303  0.0594
 7960SOL     OW35341   3.733   1.656   7.139 -0.1856  0.1777 -0.4716
 7960SOL    HW135342   3.726   1.686   7.049 -1.5981 -0.9374 -0.7369
 7960SOL    HW235343   3.826   1.636   7.145 -0.3524 -0.7748 -1.1184
 7961SOL     OW35344   1.177   4.117  16.974  0.1887 -0.1136  0.5434
 7961SOL    HW135345   1.238   4.102  16.902  0.1098 -0.1619  0.4865
 7961SOL    HW235346   1.232   4.113  17.053  0.4305  3.2943  0.5310
 7962SOL     OW35347   1.655   0.131  10.799  0.0856  0.0379  0.2959
 7962SOL    HW135348   1.700   0.216  10.797  0.6564 -0.2899 -0.9149
 7962SOL    HW235349   1.587   0.146  10.734  0.1572 -1.4975 -0.1279
 7963SOL     OW35350   2.986   3.014  16.097  0.1645  0.2293 -0.3194
 7963SOL    HW135351   2.937   3.051  16.024 -2.0720  0.6424  1.3634
 7963SOL    HW235352   2.972   2.920  16.086 -0.3729  0.0500  1.8327
 7964SOL     OW35353   2.456   0.980   8.577 -0.4410 -0.5617 -0.4201
 7964SOL    HW135354   2.438   0.888   8.558 -0.7342 -0.3975 -0.9646
 7964SOL    HW235355   2.385   0.999   8.638  1.5547  2.6328  0.9242
 7965SOL     OW35356   0.338   1.508   8.078 -0.0302 -0.6701 -0.2496
 7965SOL    HW135357   0.307   1.511   8.168  1.7627  1.5144  0.3226
 7965SOL    HW235358   0.264   1.547   8.032  0.5017  0.7672  0.0901
 7966SOL     OW35359   0.574   2.273   3.245 -0.1528 -1.0716 -0.2873
 7966SOL    HW135360   0.582   2.318   3.161  1.9760 -0.8364  0.0580
 7966SOL    HW235361   0.615   2.188   3.231  0.7398 -0.3290 -2.1581
 7967SOL     OW35362   0.014   0.686   4.352  0.3507 -0.1542 -0.3518
 7967SOL    HW135363   0.028   0.594   4.375 -1.2095 -0.1995  0.3913
 7967SOL    HW235364   4.645   0.690   4.374  0.3660 -1.0543 -0.1582
 7968SOL     OW35365   0.450   1.619  14.484  0.1349  0.4835  0.2217
 7968SOL    HW135366   0.361   1.585  14.496  0.5521 -0.4873  0.5306
 7968SOL    HW235367   0.492   1.608  14.569 -1.4550 -1.5750  0.7473
 7969SOL     OW35368   0.145   0.296   2.616  0.1466 -0.8546  0.3865
 7969SOL    HW135369   0.232   0.260   2.633  0.3775 -1.0464 -1.1713
 7969SOL    HW235370   0.089   0.276   2.691 -3.8016 -0.1253 -2.3343
 7970SOL     OW35371   0.327   4.433  15.490  0.4571  0.5162 -0.3776
 7970SOL    HW135372   0.297   4.480  15.568  1.0561  0.3569 -0.0503
 7970SOL    HW235373   0.420   4.457  15.488  0.5040  0.4542  0.9339
 7971SOL     OW35374   2.674   1.371   1.652 -0.1281  0.2833  0.3032
 7971SOL    HW135375   2.761   1.405   1.633 -0.3661  2.1243  2.4779
 7971SOL    HW235376   2.629   1.450   1.681 -1.6921 -0.2323 -0.7491
 7972SOL     OW35377   0.912   4.018   9.366  0.4078  0.2876 -0.5562
 7972SOL    HW135378   0.912   3.939   9.311  2.5431  1.0505 -1.6331
 7972SOL    HW235379   0.923   3.971   9.448  1.5733  0.7418 -0.4581
 7973SOL     OW35380   2.251   3.060   2.594 -0.4498  0.4680  0.3797
 7973SOL    HW135381   2.220   3.132   2.539 -0.4613 -1.0324 -1.5742
 7973SOL    HW235382   2.169   3.021   2.622  1.1494 -2.7927  0.5732
 7974SOL     OW35383   1.628   1.875   5.775 -0.5062  0.3920  0.2997
 7974SOL    HW135384   1.534   1.894   5.773 -0.6034 -0.3275 -2.0325
 7974SOL    HW235385   1.650   1.938   5.844 -1.3436  1.6865 -0.6107
 7975SOL     OW35386   2.493   0.105   5.158  0.2820 -0.0642  0.0753
 7975SOL    HW135387   2.544   0.134   5.234  0.1043 -0.5114  0.3635
 7975SOL    HW235388   2.545   0.111   5.078 -1.5220 -2.3104 -1.2511
 7976SOL     OW35389   1.626   4.272   4.209 -0.0916 -0.2263 -0.0977
 7976SOL    HW135390   1.687   4.262   4.135 -0.4461 -1.7461 -0.1685
 7976SOL    HW235391   1.599   4.183   4.230  2.0817 -1.1304 -1.1574
 7977SOL     OW35392   3.350   1.343   1.426 -0.0487 -0.3306  0.1366
 7977SOL    HW135393   3.423   1.398   1.397  0.7528 -2.2338 -1.4690
 7977SOL    HW235394   3.300   1.405   1.478  1.3114  0.6297  0.3000
 7978SOL     OW35395   2.618   1.175  11.870 -0.3467  0.0407  0.1051
 7978SOL    HW135396   2.693   1.146  11.921  0.4193  0.0916 -0.9722
 7978SOL    HW235397   2.549   1.123  11.912  1.8389 -0.9923  2.3834
 7979SOL     OW35398   1.425   2.274   6.807  0.0252  0.6180  0.1842
 7979SOL    HW135399   1.487   2.342   6.835  1.2990 -0.6942  0.5401
 7979SOL    HW235400   1.416   2.228   6.890 -2.7557 -2.0808 -1.6248
 7980SOL     OW35401   1.171   2.634  12.476 -0.3557 -0.2979 -0.1640
 7980SOL    HW135402   1.126   2.583  12.544  1.2958 -0.8116  0.5560
 7980SOL    HW235403   1.227   2.575  12.425 -0.6013  0.2889 -1.1048
 7981SOL     OW35404   0.093   1.408   3.447  0.1334  0.1409 -0.1733
 7981SOL    HW135405   0.008   1.449   3.435 -0.5039 -0.6834  1.6019
 7981SOL    HW235406   0.148   1.483   3.470 -1.8014  2.5973 -3.4424
 7982SOL     OW35407   1.459   4.630   5.298 -1.0613 -0.1649 -0.0805
 7982SOL    HW135408   1.399   4.703   5.290  0.7875  1.5452  1.7470
 7982SOL    HW235409   1.474   4.630   5.393  1.6785 -0.6434 -0.4918
 7983SOL     OW35410   1.705   1.946   1.505  0.0611  0.5879  0.1080
 7983SOL    HW135411   1.750   1.916   1.426  1.2536 -2.2519  1.8691
 7983SOL    HW235412   1.632   1.996   1.468 -1.1744  0.6491  2.5956
 7984SOL     OW35413   3.029   0.325   1.737 -0.6009 -0.0638  0.3677
 7984SOL    HW135414   2.951   0.377   1.717 -0.8058 -0.3307  0.4704
 7984SOL    HW235415   2.989   0.255   1.789 -2.8589  1.0548  0.1177
 7985SOL     OW35416   0.274   3.863   2.146  0.5006 -0.1318  0.0669
 7985SOL    HW135417   0.284   3.931   2.080 -1.4068 -0.7114 -0.8150
 7985SOL    HW235418   0.310   3.791   2.095 -0.7964 -1.5883  1.1977
 7986SOL     OW35419   1.220   0.049   2.632  0.5283  0.2363  0.5875
 7986SOL    HW135420   1.237   4.679   2.646 -1.9920 -0.6469 -2.1660
 7986SOL    HW235421   1.308   0.075   2.607  1.6128 -2.8287  1.2097
 7987SOL     OW35422   3.801   0.210  12.979  0.4214 -0.3419  0.4524
 7987SOL    HW135423   3.755   0.159  12.912 -2.5004 -0.0864  2.3062
 7987SOL    HW235424   3.730   0.200  13.042  1.1578 -1.4838  1.1103
 7988SOL     OW35425   0.678   0.752   5.538 -0.0248 -0.5162 -0.4642
 7988SOL    HW135426   0.750   0.703   5.500  1.4336  0.9527  0.3977
 7988SOL    HW235427   0.683   0.838   5.495 -2.3887 -0.8740 -1.4602
 7989SOL     OW35428   1.203   3.994   2.880  0.3967  0.0538  0.7613
 7989SOL    HW135429   1.205   3.899   2.868  0.0648  0.3772 -1.9539
 7989SOL    HW235430   1.111   4.009   2.903  0.3214 -0.3690  0.7460
 7990SOL     OW35431   3.333   1.481   7.671  0.0245 -0.3248 -0.0756
 7990SOL    HW135432   3.426   1.474   7.647 -0.2909 -1.1276 -1.0737
 7990SOL    HW235433   3.333   1.386   7.678 -0.1859 -0.1272  2.5150
 7991SOL     OW35434   2.885   0.311   8.764  0.2032  0.5148 -0.0356
 7991SOL    HW135435   2.954   0.249   8.740  1.2196  0.8978  1.9022
 7991SOL    HW235436   2.933   0.390   8.738  3.0220 -1.0573  0.4126
 7992SOL     OW35437   1.464   2.147  14.869 -0.4044 -0.0405  0.2059
 7992SOL    HW135438   1.532   2.214  14.873 -0.2886 -0.0509 -1.4486
 7992SOL    HW235439   1.496   2.100  14.791  1.1956 -1.0155  1.4244
 7993SOL     OW35440   0.387   1.423  14.902  0.3494  0.0626  0.1303
 7993SOL    HW135441   0.332   1.497  14.877 -1.6133 -0.7173  2.2070
 7993SOL    HW235442   0.429   1.392  14.822  0.5768 -2.1005  1.0803
 7994SOL     OW35443   1.931   4.097   4.473  0.3409  0.0228 -0.3890
 7994SOL    HW135444   1.952   4.188   4.453  1.4306  0.2444  1.7694
 7994SOL    HW235445   1.841   4.112   4.501  0.9860 -0.5272  1.9630
 7995SOL     OW35446   0.801   3.188  13.503  0.3849  0.1598  0.2686
 7995SOL    HW135447   0.775   3.181  13.595  1.9747 -0.6334  0.6555
 7995SOL    HW235448   0.719   3.160  13.461 -0.7320  2.8672  0.6706
 7996SOL     OW35449   0.540   4.518   7.640  0.2591  0.3216 -0.1245
 7996SOL    HW135450   0.457   4.550   7.673  0.0789 -0.3601  0.0765
 7996SOL    HW235451   0.532   4.550   7.551 -0.6651 -1.6967 -0.7700
 7997SOL     OW35452   3.815   0.298   8.252  0.1278  0.4448 -0.3315
 7997SOL    HW135453   3.758   0.375   8.246 -1.2821 -0.3794  2.6558
 7997SOL    HW235454   3.843   0.306   8.343  1.0922 -0.5003 -0.5407
 7998SOL     OW35455   4.059   1.248   2.760 -0.5705  0.0680  0.5715
 7998SOL    HW135456   3.994   1.177   2.762 -0.0323 -0.4631 -0.9981
 7998SOL    HW235457   4.025   1.302   2.831  1.6841  0.0679  1.6472
 7999SOL     OW35458   2.746   1.288   9.408 -0.0562 -0.0478  0.3993
 7999SOL    HW135459   2.732   1.345   9.484  0.6892 -2.0881  2.0425
 7999SOL    HW235460   2.654   1.273   9.387  0.5527 -2.7030 -0.2710
 8000SOL     OW35461   0.128   1.813   1.998  0.0388 -0.1532 -0.5015
 8000SOL    HW135462   0.194   1.869   2.040 -1.7060  0.7861  0.9859
 8000SOL    HW235463   0.111   1.743   2.062 -0.6334  0.0719 -0.4328
 8001SOL     OW35464   4.587   1.486   1.510  0.2401 -0.7958  0.1510
 8001SOL    HW135465   4.564   1.534   1.430  0.6056  1.0976  1.1933
 8001SOL    HW235466   4.631   1.411   1.469 -0.3308 -1.1400  0.1735
 8002SOL     OW35467   1.773   1.137  10.332  0.5996  0.3999  0.3085
 8002SOL    HW135468   1.741   1.122  10.421  1.0827 -1.0926  0.2330
 8002SOL    HW235469   1.868   1.125  10.340  0.5461  0.1135  0.5252
 8003SOL     OW35470   2.460   0.160   1.632  0.0054 -0.1015 -0.1057
 8003SOL    HW135471   2.550   0.183   1.606  0.9353 -1.7301  1.7163
 8003SOL    HW235472   2.477   0.066   1.638 -1.8658 -0.3694  1.0350
 8004SOL     OW35473   2.376   4.029   6.970 -0.0047  0.8375 -0.9118
 8004SOL    HW135474   2.312   4.064   6.909 -1.6081  1.7135  1.2628
 8004SOL    HW235475   2.365   4.090   7.042 -0.3169  0.5610 -0.7228
 8005SOL     OW35476   3.618   3.451  12.846 -0.1176 -0.5995 -0.0091
 8005SOL    HW135477   3.682   3.510  12.885 -2.1226  0.8128  1.1250
 8005SOL    HW235478   3.667   3.388  12.792  2.4494  0.2957  1.3102
 8006SOL     OW35479   3.944   3.565   5.323 -0.5577  0.2055  0.1335
 8006SOL    HW135480   3.997   3.502   5.372 -0.7499 -0.8971 -1.0936
 8006SOL    HW235481   3.875   3.584   5.386 -0.2626  0.4743  0.3741
 8007SOL     OW35482   3.747   1.998  12.734 -0.6012 -0.0822 -0.6635
 8007SOL    HW135483   3.788   1.966  12.654  1.9660  2.1559 -0.2567
 8007SOL    HW235484   3.657   1.966  12.733 -0.2803 -0.9677 -0.6546
 8008SOL     OW35485   2.602   2.616  16.053 -0.3935  0.3656  0.4630
 8008SOL    HW135486   2.532   2.557  16.081 -1.5032  1.6647  0.4371
 8008SOL    HW235487   2.643   2.566  15.982  2.0493  2.0248  0.6857
 8009SOL     OW35488   0.744   0.261   4.518 -0.7593  0.9377 -0.3008
 8009SOL    HW135489   0.670   0.204   4.495 -0.4081  0.1910  0.3756
 8009SOL    HW235490   0.737   0.256   4.614 -0.8380  2.0998 -0.2500
 8010SOL     OW35491   2.364   2.433  12.703  0.2134  0.0440 -0.1290
 8010SOL    HW135492   2.352   2.394  12.790  0.2014  1.0693  0.3333
 8010SOL    HW235493   2.451   2.395  12.691 -0.5224 -2.2284  1.7759
 8011SOL     OW35494   3.263   0.823   4.910  0.2229 -0.0840  0.2907
 8011SOL    HW135495   3.263   0.751   4.848 -1.6062  0.8844 -0.8470
 8011SOL    HW235496   3.344   0.805   4.958 -0.4186 -2.2599  0.5457
 8012SOL     OW35497   4.696   2.606   9.691  0.1806 -0.3316  0.0508
 8012SOL    HW135498   0.003   2.635   9.605  0.4114  1.1019  0.6053
 8012SOL    HW235499   4.709   2.682   9.749 -0.2759  0.5036 -0.9520
 8013SOL     OW35500   4.270   3.202  10.529 -0.8326  0.6829 -0.6160
 8013SOL    HW135501   4.251   3.260  10.455  1.2954 -1.1063 -2.5925
 8013SOL    HW235502   4.229   3.249  10.601 -0.0804  0.5208 -0.0779
 8014SOL     OW35503   0.201   1.488  14.545 -0.4757 -0.0895 -0.0466
 8014SOL    HW135504   0.112   1.499  14.511 -0.7806 -1.1982  0.3886
 8014SOL    HW235505   0.205   1.405  14.593 -1.3499 -1.1282 -1.7472
 8015SOL     OW35506   3.164   3.846   8.194 -0.4565 -0.6065  0.1689
 8015SOL    HW135507   3.256   3.860   8.173 -0.3720 -1.9067 -0.3158
 8015SOL    HW235508   3.164   3.751   8.185  3.0020 -0.5096 -0.7606
 8016SOL     OW35509   3.935   3.613   7.359 -0.0734 -0.1047  0.4586
 8016SOL    HW135510   4.016   3.577   7.321 -0.6680 -0.2558 -0.6636
 8016SOL    HW235511   3.870   3.604   7.289 -1.0444  1.4790  1.1642
 8017SOL     OW35512   2.208   1.716  10.385  0.4559  0.5183  0.3710
 8017SOL    HW135513   2.150   1.653  10.342  1.3775 -0.7441  0.9779
 8017SOL    HW235514   2.198   1.792  10.328  2.0393  0.6112  0.2133
 8018SOL     OW35515   3.776   0.543  16.966  0.3513 -0.0554  0.0756
 8018SOL    HW135516   3.801   0.511  16.880 -0.2494  1.6606 -0.7332
 8018SOL    HW235517   3.705   0.484  16.990  0.3006  0.9407  2.4508
 8019SOL     OW35518   0.811   4.114   9.001  0.4415  0.5939  0.1580
 8019SOL    HW135519   0.747   4.071   8.944  3.4458 -0.1164 -2.6519
 8019SOL    HW235520   0.751   4.175   9.045  3.5360  2.5274  1.6675
 8020SOL     OW35521   4.538   0.909  10.690  0.6512 -0.6631 -0.1824
 8020SOL    HW135522   4.516   0.827  10.646 -1.6872  1.5445 -3.1155
 8020SOL    HW235523   4.470   0.963  10.650  1.8771  0.6522 -0.4889
 8021SOL     OW35524   1.015   3.161   1.442 -0.6596 -0.1051  0.7853
 8021SOL    HW135525   1.032   3.242   1.393 -1.8641  0.2057  0.8683
 8021SOL    HW235526   1.027   3.102   1.368  1.4543  3.2424 -1.5603
 8022SOL     OW35527   4.684   1.281   1.014 -0.2553  0.1633  0.0511
 8022SOL    HW135528   4.663   1.327   0.934 -4.2910  0.3264  1.2245
 8022SOL    HW235529   0.031   1.332   1.054  0.0293  0.3326 -0.6728
 8023SOL     OW35530   1.153   1.767  15.050 -0.2630  0.1675 -0.2929
 8023SOL    HW135531   1.125   1.720  15.129  2.1304 -0.8008 -0.0038
 8023SOL    HW235532   1.157   1.695  14.987 -0.4696 -1.2057  1.2450
 8024SOL     OW35533   3.677   4.013   5.048  0.4407  0.0230 -1.0255
 8024SOL    HW135534   3.586   4.031   5.073  0.0225 -1.3537 -1.5506
 8024SOL    HW235535   3.701   4.102   5.022  0.7195  0.1446 -0.3564
 8025SOL     OW35536   2.524   0.422   3.372 -0.4871  0.2389 -0.1141
 8025SOL    HW135537   2.429   0.410   3.362 -0.5209 -1.3571  2.0969
 8025SOL    HW235538   2.553   0.345   3.421  1.7148 -0.2441 -2.1755
 8026SOL     OW35539   1.197   1.898  13.956 -0.3606 -0.3924 -0.2483
 8026SOL    HW135540   1.178   1.929  13.867  0.0771 -3.1590 -1.2987
 8026SOL    HW235541   1.124   1.928  14.010  0.5726 -1.2937  1.5125
 8027SOL     OW35542   0.694   2.611   3.714  0.7507  0.6511  0.4378
 8027SOL    HW135543   0.670   2.530   3.669  0.0278  0.4924  1.1155
 8027SOL    HW235544   0.620   2.668   3.692  1.3807  1.8090  1.2952
 8028SOL     OW35545   0.731   4.202   8.373  0.5451  0.2637 -0.3155
 8028SOL    HW135546   0.774   4.227   8.292 -1.1286 -4.0589 -2.5710
 8028SOL    HW235547   0.648   4.249   8.376 -1.6223 -3.5821 -0.1944
 8029SOL     OW35548   1.969   2.002   6.997  0.2560  0.3443  0.0931
 8029SOL    HW135549   2.064   2.013   6.988  0.1449  2.6429  1.7104
 8029SOL    HW235550   1.956   1.907   6.994 -0.6466  0.4478  0.6397
 8030SOL     OW35551   3.279   4.437  15.954 -0.8119  0.0318  0.0462
 8030SOL    HW135552   3.270   4.345  15.979  0.8018 -0.5023 -1.4116
 8030SOL    HW235553   3.332   4.418  15.877  0.2250  3.9404 -0.1899
 8031SOL     OW35554   3.939   1.271   9.440  0.0005 -0.3223 -0.2668
 8031SOL    HW135555   3.867   1.231   9.489  0.2003  2.2003  2.0375
 8031SOL    HW235556   3.884   1.339   9.402 -0.2232 -0.4670 -0.2058
 8032SOL     OW35557   4.305   1.942  15.313 -0.2705  0.1987 -0.2536
 8032SOL    HW135558   4.281   2.015  15.255 -1.3523 -0.3189 -0.4704
 8032SOL    HW235559   4.294   1.981  15.400  3.1764  0.2172  0.1408
 8033SOL     OW35560   2.749   0.281   7.145 -0.4046  0.2425  0.1023
 8033SOL    HW135561   2.687   0.212   7.168  0.7465 -1.0007 -0.5514
 8033SOL    HW235562   2.708   0.327   7.072  2.2756 -0.1930 -1.6497
 8034SOL     OW35563   0.940   0.699   8.137  0.1312 -0.0919  0.2986
 8034SOL    HW135564   0.912   0.780   8.096 -0.7852 -0.2601  0.5897
 8034SOL    HW235565   1.027   0.701   8.097 -1.3736  2.5869 -2.7969
 8035SOL     OW35566   1.908   4.624   5.666  0.2974  0.2403  0.7629
 8035SOL    HW135567   1.881   4.595   5.753 -0.8905  1.0102  0.6428
 8035SOL    HW235568   1.996   4.655   5.689  0.5838 -0.5580  0.7734
 8036SOL     OW35569   1.988   0.657   1.691 -0.0769  0.1500 -0.3329
 8036SOL    HW135570   1.937   0.724   1.737 -0.0082  0.3352 -0.5230
 8036SOL    HW235571   2.070   0.694   1.723 -0.2512 -1.1168  1.5616
 8037SOL     OW35572   1.625   4.568  17.506 -0.3603 -0.0145 -0.3153
 8037SOL    HW135573   1.552   4.550  17.447 -2.4877  1.1891  1.9730
 8037SOL    HW235574   1.632   4.494  17.566  0.5525 -0.2806 -0.7358
 8038SOL     OW35575   2.247   3.361   6.249 -0.2965 -0.1339 -0.5601
 8038SOL    HW135576   2.306   3.390   6.180 -0.3649  0.0958 -0.5213
 8038SOL    HW235577   2.234   3.269   6.226 -2.7702 -0.1496  0.9055
 8039SOL     OW35578   2.419   0.231   8.709  0.4426 -0.4046 -0.0224
 8039SOL    HW135579   2.490   0.170   8.688  1.1473  1.3336 -2.6942
 8039SOL    HW235580   2.427   0.239   8.804  0.4163  0.5588 -0.1076
 8040SOL     OW35581   2.124   2.591   0.026  0.8129 -0.2093 -0.0591
 8040SOL    HW135582   2.173   2.513   0.052  2.2154  0.4482 -0.7382
 8040SOL    HW235583   2.123   2.597  17.628 -0.2580 -0.5736 -0.0643
 8041SOL     OW35584   0.932   1.858   7.999  0.0541  0.2698  0.7729
 8041SOL    HW135585   0.926   1.952   7.980 -1.9684  0.2094  1.0947
 8041SOL    HW235586   1.014   1.831   7.958 -0.0856 -1.7288  1.8037
 8042SOL     OW35587   4.162   4.500  15.006 -0.0366  0.0048  0.2781
 8042SOL    HW135588   4.186   4.437  14.938  1.7662 -0.8673  1.7093
 8042SOL    HW235589   4.243   4.516  15.054  1.9165 -1.3112 -2.5643
 8043SOL     OW35590   4.448   1.819  10.947 -0.2213  0.0547 -0.3614
 8043SOL    HW135591   4.536   1.846  10.972  1.0540 -2.6443 -1.9859
 8043SOL    HW235592   4.476   1.748  10.889 -1.0889 -0.1351 -0.5490
 8044SOL     OW35593   3.591   4.189  13.110  0.0475  0.4107  0.1526
 8044SOL    HW135594   3.530   4.116  13.122 -1.6952  1.4040 -2.5736
 8044SOL    HW235595   3.547   4.256  13.057  1.7443  1.3665 -0.0452
 8045SOL     OW35596   3.482   2.705   1.184 -0.3627 -0.8737  0.3809
 8045SOL    HW135597   3.500   2.687   1.092  0.8652 -0.1958  0.4766
 8045SOL    HW235598   3.387   2.709   1.186 -0.2640  0.3135  3.5223
 8046SOL     OW35599   2.928   1.141   6.317  0.0282 -0.5486 -0.9072
 8046SOL    HW135600   2.976   1.096   6.386 -0.9987  1.4627  1.1227
 8046SOL    HW235601   2.866   1.080   6.276 -1.4938 -1.2000  2.3643
 8047SOL     OW35602   1.941   3.396   5.565  0.0124 -0.0060  0.2817
 8047SOL    HW135603   1.967   3.304   5.563  0.9063  0.2036  1.6440
 8047SOL    HW235604   1.934   3.417   5.472  0.6959  1.0099  0.4521
 8048SOL     OW35605   4.297   2.327   3.369 -0.1317  0.1005 -0.4407
 8048SOL    HW135606   4.283   2.247   3.419  0.7057  0.3547  0.2050
 8048SOL    HW235607   4.210   2.339   3.330 -0.3254 -2.2032 -0.6823
 8049SOL     OW35608   2.173   0.696  15.711  0.6217  0.1324  0.1432
 8049SOL    HW135609   2.241   0.755  15.743  0.4526  0.7649 -0.6754
 8049SOL    HW235610   2.102   0.711  15.772 -0.0735  0.5545 -0.7664
 8050SOL     OW35611   1.492   4.459   3.975 -0.1469 -0.2961 -0.0008
 8050SOL    HW135612   1.574   4.419   4.004  0.0015 -0.6856 -0.9729
 8050SOL    HW235613   1.513   4.479   3.884 -1.3102  0.0031 -0.2048
 8051SOL     OW35614   0.129   0.055   2.997 -0.2029  0.2757 -0.4278
 8051SOL    HW135615   0.102   0.122   2.934 -0.6966  0.2976 -0.1866
 8051SOL    HW235616   0.185   0.101   3.060  0.8093 -0.9383 -0.4357
 8052SOL     OW35617   2.461   0.862   0.367 -0.6181 -0.1346 -0.0108
 8052SOL    HW135618   2.366   0.863   0.380 -0.3802  0.0766  1.6805
 8052SOL    HW235619   2.489   0.804   0.438  0.8094  4.0065  2.7904
 8053SOL     OW35620   1.872   3.788   5.762  0.4922  0.0519 -0.3220
 8053SOL    HW135621   1.908   3.725   5.698 -1.0721 -1.9660  0.8065
 8053SOL    HW235622   1.950   3.844   5.759 -0.4866  1.3926 -0.3049
 8054SOL     OW35623   4.342   3.340  16.600 -0.2055  0.3390  0.3552
 8054SOL    HW135624   4.304   3.420  16.636 -0.6010 -0.3697  1.5137
 8054SOL    HW235625   4.320   3.277  16.669 -0.3927 -0.9726 -0.9157
 8055SOL     OW35626   0.614   1.231   8.289 -0.1722  0.4130  0.7253
 8055SOL    HW135627   0.638   1.154   8.342 -0.8673 -0.7124 -0.6031
 8055SOL    HW235628   0.555   1.192   8.225  0.0988  3.2775 -1.2530
 8056SOL     OW35629   4.344   3.895   5.190  0.0470  0.3662  0.4204
 8056SOL    HW135630   4.250   3.887   5.204 -0.3897  0.7184 -2.3347
 8056SOL    HW235631   4.352   3.908   5.095  0.4301  0.5606  0.4791
 8057SOL     OW35632   0.579   1.051   1.711 -0.4428 -0.2140 -0.1909
 8057SOL    HW135633   0.491   1.019   1.732 -0.4048  0.2184  0.6621
 8057SOL    HW235634   0.593   1.114   1.782 -1.0680 -0.5136  0.2023
 8058SOL     OW35635   1.270   4.150   3.177 -0.6216  0.1109 -0.3363
 8058SOL    HW135636   1.220   4.114   3.251 -0.0062 -0.0549  0.0006
 8058SOL    HW235637   1.240   4.106   3.098  1.0253  1.2480 -1.5814
 8059SOL     OW35638   4.364   1.738   0.542  0.0278  0.9111  0.2580
 8059SOL    HW135639   4.436   1.675   0.554 -0.3850  0.8462  2.4544
 8059SOL    HW235640   4.285   1.686   0.559  0.1720  1.3853  2.3363
 8060SOL     OW35641   0.084   3.863   0.259  0.4921 -0.1846 -0.5351
 8060SOL    HW135642   0.034   3.859   0.178 -0.1326 -3.1157 -0.0027
 8060SOL    HW235643   0.095   3.771   0.284  0.4436 -0.2805 -0.8685
 8061SOL     OW35644   4.039   4.071   4.672  0.1800  0.4604  0.0605
 8061SOL    HW135645   4.069   4.135   4.736  0.6689 -0.0483  0.3408
 8061SOL    HW235646   4.056   3.987   4.715 -2.7829  0.1941  0.7346
 8062SOL     OW35647   0.210   3.145   4.422 -0.4406 -0.0941 -0.0842
 8062SOL    HW135648   0.262   3.079   4.468 -2.5074 -1.5839  0.0768
 8062SOL    HW235649   0.169   3.184   4.499 -1.4359 -1.8939  0.2975
 8063SOL     OW35650   2.494   4.056   8.629 -0.1861  0.6083 -0.2543
 8063SOL    HW135651   2.545   4.121   8.677  1.5743  0.0704 -1.3894
 8063SOL    HW235652   2.500   4.100   8.543 -1.7027 -2.9102 -2.1521
 8064SOL     OW35653   1.230   3.360   4.156 -0.5633  0.5814  0.5791
 8064SOL    HW135654   1.277   3.339   4.238 -1.3082  1.0159  1.1163
 8064SOL    HW235655   1.257   3.286   4.102 -1.7326  0.8179 -0.3036
 8065SOL     OW35656   4.253   1.022  14.234 -0.8428 -1.0364 -0.6608
 8065SOL    HW135657   4.218   0.941  14.198  0.1066 -0.9377 -1.8230
 8065SOL    HW235658   4.335   0.988  14.269 -2.0592 -2.1959  1.0020
 8066SOL     OW35659   1.784   1.025  11.042  0.2815 -0.5018 -0.0078
 8066SOL    HW135660   1.758   1.110  11.008  0.5021 -0.6977 -0.6660
 8066SOL    HW235661   1.862   1.045  11.093 -0.7203  0.1463  1.2766
 8067SOL     OW35662   0.486   1.705   2.699  0.5052  0.3951 -0.0039
 8067SOL    HW135663   0.471   1.758   2.620 -1.1436  1.3252  0.9204
 8067SOL    HW235664   0.405   1.654   2.702 -0.6644  2.2034 -0.8329
 8068SOL     OW35665   1.618   3.405   8.303 -0.7253  0.1971 -0.9501
 8068SOL    HW135666   1.665   3.410   8.220 -1.2873  3.2653 -1.0642
 8068SOL    HW235667   1.660   3.466   8.363 -2.0216 -0.3928  0.5815
 8069SOL     OW35668   4.265   1.266  13.718  0.6681  0.7303 -0.1612
 8069SOL    HW135669   4.358   1.287  13.709  0.7535  0.4217  0.0104
 8069SOL    HW235670   4.257   1.224  13.633 -2.7247  1.1454 -0.0436
 8070SOL     OW35671   0.674   3.738   0.024 -0.3896  0.9592 -0.0704
 8070SOL    HW135672   0.742   3.694  17.672  0.0528 -0.5419  1.8867
 8070SOL    HW235673   0.646   3.804  17.658 -1.7353  0.8805  0.4385
 8071SOL     OW35674   4.071   1.466   3.430 -0.1204 -0.3853  0.5802
 8071SOL    HW135675   4.059   1.525   3.505 -0.1389  1.4597 -0.8987
 8071SOL    HW235676   4.151   1.508   3.399 -0.6209  0.2708  0.1923
 8072SOL     OW35677   4.403   0.766   7.065 -0.3368 -0.0960 -0.3886
 8072SOL    HW135678   4.395   0.845   7.012 -1.5206 -1.7400 -2.6958
 8072SOL    HW235679   4.494   0.744   7.047 -0.4990 -0.6708 -0.5239
 8073SOL     OW35680   1.255   1.850   6.246 -0.2017  0.1153  0.0863
 8073SOL    HW135681   1.272   1.802   6.327 -1.4406 -1.6578 -0.7027
 8073SOL    HW235682   1.163   1.831   6.226  0.4554 -1.7516 -1.1834
 8074SOL     OW35683   0.046   3.613  16.650 -0.3484  0.4716  0.8723
 8074SOL    HW135684   0.082   3.679  16.709 -0.0743  1.1779 -0.0885
 8074SOL    HW235685   4.676   3.628  16.661 -0.6570 -1.6797  1.1999
 8075SOL     OW35686   1.447   3.564   7.343  0.2100 -0.0430  0.0830
 8075SOL    HW135687   1.403   3.585   7.425 -0.9086 -0.6245 -0.3686
 8075SOL    HW235688   1.389   3.590   7.271 -0.7209 -0.9677  0.5058
 8076SOL     OW35689   3.152   0.460   9.045  0.4361 -0.5226  0.2453
 8076SOL    HW135690   3.160   0.405   8.967 -1.5157  0.2754 -0.5087
 8076SOL    HW235691   3.060   0.449   9.066  1.1169 -2.3284  2.2679
 8077SOL     OW35692   3.108   3.413  16.211 -0.5678 -0.3618  0.7101
 8077SOL    HW135693   3.185   3.419  16.155 -0.8308  1.7836  0.5826
 8077SOL    HW235694   3.133   3.468  16.285  2.6174 -2.2781  1.0220
 8078SOL     OW35695   3.061   1.016   8.134 -0.4388 -0.1176 -0.0815
 8078SOL    HW135696   3.016   0.933   8.118 -0.8113 -0.0812  0.8121
 8078SOL    HW235697   3.084   0.997   8.225 -0.9116 -1.2179 -0.1905
 8079SOL     OW35698   0.091   3.028   4.073  0.1238 -0.2178 -0.9367
 8079SOL    HW135699   0.111   3.056   3.984  2.0682  2.5965  0.3735
 8079SOL    HW235700   0.172   3.044   4.122 -0.3387 -0.6354 -0.0351
 8080SOL     OW35701   0.991   0.141   5.000 -0.1488  0.0851  0.0760
 8080SOL    HW135702   1.013   0.221   5.047  2.2941  1.0397 -2.6892
 8080SOL    HW235703   1.070   0.132   4.946  0.0587 -0.8683  0.5389
 8081SOL     OW35704   1.467   4.708   8.550  0.4959  0.1381 -0.4246
 8081SOL    HW135705   1.387   4.703   8.498  0.4260  0.1545 -0.3186
 8081SOL    HW235706   1.526   4.647   8.506  1.0715  2.5623 -2.9845
 8082SOL     OW35707   1.008   2.371   9.363 -0.0536 -0.3099  0.1663
 8082SOL    HW135708   1.082   2.334   9.314  0.3074 -1.5930  1.6627
 8082SOL    HW235709   1.046   2.357   9.450  1.1616  2.7080  0.1172
 8083SOL     OW35710   2.071   1.565   7.296  0.2056 -0.5053 -0.1036
 8083SOL    HW135711   1.981   1.542   7.274 -0.6741  2.9498 -0.1722
 8083SOL    HW235712   2.053   1.659   7.292 -0.5641 -0.5570  1.9860
 8084SOL     OW35713   3.350   0.496  15.278 -0.2408 -0.2326  0.2344
 8084SOL    HW135714   3.403   0.493  15.199  0.5789 -0.9331  0.8068
 8084SOL    HW235715   3.363   0.406  15.308 -1.2535 -1.2301 -2.3512
 8085SOL     OW35716   2.370   1.923   8.624 -0.2639 -0.1462 -0.1553
 8085SOL    HW135717   2.459   1.891   8.639 -0.7441 -2.0553 -1.2851
 8085SOL    HW235718   2.346   1.953   8.712 -3.0820  0.2672 -1.0541
 8086SOL     OW35719   1.519   0.185   1.996 -0.1622 -0.2456  0.0041
 8086SOL    HW135720   1.434   0.147   1.974  1.4983 -3.1834 -1.3421
 8086SOL    HW235721   1.491   0.274   2.018  1.0871  0.0258  0.5066
 8087SOL     OW35722   0.667   1.855  11.232  0.1755  0.1339  0.2401
 8087SOL    HW135723   0.628   1.942  11.239 -0.5685 -0.3302  1.7394
 8087SOL    HW235724   0.590   1.798  11.242  0.8677 -0.9435 -0.4868
 8088SOL     OW35725   0.599   4.680  13.747  0.2476  0.2687 -0.1638
 8088SOL    HW135726   0.571   4.600  13.791  0.4822  1.1491  1.5722
 8088SOL    HW235727   0.635   4.642  13.667  0.6666 -2.0799  1.1784
 8089SOL     OW35728   0.244   4.501   4.776 -0.7084  0.8559 -0.2785
 8089SOL    HW135729   0.167   4.554   4.797  0.0203  1.1975  1.5246
 8089SOL    HW235730   0.240   4.499   4.681  2.4187  2.3735 -0.4244
 8090SOL     OW35731   0.432   0.600  12.006 -0.4557 -0.0150  0.0005
 8090SOL    HW135732   0.421   0.535  12.075 -0.5812  2.3179  2.1547
 8090SOL    HW235733   0.452   0.534  11.939 -1.6200  0.8314 -1.1714
 8091SOL     OW35734   3.671   1.636   6.187  0.5220  0.3929  0.2574
 8091SOL    HW135735   3.668   1.700   6.117 -3.6409  0.0966  0.2105
 8091SOL    HW235736   3.757   1.598   6.166  0.8486  0.2663  1.8357
 8092SOL     OW35737   4.201   1.882   2.227 -0.6648 -0.1880 -0.6613
 8092SOL    HW135738   4.243   1.926   2.153 -2.7663  1.8265 -0.6487
 8092SOL    HW235739   4.111   1.914   2.227 -0.1293  1.3669  0.3888
 8093SOL     OW35740   1.297   3.129   0.374 -0.0655 -0.1807  0.1653
 8093SOL    HW135741   1.346   3.208   0.396  2.8582 -2.1011  0.5355
 8093SOL    HW235742   1.338   3.066   0.433  0.8143 -0.8791 -1.1789
 8094SOL     OW35743   1.278   1.260  13.739  0.0974  0.3186  0.1149
 8094SOL    HW135744   1.349   1.246  13.676  0.8494 -0.3972  1.1106
 8094SOL    HW235745   1.329   1.278  13.818 -0.1037 -0.0986  0.3379
 8095SOL     OW35746   0.818   1.948   1.929 -0.0262  0.3547 -0.2767
 8095SOL    HW135747   0.847   1.949   1.838  0.2422 -1.4482 -0.2182
 8095SOL    HW235748   0.897   1.947   1.984 -1.3958  3.3105  1.7562
 8096SOL     OW35749   4.597   2.298   6.688  0.2516  0.2356  0.3488
 8096SOL    HW135750   4.521   2.322   6.742  0.2820  0.3807  0.3279
 8096SOL    HW235751   4.625   2.375   6.639  1.1346  1.2553  2.4112
 8097SOL     OW35752   3.094   2.777   6.829  0.1359 -0.1705  0.0353
 8097SOL    HW135753   3.107   2.742   6.917  0.8577  0.0444  0.0124
 8097SOL    HW235754   3.182   2.796   6.797  0.7289 -0.4917  1.4850
 8098SOL     OW35755   1.526   2.232  14.461 -0.3639  0.3830  0.0553
 8098SOL    HW135756   1.533   2.138  14.477 -2.9834  0.5492  2.0550
 8098SOL    HW235757   1.590   2.245  14.391 -0.3021  0.8242  0.1906
 8099SOL     OW35758   2.664   3.637  11.518  0.4192 -0.3968  0.0561
 8099SOL    HW135759   2.736   3.589  11.477  0.7334  0.1978 -0.0784
 8099SOL    HW235760   2.689   3.637  11.610  1.1193  0.4442 -0.1353
 8100SOL     OW35761   3.552   2.975   6.539 -0.2747 -0.0584 -0.2239
 8100SOL    HW135762   3.467   2.950   6.574 -1.4442 -0.1738 -3.1485
 8100SOL    HW235763   3.602   2.920   6.599 -1.0660  0.9332  1.3399
 8101SOL     OW35764   1.367   4.099  10.235 -0.2439 -0.4379  0.2815
 8101SOL    HW135765   1.391   4.137  10.320  0.2354 -0.0456 -0.0277
 8101SOL    HW235766   1.333   4.013  10.259  2.8429 -1.5289  0.7535
 8102SOL     OW35767   2.678   3.394   8.107  0.3065 -0.3584 -0.2434
 8102SOL    HW135768   2.692   3.300   8.093  0.8057 -0.7857  2.9953
 8102SOL    HW235769   2.622   3.393   8.185 -0.2117  3.2819 -0.5920
 8103SOL     OW35770   1.194   3.102   9.813 -0.3567 -0.2009  0.4729
 8103SOL    HW135771   1.122   3.076   9.755 -1.8102 -0.0662  2.2348
 8103SOL    HW235772   1.239   3.017   9.818 -0.3876 -0.2231  0.3853
 8104SOL     OW35773   1.534   3.830   8.632 -0.2472 -0.4857 -0.1438
 8104SOL    HW135774   1.552   3.881   8.711 -1.0244 -3.2571  1.8197
 8104SOL    HW235775   1.469   3.885   8.587  0.8041  0.7472 -0.1594
 8105SOL     OW35776   3.992   4.224   1.660  0.0502 -0.0959 -0.0314
 8105SOL    HW135777   3.973   4.316   1.644 -0.9793 -0.0050  1.8117
 8105SOL    HW235778   4.084   4.232   1.632  0.4005 -2.7959  0.3309
 8106SOL     OW35779   0.900   3.627   4.843 -0.0391  0.0120  0.3404
 8106SOL    HW135780   0.856   3.706   4.811 -1.3513 -1.4839 -1.5582
 8106SOL    HW235781   0.966   3.668   4.900 -1.0662 -0.2530  1.7102
 8107SOL     OW35782   3.226   3.390   2.058 -0.3423  0.2929  0.5622
 8107SOL    HW135783   3.303   3.447   2.050  0.0337 -0.4454 -1.0895
 8107SOL    HW235784   3.259   3.323   2.117  0.5416  1.3716  1.3068
 8108SOL     OW35785   2.410   0.327  12.434 -0.0548 -0.1502  0.4073
 8108SOL    HW135786   2.341   0.265  12.408 -0.8498  1.2341 -0.7888
 8108SOL    HW235787   2.488   0.274  12.417 -1.0076 -1.2851 -0.4822
 8109SOL     OW35788   3.252   2.630   3.538  0.3832  0.6154 -0.3904
 8109SOL    HW135789   3.286   2.612   3.626 -0.1460  0.5266 -0.2041
 8109SOL    HW235790   3.289   2.715   3.514 -0.8088  1.4899  0.8606
 8110SOL     OW35791   3.400   1.196   9.598  1.3087  0.4124  0.0882
 8110SOL    HW135792   3.391   1.148   9.515 -1.7918  2.8678 -0.9995
 8110SOL    HW235793   3.318   1.245   9.590  1.6400  1.0688  0.6808
 8111SOL     OW35794   0.170   1.958   8.245  0.1731  0.2752  0.1371
 8111SOL    HW135795   0.125   2.040   8.263 -1.2340 -0.6998  1.0461
 8111SOL    HW235796   0.236   1.963   8.314  0.3447  2.8897 -0.2298
 8112SOL     OW35797   4.189   4.491   1.785  0.4442  0.5047  0.6583
 8112SOL    HW135798   4.269   4.498   1.732 -0.1139 -0.8655 -0.3620
 8112SOL    HW235799   4.222   4.527   1.867  0.6301 -1.0171  1.2557
 8113SOL     OW35800   3.670   4.290   9.860 -0.0243  0.2284  0.2873
 8113SOL    HW135801   3.623   4.217   9.900  1.8225  0.1062  2.2498
 8113SOL    HW235802   3.743   4.243   9.820  3.0170  2.9596  2.6934
 8114SOL     OW35803   0.846   4.070  14.205  0.2225  0.2609 -0.4957
 8114SOL    HW135804   0.852   4.166  14.210  0.0205  0.3667 -2.1371
 8114SOL    HW235805   0.766   4.061  14.256  0.2218  0.7230 -0.4188
 8115SOL     OW35806   3.091   0.465   6.874  0.3419 -0.8170  0.0325
 8115SOL    HW135807   3.068   0.519   6.798 -0.3721 -0.5882  0.4088
 8115SOL    HW235808   3.160   0.411   6.834 -0.9946 -1.3915 -1.4935
 8116SOL     OW35809   3.388   1.096   6.192 -0.6672 -0.2399 -0.0600
 8116SOL    HW135810   3.310   1.144   6.221 -0.8773  0.2191 -1.3882
 8116SOL    HW235811   3.454   1.146   6.241 -2.8624  1.8402  0.7686
 8117SOL     OW35812   1.226   3.499   1.660 -0.0644 -0.3838  0.0887
 8117SOL    HW135813   1.242   3.463   1.573  1.1936 -0.7435  0.4683
 8117SOL    HW235814   1.163   3.562   1.626  0.6817  1.6680  2.5157
 8118SOL     OW35815   1.223   0.068   4.831 -0.0495  0.0201 -0.0432
 8118SOL    HW135816   1.283   0.028   4.768 -0.4218 -0.8562  0.1503
 8118SOL    HW235817   1.205   0.139   4.769 -0.8273  0.8040  1.0856
 8119SOL     OW35818   3.450   2.817   3.952 -0.8795 -1.0658 -0.1087
 8119SOL    HW135819   3.405   2.896   3.922 -0.6338 -1.3461 -1.2275
 8119SOL    HW235820   3.520   2.808   3.887 -1.1321  2.7826 -0.9260
 8120SOL     OW35821   2.709   3.158   3.825 -0.0077  0.4304  0.5326
 8120SOL    HW135822   2.666   3.228   3.776  1.0797  1.2836  0.7956
 8120SOL    HW235823   2.796   3.188   3.798 -0.6639  2.0471  0.2027
 8121SOL     OW35824   0.415   2.642   6.070  0.1460 -0.5486 -0.0002
 8121SOL    HW135825   0.400   2.701   5.996 -0.7592 -0.8052 -0.0184
 8121SOL    HW235826   0.339   2.668   6.122  0.8915  2.3334 -0.3239
 8122SOL     OW35827   0.166   3.103   7.360 -0.3421  0.2291  0.5039
 8122SOL    HW135828   0.245   3.062   7.326  0.3201  1.8997  0.0405
 8122SOL    HW235829   0.198   3.185   7.397 -2.4215  2.2171 -2.1723
 8123SOL     OW35830   3.498   0.684  10.122  0.1447  0.1409 -0.3695
 8123SOL    HW135831   3.459   0.653  10.040  0.2599 -0.9799 -0.0035
 8123SOL    HW235832   3.588   0.700  10.096 -0.1501 -0.2308 -1.6403
 8124SOL     OW35833   1.538   0.947   8.002  0.7505  0.1083  0.0738
 8124SOL    HW135834   1.526   0.963   8.095 -1.4904  1.3787 -0.4211
 8124SOL    HW235835   1.453   0.972   7.966 -0.0165 -2.0897  0.3363
 8125SOL     OW35836   3.891   1.006   5.091 -0.2644  1.0654  0.1362
 8125SOL    HW135837   3.919   1.089   5.128  2.2464  0.2628  0.0409
 8125SOL    HW235838   3.854   1.034   5.007 -0.0625  1.6065  0.2321
 8126SOL     OW35839   0.774   1.015   3.078  0.7656  0.1310  0.4086
 8126SOL    HW135840   0.679   1.012   3.076  0.7943  1.5339 -4.1937
 8126SOL    HW235841   0.789   1.088   3.137  0.9478  0.1545  0.3359
 8127SOL     OW35842   3.129   4.444   2.212 -0.4424 -0.5116  0.2132
 8127SOL    HW135843   3.170   4.530   2.217  1.0636 -1.2017 -0.2479
 8127SOL    HW235844   3.204   4.387   2.229  0.7315  0.5174 -1.6033
 8128SOL     OW35845   2.367   1.517   2.549  0.0578  0.1362  0.2083
 8128SOL    HW135846   2.347   1.598   2.596  0.7122  1.9813 -2.6373
 8128SOL    HW235847   2.433   1.474   2.603 -0.2196 -1.2994 -0.6004
 8129SOL     OW35848   2.862   1.428  10.424 -0.0457  0.0108  0.5470
 8129SOL    HW135849   2.929   1.370  10.460  1.2177  1.5516  0.6666
 8129SOL    HW235850   2.910   1.466  10.351 -0.9081  1.7099  0.8721
 8130SOL     OW35851   3.358   0.153   7.482  0.5753  0.2116  0.3384
 8130SOL    HW135852   3.277   0.188   7.443 -0.3495 -1.8816  0.3904
 8130SOL    HW235853   3.323   0.079   7.532 -1.6515  2.1059  1.6317
 8131SOL     OW35854   1.409   3.932   4.323 -0.6484  0.3748 -0.8279
 8131SOL    HW135855   1.459   3.969   4.250  1.7988  1.1464  1.2335
 8131SOL    HW235856   1.474   3.870   4.356  0.9148  2.4468 -0.0024
 8132SOL     OW35857   2.970   4.321   0.972 -0.2747 -0.7725  0.4362
 8132SOL    HW135858   2.971   4.274   1.055 -1.1532 -1.9523 -0.2199
 8132SOL    HW235859   3.046   4.287   0.925 -0.9458 -0.8337 -0.6067
 8133SOL     OW35860   1.245   4.707   7.536  0.5699  0.7181  0.3135
 8133SOL    HW135861   1.331   0.014   7.507  0.1889  0.9435 -0.5820
 8133SOL    HW235862   1.183   0.046   7.498  0.3711 -0.4041 -1.2123
 8134SOL     OW35863   2.888   0.586  10.757 -0.2371 -0.3982 -0.3173
 8134SOL    HW135864   2.939   0.614  10.833 -0.0236  1.3192 -1.0918
 8134SOL    HW235865   2.951   0.569  10.687 -0.9027  0.1181 -1.0500
 8135SOL     OW35866   4.265   2.153  12.198  0.4009  0.6556 -0.3804
 8135SOL    HW135867   4.226   2.065  12.200  1.2617  0.2439 -1.1667
 8135SOL    HW235868   4.341   2.138  12.140  0.2180 -1.6332 -0.0279
 8136SOL     OW35869   2.514   1.280   5.276 -0.0334  0.4700 -0.0762
 8136SOL    HW135870   2.503   1.274   5.181  0.2971  1.3289 -0.1618
 8136SOL    HW235871   2.609   1.289   5.272  0.2008 -1.4891  1.0141
 8137SOL     OW35872   1.219   2.252   3.976 -0.1713  0.3285  0.4720
 8137SOL    HW135873   1.170   2.215   3.903  0.0451  0.5200  0.2319
 8137SOL    HW235874   1.179   2.201   4.047  1.1069 -1.4467 -0.0945
 8138SOL     OW35875   2.499   3.042   8.117 -0.2527  0.8437 -0.0075
 8138SOL    HW135876   2.558   3.073   8.185  0.4995 -0.4651 -0.0686
 8138SOL    HW235877   2.550   3.049   8.037 -1.6117  0.2118 -0.9375
 8139SOL     OW35878   3.331   3.665   3.285 -0.6547  0.2466 -0.4207
 8139SOL    HW135879   3.365   3.592   3.337  0.0322  1.2721  0.5386
 8139SOL    HW235880   3.261   3.620   3.236 -0.4276 -0.6216  0.0460
 8140SOL     OW35881   0.928   2.719   1.185  0.0432  0.2847 -0.4621
 8140SOL    HW135882   0.908   2.626   1.198 -1.0402  0.8056  1.5617
 8140SOL    HW235883   0.892   2.760   1.264  0.8202 -0.3365  0.2219
 8141SOL     OW35884   3.018   1.766   2.163  0.8620 -0.0040 -0.0011
 8141SOL    HW135885   3.053   1.854   2.152 -0.7751  0.9226  2.2529
 8141SOL    HW235886   3.028   1.748   2.256  0.3352  2.5805  0.5699
 8142SOL     OW35887   2.503   4.381   9.281  0.3488  0.1977  0.0052
 8142SOL    HW135888   2.590   4.371   9.318 -0.1405 -0.9198  0.8666
 8142SOL    HW235889   2.495   4.476   9.288 -1.7396  0.2467 -2.8337
 8143SOL     OW35890   0.519   4.289   6.546 -1.0107 -0.0966  0.4160
 8143SOL    HW135891   0.494   4.372   6.506  0.5390 -0.3185 -0.9988
 8143SOL    HW235892   0.551   4.241   6.470 -0.3395 -0.3656  0.8667
 8144SOL     OW35893   3.120   4.226   1.248 -0.3148 -0.1586  0.0395
 8144SOL    HW135894   3.113   4.281   1.326  0.7489  0.3073 -0.1929
 8144SOL    HW235895   3.121   4.139   1.288  0.4318 -0.2298 -0.1483
 8145SOL     OW35896   1.907   2.943   2.791 -0.1252 -0.8588  0.4431
 8145SOL    HW135897   1.969   3.010   2.822 -0.5277 -1.0194  1.5846
 8145SOL    HW235898   1.940   2.866   2.839 -1.8800 -0.1048  2.8233
 8146SOL     OW35899   2.542   3.448   8.333  0.5477 -0.2878 -0.6028
 8146SOL    HW135900   2.521   3.541   8.347  0.5881 -0.9604  3.9305
 8146SOL    HW235901   2.487   3.411   8.402 -1.1607 -2.4081 -3.0630
 8147SOL     OW35902   4.394   3.225   3.423 -0.6578  0.2798  0.4108
 8147SOL    HW135903   4.328   3.156   3.408  0.1899 -1.0057  2.6315
 8147SOL    HW235904   4.422   3.242   3.333 -0.0472 -1.9480  0.1584
 8148SOL     OW35905   3.023   3.514   5.988  0.1566  0.3401  0.7231
 8148SOL    HW135906   2.941   3.464   5.986  1.6077 -2.0669  1.1693
 8148SOL    HW235907   3.021   3.584   5.922  0.7254 -0.4076 -0.0859
 8149SOL     OW35908   4.613   1.728  17.233 -0.8682  0.9524  0.6167
 8149SOL    HW135909   4.694   1.715  17.182 -0.3065  0.4720  1.6223
 8149SOL    HW235910   4.589   1.819  17.217 -0.0291  1.4046  1.9654
 8150SOL     OW35911   4.058   0.761  13.301 -0.3458  0.0823  0.2446
 8150SOL    HW135912   3.993   0.827  13.278 -0.3146  0.4930  1.3366
 8150SOL    HW235913   4.074   0.713  13.220  0.3722 -0.4145  0.6783
 8151SOL     OW35914   1.264   3.778   2.704  0.1818  0.6688  0.5449
 8151SOL    HW135915   1.262   3.745   2.614 -0.3417  4.2209 -0.7546
 8151SOL    HW235916   1.288   3.696   2.747 -0.9673  0.0133 -0.0759
 8152SOL     OW35917   0.895   3.725  15.339 -0.1832  0.2888 -0.0882
 8152SOL    HW135918   0.884   3.675  15.420  0.1244  1.6808  0.8240
 8152SOL    HW235919   0.823   3.788  15.348 -1.2977 -0.7316 -1.8986
 8153SOL     OW35920   2.239   1.994  16.023  0.0420 -0.1931 -0.3003
 8153SOL    HW135921   2.315   2.022  16.073 -2.0988  1.1457  2.1893
 8153SOL    HW235922   2.165   2.010  16.082 -1.5854 -3.9540 -1.3272
 8154SOL     OW35923   4.609   1.631  16.927  0.7220  0.3121  0.1566
 8154SOL    HW135924   4.692   1.671  16.951  0.7842 -0.4543  1.2220
 8154SOL    HW235925   4.637   1.540  16.933 -0.3665 -0.1154 -1.1975
 8155SOL     OW35926   3.547   1.553   1.378  0.4622 -0.3972 -0.3791
 8155SOL    HW135927   3.561   1.533   1.285 -2.0151 -1.2731 -0.5606
 8155SOL    HW235928   3.501   1.636   1.376 -1.7093 -1.5777  0.5779
 8156SOL     OW35929   4.602   3.026  16.994 -0.3616 -0.1412 -0.2051
 8156SOL    HW135930   4.636   2.982  16.916 -2.2937  0.0938 -1.1776
 8156SOL    HW235931   4.579   2.952  17.051 -1.8316  0.5527  0.1091
 8157SOL     OW35932   2.834   4.233   0.563  0.5822  0.2298 -0.3351
 8157SOL    HW135933   2.870   4.312   0.603  1.0003 -0.1038 -0.0581
 8157SOL    HW235934   2.758   4.219   0.620  1.4933  2.3654  1.3845
 8158SOL     OW35935   3.214   0.362   2.906  0.2883  0.1805 -0.2626
 8158SOL    HW135936   3.197   0.325   2.819  0.4112  0.2357 -0.3095
 8158SOL    HW235937   3.307   0.371   2.887  1.2115 -0.0828  4.0011
 8159SOL     OW35938   2.567   2.745  10.583 -0.1379  0.8869  0.4818
 8159SOL    HW135939   2.602   2.833  10.596  1.1533  0.3574  0.5535
 8159SOL    HW235940   2.648   2.699  10.605  0.4717  1.4667 -0.5718
 8160SOL     OW35941   4.170   2.878   4.517 -0.1949 -0.0626 -0.1047
 8160SOL    HW135942   4.170   2.852   4.610 -1.3928  3.3249  0.8405
 8160SOL    HW235943   4.257   2.853   4.486  1.0542 -0.6603  3.7800
 8161SOL     OW35944   1.954   2.576   7.737  0.2308 -0.8093  0.0420
 8161SOL    HW135945   1.963   2.668   7.761  0.6923 -0.6238 -0.8292
 8161SOL    HW235946   1.904   2.539   7.809  2.2153  1.0777  2.3888
 8162SOL     OW35947   0.271   1.916   7.562 -0.2483  0.0343 -0.1263
 8162SOL    HW135948   0.181   1.898   7.590 -0.5567  1.2518 -0.3463
 8162SOL    HW235949   0.323   1.864   7.622 -1.1367 -3.3815 -2.3342
 8163SOL     OW35950   0.780   1.683   4.059  0.5506  0.1471 -0.1068
 8163SOL    HW135951   0.756   1.594   4.086  0.0032  0.0460 -0.9083
 8163SOL    HW235952   0.762   1.739   4.135 -1.6784  0.5380 -0.8990
 8164SOL     OW35953   3.855   1.951   4.531 -1.0087  0.2411  0.3941
 8164SOL    HW135954   3.890   2.016   4.592  2.0845 -0.2367 -0.8802
 8164SOL    HW235955   3.920   1.946   4.461 -1.3433 -2.8912  0.3100
 8165SOL     OW35956   0.769   3.901   6.829 -0.5592 -0.4337 -0.6637
 8165SOL    HW135957   0.726   3.905   6.915 -1.5856  1.8646 -1.3022
 8165SOL    HW235958   0.771   3.996   6.824  1.6195 -0.4983 -1.2586
 8166SOL     OW35959   0.048   2.692   2.708 -0.4593  0.5727 -0.6004
 8166SOL    HW135960   4.699   2.719   2.651 -1.4794 -0.6750  0.0888
 8166SOL    HW235961   0.006   2.652   2.784 -1.1065  1.1456 -0.6577
 8167SOL     OW35962   0.060   2.104   6.898  0.1290 -0.0565 -0.4542
 8167SOL    HW135963   0.041   2.043   6.970  1.4717  0.2724  0.1798
 8167SOL    HW235964   0.139   2.140   6.939  1.7043 -0.1757 -3.4538
 8168SOL     OW35965   4.027   0.518   7.085  0.2716  0.2664  0.8961
 8168SOL    HW135966   4.121   0.502   7.093  0.4974 -0.5173 -3.6213
 8168SOL    HW235967   4.018   0.551   6.996 -1.3497 -2.0291  0.1950
 8169SOL     OW35968   0.517   3.123   4.890  0.1416  0.1753 -0.2953
 8169SOL    HW135969   0.426   3.152   4.893  0.3327  0.5069  1.9369
 8169SOL    HW235970   0.554   3.175   4.818  0.8047 -1.7177 -1.3059
 8170SOL     OW35971   0.251   1.610   2.669 -0.3522 -0.4438 -0.0222
 8170SOL    HW135972   0.163   1.574   2.678 -0.3984 -0.2652  0.2399
 8170SOL    HW235973   0.242   1.705   2.674  0.8201 -0.3739  0.8617
 8171SOL     OW35974   2.711   3.497   2.991 -0.6135 -0.1789  0.0423
 8171SOL    HW135975   2.636   3.464   2.942 -0.4726 -0.6277  0.1301
 8171SOL    HW235976   2.667   3.536   3.066 -0.7390  1.5615 -0.9259
 8172SOL     OW35977   1.692   1.501   8.060  0.4779 -0.2476 -0.6447
 8172SOL    HW135978   1.747   1.491   7.983 -0.5720 -0.9453 -1.3043
 8172SOL    HW235979   1.750   1.551   8.118 -0.8479  0.8270 -0.2669
 8173SOL     OW35980   1.592   4.581   4.765 -0.1528  0.3444 -0.2514
 8173SOL    HW135981   1.675   4.599   4.722  0.1884  2.5877  1.3429
 8173SOL    HW235982   1.615   4.554   4.854 -1.0716 -0.9497 -0.4084
 8174SOL     OW35983   4.635   1.767   7.094 -0.4657  0.8375  0.5017
 8174SOL    HW135984   4.549   1.735   7.067  1.5819 -2.7813 -1.7113
 8174SOL    HW235985   4.619   1.801   7.182 -0.2316  1.9346  0.1224
 8175SOL     OW35986   3.207   4.380   5.834 -0.3432  0.3494  0.1838
 8175SOL    HW135987   3.237   4.363   5.924  0.0823  0.1662  0.0086
 8175SOL    HW235988   3.133   4.323   5.816 -0.8622  1.3772 -0.8840
 8176SOL     OW35989   0.051   1.992   3.396  0.6190  0.3344 -0.3043
 8176SOL    HW135990   0.121   1.957   3.451 -0.0769  1.5768  1.3661
 8176SOL    HW235991   0.017   1.907   3.368 -0.2811  0.1625  1.2911
 8177SOL     OW35992   1.317   0.755   3.448  0.5090  0.0761 -0.4353
 8177SOL    HW135993   1.233   0.737   3.407  0.3636 -2.4150  0.9873
 8177SOL    HW235994   1.302   0.713   3.533 -1.1576  1.8777  0.1869
 8178SOL     OW35995   1.128   4.403   9.954 -0.2024 -0.1400 -0.4287
 8178SOL    HW135996   1.096   4.448  10.032 -2.1622 -2.0472 -0.1147
 8178SOL    HW235997   1.097   4.313   9.969  0.1745  0.0355  1.3963
 8179SOL     OW35998   0.258   1.550  16.472 -0.4368  0.4841 -0.4004
 8179SOL    HW135999   0.264   1.559  16.567 -0.1615  1.0253 -0.4758
 8179SOL    HW236000   0.191   1.614  16.446  0.7495  1.4862 -0.9571
 8180SOL     OW36001   1.445   2.972   0.525  0.2200 -0.1532  0.0253
 8180SOL    HW136002   1.507   3.009   0.588 -1.1353  0.4736  0.9983
 8180SOL    HW236003   1.372   2.958   0.586 -0.2284  1.3813 -0.1344
 8181SOL     OW36004   4.135   4.540   6.947  0.4743  0.0786 -0.3204
 8181SOL    HW136005   4.163   4.589   6.870 -0.4645 -0.0797 -0.7565
 8181SOL    HW236006   4.185   4.569   7.024  0.2123 -0.3859  0.0250
 8182SOL     OW36007   1.365   2.175  13.747  0.2375  0.0584  0.4231
 8182SOL    HW136008   1.275   2.172  13.779 -0.5049  0.3810 -1.5969
 8182SOL    HW236009   1.395   2.087  13.771 -0.4280 -0.1707  0.4434
 8183SOL     OW36010   0.096   3.009   2.985  0.2120 -0.5328 -0.2083
 8183SOL    HW136011   0.029   3.049   3.040 -0.6913 -0.7592 -1.1459
 8183SOL    HW236012   0.052   2.928   2.961  1.1193 -1.0495 -0.1399
 8184SOL     OW36013   1.939   0.400   7.354  0.3934  0.6126  0.0957
 8184SOL    HW136014   1.922   0.306   7.367  2.6416 -0.0304 -1.5842
 8184SOL    HW236015   1.984   0.408   7.270 -0.6170  2.2430 -0.3001
 8185SOL     OW36016   2.469   0.230  13.557  0.1590  0.0434  0.0289
 8185SOL    HW136017   2.488   0.310  13.509 -2.0949  0.8715  0.5107
 8185SOL    HW236018   2.459   0.258  13.648 -3.0386  0.1004 -0.3097
 8186SOL     OW36019   3.391   0.921   5.795  0.3029 -0.6439 -0.5814
 8186SOL    HW136020   3.367   0.832   5.817  1.3733 -1.0404 -0.9960
 8186SOL    HW236021   3.352   0.924   5.708  0.3918  0.1210 -0.5948
 8187SOL     OW36022   3.662   0.070  12.490  1.0024 -0.5117 -0.0598
 8187SOL    HW136023   3.628   4.718  12.443  1.4391 -1.6166  1.4264
 8187SOL    HW236024   3.657   0.039  12.580  1.4412  1.6092  0.6847
 8188SOL     OW36025   3.012   1.319   5.931  0.3410 -0.0628  0.3436
 8188SOL    HW136026   3.016   1.383   5.860 -0.5861  1.1922  1.4191
 8188SOL    HW236027   3.078   1.358   5.988 -0.5894  0.7394  0.8519
 8189SOL     OW36028   1.111   3.967   0.732 -0.1821  0.1948  0.4026
 8189SOL    HW136029   1.078   3.880   0.757 -0.3145 -0.0676 -0.6676
 8189SOL    HW236030   1.063   4.019   0.796 -1.1661 -1.1205  0.7357
 8190SOL     OW36031   3.357   2.039   3.186 -0.1534 -0.1396  0.0263
 8190SOL    HW136032   3.399   2.034   3.272  0.8153 -1.0448 -0.4984
 8190SOL    HW236033   3.385   1.951   3.161 -0.6946 -0.2610 -0.1490
 8191SOL     OW36034   4.357   4.214   6.648  0.1900  0.1620  0.3660
 8191SOL    HW136035   4.395   4.187   6.732  1.0562  0.2240  0.0004
 8191SOL    HW236036   4.302   4.138   6.630 -0.6864  1.1253 -1.1024
 8192SOL     OW36037   3.408   4.449   4.205  0.4018  0.1065 -0.2928
 8192SOL    HW136038   3.444   4.502   4.276  0.0430 -0.7850  0.5546
 8192SOL    HW236039   3.477   4.457   4.140  0.9045 -0.5243  0.1620
 8193SOL     OW36040   4.221   3.485   3.712  0.2190  0.2794  0.4872
 8193SOL    HW136041   4.193   3.573   3.688 -0.6949 -0.2614 -0.4066
 8193SOL    HW236042   4.192   3.479   3.803 -1.4538  1.3652  0.0178
 8194SOL     OW36043   0.287   0.992  14.756 -0.7134 -0.1445 -0.6103
 8194SOL    HW136044   0.374   0.970  14.789  1.2022  1.0646 -4.8117
 8194SOL    HW236045   0.223   0.946  14.810  1.4331 -2.1130  0.2666
 8195SOL     OW36046   1.563   4.696   4.282  0.5300 -0.4165  0.1549
 8195SOL    HW136047   1.586   4.611   4.320  1.6144 -0.3469 -0.3498
 8195SOL    HW236048   1.573   0.042   4.346  0.0151  1.1220 -1.4271
 8196SOL     OW36049   4.018   4.048   5.639  0.1052  0.4300  0.0304
 8196SOL    HW136050   4.032   4.115   5.573  0.8401 -1.1157 -1.3719
 8196SOL    HW236051   4.106   4.049   5.677 -0.2225 -0.1384  0.8255
 8197SOL     OW36052   2.667   1.058   1.589 -0.4982  0.3507 -0.1384
 8197SOL    HW136053   2.687   1.152   1.582 -1.6665  0.7096  1.1263
 8197SOL    HW236054   2.646   1.063   1.682 -1.6941 -3.5096 -0.2173
 8198SOL     OW36055   0.033   0.815  15.356  0.5997 -0.4144  0.0822
 8198SOL    HW136056   0.065   0.891  15.307 -0.6780  0.4523  0.6281
 8198SOL    HW236057   0.098   0.823  15.426  1.0260 -0.3575 -0.3224
 8199SOL     OW36058   4.589   0.059   4.633  0.0208 -0.2414 -0.2040
 8199SOL    HW136059   4.683   0.064   4.651  0.3597  1.4125 -2.4145
 8199SOL    HW236060   4.588   0.028   4.542  2.9368  1.1009 -0.7067
 8200SOL     OW36061   2.800   3.131   4.307 -0.2174 -0.1652  0.4509
 8200SOL    HW136062   2.836   3.188   4.240  0.3554  1.1418  1.8568
 8200SOL    HW236063   2.719   3.176   4.333 -1.1701 -1.3594 -0.4633
 8201SOL     OW36064   3.362   2.518   3.762 -0.4477 -0.7237 -0.4682
 8201SOL    HW136065   3.304   2.442   3.756 -2.2093  0.6561 -0.9264
 8201SOL    HW236066   3.373   2.524   3.857 -0.0927  0.9724 -0.6184
 8202SOL     OW36067   3.821   2.103   7.428  0.0183  0.3607  0.5332
 8202SOL    HW136068   3.904   2.064   7.399 -0.2878 -1.1617  1.7057
 8202SOL    HW236069   3.777   2.020   7.446  2.5870 -1.0903  0.1162
 8203SOL     OW36070   0.505   2.018   2.481 -0.2026 -0.0446 -0.1618
 8203SOL    HW136071   0.459   2.043   2.561  0.8141  0.7260  0.1737
 8203SOL    HW236072   0.589   2.054   2.508 -1.0308  0.8760  1.1588
 8204SOL     OW36073   2.085   1.461  14.224 -0.2916 -0.5996 -0.1653
 8204SOL    HW136074   2.162   1.410  14.250  0.5145  1.7522  2.1174
 8204SOL    HW236075   2.090   1.458  14.129 -1.7595 -0.1163 -0.2551
 8205SOL     OW36076   0.987   0.103   3.003 -0.4859 -0.3575  0.2591
 8205SOL    HW136077   1.000   0.109   2.908 -0.1903  0.7932  0.3703
 8205SOL    HW236078   1.029   0.017   3.014 -0.3463 -0.2625  0.4658
 8206SOL     OW36079   0.703   2.793   1.908  0.1452  0.3489 -0.0432
 8206SOL    HW136080   0.763   2.723   1.881  0.8628  0.8961  0.1127
 8206SOL    HW236081   0.641   2.742   1.958  0.0977  2.9734  2.5793
 8207SOL     OW36082   2.633   2.570   4.340  0.8540 -0.4409  0.1026
 8207SOL    HW136083   2.656   2.607   4.425  0.2607 -2.4321  1.1419
 8207SOL    HW236084   2.709   2.513   4.325  2.1828  1.1757  0.7521
 8208SOL     OW36085   4.586   1.826   7.345  0.1819 -0.1431  0.5322
 8208SOL    HW136086   4.525   1.876   7.400  2.2627  1.5555  1.2750
 8208SOL    HW236087   4.558   1.742   7.381  2.5722 -1.1896 -0.0899
 8209SOL     OW36088   1.626   3.019   5.221 -0.1562  0.5883 -0.3662
 8209SOL    HW136089   1.679   3.004   5.299  0.5173  1.4909 -0.6463
 8209SOL    HW236090   1.686   3.059   5.158  1.0273  0.6678  0.8066
 8210SOL     OW36091   1.569   2.205   3.742  0.3075 -0.3551 -0.0057
 8210SOL    HW136092   1.605   2.127   3.700  2.2686  0.9246 -0.7509
 8210SOL    HW236093   1.649   2.230   3.788 -0.8008  1.8794  0.6750
 8211SOL     OW36094   3.257   2.918   4.933 -0.3700 -0.5029 -0.1852
 8211SOL    HW136095   3.264   2.998   4.986  0.8810  0.2684 -1.4917
 8211SOL    HW236096   3.228   2.953   4.848 -0.3426 -0.1096 -0.0328
 8212SOL     OW36097   0.001   2.239   2.901 -0.3034 -0.2639 -0.4035
 8212SOL    HW136098   4.645   2.291   2.905 -1.5745 -2.2929  0.6652
 8212SOL    HW236099   4.696   2.156   2.863  0.3607 -1.5770  1.9375
 8213SOL     OW36100   2.054   0.993   7.959  0.1229  0.3738 -0.0202
 8213SOL    HW136101   1.966   0.983   7.996 -0.4232  0.4887 -1.2702
 8213SOL    HW236102   2.068   1.086   7.972 -0.5494  0.3054  1.1830
 8214SOL     OW36103   1.198   0.427  14.995  0.0143 -0.6883  0.5312
 8214SOL    HW136104   1.208   0.362  15.064 -1.2644  0.3573  1.7153
 8214SOL    HW236105   1.186   0.506  15.049 -0.7746  0.7845 -1.7996
 8215SOL     OW36106   0.265   4.167   3.208 -0.0698  0.2524 -0.4999
 8215SOL    HW136107   0.181   4.172   3.163 -0.1720  0.5142 -0.2798
 8215SOL    HW236108   0.284   4.073   3.214  1.6883  0.4851 -2.3398
 8216SOL     OW36109   0.053   3.579  14.105 -0.0328  0.3138 -0.9009
 8216SOL    HW136110   0.021   3.517  14.039 -0.1422 -0.1240 -0.4337
 8216SOL    HW236111   0.011   3.553  14.187 -0.4370  1.3271 -0.7951
 8217SOL     OW36112   0.426   4.600   8.042  0.2204 -0.4229 -0.4860
 8217SOL    HW136113   0.394   4.663   8.106  0.9250 -0.3448 -0.2164
 8217SOL    HW236114   0.502   4.653   8.020  0.1765 -0.7790 -1.4901
 8218SOL     OW36115   2.870   2.191   2.395  0.0167  0.0649 -0.0777
 8218SOL    HW136116   2.825   2.191   2.479  0.5580 -3.0561  0.2250
 8218SOL    HW236117   2.821   2.120   2.353  0.4248 -1.3438  1.8457
 8219SOL     OW36118   3.389   0.268   1.687  0.0445  0.7525  0.7839
 8219SOL    HW136119   3.468   0.270   1.633 -0.5201 -2.2339 -0.1520
 8219SOL    HW236120   3.327   0.232   1.624 -1.1922  1.5191  1.5488
 8220SOL     OW36121   4.138   2.739   5.225  0.2289 -0.3571 -0.2223
 8220SOL    HW136122   4.069   2.681   5.256  0.4880 -1.4717 -1.6706
 8220SOL    HW236123   4.101   2.771   5.143  0.5785 -1.1138 -0.6804
 8221SOL     OW36124   1.674   2.918   0.292 -0.0968  0.8448  0.0302
 8221SOL    HW136125   1.661   3.010   0.317 -0.1476  0.0373  2.9828
 8221SOL    HW236126   1.682   2.917   0.196  1.0698  3.9499  0.0980
 8222SOL     OW36127   3.424   0.835   8.627  0.1089 -0.1763 -0.0422
 8222SOL    HW136128   3.465   0.851   8.712  1.2269  0.9582 -0.7827
 8222SOL    HW236129   3.336   0.873   8.630  0.8666  1.8257 -2.7940
 8223SOL     OW36130   2.811   1.104   6.629  0.6219  0.6162  0.2171
 8223SOL    HW136131   2.861   1.041   6.680 -0.7451 -0.7588 -0.1502
 8223SOL    HW236132   2.752   1.143   6.695 -0.2565  0.7291 -0.6410
 8224SOL     OW36133   0.588   1.517   4.508  0.1296 -0.2381  0.3617
 8224SOL    HW136134   0.629   1.555   4.586 -1.8032  1.6913  0.4445
 8224SOL    HW236135   0.665   1.488   4.459  0.2260 -0.5609  0.7048
 8225SOL     OW36136   0.272   0.520   4.540  0.5013 -0.1177 -0.5494
 8225SOL    HW136137   0.188   0.493   4.576  0.1859  2.1097  0.3630
 8225SOL    HW236138   0.252   0.596   4.485  2.3038 -0.9531 -2.3665
 8226SOL     OW36139   4.583   0.804  14.894 -0.0072 -0.3356 -0.3378
 8226SOL    HW136140   4.664   0.855  14.893 -0.2826  0.1504  2.1606
 8226SOL    HW236141   4.595   0.766  14.981  1.3688 -2.6721 -1.5502
 8227SOL     OW36142   0.992   0.912   0.256  0.1474 -0.0446 -0.5065
 8227SOL    HW136143   0.984   0.890   0.349 -0.3191 -0.4660 -0.6482
 8227SOL    HW236144   0.966   1.004   0.264  1.3823  0.2810 -0.2024
 8228SOL     OW36145   1.746   3.630   3.821  0.0900 -0.2998 -0.2510
 8228SOL    HW136146   1.683   3.699   3.839  0.6221  0.3248 -0.7808
 8228SOL    HW236147   1.795   3.632   3.902 -0.6589 -0.0508  0.1972
 8229SOL     OW36148   1.677   3.464  10.169 -0.4883  0.0029  0.1031
 8229SOL    HW136149   1.702   3.372  10.177  1.8005  0.5603 -0.8700
 8229SOL    HW236150   1.585   3.441  10.156 -0.9259  0.2853  2.6405
 8230SOL     OW36151   2.939   0.437  14.561  0.4597  0.1822 -0.7911
 8230SOL    HW136152   2.886   0.362  14.587  1.5354  0.0906  1.1097
 8230SOL    HW236153   2.884   0.483  14.497 -0.6741 -0.9922 -0.6680
 8231SOL     OW36154   1.620   2.524   6.769  0.2345 -0.4409 -0.3687
 8231SOL    HW136155   1.557   2.584   6.809  1.7636  1.3040 -0.6022
 8231SOL    HW236156   1.631   2.466   6.845  0.2281  2.9505  2.2240
 8232SOL     OW36157   3.841   0.978   0.701 -0.1345 -0.0479 -0.5890
 8232SOL    HW136158   3.889   0.953   0.622  0.4714 -1.1228  0.1165
 8232SOL    HW236159   3.913   0.996   0.761 -0.0406 -0.2813 -0.6318
 8233SOL     OW36160   1.648   4.490  12.817  0.3207 -0.1681  0.5668
 8233SOL    HW136161   1.608   4.576  12.832 -0.9600 -0.1577 -2.8668
 8233SOL    HW236162   1.727   4.521  12.773 -0.0331 -0.7243 -0.4669
 8234SOL     OW36163   2.510   1.736  11.074 -0.5998 -0.2011  0.2509
 8234SOL    HW136164   2.549   1.816  11.038 -0.6897  0.6525  2.0727
 8234SOL    HW236165   2.591   1.696  11.107  0.3220  0.9163 -0.6395
 8235SOL     OW36166   3.633   3.097   4.634 -0.1778  0.2928  0.7789
 8235SOL    HW136167   3.586   3.177   4.609  0.5350  1.3621  2.8777
 8235SOL    HW236168   3.677   3.061   4.558 -0.0989 -0.6557  1.2737
 8236SOL     OW36169   1.965   3.814  16.961  0.1190 -0.3883 -0.0889
 8236SOL    HW136170   2.051   3.855  16.952 -0.8405  1.3750 -1.3268
 8236SOL    HW236171   1.933   3.854  17.042  1.0773 -1.2190  0.7040
 8237SOL     OW36172   0.525   3.523   6.782  0.4017  0.2867  0.0943
 8237SOL    HW136173   0.557   3.522   6.692 -0.6853  0.3464 -0.2984
 8237SOL    HW236174   0.440   3.567   6.770  0.4779  0.5828  0.6641
 8238SOL     OW36175   4.524   0.511   8.974  0.5978 -0.3244 -0.2917
 8238SOL    HW136176   4.590   0.444   8.952  0.3202 -0.1757 -1.6049
 8238SOL    HW236177   4.459   0.452   9.012 -1.4976  1.3787 -1.2412
 8239SOL     OW36178   0.299   0.941   7.426 -0.0974 -0.0877  0.0018
 8239SOL    HW136179   0.341   1.009   7.373 -0.1287 -0.8919 -1.0354
 8239SOL    HW236180   0.326   0.856   7.393 -0.7845 -0.4239  0.3133
 8240SOL     OW36181   2.936   1.168   2.189 -0.0287 -0.2382  0.6240
 8240SOL    HW136182   2.903   1.218   2.114  1.6947 -0.1416 -0.0823
 8240SOL    HW236183   2.895   1.082   2.180 -0.1238 -0.2664  1.2924
 8241SOL     OW36184   2.504   0.651   2.158  0.2600  0.2313 -0.3585
 8241SOL    HW136185   2.563   0.646   2.083  1.8023  0.6536  0.8226
 8241SOL    HW236186   2.486   0.557   2.164 -0.7447  0.4814  0.4577
 8242SOL     OW36187   4.412   0.980   4.500  1.1691 -0.6751 -0.1352
 8242SOL    HW136188   4.373   1.067   4.511  0.7391 -0.7029 -1.4988
 8242SOL    HW236189   4.437   0.979   4.408 -0.4116  0.1918 -0.5794
 8243SOL     OW36190   0.831   3.173   4.654 -0.4056 -0.1474 -0.4898
 8243SOL    HW136191   0.914   3.208   4.623 -1.2321 -1.3124 -4.0521
 8243SOL    HW236192   0.816   3.247   4.713 -1.2331 -1.5025  1.0051
 8244SOL     OW36193   4.321   0.907   0.765 -0.1006 -0.4556 -0.2136
 8244SOL    HW136194   4.323   0.814   0.742 -0.4548 -0.7078  0.7405
 8244SOL    HW236195   4.399   0.915   0.821  0.4386  0.0600 -1.0336
 8245SOL     OW36196   2.714   2.726   7.891 -0.0200  0.2019 -0.8279
 8245SOL    HW136197   2.642   2.698   7.834 -1.9093 -0.7125  2.0279
 8245SOL    HW236198   2.693   2.685   7.975  0.2329  0.6691 -0.5371
 8246SOL     OW36199   0.473   3.252   7.697 -0.2793 -0.3301 -0.3339
 8246SOL    HW136200   0.563   3.279   7.715 -0.3873  0.6755 -1.3641
 8246SOL    HW236201   0.458   3.270   7.604 -2.7428 -1.3766 -0.1547
 8247SOL     OW36202   1.302   0.886   5.411  0.3795  0.3314 -0.3247
 8247SOL    HW136203   1.318   0.900   5.317 -0.8296  2.5883 -0.1943
 8247SOL    HW236204   1.383   0.842   5.436  0.3233  0.8482  0.7641
 8248SOL     OW36205   1.504   4.274   2.398  0.6134  0.4499  1.0399
 8248SOL    HW136206   1.487   4.240   2.310 -0.2507  0.3138  1.2570
 8248SOL    HW236207   1.590   4.313   2.390  0.6269  0.2004  0.0067
 8249SOL     OW36208   3.192   0.789  14.702  0.0247 -0.4203 -0.0454
 8249SOL    HW136209   3.145   0.768  14.621 -0.9293 -1.0320  0.6551
 8249SOL    HW236210   3.185   0.703  14.745  1.2447 -1.4455 -1.8902
 8250SOL     OW36211   3.769   0.448   1.254  0.2301 -0.5649 -0.0160
 8250SOL    HW136212   3.806   0.530   1.287 -1.7457  0.4617 -0.3629
 8250SOL    HW236213   3.834   0.385   1.285 -0.0739 -0.8083  0.1402
 8251SOL     OW36214   0.523   0.130   7.916  0.1277 -0.6057 -0.0802
 8251SOL    HW136215   0.545   0.224   7.917 -0.1707 -0.5469  2.3857
 8251SOL    HW236216   0.430   0.144   7.898  0.3125  0.3873 -0.2658
 8252SOL     OW36217   2.791   0.732  14.079 -0.1377  0.2639  0.1046
 8252SOL    HW136218   2.781   0.747  13.985  1.7674 -0.2754 -0.1916
 8252SOL    HW236219   2.854   0.661  14.091  0.4681  0.5840 -1.2309
 8253SOL     OW36220   3.428   3.306   9.669  0.0121  0.1696  0.2990
 8253SOL    HW136221   3.371   3.376   9.700 -1.3299 -0.7870 -0.0032
 8253SOL    HW236222   3.448   3.258   9.750  0.6522 -0.7524 -0.4012
 8254SOL     OW36223   2.882   3.510   4.423 -0.0798 -0.3513  0.1031
 8254SOL    HW136224   2.890   3.529   4.329 -3.1889 -0.3724 -0.1576
 8254SOL    HW236225   2.927   3.581   4.469 -0.2978 -2.2353  3.1665
 8255SOL     OW36226   1.675   3.061   5.515 -1.0145 -0.2367 -0.1191
 8255SOL    HW136227   1.767   3.059   5.542 -1.0123  1.9092  0.0477
 8255SOL    HW236228   1.645   2.971   5.531  1.8174 -1.3545 -1.0537
 8256SOL     OW36229   4.272   1.470   1.399  0.0823  0.7997  0.0385
 8256SOL    HW136230   4.194   1.416   1.394  0.0335  0.5772  2.9460
 8256SOL    HW236231   4.318   1.471   1.315  2.4120  0.7214  1.3258
 8257SOL     OW36232   2.796   3.054   6.741  0.1614 -0.0959  0.0973
 8257SOL    HW136233   2.702   3.034   6.739  0.3810 -1.0321 -1.0836
 8257SOL    HW236234   2.794   3.088   6.651  0.9520 -0.7306 -0.1559
 8258SOL     OW36235   1.564   3.759   2.590  0.3829 -0.4168  0.2725
 8258SOL    HW136236   1.643   3.707   2.602 -1.2322 -2.9507  0.1156
 8258SOL    HW236237   1.491   3.702   2.616 -1.9410  1.5796 -1.9194
 8259SOL     OW36238   2.411   3.533  17.061 -0.2524  0.0605  0.5199
 8259SOL    HW136239   2.316   3.536  17.075 -0.8494  0.9839 -3.6178
 8259SOL    HW236240   2.413   3.444  17.025 -1.1592  0.0140  0.5810
 8260SOL     OW36241   2.006   2.677   8.947 -0.1058  0.4347  0.4785
 8260SOL    HW136242   1.977   2.756   8.992  0.0649  1.6839 -1.5665
 8260SOL    HW236243   2.067   2.710   8.880 -1.3413  1.3667 -0.1713
 8261SOL     OW36244   0.868   2.656   5.399  0.2397  0.2574  0.6845
 8261SOL    HW136245   0.940   2.697   5.447  0.1644  2.9576 -1.5116
 8261SOL    HW236246   0.897   2.564   5.399  0.9393  0.4806  0.9772
 8262SOL     OW36247   2.058   3.020  16.390 -0.5594 -0.2274 -0.3267
 8262SOL    HW136248   1.980   2.966  16.403  0.9519 -2.5452 -0.8791
 8262SOL    HW236249   2.023   3.101  16.354 -2.0909 -0.2917  1.0230
 8263SOL     OW36250   4.241   0.198   1.980 -0.0226  0.0532 -0.3245
 8263SOL    HW136251   4.162   0.162   2.022  0.7130 -1.7139 -0.4254
 8263SOL    HW236252   4.231   0.290   2.004  1.9249  0.5891 -1.5467
 8264SOL     OW36253   0.753   4.528   2.775  0.2408 -0.6269 -0.3557
 8264SOL    HW136254   0.675   4.520   2.720  0.9137 -1.7634 -1.1268
 8264SOL    HW236255   0.750   4.620   2.799  0.6945 -0.3674 -1.3334
 8265SOL     OW36256   2.854   0.255   6.716  0.3793 -1.1035  0.3144
 8265SOL    HW136257   2.906   0.286   6.643 -1.7736 -2.1294 -1.6501
 8265SOL    HW236258   2.769   0.294   6.696  0.7445  0.2375  1.4102
 8266SOL     OW36259   3.022   0.553   5.692 -0.1284 -0.4332 -0.3868
 8266SOL    HW136260   2.953   0.522   5.751 -0.5366 -0.5805 -0.9382
 8266SOL    HW236261   2.963   0.613   5.648 -1.0428 -0.2654  1.0860
 8267SOL     OW36262   2.390   2.125   4.246 -0.2561 -0.1842 -0.1871
 8267SOL    HW136263   2.405   2.215   4.275 -1.2384  0.1478 -0.7155
 8267SOL    HW236264   2.343   2.136   4.163 -2.0093  0.9853  0.9651
 8268SOL     OW36265   0.709   3.893   7.078 -0.1034  0.5653 -0.5368
 8268SOL    HW136266   0.797   3.855   7.072  1.0938  2.8870  2.5760
 8268SOL    HW236267   0.695   3.894   7.172  0.6673 -0.6640 -0.4170
 8269SOL     OW36268   4.432   2.969  12.836 -0.3392  0.0540  0.1247
 8269SOL    HW136269   4.374   2.909  12.790 -2.4611  1.0563  1.5369
 8269SOL    HW236270   4.379   3.000  12.910 -1.0861  0.0286 -0.4032
 8270SOL     OW36271   1.448   2.221   0.798 -0.4778  0.4462 -0.4407
 8270SOL    HW136272   1.376   2.275   0.829 -1.6531 -1.3802  0.0352
 8270SOL    HW236273   1.526   2.273   0.778 -1.3553  1.3779 -1.4216
 8271SOL     OW36274   1.960   4.254  12.589  0.1021  0.2424 -0.2405
 8271SOL    HW136275   1.936   4.216  12.505  2.9103  1.4826 -1.6156
 8271SOL    HW236276   2.056   4.257  12.584  0.1636 -1.6907 -0.3455
 8272SOL     OW36277   4.480   1.198  11.362 -0.8183  0.2935  0.1148
 8272SOL    HW136278   4.490   1.287  11.396 -2.1931  0.8594 -0.9283
 8272SOL    HW236279   4.432   1.149  11.429 -0.0847  0.4187  0.7273
 8273SOL     OW36280   1.407   3.994   7.152 -0.6262  0.1790 -0.4095
 8273SOL    HW136281   1.433   3.970   7.240 -1.2885  2.1212  0.3144
 8273SOL    HW236282   1.349   3.921   7.135 -0.5514  0.1043 -0.3423
 8274SOL     OW36283   2.541   4.170  12.075  0.1342 -0.3443 -0.2689
 8274SOL    HW136284   2.445   4.177  12.072  0.0160 -1.8563  0.1439
 8274SOL    HW236285   2.562   4.220  12.155 -0.6667 -0.3686 -0.0395
 8275SOL     OW36286   2.073   3.634   2.911  0.6222  0.2486  0.1422
 8275SOL    HW136287   2.072   3.572   2.838 -1.3368  0.5675 -0.0960
 8275SOL    HW236288   2.138   3.700   2.888  2.0542 -0.6563  1.5711
 8276SOL     OW36289   3.297   1.236  13.978  0.7128 -0.3262 -0.6917
 8276SOL    HW136290   3.384   1.195  13.984 -0.5920 -2.6607  2.5087
 8276SOL    HW236291   3.323   1.328  13.987  1.8049 -0.5102 -1.9188
 8277SOL     OW36292   2.143   2.061   8.523 -0.2994 -0.3136 -0.2007
 8277SOL    HW136293   2.117   2.116   8.596 -0.6486 -2.0528  0.9847
 8277SOL    HW236294   2.229   2.036   8.557 -0.2821  0.2261  0.1525
 8278SOL     OW36295   0.390   2.446   8.997 -0.4102 -0.3340  0.5778
 8278SOL    HW136296   0.398   2.470   9.089  0.7954  0.5769  0.2326
 8278SOL    HW236297   0.387   2.537   8.967  0.6284 -0.7770 -0.8885
 8279SOL     OW36298   1.413   3.385  16.641 -0.5999 -0.5738 -0.5779
 8279SOL    HW136299   1.467   3.362  16.717 -1.0088 -2.5470 -0.8770
 8279SOL    HW236300   1.448   3.470  16.617  2.4247 -1.7597 -0.4181
 8280SOL     OW36301   1.094   3.736   3.389  0.6148  0.5706  0.2057
 8280SOL    HW136302   1.063   3.743   3.298 -1.6804  2.8457  1.1695
 8280SOL    HW236303   1.040   3.802   3.432  0.1314 -0.2608  0.8893
 8281SOL     OW36304   3.444   4.375   5.069 -0.8213 -0.5943  0.0329
 8281SOL    HW136305   3.460   4.454   5.121 -0.1840  0.2913 -1.5338
 8281SOL    HW236306   3.464   4.409   4.982  0.1850 -1.1022  0.0569
 8282SOL     OW36307   3.512   4.709   6.968  0.5954  0.0492 -0.1801
 8282SOL    HW136308   3.607   4.712   6.983  0.6433  2.2825 -0.9274
 8282SOL    HW236309   3.504   0.030   6.883 -0.6771 -1.0889 -0.6558
 8283SOL     OW36310   2.639   1.352   3.509 -0.2354 -0.1439 -0.0356
 8283SOL    HW136311   2.617   1.320   3.422  0.2176 -1.4709  0.3483
 8283SOL    HW236312   2.635   1.448   3.501 -2.8105 -0.3539 -1.2604
 8284SOL     OW36313   2.344   3.943  12.076  0.3171  0.0045 -0.7242
 8284SOL    HW136314   2.427   3.898  12.059 -0.2257 -1.1647 -0.2403
 8284SOL    HW236315   2.284   3.932  12.002 -0.7156  3.7474 -0.4307
 8285SOL     OW36316   2.497   0.279   4.250 -0.3698  0.6518  0.4959
 8285SOL    HW136317   2.404   0.298   4.236  0.0940  1.2310 -1.8093
 8285SOL    HW236318   2.520   0.322   4.333 -0.3263 -2.1729  1.9538
 8286SOL     OW36319   3.063   1.539  10.270  0.1694 -0.2992  0.6377
 8286SOL    HW136320   3.109   1.616  10.303 -0.9846  1.0511 -0.8870
 8286SOL    HW236321   3.115   1.469  10.309  2.3569 -0.4210 -2.4315
 8287SOL     OW36322   0.214   3.942  13.079 -0.0676  0.0869  0.4072
 8287SOL    HW136323   0.230   4.036  13.089 -0.8812  0.5414 -2.4650
 8287SOL    HW236324   0.253   3.900  13.156  0.7808  0.1112 -0.0055
 8288SOL     OW36325   4.024   0.379   0.101 -0.7458  0.2757  0.0122
 8288SOL    HW136326   3.930   0.397   0.107 -0.2130  3.5149 -1.6782
 8288SOL    HW236327   4.057   0.439   0.167 -2.4457  0.2361  0.9032
 8289SOL     OW36328   3.198   3.115   5.457  1.2755  0.2111 -0.3549
 8289SOL    HW136329   3.291   3.114   5.477  0.9509 -0.6162  1.0958
 8289SOL    HW236330   3.186   3.051   5.387  2.2092 -0.8202  0.4297
 8290SOL     OW36331   2.300   4.693   9.528 -0.0639  0.1403 -0.3016
 8290SOL    HW136332   2.211   4.675   9.556 -0.2624 -0.3792 -1.2635
 8290SOL    HW236333   2.342   4.625   9.580 -0.8249  1.8075  2.4927
 8291SOL     OW36334   1.337   0.887   6.351  0.8744 -0.5595 -0.1657
 8291SOL    HW136335   1.260   0.923   6.307  0.3578 -0.7244  0.6015
 8291SOL    HW236336   1.396   0.963   6.358 -0.8138  0.7119  0.1438
 8292SOL     OW36337   2.295   2.124   9.329  0.1024  0.1020 -0.6201
 8292SOL    HW136338   2.308   2.086   9.242 -1.3624  3.3612 -2.2629
 8292SOL    HW236339   2.370   2.184   9.338  0.0957 -0.1666  1.1815
 8293SOL     OW36340   2.239   2.449   3.264  0.2247 -0.1531  0.5355
 8293SOL    HW136341   2.189   2.499   3.328 -0.8470  1.2269 -1.3872
 8293SOL    HW236342   2.279   2.388   3.327 -2.9766 -1.5347  1.2221
 8294SOL     OW36343   3.678   4.503  11.826  0.4805  0.2093 -0.0440
 8294SOL    HW136344   3.752   4.531  11.772  0.4638  1.1838  0.4202
 8294SOL    HW236345   3.607   4.551  11.783  0.4855 -0.2298 -0.5387
 8295SOL     OW36346   3.918   4.560  12.405 -0.5522 -0.2864  0.0918
 8295SOL    HW136347   3.832   4.559  12.449 -0.9692  0.6080 -0.6937
 8295SOL    HW236348   3.885   4.580  12.318 -0.1877  0.3805  0.1096
 8296SOL     OW36349   2.699   2.778   0.114  0.1231 -0.1691  0.4304
 8296SOL    HW136350   2.666   2.809   0.198  1.6694 -0.6765  1.2201
 8296SOL    HW236351   2.788   2.750   0.136  0.2393  0.7442  1.0687
 8297SOL     OW36352   2.923   0.011   4.134  0.4785 -0.7215 -0.3182
 8297SOL    HW136353   2.997   0.005   4.073 -0.4372 -0.7188 -1.4400
 8297SOL    HW236354   2.891   0.095   4.101 -2.2049 -0.6944  2.4302
 8298SOL     OW36355   2.296   4.145   1.576  0.0851  0.0079  0.5569
 8298SOL    HW136356   2.334   4.068   1.619  0.0104  0.5706  1.6379
 8298SOL    HW236357   2.244   4.191   1.642 -1.2823  0.1051 -0.5728
 8299SOL     OW36358   2.602   4.604   5.491 -0.3614  0.4939  0.0849
 8299SOL    HW136359   2.512   4.603   5.461 -0.3372 -0.1445  0.0420
 8299SOL    HW236360   2.589   4.621   5.584  1.2360  1.5213  0.1308
 8300SOL     OW36361   4.690   0.065   6.967  0.5883 -0.1518 -0.8959
 8300SOL    HW136362   0.035   0.124   7.000 -1.1094  1.6105 -0.5189
 8300SOL    HW236363   4.708   4.705   7.010  0.3686  1.0332  1.5185
 8301SOL     OW36364   0.263   2.531   7.712  0.4929  0.1978 -0.5212
 8301SOL    HW136365   0.317   2.556   7.637  0.3737 -1.8674 -1.2867
 8301SOL    HW236366   0.188   2.590   7.707  0.8440  0.6871  0.0045
 8302SOL     OW36367   3.190   1.943   7.153 -0.3832  0.6645 -0.6607
 8302SOL    HW136368   3.278   1.911   7.173 -0.9365  0.0615  0.8216
 8302SOL    HW236369   3.189   1.913   7.062 -0.2672 -0.2753 -0.3568
 8303SOL     OW36370   2.638   2.590   7.371 -0.5157 -0.4251 -0.5704
 8303SOL    HW136371   2.543   2.579   7.366 -0.5741 -0.1723 -0.0633
 8303SOL    HW236372   2.660   2.664   7.315  0.7903  0.5619  1.2385
 8304SOL     OW36373   2.370   0.886  10.112 -0.3654 -0.1432 -0.2840
 8304SOL    HW136374   2.424   0.806  10.117  0.4072  0.3335 -1.0347
 8304SOL    HW236375   2.406   0.913  10.028  1.1290  2.3681  1.1835
 8305SOL     OW36376   3.197   0.908  10.513 -0.6545  0.0300 -0.5356
 8305SOL    HW136377   3.222   0.956  10.592 -0.4789  2.8378 -2.2745
 8305SOL    HW236378   3.287   0.902  10.479  0.2459  0.8618  1.6855
 8306SOL     OW36379   4.650   2.623   6.015 -0.2395  0.2735 -0.0576
 8306SOL    HW136380   4.585   2.680   5.973  0.2485  1.7456  1.1849
 8306SOL    HW236381   4.616   2.536   5.991 -2.1078  1.2886 -1.0908
 8307SOL     OW36382   4.697   4.263   7.430  0.0398 -0.0861  0.6403
 8307SOL    HW136383   4.653   4.257   7.515 -0.1469 -0.9103  0.4803
 8307SOL    HW236384   4.622   4.286   7.374 -0.7638  0.2961  1.8567
 8308SOL     OW36385   4.266   2.717   7.110 -0.0196 -0.8510 -0.5965
 8308SOL    HW136386   4.237   2.808   7.116  0.1044 -0.8494 -0.0446
 8308SOL    HW236387   4.209   2.686   7.039  1.3231 -0.8302 -1.6843
 8309SOL     OW36388   2.563   0.911  11.749  0.0138  0.7370 -0.2366
 8309SOL    HW136389   2.597   0.907  11.839 -0.6056  0.1397 -0.0220
 8309SOL    HW236390   2.612   0.842  11.704  0.4990 -0.3978  2.0267
 8310SOL     OW36391   4.672   0.948   2.928  0.0354  0.8247 -0.6952
 8310SOL    HW136392   0.011   0.876   2.929 -1.5546 -0.5368  0.0970
 8310SOL    HW236393   4.649   0.963   2.836 -0.4066  0.4623 -0.6389
 8311SOL     OW36394   2.321   4.094   3.281  0.5530 -0.5605  0.1765
 8311SOL    HW136395   2.271   4.173   3.300  0.9756 -0.5510  1.2787
 8311SOL    HW236396   2.406   4.130   3.306 -0.1891 -0.5162  2.7146
 8312SOL     OW36397   4.145   2.897   0.155  0.7536  1.1200 -0.3484
 8312SOL    HW136398   4.128   2.986   0.126  0.3738  0.8199 -1.0513
 8312SOL    HW236399   4.140   2.856   0.069  0.8502 -0.1858  0.2662
 8313SOL     OW36400   0.413   1.111   4.845  0.1624 -0.1238 -0.6098
 8313SOL    HW136401   0.424   1.172   4.773  0.7567 -1.1490 -1.3813
 8313SOL    HW236402   0.485   1.051   4.825 -0.7554 -1.2938 -0.3754
 8314SOL     OW36403   0.180   0.093   2.399  0.3801  1.2767 -0.2791
 8314SOL    HW136404   0.092   0.060   2.415  1.4416 -0.6825  1.4163
 8314SOL    HW236405   0.175   0.177   2.445  0.7154  0.8103  0.5935
 8315SOL     OW36406   4.582   4.649  15.393  0.5183 -0.2873  0.0110
 8315SOL    HW136407   4.509   4.659  15.332  0.0213 -1.6571  0.3950
 8315SOL    HW236408   4.652   4.632  15.330  0.1315  0.8207 -0.7217
 8316SOL     OW36409   1.539   2.813  13.904 -0.3207 -0.2598  0.4064
 8316SOL    HW136410   1.533   2.886  13.843  0.7554 -1.4971 -1.1819
 8316SOL    HW236411   1.534   2.735  13.848  0.3669 -1.4421  1.9699
 8317SOL     OW36412   0.201   1.226   0.746 -0.1289  0.3595  0.5616
 8317SOL    HW136413   0.206   1.296   0.810  1.4584  1.5466 -0.8463
 8317SOL    HW236414   0.264   1.157   0.768 -2.2865 -1.9668 -0.6272
 8318SOL     OW36415   1.921   0.771  11.665  0.4215 -0.4033  0.8166
 8318SOL    HW136416   1.910   0.705  11.597 -0.6636 -0.9005  1.4904
 8318SOL    HW236417   1.991   0.828  11.632 -1.3760  1.5490  0.3243
 8319SOL     OW36418   0.921   2.516   7.702  0.2276  0.2141 -0.2837
 8319SOL    HW136419   0.885   2.535   7.616 -0.0851  0.0858 -0.1801
 8319SOL    HW236420   0.931   2.422   7.685  0.9252 -0.1755  2.2325
 8320SOL     OW36421   1.837   0.935  16.416 -0.5478  0.2169 -0.0237
 8320SOL    HW136422   1.807   0.877  16.486 -0.4993 -1.0461 -1.0492
 8320SOL    HW236423   1.830   1.023  16.452 -0.4238  0.3252 -0.2625
 8321SOL     OW36424   0.000   3.559   6.222 -0.3591  0.0633  0.1212
 8321SOL    HW136425   0.005   3.550   6.127  1.8230 -2.2574  0.4695
 8321SOL    HW236426   0.010   3.467   6.247  3.7163  0.9243  1.5897
 8322SOL     OW36427   3.118   3.939  13.652 -0.0593 -0.6053  0.1348
 8322SOL    HW136428   3.068   3.903  13.725 -2.6619  1.7040 -0.4717
 8322SOL    HW236429   3.090   3.885  13.578 -1.2684 -0.4134  0.4408
 8323SOL     OW36430   1.434   1.861   7.437 -0.4551  0.0013  0.4910
 8323SOL    HW136431   1.505   1.848   7.373  0.1098  0.2296  1.0784
 8323SOL    HW236432   1.441   1.951   7.468 -2.6054  0.8511 -1.4649
 8324SOL     OW36433   3.325   1.776   5.220  0.0709  0.2955 -0.1045
 8324SOL    HW136434   3.415   1.809   5.226 -0.0097  0.5312 -0.1662
 8324SOL    HW236435   3.333   1.683   5.238  2.5838  0.2123 -1.6284
 8325SOL     OW36436   4.106   1.945  12.143  0.0517  0.3386 -0.4899
 8325SOL    HW136437   4.058   1.947  12.060  1.7755 -0.1230 -1.4944
 8325SOL    HW236438   4.039   1.979  12.203 -0.9426  0.8059 -1.8620
 8326SOL     OW36439   1.789   3.213  13.380  0.0205 -0.3446 -0.5493
 8326SOL    HW136440   1.802   3.171  13.295 -1.7441  1.3975 -1.6634
 8326SOL    HW236441   1.748   3.297  13.359  0.2523  0.1068  0.8226
 8327SOL     OW36442   2.080   1.822   2.399 -0.1035 -0.7897  0.5006
 8327SOL    HW136443   2.052   1.730   2.397 -0.8081 -0.5310 -1.4516
 8327SOL    HW236444   2.067   1.842   2.492  0.2344  0.3701  0.2990
 8328SOL     OW36445   4.172   2.769   3.462 -0.6313 -0.7879 -0.7583
 8328SOL    HW136446   4.090   2.724   3.486 -2.5765  4.0204  1.6025
 8328SOL    HW236447   4.238   2.700   3.457 -1.2463 -1.4416  0.0772
 8329SOL     OW36448   0.702   1.171  11.786 -0.0568  0.2054  0.3898
 8329SOL    HW136449   0.746   1.087  11.800  2.1879  1.2236 -0.5394
 8329SOL    HW236450   0.760   1.238  11.823 -0.6942  0.3499  1.1380
 8330SOL     OW36451   1.466   3.740   6.318 -0.1536  0.5892 -0.2107
 8330SOL    HW136452   1.395   3.803   6.306  0.7197  1.6959  0.4352
 8330SOL    HW236453   1.435   3.686   6.391 -1.4123  2.2733  0.4769
 8331SOL     OW36454   3.767   4.521   9.977 -0.1231 -0.1467  0.3443
 8331SOL    HW136455   3.702   4.555  10.038  1.6980  1.8137  1.1920
 8331SOL    HW236456   3.715   4.462   9.922 -0.0463  1.6790 -1.7173
 8332SOL     OW36457   0.731   0.496   0.245  0.1117  0.4707  0.6833
 8332SOL    HW136458   0.757   0.506   0.153  0.8577 -1.4604  0.6747
 8332SOL    HW236459   0.728   0.401   0.255  4.1404  0.4299  1.5941
 8333SOL     OW36460   3.219   1.603   7.965  0.7122  0.2402  0.5447
 8333SOL    HW136461   3.289   1.539   7.953 -0.5015 -0.5311 -2.2310
 8333SOL    HW236462   3.143   1.551   7.994  3.6591 -4.2938  0.2056
 8334SOL     OW36463   1.447   2.331   1.944 -0.2102  0.2814 -0.1276
 8334SOL    HW136464   1.500   2.410   1.953  0.9911 -0.3782 -1.4536
 8334SOL    HW236465   1.401   2.320   2.028 -2.7975  0.0107 -1.5701
 8335SOL     OW36466   4.448   4.263  15.108 -0.7051 -0.0431 -0.2675
 8335SOL    HW136467   4.370   4.236  15.060 -0.6504 -0.9787  0.1753
 8335SOL    HW236468   4.493   4.325  15.051 -0.7570 -0.0511 -0.3173
 8336SOL     OW36469   2.511   1.248   5.695  0.3784 -0.6588 -0.3594
 8336SOL    HW136470   2.605   1.261   5.698  0.1616  0.7023  0.6291
 8336SOL    HW236471   2.488   1.243   5.788  1.1695  0.8652 -0.0877
 8337SOL     OW36472   4.654   2.192   5.865 -0.0060  0.5036  0.4112
 8337SOL    HW136473   4.661   2.149   5.950 -1.5459  0.4108  0.4944
 8337SOL    HW236474   4.577   2.245   5.887 -1.0901 -0.6907 -0.5652
 8338SOL     OW36475   4.205   2.495  15.044  0.5003  0.2555 -0.4269
 8338SOL    HW136476   4.290   2.452  15.032 -0.6636 -1.9855 -0.4888
 8338SOL    HW236477   4.144   2.424  15.023  0.6138 -0.0039  0.1374
 8339SOL     OW36478   0.021   1.640  12.964 -0.1708  0.0732  0.1203
 8339SOL    HW136479   4.723   1.722  13.008 -0.5791 -0.0839  0.2065
 8339SOL    HW236480   0.024   1.671  12.873 -0.0150 -0.8664 -0.1984
 8340SOL     OW36481   0.760   2.201   4.773 -0.4424 -0.1624 -0.1503
 8340SOL    HW136482   0.701   2.126   4.781 -0.1769 -0.4182 -0.5592
 8340SOL    HW236483   0.793   2.166   4.689 -1.7442 -0.5492 -0.5000
 8341SOL     OW36484   1.625   3.248   7.431 -0.0299  0.1620 -0.2356
 8341SOL    HW136485   1.635   3.233   7.525 -1.5333  0.8888  0.0264
 8341SOL    HW236486   1.535   3.219   7.420 -0.4858  2.0497 -1.3454
 8342SOL     OW36487   1.354   3.132   7.461  0.0574  0.3166  0.2569
 8342SOL    HW136488   1.273   3.158   7.506  0.7320 -0.2192  1.7572
 8342SOL    HW236489   1.407   3.088   7.526  1.7191  0.5667 -0.9262
 8343SOL     OW36490   1.742   4.701   9.021  0.3744  0.0869 -0.0989
 8343SOL    HW136491   1.731   4.606   9.013  2.3076 -0.1119 -0.3766
 8343SOL    HW236492   1.657   0.006   9.053 -0.0077 -3.0744  1.7454
 8344SOL     OW36493   4.344   1.687   4.611  0.3932 -0.9896 -0.1973
 8344SOL    HW136494   4.289   1.686   4.689  2.0685 -1.9412  0.9713
 8344SOL    HW236495   4.322   1.774   4.578 -0.1687 -0.9325  0.3184
 8345SOL     OW36496   2.566   1.441   8.341  0.1259  0.3875  1.1874
 8345SOL    HW136497   2.534   1.402   8.423  0.3002  2.7216  2.3841
 8345SOL    HW236498   2.659   1.453   8.361  0.4857 -3.4733  1.8873
 8346SOL     OW36499   1.397   1.610   6.915  0.5369  0.3338 -0.6579
 8346SOL    HW136500   1.337   1.680   6.938  0.9117  0.5916 -0.4601
 8346SOL    HW236501   1.339   1.534   6.924 -0.5571  1.0858 -1.3799
 8347SOL     OW36502   4.718   1.645   6.585  0.1941 -0.0360  0.3247
 8347SOL    HW136503   4.719   1.696   6.666  0.0919 -0.5328  0.6432
 8347SOL    HW236504   0.088   1.631   6.572  0.1391  1.0189 -1.2005
 8348SOL     OW36505   1.433   0.583   4.105  0.4660  0.3754 -0.0545
 8348SOL    HW136506   1.389   0.519   4.049  1.3106 -0.1976 -0.0511
 8348SOL    HW236507   1.472   0.644   4.042 -0.6773  0.7747 -0.3793
 8349SOL     OW36508   1.557   2.187   5.382 -0.0240 -0.1932 -0.4177
 8349SOL    HW136509   1.634   2.135   5.401 -1.8769 -3.1028 -0.8400
 8349SOL    HW236510   1.500   2.126   5.429 -0.8258 -0.2090 -1.4068
 8350SOL     OW36511   1.613   2.670   7.947  0.7357 -0.2432  0.0315
 8350SOL    HW136512   1.589   2.723   8.023  1.9038 -2.2313  1.7821
 8350SOL    HW236513   1.539   2.696   7.892 -0.1973  1.7077  2.2162
 8351SOL     OW36514   1.424   4.198   1.523  0.1442 -0.3020  0.2054
 8351SOL    HW136515   1.432   4.270   1.461  1.0990 -0.5146  0.0738
 8351SOL    HW236516   1.517   4.178   1.534  0.1967  0.8362  1.7674
 8352SOL     OW36517   0.528   4.320  12.138  0.1754 -0.0355 -0.6231
 8352SOL    HW136518   0.503   4.412  12.139 -1.1252 -0.3896 -1.1128
 8352SOL    HW236519   0.591   4.317  12.066  1.0877  0.2454  0.1629
 8353SOL     OW36520   1.816   4.187  11.143 -0.6805 -0.2146  0.4746
 8353SOL    HW136521   1.776   4.119  11.196 -2.1464  0.6873  0.5369
 8353SOL    HW236522   1.901   4.150  11.119 -1.0450 -1.1974  0.7051
 8354SOL     OW36523   3.260   2.204   2.758 -0.7609  0.0890  0.2754
 8354SOL    HW136524   3.218   2.118   2.759  1.5562 -1.0256  1.9739
 8354SOL    HW236525   3.178   2.249   2.739 -1.1428 -0.5345  0.4429
 8355SOL     OW36526   1.661   1.140   8.327 -0.4782  0.4632 -0.0814
 8355SOL    HW136527   1.585   1.186   8.363 -1.0928 -1.8080  1.5619
 8355SOL    HW236528   1.632   1.049   8.318 -0.0007  0.2590  0.4188
 8356SOL     OW36529   1.612   3.423   9.626 -0.1915 -0.4285 -0.8453
 8356SOL    HW136530   1.593   3.505   9.579  0.7212  0.5097  0.4120
 8356SOL    HW236531   1.708   3.433   9.628 -0.0592 -0.7799 -4.0943
 8357SOL     OW36532   0.510   4.267   7.463 -0.2223  0.4822  0.5435
 8357SOL    HW136533   0.578   4.294   7.401 -0.9966  0.4136 -0.3411
 8357SOL    HW236534   0.561   4.254   7.543 -0.3586  1.3141  0.7608
 8358SOL     OW36535   1.813   1.570   1.006 -0.1646  0.3576  0.2334
 8358SOL    HW136536   1.797   1.592   1.098  2.9321 -0.4807  0.9805
 8358SOL    HW236537   1.897   1.613   0.992  0.4939 -0.3007  2.2248
 8359SOL     OW36538   2.074   4.574   1.808 -0.3084  0.5209 -0.0661
 8359SOL    HW136539   2.001   4.539   1.859  1.3230 -1.5187  0.8557
 8359SOL    HW236540   2.034   4.640   1.751 -1.0776 -0.1573 -0.3063
 8360SOL     OW36541   0.433   0.751   4.246 -0.6981 -0.3350  0.5319
 8360SOL    HW136542   0.353   0.799   4.266  1.0723  2.2991  1.3242
 8360SOL    HW236543   0.407   0.684   4.183 -1.5519 -0.6820  1.2652
 8361SOL     OW36544   1.767   1.577   5.232 -0.0663 -0.3734  0.2311
 8361SOL    HW136545   1.790   1.574   5.140  1.7380 -2.4519  0.7508
 8361SOL    HW236546   1.689   1.629   5.212 -0.0980 -0.1816  0.8375
 8362SOL     OW36547   2.322   3.660   2.540 -0.0718  0.0208  0.1390
 8362SOL    HW136548   2.356   3.613   2.616 -2.1831 -0.5162  0.7407
 8362SOL    HW236549   2.233   3.669   2.573 -0.4566 -1.7654 -0.4083
 8363SOL     OW36550   4.424   4.470  16.221 -0.1158  0.2842 -0.1025
 8363SOL    HW136551   4.363   4.481  16.294 -1.8961  2.3470 -1.9101
 8363SOL    HW236552   4.359   4.434  16.159 -0.3472 -1.1156  0.9404
 8364SOL     OW36553   0.604   3.558   9.920 -0.9201  0.2051 -0.5004
 8364SOL    HW136554   0.692   3.527   9.944 -0.2350  2.7035  0.2140
 8364SOL    HW236555   0.545   3.507   9.975  0.1904 -1.2682 -0.6490
 8365SOL     OW36556   3.831   0.352   8.517  0.3324  0.0561 -0.1847
 8365SOL    HW136557   3.777   0.431   8.527  1.7685  0.7565  2.0271
 8365SOL    HW236558   3.922   0.374   8.538  1.0776 -1.3586 -1.9083
 8366SOL     OW36559   2.206   2.674   6.759  0.1741 -1.0719  0.5105
 8366SOL    HW136560   2.191   2.677   6.665 -0.0648  1.0741  0.6226
 8366SOL    HW236561   2.238   2.762   6.777 -2.0005 -0.9626  3.8641
 8367SOL     OW36562   2.609   1.215   0.684 -0.4379 -0.1152 -0.6498
 8367SOL    HW136563   2.575   1.213   0.774  2.4503 -0.7295  0.4088
 8367SOL    HW236564   2.699   1.237   0.709 -1.5752  1.0481  2.4813
 8368SOL     OW36565   1.468   2.119   4.324  0.2180 -0.3910 -0.7926
 8368SOL    HW136566   1.533   2.131   4.255 -0.8600 -1.2374 -1.9587
 8368SOL    HW236567   1.453   2.202   4.371 -1.0984 -0.9116 -0.3024
 8369SOL     OW36568   0.281   4.147   1.246  0.6420  0.2778 -0.1527
 8369SOL    HW136569   0.248   4.143   1.335  0.5157  1.2659 -0.1564
 8369SOL    HW236570   0.236   4.226   1.217 -0.3809 -0.2787 -0.0862
 8370SOL     OW36571   0.238   1.727   5.741 -0.3051  0.0460 -0.7134
 8370SOL    HW136572   0.317   1.764   5.703  0.6237 -0.0692  1.0928
 8370SOL    HW236573   0.182   1.729   5.664 -2.9066  1.9351  1.2049
 8371SOL     OW36574   1.135   3.480   5.044 -0.1484  0.2730 -0.7621
 8371SOL    HW136575   1.157   3.547   5.109 -0.9227 -0.5765  0.3664
 8371SOL    HW236576   1.050   3.446   5.071  0.2699 -0.4685 -0.3751
 8372SOL     OW36577   0.468   3.841   7.684 -0.3535  0.2774  0.1262
 8372SOL    HW136578   0.534   3.816   7.619 -0.3785  0.3141  0.0864
 8372SOL    HW236579   0.456   3.760   7.733  0.4747  1.5850  2.5479
 8373SOL     OW36580   3.826   4.234   2.598  0.3053  0.0311  0.3704
 8373SOL    HW136581   3.795   4.309   2.648 -0.1956 -0.4517  0.7875
 8373SOL    HW236582   3.900   4.200   2.649 -1.0576 -0.5133  1.9597
 8374SOL     OW36583   1.780   3.719   7.846  0.0838  0.0187 -0.4370
 8374SOL    HW136584   1.748   3.803   7.879  0.2376 -0.4006  0.7831
 8374SOL    HW236585   1.800   3.677   7.930  0.3161 -2.4030 -1.6979
 8375SOL     OW36586   0.463   3.206   9.134  0.5089  0.7773  0.3186
 8375SOL    HW136587   0.483   3.296   9.157  0.1664  1.1488 -0.8100
 8375SOL    HW236588   0.531   3.192   9.067 -0.0449 -0.0411 -0.0784
 8376SOL     OW36589   3.105   1.600   3.691  0.3013  0.3234 -0.1105
 8376SOL    HW136590   3.047   1.530   3.661  0.6538  1.9496 -4.5210
 8376SOL    HW236591   3.040   1.648   3.742  0.1610 -1.0986  1.0688
 8377SOL     OW36592   2.161   2.108   0.560  0.2139 -0.3587 -0.0253
 8377SOL    HW136593   2.086   2.090   0.504 -0.0983  0.1056  0.2448
 8377SOL    HW236594   2.198   2.021   0.573  0.5109 -0.0829  0.9831
 8378SOL     OW36595   3.525   0.073   5.942 -0.1232  0.5390 -0.4132
 8378SOL    HW136596   3.496   4.711   5.911  2.7083 -1.4127  2.4331
 8378SOL    HW236597   3.609   0.091   5.898  0.4654 -1.0262  0.0995
 8379SOL     OW36598   2.346   0.856  16.192  0.2188  0.0560 -0.1511
 8379SOL    HW136599   2.367   0.946  16.165  0.2279  0.4056  1.0206
 8379SOL    HW236600   2.316   0.871  16.282 -0.4203 -1.0601 -0.1751
 8380SOL     OW36601   2.676   2.070   7.296 -0.2128 -0.2992  0.0209
 8380SOL    HW136602   2.660   2.054   7.389  1.2843 -3.1952 -0.2179
 8380SOL    HW236603   2.674   2.166   7.290 -1.8198 -0.2359  1.6128
 8381SOL     OW36604   0.822   1.156   5.882  0.5352 -0.2375  0.3484
 8381SOL    HW136605   0.729   1.161   5.904  0.1723 -0.8968 -0.9930
 8381SOL    HW236606   0.826   1.115   5.795 -0.5924  0.5441 -0.0654
 8382SOL     OW36607   1.208   3.024   9.480 -0.5047  0.1315  0.9692
 8382SOL    HW136608   1.293   3.009   9.521 -0.8398  0.7586  1.8834
 8382SOL    HW236609   1.231   3.073   9.401 -2.7225 -0.7042 -0.2050
 8383SOL     OW36610   2.849   0.984  10.023  0.4888  0.4844 -0.1622
 8383SOL    HW136611   2.811   0.924   9.959  1.2129  0.1636 -0.2974
 8383SOL    HW236612   2.934   0.942  10.037  0.3457 -0.2204 -1.3904
 8384SOL     OW36613   1.150   1.023  15.418  0.1848  0.7257 -0.2186
 8384SOL    HW136614   1.082   0.986  15.474  1.3568  0.3992  0.9970
 8384SOL    HW236615   1.093   1.099  15.405 -0.5367  0.0819 -0.7812
 8385SOL     OW36616   1.485   1.827   4.615  0.4133 -0.5103  0.2546
 8385SOL    HW136617   1.475   1.747   4.564  1.7149  0.2463 -1.1712
 8385SOL    HW236618   1.414   1.810   4.677  1.6075 -0.6965  1.5867
 8386SOL     OW36619   0.427   0.314   8.904  0.1315  0.0539  0.1958
 8386SOL    HW136620   0.373   0.242   8.871  0.7514 -0.9984  1.4980
 8386SOL    HW236621   0.368   0.329   8.978  0.7843  0.4899  0.6263
 8387SOL     OW36622   3.729   0.716   6.293 -0.3006 -0.6836  0.0017
 8387SOL    HW136623   3.749   0.808   6.308 -3.5712 -0.1266  0.9075
 8387SOL    HW236624   3.820   0.698   6.270 -0.0996  0.9673 -0.5080
 8388SOL     OW36625   0.880   0.419   7.055  0.4014  0.2894 -0.5191
 8388SOL    HW136626   0.809   0.430   6.993  2.4065 -0.6636 -2.9802
 8388SOL    HW236627   0.833   0.475   7.117  1.5051  1.4082 -0.7029
 8389SOL     OW36628   2.619   1.272   4.028 -0.0552  0.3581 -0.0638
 8389SOL    HW136629   2.675   1.203   3.993  0.8833  0.8834  0.3872
 8389SOL    HW236630   2.653   1.267   4.118 -1.9792  2.4896  0.7737
 8390SOL     OW36631   2.962   1.401   4.699 -0.5304  0.0787 -0.1744
 8390SOL    HW136632   3.055   1.384   4.716 -0.1793  0.5329 -1.6719
 8390SOL    HW236633   2.924   1.372   4.782 -3.4730  1.7627 -0.9330
 8391SOL     OW36634   4.110   0.553  10.819 -0.5632  0.4199  0.3384
 8391SOL    HW136635   4.085   0.487  10.753  3.0483  0.1576 -0.7786
 8391SOL    HW236636   4.064   0.628  10.781  0.1393  0.0594 -1.2313
 8392SOL     OW36637   1.126   1.899   7.409  0.1807 -0.1633 -0.6110
 8392SOL    HW136638   1.169   1.813   7.413  2.9221  1.0851 -2.5725
 8392SOL    HW236639   1.131   1.931   7.499 -0.8023 -0.8201 -0.3275
 8393SOL     OW36640   3.231   1.306   1.953  0.0290  0.1528 -0.1215
 8393SOL    HW136641   3.281   1.307   1.871 -1.5449 -1.3866 -1.1072
 8393SOL    HW236642   3.293   1.342   2.016  0.4713  2.9560 -2.2018
 8394SOL     OW36643   4.516   0.587  11.226 -0.2768  0.6826 -0.3770
 8394SOL    HW136644   4.570   0.666  11.230 -0.0958  0.3604  3.4840
 8394SOL    HW236645   4.575   0.535  11.172  1.1993 -1.4964  3.3265
 8395SOL     OW36646   3.156   1.488   1.562 -0.6644  0.1820 -0.0026
 8395SOL    HW136647   3.147   1.583   1.568  1.7377  0.3881  0.2381
 8395SOL    HW236648   3.068   1.457   1.583 -0.7208  0.4408  0.1288
 8396SOL     OW36649   4.241   1.310   2.079 -0.1663 -0.3375  0.4552
 8396SOL    HW136650   4.263   1.292   2.171  0.4459  1.2402  0.6172
 8396SOL    HW236651   4.284   1.231   2.044 -0.4875 -0.5467  0.5318
 8397SOL     OW36652   3.250   4.180   8.858  0.0247  0.1324 -0.0811
 8397SOL    HW136653   3.309   4.152   8.928  0.2344 -1.9572 -1.0885
 8397SOL    HW236654   3.204   4.097   8.849 -0.8025  0.6644 -0.7994
 8398SOL     OW36655   1.858   4.694  12.366 -0.3384 -1.0002 -0.2563
 8398SOL    HW136656   1.943   4.685  12.323  1.2374  1.3129  2.4217
 8398SOL    HW236657   1.806   0.012  12.298 -1.0121 -1.2461  0.1052
 8399SOL     OW36658   1.867   4.651   4.702  0.1590  0.5237 -0.3484
 8399SOL    HW136659   1.900   4.600   4.776 -0.9154  0.0276 -0.2244
 8399SOL    HW236660   1.948   4.695   4.676  1.2135 -1.0469  0.2599
 8400SOL     OW36661   2.743   0.561   3.385 -0.6815  0.1456  0.3978
 8400SOL    HW136662   2.706   0.637   3.430 -2.1359 -1.3023  1.7006
 8400SOL    HW236663   2.665   0.506   3.377 -0.5540  0.0786 -0.3447
 8401SOL     OW36664   0.267   3.664   6.138 -0.1657  0.0923  0.1922
 8401SOL    HW136665   0.200   3.655   6.206  1.0235 -2.3434  1.0238
 8401SOL    HW236666   0.298   3.754   6.151 -1.1015  0.3339  0.7547
 8402SOL     OW36667   1.908   3.962   8.971 -0.1460 -0.6903  0.4771
 8402SOL    HW136668   1.964   3.930   9.042 -0.9747  1.9451  2.3375
 8402SOL    HW236669   1.897   3.887   8.913  0.7161 -0.1280 -0.3920
 8403SOL     OW36670   0.591   0.410   7.884 -0.3389 -0.1132  0.7559
 8403SOL    HW136671   0.628   0.470   7.950 -1.4910  0.1668  1.1408
 8403SOL    HW236672   0.673   0.385   7.840  0.0917  0.6707  1.1016
 8404SOL     OW36673   4.661   0.226   4.276  0.2245  0.0485  0.0695
 8404SOL    HW136674   4.708   0.150   4.311  0.2942  0.6054  1.1936
 8404SOL    HW236675   4.690   0.302   4.327  2.1905 -0.8503  0.2947
 8405SOL     OW36676   1.546   0.724   2.111  0.1939 -0.4404  0.3759
 8405SOL    HW136677   1.567   0.796   2.170 -1.0123 -0.1557  0.4773
 8405SOL    HW236678   1.540   0.774   2.029  1.5988 -0.8406  0.0399
 8406SOL     OW36679   1.818   0.050  10.589 -0.0064 -0.4307 -0.1526
 8406SOL    HW136680   1.747   0.087  10.536  1.7683 -0.7510 -2.7873
 8406SOL    HW236681   1.776   4.718  10.654 -0.8790 -1.1627 -1.3310
 8407SOL     OW36682   1.676   4.444  11.570  0.6442 -0.0664  0.1891
 8407SOL    HW136683   1.698   4.390  11.494  0.4791  1.2435 -0.7831
 8407SOL    HW236684   1.617   4.510  11.534  0.3477  0.5143  1.7241
 8408SOL     OW36685   2.653   4.001   3.571 -0.0995 -0.0880  0.0244
 8408SOL    HW136686   2.593   3.946   3.521  0.9411 -0.3321 -0.9607
 8408SOL    HW236687   2.586   4.059   3.606 -2.4429 -2.3172 -0.8203
 8409SOL     OW36688   0.343   3.144   8.687  0.5039  0.2645  0.3056
 8409SOL    HW136689   0.260   3.125   8.643  0.6090  1.8834 -0.6042
 8409SOL    HW236690   0.335   3.101   8.772  1.6388  1.5251  1.0613
 8410SOL     OW36691   2.578   0.605   1.507 -0.0275  0.0431  0.7836
 8410SOL    HW136692   2.641   0.678   1.506  0.1832 -0.1477 -0.2687
 8410SOL    HW236693   2.639   0.545   1.549  0.8096 -1.7123 -2.8847
 8411SOL     OW36694   3.438   0.812   4.251 -0.3601 -0.1763 -0.1912
 8411SOL    HW136695   3.346   0.840   4.244 -0.1290  0.2569 -1.4411
 8411SOL    HW236696   3.440   0.778   4.162  0.4856  0.8267 -0.5552
 8412SOL     OW36697   2.938   1.753   3.519  0.1565  0.9939  0.0901
 8412SOL    HW136698   3.024   1.754   3.561 -0.3548  0.8919  1.1318
 8412SOL    HW236699   2.949   1.821   3.452 -0.7250 -0.4426 -1.4946
 8413SOL     OW36700   2.029   2.170   4.569  0.1074 -0.0001 -0.0438
 8413SOL    HW136701   2.068   2.190   4.654 -0.5432  1.6020 -0.1228
 8413SOL    HW236702   2.088   2.099   4.541  2.6667  1.9641  0.4166
 8414SOL     OW36703   0.211   2.231   0.517  0.6172 -0.1914 -0.4734
 8414SOL    HW136704   0.175   2.143   0.508 -2.4320  1.0655 -0.3827
 8414SOL    HW236705   0.133   2.278   0.546  0.8916  0.9414 -1.5983
 8415SOL     OW36706   2.600   4.435   3.099  0.2188 -0.0748  0.0945
 8415SOL    HW136707   2.514   4.454   3.062 -0.5644 -2.6338  0.5453
 8415SOL    HW236708   2.662   4.488   3.048  1.1818  1.3600  2.7287
 8416SOL     OW36709   4.225   0.973   5.347 -0.7489  0.2010 -0.1736
 8416SOL    HW136710   4.298   0.916   5.324 -1.2591 -1.3470  2.0465
 8416SOL    HW236711   4.246   0.984   5.440 -2.5117  1.8006  0.0436
 8417SOL     OW36712   1.345   4.019   6.793 -0.1792  0.0071  0.5445
 8417SOL    HW136713   1.364   4.077   6.719  3.6385 -0.1697  1.4058
 8417SOL    HW236714   1.254   3.992   6.782  0.8190 -1.0272 -4.9640
 8418SOL     OW36715   3.138   0.719  15.611  0.1342 -0.0366 -0.6145
 8418SOL    HW136716   3.088   0.662  15.669  0.6812 -0.2587 -0.3596
 8418SOL    HW236717   3.080   0.722  15.535  1.6860  2.4417 -1.6863
 8419SOL     OW36718   3.788   4.245   3.064 -0.3165  0.1404 -0.1198
 8419SOL    HW136719   3.852   4.301   3.109  0.2473 -2.4836  2.3631
 8419SOL    HW236720   3.780   4.164   3.115  1.5017 -0.4609 -0.7901
 8420SOL     OW36721   1.910   4.582  11.219 -0.2505  0.0961 -0.3944
 8420SOL    HW136722   1.897   4.653  11.282  0.5543  0.4382 -0.6036
 8420SOL    HW236723   1.893   4.514  11.284  2.8720  2.1004  2.5376
 8421SOL     OW36724   1.801   2.796   2.448 -0.1387 -0.0929 -0.2994
 8421SOL    HW136725   1.883   2.844   2.460  1.0704 -2.3217  0.4077
 8421SOL    HW236726   1.828   2.726   2.389  2.5164 -0.7684  1.7226
 8422SOL     OW36727   4.620   3.595   3.303 -0.8524  0.2004  0.2822
 8422SOL    HW136728   4.655   3.582   3.391  0.7009  0.8135 -0.2491
 8422SOL    HW236729   4.652   3.521   3.253  1.9355  0.0942  2.2340
 8423SOL     OW36730   2.396   4.057   4.692  0.1711 -0.7763 -0.5114
 8423SOL    HW136731   2.405   3.965   4.719 -0.3785 -0.3208  1.2336
 8423SOL    HW236732   2.383   4.053   4.597 -0.2287 -1.7738 -0.4126
 8424SOL     OW36733   2.606   2.098   7.737  0.1340 -0.1198  0.2691
 8424SOL    HW136734   2.580   2.038   7.668 -1.7106  1.1878 -0.1854
 8424SOL    HW236735   2.665   2.152   7.683 -0.0580 -0.0048  0.1739
 8425SOL     OW36736   4.235   0.531   8.739 -0.2428  0.0002  0.5612
 8425SOL    HW136737   4.295   0.506   8.669 -1.9633 -1.1423 -0.4802
 8425SOL    HW236738   4.285   0.599   8.785 -0.7430  0.1589  0.8710
 8426SOL     OW36739   3.215   3.664   9.099  0.9028  0.0560  0.0214
 8426SOL    HW136740   3.137   3.670   9.045  1.1560  0.4345 -0.3005
 8426SOL    HW236741   3.232   3.569   9.099 -0.0603 -0.1288  1.8861
 8427SOL     OW36742   2.866   3.014   8.500 -0.0120  0.0157  0.3004
 8427SOL    HW136743   2.914   2.983   8.576  0.8992 -0.0953 -0.3164
 8427SOL    HW236744   2.897   3.104   8.484  0.8423 -0.1798  0.8587
 8428SOL     OW36745   4.151   3.737   3.606 -0.1521 -0.0127  0.1125
 8428SOL    HW136746   4.173   3.762   3.517  0.3748  2.4800  0.9360
 8428SOL    HW236747   4.226   3.773   3.654 -1.1424  0.8919  0.9990
 8429SOL     OW36748   3.033   3.885   4.705  0.1559 -0.1209 -0.1339
 8429SOL    HW136749   3.028   3.980   4.717 -2.4224 -0.2702 -0.0153
 8429SOL    HW236750   3.128   3.878   4.720 -0.1128 -3.0753  0.1151
 8430SOL     OW36751   2.312   2.503  13.467 -0.5718  0.1677 -0.2523
 8430SOL    HW136752   2.360   2.539  13.392 -1.1551  0.5179 -0.4501
 8430SOL    HW236753   2.229   2.474  13.429  0.0169 -1.3525 -0.3811
 8431SOL     OW36754   3.240   4.323   6.101  0.2805  0.3045 -0.1210
 8431SOL    HW136755   3.260   4.230   6.113  1.1529  0.6476  1.0611
 8431SOL    HW236756   3.147   4.334   6.120  0.1618  0.2458 -0.6612
 8432SOL     OW36757   3.080   3.684   6.941  0.2024  0.0920 -0.6471
 8432SOL    HW136758   3.055   3.640   6.860 -3.4462  1.6114 -0.3664
 8432SOL    HW236759   3.172   3.659   6.947  0.6845  1.5224 -1.9022
 8433SOL     OW36760   1.702   2.862   8.573 -0.2216 -0.4967 -0.4245
 8433SOL    HW136761   1.663   2.919   8.640 -0.6435 -1.1528 -0.1095
 8433SOL    HW236762   1.677   2.912   8.496 -0.8085  1.6409  1.1397
 8434SOL     OW36763   3.928   1.766  11.762  0.5363 -0.2505  0.5268
 8434SOL    HW136764   3.896   1.812  11.839  3.0917  1.9314  0.2815
 8434SOL    HW236765   4.018   1.757  11.795  1.7353 -0.5364 -2.8078
 8435SOL     OW36766   0.124   0.882  16.923 -0.0928 -0.0301  0.2004
 8435SOL    HW136767   0.190   0.949  16.902  0.1310 -0.1723  0.4457
 8435SOL    HW236768   0.157   0.816  16.862 -0.5512  0.8354 -0.9674
 8436SOL     OW36769   3.422   1.694   2.567  0.1068 -0.3771  0.0042
 8436SOL    HW136770   3.459   1.782   2.574 -0.7746  0.2532 -3.0294
 8436SOL    HW236771   3.350   1.720   2.510  1.4177  2.3257 -0.4360
 8437SOL     OW36772   1.732   0.696  16.989 -0.2466  0.4941  0.2829
 8437SOL    HW136773   1.806   0.657  16.943  0.9799  2.3131  0.7253
 8437SOL    HW236774   1.689   0.618  17.024 -0.5719  1.0809  1.1702
 8438SOL     OW36775   0.654   1.895  17.691 -0.7362  0.1291 -0.1989
 8438SOL    HW136776   0.669   1.907  17.597 -0.1009 -0.5861 -0.1913
 8438SOL    HW236777   0.567   1.933   0.005 -0.5147  0.6585 -0.2937
 8439SOL     OW36778   2.226   1.791   7.077 -0.0903  0.5097  0.6468
 8439SOL    HW136779   2.269   1.705   7.077 -0.7846  0.1551 -0.4065
 8439SOL    HW236780   2.191   1.808   6.990  1.2735 -4.5908 -0.8929
 8440SOL     OW36781   3.265   1.812   8.553 -0.0858  0.2992  0.2798
 8440SOL    HW136782   3.347   1.852   8.527  0.5948 -1.0896  0.3168
 8440SOL    HW236783   3.257   1.866   8.631  3.0471 -1.2129  1.6402
 8441SOL     OW36784   3.091   1.944  14.859 -0.2988  1.0671  0.4031
 8441SOL    HW136785   3.062   2.011  14.921 -1.1148 -0.2293  1.4112
 8441SOL    HW236786   3.064   1.979  14.774  0.0687 -0.1394 -0.2108
 8442SOL     OW36787   2.126   2.282  15.941  0.3398  0.4005 -0.3209
 8442SOL    HW136788   2.178   2.259  15.864 -1.1228 -0.0640 -1.1837
 8442SOL    HW236789   2.114   2.196  15.982 -1.3987 -0.2251 -2.1081
 8443SOL     OW36790   2.110   0.406  11.341 -0.0466 -0.4284 -0.8419
 8443SOL    HW136791   2.132   0.420  11.249 -3.6444  1.3882 -1.4115
 8443SOL    HW236792   2.046   0.336  11.328  0.6908 -1.5511  1.5092
 8444SOL     OW36793   4.273   1.252   6.028  0.5487  0.2516  0.2491
 8444SOL    HW136794   4.196   1.225   5.978  0.9988 -0.7049  0.0827
 8444SOL    HW236795   4.241   1.277   6.115  1.3785  0.0978  0.5996
 8445SOL     OW36796   2.360   0.140   5.559 -0.5564  0.4710 -0.2305
 8445SOL    HW136797   2.372   0.065   5.501  0.6413  0.2258  0.3312
 8445SOL    HW236798   2.298   0.188   5.504  0.2818  2.2443  0.3812
 8446SOL     OW36799   2.282   0.359   4.834  0.2339  0.0209 -0.3161
 8446SOL    HW136800   2.351   0.306   4.795  0.9264 -0.1381  1.1309
 8446SOL    HW236801   2.258   0.418   4.762 -1.9308 -0.9469 -0.3948
 8447SOL     OW36802   4.027   0.784   6.104  0.1846  0.1876  0.5476
 8447SOL    HW136803   4.080   0.705   6.113  0.5221  0.4714  1.0159
 8447SOL    HW236804   3.962   0.758   6.038  0.5322 -0.6859  0.5490
 8448SOL     OW36805   3.853   2.283   7.990 -0.9533 -0.2376 -0.9525
 8448SOL    HW136806   3.772   2.334   7.987 -0.2637  1.0253  1.6619
 8448SOL    HW236807   3.870   2.282   8.085  3.1127  0.6755 -1.6549
 8449SOL     OW36808   2.350   3.978   2.736  0.1421 -0.2321  0.3668
 8449SOL    HW136809   2.256   3.982   2.720  0.0403 -1.1955  0.7223
 8449SOL    HW236810   2.387   4.035   2.669 -0.3952 -0.9563 -0.5381
 8450SOL     OW36811   4.019   2.111   8.181  0.4166  0.1803  0.0033
 8450SOL    HW136812   4.113   2.110   8.201  0.4218  0.9100  0.0419
 8450SOL    HW236813   3.985   2.051   8.247 -1.1994 -0.3875 -1.3639
 8451SOL     OW36814   2.922   4.428   7.296  0.4618  0.1251  0.2853
 8451SOL    HW136815   2.836   4.429   7.254  0.3776 -1.1443  0.4310
 8451SOL    HW236816   2.896   4.381   7.375  2.6731 -0.2396  0.8049
 8452SOL     OW36817   3.986   1.670  12.342  0.3221 -0.0812  0.2283
 8452SOL    HW136818   3.932   1.749  12.345 -0.2486 -0.4865  0.7793
 8452SOL    HW236819   3.950   1.620  12.269  1.4587  0.0896 -0.4511
 8453SOL     OW36820   2.988   1.792   9.008  0.0583 -0.8206 -0.3551
 8453SOL    HW136821   2.939   1.775   9.088  1.1394  1.2916  0.7296
 8453SOL    HW236822   2.958   1.879   8.982  2.7241  0.6119  1.4050
 8454SOL     OW36823   4.208   4.068   8.463 -0.3373 -0.0796 -0.0402
 8454SOL    HW136824   4.248   3.995   8.511  2.2877  2.2597  1.3506
 8454SOL    HW236825   4.144   4.106   8.522 -0.9851 -0.0484 -0.7579
 8455SOL     OW36826   0.448   3.623   3.093 -0.3157 -0.4775 -0.5062
 8455SOL    HW136827   0.436   3.557   3.025 -0.8928 -0.1007 -0.7713
 8455SOL    HW236828   0.507   3.684   3.049 -0.5130  0.3576  0.3809
 8456SOL     OW36829   4.078   0.180   2.844  0.2079 -0.3466  0.0579
 8456SOL    HW136830   4.126   0.259   2.870  1.7583 -1.0021 -0.7827
 8456SOL    HW236831   4.129   0.147   2.771  1.2840  1.3807  0.0233
 8457SOL     OW36832   1.769   2.656   9.888 -0.1681  0.3986  0.1355
 8457SOL    HW136833   1.818   2.606   9.953 -1.4637 -2.4861 -1.0843
 8457SOL    HW236834   1.679   2.650   9.921 -0.0479  2.2597  0.8059
 8458SOL     OW36835   0.076   1.112   3.097  0.1235 -0.0658  0.1427
 8458SOL    HW136836   0.163   1.128   3.060  0.0045 -0.4298 -0.3030
 8458SOL    HW236837   0.037   1.057   3.029 -1.1930  0.2872  0.6208
 8459SOL     OW36838   3.719   1.207   2.157 -0.1772 -0.0282  0.0846
 8459SOL    HW136839   3.732   1.192   2.250  2.1623  0.0555 -0.2239
 8459SOL    HW236840   3.712   1.302   2.153 -0.2222 -0.0820 -1.1526
 8460SOL     OW36841   4.585   4.279   7.678  0.6989  0.0723  0.0190
 8460SOL    HW136842   4.499   4.300   7.641 -0.3193 -1.3862  1.5677
 8460SOL    HW236843   4.596   4.359   7.729 -0.6967 -0.2502  0.8219
 8461SOL     OW36844   3.119   3.491  11.761 -0.1092  0.5595  0.1503
 8461SOL    HW136845   3.048   3.492  11.824 -0.6953  1.0477 -0.5271
 8461SOL    HW236846   3.201   3.489  11.812 -0.4567 -0.0516  0.6859
 8462SOL     OW36847   4.604   1.061  12.269  0.1448  0.0639 -0.2556
 8462SOL    HW136848   4.677   1.045  12.210  0.0227  1.9222 -0.9134
 8462SOL    HW236849   4.634   1.016  12.348  1.4437  2.1143  0.4143
 8463SOL     OW36850   3.256   4.159   0.588 -0.5193  0.2362 -0.2993
 8463SOL    HW136851   3.238   4.182   0.679 -2.9203  2.5549 -1.3459
 8463SOL    HW236852   3.350   4.141   0.595 -1.2217 -3.5091 -0.2016
 8464SOL     OW36853   1.901   4.256   4.996 -0.5526  0.1819  0.6778
 8464SOL    HW136854   1.888   4.187   4.931  0.5923 -0.3129  0.9776
 8464SOL    HW236855   1.989   4.283   4.971 -0.3420  0.6009  1.8482
 8465SOL     OW36856   1.675   1.454   2.541  0.1822 -0.7884 -0.7485
 8465SOL    HW136857   1.757   1.449   2.590 -1.4816 -0.5601  2.0597
 8465SOL    HW236858   1.686   1.520   2.472  0.9937  1.5736  1.6289
 8466SOL     OW36859   4.717   1.139  15.654  0.2268 -0.0314  0.2612
 8466SOL    HW136860   4.673   1.130  15.569 -1.6074 -0.6066  1.2690
 8466SOL    HW236861   0.082   1.161  15.625 -0.6125  2.2271 -0.5719
 8467SOL     OW36862   0.779   3.183   7.515 -0.2633  0.5295 -0.1216
 8467SOL    HW136863   0.697   3.134   7.507  0.9964 -1.5973  0.2580
 8467SOL    HW236864   0.842   3.112   7.505 -0.7090  0.2050 -0.6844
 8468SOL     OW36865   2.592   4.399   3.575 -0.1124 -0.1534 -0.2039
 8468SOL    HW136866   2.557   4.337   3.639 -2.2863  2.5666  1.2462
 8468SOL    HW236867   2.545   4.365   3.500 -0.9523 -0.0072  0.2560
 8469SOL     OW36868   1.536   0.031   7.825 -0.7793 -0.0948  0.0639
 8469SOL    HW136869   1.622   0.066   7.799 -2.1485  2.7204 -0.7813
 8469SOL    HW236870   1.472   0.074   7.768 -0.1376  0.9868  0.1502
 8470SOL     OW36871   2.869   2.810   3.690 -0.1462  0.5056  0.0658
 8470SOL    HW136872   2.799   2.813   3.756 -0.5643  2.0975 -0.4460
 8470SOL    HW236873   2.945   2.779   3.739  0.2069 -0.2043 -0.9345
 8471SOL     OW36874   3.344   4.117   9.509  0.0730 -0.1357  0.3807
 8471SOL    HW136875   3.417   4.174   9.535  0.2137  0.7710 -2.0440
 8471SOL    HW236876   3.374   4.038   9.553 -0.2847  0.1833  1.2049
 8472SOL     OW36877   0.562   2.524   6.936  0.3844  0.0667  0.6530
 8472SOL    HW136878   0.629   2.591   6.952  3.0537 -1.6277 -3.4185
 8472SOL    HW236879   0.612   2.451   6.974  0.4143 -0.5333 -0.5469
 8473SOL     OW36880   0.420   1.067   7.217 -0.3293  0.6691 -0.0887
 8473SOL    HW136881   0.506   1.029   7.198 -0.1639  2.2338 -2.4526
 8473SOL    HW236882   0.439   1.156   7.247 -0.5260  0.8348 -0.4561
 8474SOL     OW36883   4.536   2.072  10.811  0.4001 -0.2436 -0.4047
 8474SOL    HW136884   4.464   2.009  10.800  0.0171 -0.3401  2.5684
 8474SOL    HW236885   4.605   2.028  10.761  1.2613 -1.2860  1.6976
 8475SOL     OW36886   2.835   0.727   8.348 -0.3323 -0.2417 -0.1384
 8475SOL    HW136887   2.822   0.808   8.397  4.6164  0.5025 -0.0422
 8475SOL    HW236888   2.751   0.714   8.304  0.2074  0.0904 -1.2498
 8476SOL     OW36889   4.119   2.617   6.919 -0.0519  0.6777  0.1085
 8476SOL    HW136890   4.025   2.630   6.936 -0.2051  0.3592 -0.4994
 8476SOL    HW236891   4.141   2.530   6.952  0.2487 -0.1068 -2.1455
 8477SOL     OW36892   3.102   4.117   5.930 -0.0882 -0.4433 -0.2127
 8477SOL    HW136893   3.083   4.024   5.936 -0.6397 -0.3077  0.1286
 8477SOL    HW236894   3.032   4.155   5.983 -0.5105 -2.1453  0.4519
 8478SOL     OW36895   3.450   1.032   2.874  0.1394 -0.5764  0.2876
 8478SOL    HW136896   3.473   0.939   2.867  1.6007 -0.1104 -1.3388
 8478SOL    HW236897   3.434   1.047   2.781 -1.9370  0.2737  0.8015
 8479SOL     OW36898   0.782   4.238  14.841  0.4669 -0.1730 -0.0658
 8479SOL    HW136899   0.854   4.257  14.900  1.1257  3.2871 -2.0150
 8479SOL    HW236900   0.825   4.241  14.756  1.1004 -1.3380  0.2216
 8480SOL     OW36901   3.581   0.808   2.178  0.2930  0.3528 -0.2196
 8480SOL    HW136902   3.489   0.834   2.181 -0.0371 -0.7084 -1.5475
 8480SOL    HW236903   3.606   0.867   2.250 -0.9513  2.5750 -1.6299
 8481SOL     OW36904   2.030   0.132  13.552 -0.4015 -0.7712  0.0071
 8481SOL    HW136905   2.010   0.057  13.607 -1.4576 -0.7925 -0.4106
 8481SOL    HW236906   2.117   0.104  13.525  0.1231  1.2339 -0.3791
 8482SOL     OW36907   1.441   0.355   4.665  0.4348 -0.1832  0.2430
 8482SOL    HW136908   1.459   0.295   4.737  0.3215  0.6458  0.9652
 8482SOL    HW236909   1.367   0.308   4.625  3.4106 -3.2774 -1.6559
 8483SOL     OW36910   0.524   4.140   1.119  0.2104 -0.3131 -0.1202
 8483SOL    HW136911   0.438   4.153   1.159  0.5128 -3.0909  1.3609
 8483SOL    HW236912   0.549   4.231   1.102  0.9513 -0.4883  0.0263
 8484SOL     OW36913   0.763   1.459   0.611  0.8398  0.6716 -0.7092
 8484SOL    HW136914   0.726   1.482   0.526  2.1183 -0.3406 -1.5326
 8484SOL    HW236915   0.749   1.541   0.658 -3.3601 -0.5918  0.2363
 8485SOL     OW36916   3.559   2.642   1.774 -0.5631 -0.2325  0.3724
 8485SOL    HW136917   3.628   2.672   1.715  0.7207  0.5066  2.2288
 8485SOL    HW236918   3.551   2.726   1.820  1.4639  0.7707 -1.1120
 8486SOL     OW36919   3.481   0.760   5.045  0.0209  0.0960  0.0137
 8486SOL    HW136920   3.468   0.674   5.087  1.6253  0.2003  0.7705
 8486SOL    HW236921   3.571   0.779   5.073 -0.6472  1.5672  1.1864
 8487SOL     OW36922   0.649   1.003  14.179  0.1030  0.0204  0.3248
 8487SOL    HW136923   0.694   1.034  14.258  0.4866  0.7719 -0.1897
 8487SOL    HW236924   0.620   0.914  14.201  1.0673 -0.7182 -1.3844
 8488SOL     OW36925   0.164   4.247   4.875  0.1606 -0.2739 -0.2836
 8488SOL    HW136926   0.182   4.333   4.838  2.1196 -1.7000 -2.6418
 8488SOL    HW236927   0.210   4.186   4.818  2.3521  1.2380 -0.1385
 8489SOL     OW36928   0.004   3.769  15.811 -0.8722 -0.4072  0.3917
 8489SOL    HW136929   4.665   3.706  15.774 -2.2839  0.5077  1.2055
 8489SOL    HW236930   0.086   3.723  15.796 -1.0818 -0.6550 -0.0101
 8490SOL     OW36931   2.024   3.097   9.498 -0.1119  0.0744  0.8961
 8490SOL    HW136932   2.004   3.022   9.553  0.7419 -1.3753 -0.7591
 8490SOL    HW236933   2.117   3.079   9.482 -0.1403 -1.2138  2.2839
 8491SOL     OW36934   0.797   3.006   0.154 -0.2124  0.2155 -0.3924
 8491SOL    HW136935   0.763   3.095   0.153  1.8055  0.9903 -1.0655
 8491SOL    HW236936   0.881   3.029   0.194  0.6964 -2.5469 -0.6474
 8492SOL     OW36937   0.437   2.373   6.738  0.0909 -0.0316  0.5240
 8492SOL    HW136938   0.507   2.319   6.701 -0.6144 -0.2344 -0.5327
 8492SOL    HW236939   0.481   2.445   6.783  1.2701 -0.3243 -0.1503
 8493SOL     OW36940   2.308   1.942  11.580  0.8504  0.3611  0.3199
 8493SOL    HW136941   2.303   1.982  11.493 -0.6737 -0.8169 -0.1352
 8493SOL    HW236942   2.378   1.990  11.624 -0.6353  1.4932  1.4871
 8494SOL     OW36943   2.598   0.619  12.443  0.0347 -0.1252 -0.2160
 8494SOL    HW136944   2.639   0.626  12.529 -0.0743 -1.6306 -0.0398
 8494SOL    HW236945   2.520   0.571  12.472  0.0413 -1.0374 -1.7259
 8495SOL     OW36946   3.398   0.208  17.634 -0.1901  0.3798  0.8075
 8495SOL    HW136947   3.361   0.203  17.546  0.1172 -0.2041  0.7044
 8495SOL    HW236948   3.447   0.125  17.625 -0.4192  0.5526 -1.9669
 8496SOL     OW36949   1.065   3.015  10.455 -0.7328 -0.1485  0.1101
 8496SOL    HW136950   1.094   2.987  10.368 -0.9659 -0.9279  0.2893
 8496SOL    HW236951   1.068   2.938  10.511  2.5878  0.9585  1.4838
 8497SOL     OW36952   0.259   2.475   3.340 -0.4632 -0.1009 -0.4478
 8497SOL    HW136953   0.240   2.569   3.335 -2.6613 -0.6014 -1.6263
 8497SOL    HW236954   0.296   2.462   3.253 -1.1612 -0.2236 -0.7280
 8498SOL     OW36955   4.404   3.518   8.443 -0.2620  0.7024  0.4855
 8498SOL    HW136956   4.449   3.548   8.522  1.4351  0.4832 -0.4009
 8498SOL    HW236957   4.352   3.446   8.478 -2.5255  1.8229 -0.5194
 8499SOL     OW36958   2.067   0.833  15.962  0.3084  0.1278  0.8215
 8499SOL    HW136959   1.980   0.845  15.999 -0.5197  0.6246 -1.2968
 8499SOL    HW236960   2.105   0.919  15.979 -1.8266  1.6368 -2.2290
 8500SOL     OW36961   0.848   4.625   3.343  0.2861  0.6078 -0.1059
 8500SOL    HW136962   0.808   4.642   3.258 -0.7136 -0.6474  0.1190
 8500SOL    HW236963   0.783   4.566   3.380  0.1262 -0.2261 -1.7480
 8501SOL     OW36964   0.229   0.140   7.018 -0.6218  0.5384  0.3405
 8501SOL    HW136965   0.242   0.137   6.923 -1.3855 -2.1859  0.3387
 8501SOL    HW236966   0.284   0.069   7.050 -1.2844  1.1947  2.8873
 8502SOL     OW36967   1.031   3.131   0.630  0.3122 -0.0521 -0.1003
 8502SOL    HW136968   1.101   3.067   0.616 -0.5075 -0.6499 -1.4411
 8502SOL    HW236969   0.982   3.092   0.702 -1.7822  0.2999 -1.3405
 8503SOL     OW36970   4.611   4.248   8.101 -0.2072 -0.1524  0.1157
 8503SOL    HW136971   4.639   4.254   8.010 -1.0626 -1.3078 -0.2275
 8503SOL    HW236972   4.525   4.289   8.092  1.0943  2.2993 -1.3114
 8504SOL     OW36973   1.851   0.355   4.485 -0.2412  0.1323  0.0771
 8504SOL    HW136974   1.829   0.262   4.496 -0.1045 -0.1375 -1.9726
 8504SOL    HW236975   1.773   0.376   4.433 -0.8236 -1.1634  0.4266
 8505SOL     OW36976   0.643   3.136   4.036  0.3069 -0.2873  0.7104
 8505SOL    HW136977   0.548   3.150   4.035  0.1302 -1.4165  1.7564
 8505SOL    HW236978   0.667   3.146   4.128 -1.7488  0.7129  1.1401
 8506SOL     OW36979   0.333   4.632   7.738 -0.2887  0.1018  0.0750
 8506SOL    HW136980   0.340   4.624   7.833  1.4159  0.6486 -0.0164
 8506SOL    HW236981   0.239   4.648   7.723 -0.6691  0.0052  2.3457
 8507SOL     OW36982   0.616   0.618   6.032 -0.1092 -0.3753 -0.3136
 8507SOL    HW136983   0.601   0.709   6.009  0.1534 -0.2294  0.0856
 8507SOL    HW236984   0.562   0.578   5.965 -0.1397  0.6200 -0.8751
 8508SOL     OW36985   1.793   2.145   9.381  0.2006  0.0721 -0.2451
 8508SOL    HW136986   1.777   2.201   9.457 -2.5538 -2.5673  1.1161
 8508SOL    HW236987   1.847   2.209   9.335  0.0570 -1.1047 -2.0260
 8509SOL     OW36988   2.725   2.328   7.388  0.2009 -0.2020  0.1824
 8509SOL    HW136989   2.749   2.308   7.478  0.8359  2.2797  0.5685
 8509SOL    HW236990   2.710   2.422   7.389 -0.6495 -0.3392  0.4155
 8510SOL     OW36991   1.164   2.636   1.108 -0.0377 -0.4845 -0.6540
 8510SOL    HW136992   1.214   2.666   1.183  1.4784 -0.7392 -1.5726
 8510SOL    HW236993   1.080   2.676   1.132  0.5677  0.6987 -0.5096
 8511SOL     OW36994   3.050   4.363   6.982  0.5095  0.0021  0.4664
 8511SOL    HW136995   2.961   4.327   6.984  0.7081 -0.5502 -0.4768
 8511SOL    HW236996   3.112   4.292   6.967 -1.8908 -1.8541 -0.8168
 8512SOL     OW36997   3.410   1.516   8.579 -0.0260 -0.5181  0.5751
 8512SOL    HW136998   3.335   1.548   8.629 -1.5296 -0.7287 -1.4938
 8512SOL    HW236999   3.372   1.429   8.566 -0.3406 -0.1680 -0.8677
 8513SOL     OW37000   2.894   3.630   2.811  0.5332  0.0379 -0.1797
 8513SOL    HW137001   2.909   3.556   2.752  2.9007  0.5891 -0.2717
 8513SOL    HW237002   2.824   3.588   2.861 -0.8784  2.4863 -0.1428
 8514SOL     OW37003   3.882   1.276   1.754  0.0199 -0.5523 -0.2650
 8514SOL    HW137004   3.805   1.254   1.807  0.6141  0.8972  1.1833
 8514SOL    HW237005   3.927   1.315   1.828  0.5766  0.3286 -1.0666
 8515SOL     OW37006   4.059   2.085   5.082  0.1909 -0.3254 -0.6588
 8515SOL    HW137007   4.113   2.008   5.104  1.3923  0.6616 -0.1486
 8515SOL    HW237008   4.089   2.147   5.149 -0.5983 -0.4852 -0.1655
 8516SOL     OW37009   4.371   3.578  14.309 -0.0606  0.4137  0.2313
 8516SOL    HW137010   4.316   3.501  14.317 -0.0746  0.3611 -0.3724
 8516SOL    HW237011   4.309   3.650  14.300  0.3601  0.8903  1.1572
 8517SOL     OW37012   0.407   3.984   2.407  0.0201  0.3384  0.5941
 8517SOL    HW137013   0.479   4.042   2.385 -1.3860  2.3858  1.3943
 8517SOL    HW237014   0.381   4.023   2.490 -2.3709  1.0554 -0.4684
 8518SOL     OW37015   0.003   2.037   1.992  0.4931  0.1145 -0.4972
 8518SOL    HW137016   4.665   2.042   1.920  2.6692 -0.2730 -2.3870
 8518SOL    HW237017   0.038   1.949   1.977 -1.5155 -0.8646  0.4591
 8519SOL     OW37018   4.710   1.248   4.212  0.4697  0.2662 -0.0008
 8519SOL    HW137019   0.057   1.244   4.147  0.6906  1.1097  0.1857
 8519SOL    HW237020   0.035   1.283   4.287  0.9717  1.6439 -0.9704
 8520SOL     OW37021   2.515   4.025   1.823  0.6404  0.2492  0.2263
 8520SOL    HW137022   2.569   3.983   1.890  1.0186 -1.5863 -1.1989
 8520SOL    HW237023   2.554   4.108   1.796 -3.4905  2.8679  2.3110
 8521SOL     OW37024   2.280   2.749   4.484 -0.0516 -0.0730  0.1324
 8521SOL    HW137025   2.275   2.678   4.420  0.3853 -0.7478  0.8389
 8521SOL    HW237026   2.187   2.763   4.501  0.0742  1.3264 -0.3109
 8522SOL     OW37027   1.859   3.701   8.935  0.3642  0.4992 -0.0959
 8522SOL    HW137028   1.827   3.695   9.024 -2.5514  1.6227 -1.0944
 8522SOL    HW237029   1.822   3.620   8.899  1.7694 -0.8958  1.6003
 8523SOL     OW37030   3.356   0.947   0.581  0.1681  0.6241  0.4119
 8523SOL    HW137031   3.403   0.863   0.577 -0.2894  0.3608  0.5784
 8523SOL    HW237032   3.429   1.001   0.610 -0.1355  2.0310 -1.4552
 8524SOL     OW37033   3.400   2.091   3.676 -0.0811  0.0271 -0.4159
 8524SOL    HW137034   3.387   2.020   3.740 -2.9115  0.3952 -0.5803
 8524SOL    HW237035   3.336   2.152   3.712 -0.3745 -0.1808 -0.5859
 8525SOL     OW37036   3.236   2.466   6.312 -0.1866  0.4864  0.3516
 8525SOL    HW137037   3.329   2.444   6.302  0.2910  2.3233  0.7695
 8525SOL    HW237038   3.210   2.399   6.375 -2.3699  0.0398 -1.0431
 8526SOL     OW37039   0.507   0.627   3.924  0.4190 -0.1118  0.0862
 8526SOL    HW137040   0.471   0.548   3.965 -1.4715  1.2829  1.0627
 8526SOL    HW237041   0.430   0.668   3.886 -1.6582 -1.0332  3.3439
 8527SOL     OW37042   4.290   3.152   7.653 -0.3075 -0.2588  0.6444
 8527SOL    HW137043   4.213   3.145   7.597  1.4657 -0.4578 -1.7620
 8527SOL    HW237044   4.291   3.247   7.669 -2.2243 -0.3580  1.3051
 8528SOL     OW37045   1.906   3.236   1.249  0.1783  0.6615  0.1182
 8528SOL    HW137046   1.991   3.224   1.291  0.6499 -0.1460 -1.0606
 8528SOL    HW237047   1.841   3.245   1.318  0.8738  0.7639  0.7553
 8529SOL     OW37048   0.123   1.243   2.754  0.6060  0.0490 -0.6144
 8529SOL    HW137049   0.146   1.236   2.661  1.6895  0.1637 -0.3567
 8529SOL    HW237050   0.087   1.331   2.743  1.0064  0.1752 -0.9429
 8530SOL     OW37051   4.047   4.591   8.397  0.4080 -0.1277  0.0396
 8530SOL    HW137052   4.039   4.614   8.304 -2.5883  1.2175  0.6503
 8530SOL    HW237053   3.995   4.657   8.442 -1.5011 -1.5522 -0.1082
 8531SOL     OW37054   3.020   2.131   3.988  0.2443  0.3237 -0.4380
 8531SOL    HW137055   2.975   2.148   3.905  1.5667  3.3201 -0.5624
 8531SOL    HW237056   3.104   2.089   3.967 -0.2145  0.0881 -1.7986
 8532SOL     OW37057   4.214   1.346   6.896 -0.2731 -0.1295  0.7684
 8532SOL    HW137058   4.130   1.301   6.902 -1.3090  1.7147  0.2595
 8532SOL    HW237059   4.229   1.388   6.980  1.8884  1.1439 -0.2512
 8533SOL     OW37060   3.249   2.884  10.975 -0.1695 -0.1633 -0.7362
 8533SOL    HW137061   3.196   2.926  11.043  0.1897  0.1065 -0.6213
 8533SOL    HW237062   3.331   2.878  11.023 -0.9042  1.2933  0.6965
 8534SOL     OW37063   2.040   4.347   5.769  0.2415 -0.2467  0.4756
 8534SOL    HW137064   2.111   4.409   5.754 -0.1673 -0.4597 -2.4914
 8534SOL    HW237065   1.970   4.405   5.739  0.2185 -0.1897  0.6380
 8535SOL     OW37066   3.866   3.977   6.619  0.0062  0.5485 -0.0771
 8535SOL    HW137067   3.812   3.962   6.542 -1.7377  2.9853  0.6932
 8535SOL    HW237068   3.913   3.894   6.631 -2.8986 -1.2136 -0.9371
 8536SOL     OW37069   3.935   2.902   5.099  0.1371 -0.1830 -0.0487
 8536SOL    HW137070   3.903   2.906   5.189 -0.7688 -0.8321 -0.3416
 8536SOL    HW237071   3.972   2.990   5.090 -2.9741  0.8233 -2.7513
 8537SOL     OW37072   0.094   2.623   7.093 -0.4704  0.2997 -0.1653
 8537SOL    HW137073   0.029   2.627   7.023 -0.6546 -0.5263 -0.0483
 8537SOL    HW237074   0.040   2.648   7.168  3.1340 -2.0673  3.2067
 8538SOL     OW37075   2.839   3.907   9.191 -0.3757 -0.1582  0.4711
 8538SOL    HW137076   2.868   3.995   9.166 -0.5570 -0.2468 -0.0523
 8538SOL    HW237077   2.764   3.898   9.133 -1.3233  1.6251  1.4123
 8539SOL     OW37078   0.559   3.017   7.785 -0.3011  0.3277 -0.0082
 8539SOL    HW137079   0.527   3.104   7.762 -1.0127  0.4628  1.4500
 8539SOL    HW237080   0.488   2.996   7.847 -1.0892  0.6920 -0.7944
 8540SOL     OW37081   3.390   3.708   5.042 -0.0867  0.1886 -0.4652
 8540SOL    HW137082   3.320   3.754   5.088 -0.0083 -0.3879  0.2346
 8540SOL    HW237083   3.351   3.687   4.957 -0.3718  1.6011 -0.6789
 8541SOL     OW37084   0.081   1.815   1.710 -0.4571  0.5925  0.4319
 8541SOL    HW137085   0.086   1.797   1.804  2.6608 -0.0095  0.1361
 8541SOL    HW237086   0.063   1.732   1.665  2.7886  0.1347  0.0212
 8542SOL     OW37087   4.302   2.147  10.530  0.2457 -0.7238 -0.7051
 8542SOL    HW137088   4.347   2.205  10.468 -0.6518 -0.5743 -1.2164
 8542SOL    HW237089   4.215   2.185  10.529  0.7300  0.4280  0.9868
 8543SOL     OW37090   4.591   1.532  15.306  1.1161  0.0918  0.6997
 8543SOL    HW137091   4.633   1.507  15.223 -0.5828  0.4635 -0.2720
 8543SOL    HW237092   4.519   1.592  15.286 -0.5900 -2.4076 -0.6833
 8544SOL     OW37093   0.116   4.444   3.766 -0.0380  0.8682  0.8330
 8544SOL    HW137094   0.188   4.504   3.787  3.2633 -3.0055  0.6464
 8544SOL    HW237095   0.052   4.468   3.833 -0.7117 -1.9276  1.2077
 8545SOL     OW37096   3.389   0.784   7.487  0.7573 -0.1589 -0.0703
 8545SOL    HW137097   3.321   0.811   7.548 -0.6043  1.4287 -2.3167
 8545SOL    HW237098   3.469   0.797   7.539  2.9109 -0.8981 -3.2200
 8546SOL     OW37099   2.719   1.280  10.794  0.1852  0.4679  0.4694
 8546SOL    HW137100   2.744   1.331  10.871 -0.5550  2.0794 -0.3455
 8546SOL    HW237101   2.626   1.265  10.810 -0.2290  1.7125 -0.7723
 8547SOL     OW37102   1.536   4.397   7.326 -0.0341  0.0784 -0.1938
 8547SOL    HW137103   1.506   4.312   7.360  0.5568  0.3306  0.9374
 8547SOL    HW237104   1.453   4.427   7.287  1.3686 -0.5366 -3.6335
 8548SOL     OW37105   2.998   2.253  10.308 -0.2758  0.2097  0.0513
 8548SOL    HW137106   2.971   2.251  10.216  0.2788  0.3914 -0.1180
 8548SOL    HW237107   2.925   2.211  10.352  0.9241 -1.5293  0.3695
 8549SOL     OW37108   3.690   1.101  13.146  0.6846  0.2853  0.1640
 8549SOL    HW137109   3.621   1.089  13.080 -0.8010  1.8573  1.4363
 8549SOL    HW237110   3.641   1.077  13.225  1.0175  0.0581  0.3042
 8550SOL     OW37111   1.123   1.825   1.461  0.2571  0.5139  0.0235
 8550SOL    HW137112   1.129   1.835   1.366 -0.3912  2.9890  0.2396
 8550SOL    HW237113   1.028   1.821   1.451  0.3947  0.9782 -1.4598
 8551SOL     OW37114   3.200   1.899  14.431  0.2650  0.0071  0.0293
 8551SOL    HW137115   3.288   1.920  14.462  0.4471 -2.1317  0.9654
 8551SOL    HW237116   3.145   1.958  14.483  0.2056 -0.4233  0.4532
 8552SOL     OW37117   2.027   3.458   9.070 -0.1566  0.4580  0.2246
 8552SOL    HW137118   2.013   3.449   9.165  1.5900  0.0500  0.4324
 8552SOL    HW237119   2.014   3.372   9.031 -0.6276  0.7071 -0.1735
 8553SOL     OW37120   2.225   4.661  16.535  0.0593  0.6422 -0.0371
 8553SOL    HW137121   2.238   4.697  16.623 -0.6497  2.5966 -0.7315
 8553SOL    HW237122   2.251   0.014  16.483 -0.4247  0.3836 -0.6665
 8554SOL     OW37123   3.323   2.851  15.998 -0.6558  0.3029 -0.3971
 8554SOL    HW137124   3.419   2.859  15.998 -0.6638  0.4552  0.8334
 8554SOL    HW237125   3.309   2.945  16.010 -2.3918 -0.1122  0.8171
 8555SOL     OW37126   3.966   0.631   0.221 -0.2390 -0.2928  0.4003
 8555SOL    HW137127   4.035   0.689   0.190 -1.0615  0.0805 -0.7256
 8555SOL    HW237128   3.972   0.645   0.316 -1.4020  0.1539  0.4072
 8556SOL     OW37129   4.690   4.553   5.696  0.3690 -0.5669  0.0887
 8556SOL    HW137130   4.716   4.505   5.617 -0.2130 -0.0963 -0.3865
 8556SOL    HW237131   0.022   4.630   5.700 -0.9014  0.3278  0.3693
 8557SOL     OW37132   3.173   0.926   3.073 -0.6702  0.7612  0.1400
 8557SOL    HW137133   3.127   0.847   3.046 -1.2747  0.2038  2.7515
 8557SOL    HW237134   3.159   0.978   2.995 -0.4400  1.1959  0.3880
 8558SOL     OW37135   4.706   2.708   4.174 -0.1482  0.0696  0.0541
 8558SOL    HW137136   4.681   2.702   4.082 -1.1631 -1.4791  0.4396
 8558SOL    HW237137   0.032   2.790   4.178 -1.0747  0.6552 -0.5081
 8559SOL     OW37138   1.451   1.823   8.393 -0.5468 -0.4076  0.0661
 8559SOL    HW137139   1.481   1.893   8.451  1.8688 -0.6287 -0.9181
 8559SOL    HW237140   1.518   1.818   8.324 -0.9121 -0.5283 -0.2802
 8560SOL     OW37141   0.798   0.371   6.056 -0.1930 -0.0749 -0.3958
 8560SOL    HW137142   0.737   0.438   6.090  0.1442 -0.4332  0.8996
 8560SOL    HW237143   0.865   0.373   6.125 -0.1058  0.2358 -0.4880
 8561SOL     OW37144   4.378   4.522  11.235  0.3236  0.3065 -0.0563
 8561SOL    HW137145   4.470   4.515  11.261  0.1327 -1.4928  0.1359
 8561SOL    HW237146   4.357   4.612  11.261  0.5875  0.2305  0.4216
 8562SOL     OW37147   3.896   3.599  12.500  0.3467  0.2553  0.4699
 8562SOL    HW137148   3.966   3.614  12.436 -0.1705  0.1908 -0.1097
 8562SOL    HW237149   3.852   3.525  12.459 -0.4569  1.8996 -1.6674
 8563SOL     OW37150   3.851   3.358   3.222  0.5180 -0.0950 -0.3544
 8563SOL    HW137151   3.932   3.308   3.221  0.3467 -0.4169  1.6609
 8563SOL    HW237152   3.785   3.290   3.236 -1.1884  2.1097  2.4042
 8564SOL     OW37153   2.608   1.200   2.855 -0.1601  0.1635  0.2706
 8564SOL    HW137154   2.628   1.130   2.793  1.5605  0.6307  0.2877
 8564SOL    HW237155   2.630   1.160   2.939  0.6680  1.8786  0.8699
 8565SOL     OW37156   0.526   1.220   5.942 -0.4869 -0.0489  0.1342
 8565SOL    HW137157   0.504   1.164   5.868 -1.2344  2.1639 -1.3021
 8565SOL    HW237158   0.500   1.309   5.918  0.9167  0.4992  0.7024
 8566SOL     OW37159   1.832   2.479   7.127 -0.3266  0.1759  0.4394
 8566SOL    HW137160   1.808   2.551   7.186 -2.0995 -0.1028  0.0573
 8566SOL    HW237161   1.899   2.428   7.173 -0.5156  0.2084  0.7515
 8567SOL     OW37162   1.056   4.665   3.870 -0.3737 -0.4155  0.4588
 8567SOL    HW137163   1.104   4.694   3.792 -0.7726  1.1471  0.7935
 8567SOL    HW237164   1.008   0.019   3.900 -3.2210 -1.3979 -1.4643
 8568SOL     OW37165   3.552   2.578   6.874  0.2624 -0.2617  0.0961
 8568SOL    HW137166   3.514   2.596   6.960 -2.8563 -2.8323 -0.7776
 8568SOL    HW237167   3.477   2.543   6.826  0.8853 -1.9342  0.3514
 8569SOL     OW37168   1.542   2.040   3.003 -0.2147 -0.4252 -0.1418
 8569SOL    HW137169   1.532   2.123   2.957 -0.6145  0.7739  2.0929
 8569SOL    HW237170   1.625   2.052   3.049 -0.7576 -0.0094  0.7218
 8570SOL     OW37171   1.739   4.059   5.943 -0.2617 -0.5813  0.4617
 8570SOL    HW137172   1.699   3.998   5.881 -1.0855 -1.0004  1.4124
 8570SOL    HW237173   1.790   3.994   5.991 -0.2249 -0.8826  0.0184
 8571SOL     OW37174   0.194   0.671   5.854  0.2665  0.0645  0.2200
 8571SOL    HW137175   0.099   0.680   5.848  0.5794  1.9426 -2.1458
 8571SOL    HW237176   0.215   0.687   5.761 -2.6330  1.6180 -0.1677
 8572SOL     OW37177   4.435   3.994  12.918  0.4305 -0.7669 -0.2562
 8572SOL    HW137178   4.516   3.971  12.964 -0.0789 -0.5212  0.7828
 8572SOL    HW237179   4.375   3.975  12.991  1.2943  0.9279  0.9098
 8573SOL     OW37180   1.055   3.774   6.547 -0.0006  0.5372 -0.0438
 8573SOL    HW137181   0.984   3.724   6.588  1.5289 -3.2512 -2.0497
 8573SOL    HW237182   1.087   3.824   6.622  0.2259  0.7717 -0.2983
 8574SOL     OW37183   2.287   0.942   6.740 -0.0307  0.6118  0.2601
 8574SOL    HW137184   2.284   1.009   6.808  1.7806  0.0301  0.9118
 8574SOL    HW237185   2.272   0.867   6.798  1.0006 -0.7574 -1.2340
 8575SOL     OW37186   0.893   4.313   5.185  0.0755 -0.8000  0.4374
 8575SOL    HW137187   0.971   4.360   5.213 -1.0663 -0.5287  3.1446
 8575SOL    HW237188   0.921   4.236   5.235 -1.0014 -0.8192  1.0117
 8576SOL     OW37189   3.479   2.717  12.705 -0.3370 -1.0201  0.8129
 8576SOL    HW137190   3.542   2.706  12.634 -1.5452 -3.7742  0.1792
 8576SOL    HW237191   3.526   2.771  12.769  0.2532 -1.2348  0.5622
 8577SOL     OW37192   4.464   3.968  15.807  0.2513 -0.3691  0.2385
 8577SOL    HW137193   4.555   3.953  15.832  0.9261  3.3853  0.0278
 8577SOL    HW237194   4.465   4.062  15.823 -2.9327  0.1243 -2.5021
 8578SOL     OW37195   1.063   1.409   3.726 -0.6269 -0.3727 -0.5332
 8578SOL    HW137196   1.053   1.442   3.637 -1.2616 -0.0621 -0.3489
 8578SOL    HW237197   0.968   1.415   3.739 -0.7407  0.6720 -1.7754
 8579SOL     OW37198   2.590   1.803   8.347 -0.2657 -0.0440 -0.9178
 8579SOL    HW137199   2.646   1.803   8.425 -1.3287 -0.0827 -0.1451
 8579SOL    HW237200   2.552   1.891   8.348 -1.5297 -0.5937  0.4836
 8580SOL     OW37201   3.877   2.259  15.256 -0.2787 -0.0279  0.0335
 8580SOL    HW137202   3.799   2.208  15.236 -1.8587  2.5315 -0.2901
 8580SOL    HW237203   3.874   2.243  15.350 -1.4324  0.4458  0.0710
 8581SOL     OW37204   0.395   4.261   4.072 -0.0986  0.0720 -0.2094
 8581SOL    HW137205   0.419   4.311   3.994 -1.9121 -0.9888 -1.4576
 8581SOL    HW237206   0.375   4.325   4.140 -1.7387 -0.8108  0.1266
 8582SOL     OW37207   2.605   0.020   8.223  0.8290 -0.6204  0.1056
 8582SOL    HW137208   2.581   0.085   8.156 -0.1891 -0.9799  0.1189
 8582SOL    HW237209   2.696   0.008   8.197  0.7597  1.4714 -1.1664
 8583SOL     OW37210   4.398   1.654   0.057  0.3625 -0.0203 -0.0317
 8583SOL    HW137211   4.395   1.617  17.666 -0.0824  2.4768 -1.0596
 8583SOL    HW237212   4.321   1.623   0.105  0.1849  0.8182  0.2257
 8584SOL     OW37213   1.899   0.454   6.752  0.0474  0.1407 -0.0632
 8584SOL    HW137214   1.835   0.478   6.820  1.2522  2.0541  0.3914
 8584SOL    HW237215   1.983   0.464   6.795  0.0400  1.2506 -0.2961
 8585SOL     OW37216   0.864   2.997  10.832 -0.2486 -0.2192 -0.2134
 8585SOL    HW137217   0.837   3.020  10.921  1.0431 -0.3421  0.2081
 8585SOL    HW237218   0.958   2.994  10.852 -0.4419 -2.1900  0.4406
 8586SOL     OW37219   0.764   1.592  12.496 -0.2968  0.5296 -0.2320
 8586SOL    HW137220   0.678   1.598  12.537  1.3398  2.1014  2.8992
 8586SOL    HW237221   0.795   1.504  12.516 -1.0359  0.6823  1.5518
 8587SOL     OW37222   1.975   2.185   4.100  0.5413 -0.5389 -0.1085
 8587SOL    HW137223   2.069   2.164   4.101  0.2944 -1.7691 -2.2204
 8587SOL    HW237224   1.983   2.273   4.063  1.1026  0.3103  2.0659
 8588SOL     OW37225   1.458   0.330   5.480 -0.4835 -0.5632 -0.6555
 8588SOL    HW137226   1.524   0.280   5.431  0.6159  2.0511 -1.8247
 8588SOL    HW237227   1.483   0.295   5.565  0.3038  1.1350 -0.1873
 8589SOL     OW37228   0.079   1.377   3.155 -0.0828 -0.2903 -0.7277
 8589SOL    HW137229   0.137   1.361   3.230  0.0840 -0.3483 -0.8674
 8589SOL    HW237230   0.035   1.292   3.151 -2.7182  1.2128 -2.9669
 8590SOL     OW37231   4.632   1.336  11.765  0.3847  0.0844  0.7963
 8590SOL    HW137232   4.689   1.401  11.806  0.6714  0.2759  0.1017
 8590SOL    HW237233   4.654   1.257  11.814 -1.2371 -0.0566  1.2881
 8591SOL     OW37234   4.315   4.532   2.043  0.8711 -0.1239 -0.6397
 8591SOL    HW137235   4.319   4.541   2.138 -1.6608 -1.2575 -0.4256
 8591SOL    HW237236   4.373   4.458   2.025  2.8856  1.2172  0.3284
 8592SOL     OW37237   3.977   0.918   3.105  0.2678 -1.1781  0.6881
 8592SOL    HW137238   4.071   0.902   3.100  0.1764 -1.4325 -0.2680
 8592SOL    HW237239   3.945   0.903   3.015  3.0391 -0.6534 -0.3734
 8593SOL     OW37240   3.106   0.749  10.804 -0.2628 -0.3430  0.3293
 8593SOL    HW137241   3.121   0.838  10.837  0.1201  0.4901 -2.1069
 8593SOL    HW237242   3.096   0.759  10.709  0.3505  1.2491  0.4269
 8594SOL     OW37243   2.627   2.141   8.933 -0.0050 -0.1159  0.3319
 8594SOL    HW137244   2.621   2.163   8.840 -0.5733  0.9315  0.6089
 8594SOL    HW237245   2.717   2.112   8.945  0.6361  2.0892  0.8177
 8595SOL     OW37246   2.676   4.604  14.165 -0.8847  0.1464  0.6637
 8595SOL    HW137247   2.663   4.697  14.147 -0.7719 -0.0042 -0.2091
 8595SOL    HW237248   2.760   4.593  14.120 -0.8092  0.9352  0.6128
 8596SOL     OW37249   2.827   0.810   5.985  0.8981 -0.5077  0.0582
 8596SOL    HW137250   2.853   0.902   5.986  1.2598 -0.6539  2.9169
 8596SOL    HW237251   2.749   0.810   6.041 -0.5571  0.5779 -1.9298
 8597SOL     OW37252   2.010   4.401   7.928 -0.1291 -0.3938 -0.6085
 8597SOL    HW137253   1.920   4.397   7.961 -0.9588  0.2062 -2.7971
 8597SOL    HW237254   2.050   4.338   7.988  0.6186  1.2763  0.6630
 8598SOL     OW37255   2.084   2.143   6.088  0.1965  0.2168  0.0369
 8598SOL    HW137256   2.118   2.191   6.163  0.5439 -1.7145  1.1039
 8598SOL    HW237257   1.990   2.157   6.099  0.3025  2.1547 -1.5760
 8599SOL     OW37258   3.556   3.926   4.812 -0.0394 -0.0488  0.5802
 8599SOL    HW137259   3.573   3.939   4.905  0.1782 -1.0331  0.6724
 8599SOL    HW237260   3.612   3.993   4.772  1.7234 -1.3041  0.9395
 8600SOL     OW37261   0.894   4.117  12.217 -0.2171  0.0797  0.1478
 8600SOL    HW137262   0.877   4.174  12.291  2.3430  0.0060  0.7870
 8600SOL    HW237263   0.812   4.069  12.206 -0.4395 -0.1459  2.8224
 8601SOL     OW37264   3.718   0.948   2.399 -0.5206  0.4992 -0.0506
 8601SOL    HW137265   3.682   1.033   2.422 -2.8198 -0.1760 -1.0745
 8601SOL    HW237266   3.660   0.889   2.447  3.4888 -2.1971  1.5504
 8602SOL     OW37267   4.641   3.732   5.660 -0.5852  0.2468  0.1009
 8602SOL    HW137268   4.695   3.807   5.685 -1.3330  0.3234  1.4801
 8602SOL    HW237269   4.637   3.744   5.565 -1.1271  0.1327  0.1064
 8603SOL     OW37270   2.404   0.507   5.080 -0.2730  0.1690 -0.2519
 8603SOL    HW137271   2.336   0.509   5.013 -0.0298  1.2024 -0.4788
 8603SOL    HW237272   2.457   0.431   5.056  2.6458  2.0543  0.1619
 8604SOL     OW37273   4.212   0.495   2.362 -0.6906  0.4671  0.4127
 8604SOL    HW137274   4.261   0.574   2.385  1.5134 -0.8947  0.3880
 8604SOL    HW237275   4.148   0.544   2.310 -0.2234 -1.3506 -1.8468
 8605SOL     OW37276   2.083   0.571   9.102  0.5386  0.0705  0.7421
 8605SOL    HW137277   2.146   0.629   9.144  0.5513  1.2492 -0.9163
 8605SOL    HW237278   2.026   0.637   9.061 -0.9433 -2.1109 -0.7005
 8606SOL     OW37279   2.431   1.150   2.276 -0.3050 -0.2149  0.2731
 8606SOL    HW137280   2.372   1.188   2.211  0.3760 -0.2034 -0.3381
 8606SOL    HW237281   2.461   1.067   2.236  0.6946 -0.1415  0.8884
 8607SOL     OW37282   4.114   0.544   4.720 -0.1066 -0.1010  0.0401
 8607SOL    HW137283   4.040   0.586   4.678 -1.3951 -1.7036  0.7125
 8607SOL    HW237284   4.142   0.596   4.796  1.1227 -0.6730 -0.0140
 8608SOL     OW37285   4.365   0.163   8.565  0.1774 -0.3367 -0.4458
 8608SOL    HW137286   4.391   0.157   8.657  0.5821 -3.8795 -0.7994
 8608SOL    HW237287   4.270   0.171   8.575  0.3062  0.1238  0.4164
 8609SOL     OW37288   0.181   0.980   7.112 -0.3384  0.0975 -0.2082
 8609SOL    HW137289   0.248   1.020   7.167  0.2156  0.1098 -0.8900
 8609SOL    HW237290   0.119   1.050   7.096  2.1177  2.5021  0.8847
 8610SOL     OW37291   3.407   0.649   9.859  0.0468 -0.0891  0.1566
 8610SOL    HW137292   3.317   0.621   9.876 -0.1426 -0.3169 -1.2095
 8610SOL    HW237293   3.420   0.628   9.766 -1.2399 -0.7883  0.1366
 8611SOL     OW37294   1.289   4.415   7.187 -0.1403  0.1949 -0.5520
 8611SOL    HW137295   1.293   4.488   7.124  1.1137  2.0869  1.7310
 8611SOL    HW237296   1.323   4.346   7.130  1.1411  0.4851 -0.1530
 8612SOL     OW37297   0.421   0.928   8.294 -0.5437 -0.4426 -0.0237
 8612SOL    HW137298   0.507   0.938   8.335 -1.1264  1.6915  0.6745
 8612SOL    HW237299   0.437   0.981   8.216  0.5642 -0.6535  0.0557
 8613SOL     OW37300   3.629   0.376   7.009 -0.5871 -0.1947  0.2060
 8613SOL    HW137301   3.590   0.295   7.042  0.4228 -0.6447  0.3059
 8613SOL    HW237302   3.716   0.357   7.045  0.1337  0.1075 -1.3997
 8614SOL     OW37303   0.653   1.243   2.839  0.3216  0.1162  0.2121
 8614SOL    HW137304   0.625   1.233   2.748  1.6285  0.4227 -0.2304
 8614SOL    HW237305   0.679   1.153   2.859 -0.2533  0.0284  0.5531
 8615SOL     OW37306   1.860   2.732   0.411  0.0485 -0.0750 -0.0875
 8615SOL    HW137307   1.794   2.798   0.389  0.7520  0.4083 -0.7293
 8615SOL    HW237308   1.882   2.688   0.329 -0.1113 -0.7501  0.2254
 8616SOL     OW37309   2.991   2.168   4.254  0.2507 -0.1977  0.9741
 8616SOL    HW137310   2.980   2.149   4.161 -0.4585  0.2336  0.9699
 8616SOL    HW237311   3.074   2.121   4.258 -0.5843 -2.0863 -3.2610
 8617SOL     OW37312   2.966   1.688  10.883 -0.3038 -0.3120  0.5262
 8617SOL    HW137313   2.922   1.706  10.800  1.2267  2.3040  0.2821
 8617SOL    HW237314   2.940   1.771  10.922 -0.4943 -0.6741  1.1856
 8618SOL     OW37315   1.080   3.019   1.224 -0.0028 -0.4081  0.6739
 8618SOL    HW137316   1.064   3.106   1.187 -0.0423 -1.0130 -0.7307
 8618SOL    HW237317   1.170   3.008   1.195 -0.3385 -1.7003  0.1276
 8619SOL     OW37318   3.642   2.114  12.327  0.0842  0.3894 -0.0975
 8619SOL    HW137319   3.649   2.150  12.416 -0.2012  2.3227 -0.8528
 8619SOL    HW237320   3.670   2.190  12.276  0.2130 -0.5038 -1.3520
 8620SOL     OW37321   2.153   0.271   6.827 -0.5630 -0.0547 -0.6529
 8620SOL    HW137322   2.221   0.338   6.828 -0.1684 -0.4391 -1.3134
 8620SOL    HW237323   2.202   0.201   6.782 -0.3460 -0.1129 -0.3278
 8621SOL     OW37324   4.040   0.613   2.185 -0.2679 -0.3730  0.0692
 8621SOL    HW137325   3.948   0.596   2.166  0.0771 -0.0813 -1.8318
 8621SOL    HW237326   4.064   0.682   2.124  0.4264  0.7401  1.5980
 8622SOL     OW37327   2.594   0.044   5.953 -0.1584 -0.1381 -0.5386
 8622SOL    HW137328   2.655   4.715   6.004  0.9188  0.1795 -1.5025
 8622SOL    HW237329   2.624   0.134   5.965 -2.3120  0.6880 -1.4025
 8623SOL     OW37330   3.686   2.614  16.974 -0.1623  0.3860 -0.2875
 8623SOL    HW137331   3.706   2.660  16.892  0.0076  1.3298  0.2825
 8623SOL    HW237332   3.773   2.617  17.015  0.2090 -1.1383 -0.9800
 8624SOL     OW37333   1.038   0.388  13.299 -0.5844 -0.1663 -0.0670
 8624SOL    HW137334   1.076   0.339  13.227 -0.5986 -0.2217 -0.0373
 8624SOL    HW237335   0.955   0.414  13.258  1.0832  1.8098 -2.1415
 8625SOL     OW37336   3.631   2.344   6.612 -0.2021 -0.2060  0.0077
 8625SOL    HW137337   3.668   2.425   6.579  1.2065 -0.3853  1.1193
 8625SOL    HW237338   3.713   2.297   6.629 -0.3062 -0.4270 -0.1050
 8626SOL     OW37339   1.966   0.612   4.937  0.1601  0.5294  0.3117
 8626SOL    HW137340   1.982   0.576   4.850  0.8330  2.4280 -0.3482
 8626SOL    HW237341   1.894   0.553   4.958  2.3375 -1.3126  2.5857
 8627SOL     OW37342   2.478   0.095   7.230 -0.4135  0.2481  1.1545
 8627SOL    HW137343   2.424   0.063   7.158 -2.0070  0.3267  2.2942
 8627SOL    HW237344   2.417   0.127   7.297  0.1912  2.0116  0.8605
 8628SOL     OW37345   3.716   4.590   2.917  0.1764 -0.4469  0.2473
 8628SOL    HW137346   3.807   4.618   2.928 -0.3673  2.4713 -3.0374
 8628SOL    HW237347   3.695   4.638   2.837 -1.7719 -1.2283  0.2912
 8629SOL     OW37348   0.925   3.503  15.536  0.6312  0.1174  0.6591
 8629SOL    HW137349   0.973   3.481  15.616 -1.2429 -0.3378  1.6523
 8629SOL    HW237350   0.958   3.430  15.484 -0.2170  0.6120 -0.5715
 8630SOL     OW37351   1.747   2.465  17.610  0.2368 -0.0022  0.6078
 8630SOL    HW137352   1.789   2.497  17.530 -1.4423 -2.6372 -1.3100
 8630SOL    HW237353   1.657   2.498  17.600  0.9098  1.9825  0.9579
 8631SOL     OW37354   0.950   2.984   5.422  0.0453  0.0340  0.2315
 8631SOL    HW137355   0.949   2.990   5.326  1.3482  3.2683  0.3974
 8631SOL    HW237356   1.007   3.056   5.450 -2.0508  0.8356  2.4399
 8632SOL     OW37357   4.378   2.587   2.647 -0.2203 -0.2448 -0.8188
 8632SOL    HW137358   4.337   2.673   2.650  1.3883  0.4700  0.9825
 8632SOL    HW237359   4.382   2.570   2.553  0.0085  1.2157 -1.0583
 8633SOL     OW37360   2.567   1.314  10.059  0.1555 -0.4032  0.8591
 8633SOL    HW137361   2.526   1.267   9.986  3.1390 -1.9154  0.1570
 8633SOL    HW237362   2.558   1.242  10.121  0.7772 -1.0267  0.2255
 8634SOL     OW37363   1.902   3.652   4.358  0.4624 -0.4638 -0.1965
 8634SOL    HW137364   1.973   3.609   4.309  0.6991  0.1977 -0.4296
 8634SOL    HW237365   1.820   3.604   4.344 -0.4413  0.5985  1.4752
 8635SOL     OW37366   4.416   1.631  16.314 -0.6332  0.2681 -0.0762
 8635SOL    HW137367   4.378   1.578  16.243 -0.3023  0.4329 -0.3756
 8635SOL    HW237368   4.369   1.617  16.396  2.5959  1.8331  2.0013
 8636SOL     OW37369   0.313   4.221   4.414  0.2834  0.1907 -0.4637
 8636SOL    HW137370   0.225   4.196   4.387  0.7922 -1.9870 -0.0781
 8636SOL    HW237371   0.369   4.175   4.351 -0.7986 -1.5285 -0.1814
 8637SOL     OW37372   1.456   2.513   5.271  0.2014  0.3411  0.3899
 8637SOL    HW137373   1.477   2.605   5.254 -0.6545  0.8552  2.1599
 8637SOL    HW237374   1.488   2.464   5.195  1.7287  1.1224  0.5086
 8638SOL     OW37375   1.148   2.416   5.643  0.0430 -0.4307  0.2788
 8638SOL    HW137376   1.176   2.485   5.703  0.6166 -1.2777  0.9904
 8638SOL    HW237377   1.227   2.410   5.590 -0.5794  0.5201 -0.7541
 8639SOL     OW37378   0.109   2.960   3.804 -0.2125 -0.0201 -0.1090
 8639SOL    HW137379   0.081   2.882   3.756 -0.5538 -0.7789  1.3275
 8639SOL    HW237380   0.025   3.003   3.821  0.3397  1.3446 -0.8004
 8640SOL     OW37381   0.971   1.943   4.855  0.3059 -0.0881  0.1331
 8640SOL    HW137382   1.041   2.008   4.850  0.7261 -0.8349 -3.5095
 8640SOL    HW237383   0.943   1.957   4.765 -0.7587  0.8781  0.6146
 8641SOL     OW37384   2.299   4.350   8.723  0.2085  0.9047  0.5374
 8641SOL    HW137385   2.288   4.257   8.704  0.7789  0.7284  1.0834
 8641SOL    HW237386   2.394   4.363   8.723  0.6500 -2.4747  2.5455
 8642SOL     OW37387   1.698   1.000  11.339  0.5218 -0.0460 -0.2709
 8642SOL    HW137388   1.671   1.082  11.382  0.3722 -0.2772  0.0816
 8642SOL    HW237389   1.719   0.947  11.416 -2.1636  0.5058  0.8537
 8643SOL     OW37390   4.699   4.269   4.371  0.2189  0.0941  0.0940
 8643SOL    HW137391   4.710   4.304   4.282 -0.7731  1.3978  0.4803
 8643SOL    HW237392   4.659   4.184   4.356  0.9541 -0.5006  1.6005
 8644SOL     OW37393   1.855   4.547   4.416 -0.0711 -0.3554  0.5451
 8644SOL    HW137394   1.770   4.504   4.404 -0.0890 -0.0402 -0.4189
 8644SOL    HW237395   1.866   4.576   4.507  1.0232  0.8278  0.0415
 8645SOL     OW37396   2.425   2.570   4.031 -0.2504  0.0542  0.4018
 8645SOL    HW137397   2.498   2.626   4.003  0.7374 -2.0997 -1.3351
 8645SOL    HW237398   2.440   2.568   4.126  0.9191 -1.4369  0.1945
 8646SOL     OW37399   2.239   2.157   4.029  0.1873 -0.2333 -0.1355
 8646SOL    HW137400   2.273   2.237   3.989 -0.8193 -1.5592 -3.5546
 8646SOL    HW237401   2.249   2.091   3.961  0.8558  0.5260 -0.7806
 8647SOL     OW37402   0.041   0.132   5.518 -0.5453 -0.1119 -0.0350
 8647SOL    HW137403   4.691   0.080   5.486 -1.6830  0.5128  1.5414
 8647SOL    HW237404   0.040   0.092   5.605  2.0900 -0.6904 -0.2611
 8648SOL     OW37405   2.193   0.705   7.705 -0.2256  0.3295  0.5405
 8648SOL    HW137406   2.133   0.642   7.662 -0.1937 -0.5759  1.8231
 8648SOL    HW237407   2.274   0.703   7.654 -0.9997  1.2381 -0.7252
 8649SOL     OW37408   2.393   2.655   1.476  0.0643  0.0786 -0.0966
 8649SOL    HW137409   2.484   2.627   1.479  0.0224 -0.2811 -2.0602
 8649SOL    HW237410   2.370   2.635   1.385 -1.8634  2.2495 -0.0831
 8650SOL     OW37411   2.265   3.955   7.910  0.2910 -0.2041  0.5168
 8650SOL    HW137412   2.228   3.957   7.822  2.8210  1.7805 -0.4722
 8650SOL    HW237413   2.195   3.911   7.959  0.9331 -1.8198 -0.0111
 8651SOL     OW37414   2.622   4.641   9.859  0.1926  0.5696 -0.5235
 8651SOL    HW137415   2.605   0.005   9.891 -0.6843  0.0868  0.3300
 8651SOL    HW237416   2.715   4.640   9.880 -0.4102 -0.1803  2.0700
 8652SOL     OW37417   3.426   0.113  12.065  0.4465  0.3197  0.0267
 8652SOL    HW137418   3.453   0.024  12.084 -1.3848 -0.2678 -0.1417
 8652SOL    HW237419   3.369   0.134  12.139  1.3521  1.8992  0.2875
 8653SOL     OW37420   1.006   0.030   6.206 -0.3085  0.1446  0.1786
 8653SOL    HW137421   1.034   0.120   6.222 -1.1407 -0.2250  3.6032
 8653SOL    HW237422   1.086   4.709   6.233  1.5049  3.7718  0.8646
 8654SOL     OW37423   1.852   3.058  10.419  0.7231  0.2932  0.3099
 8654SOL    HW137424   1.925   3.112  10.448  1.2098  1.3722 -2.9275
 8654SOL    HW237425   1.789   3.075  10.490 -1.3161 -0.5360 -1.3262
 8655SOL     OW37426   3.015   1.845   9.815 -0.2263 -0.0335 -0.4022
 8655SOL    HW137427   3.086   1.800   9.861  1.6895  1.5345 -1.8361
 8655SOL    HW237428   2.999   1.927   9.862  2.5011 -0.8306  1.9001
 8656SOL     OW37429   2.645   0.100   4.465 -0.5537  0.0038 -0.5869
 8656SOL    HW137430   2.579   0.169   4.465 -0.0669  0.4561  1.0743
 8656SOL    HW237431   2.712   0.131   4.526 -0.3052 -0.6807 -0.5122
 8657SOL     OW37432   0.995   4.155  17.156  0.0403 -0.0174 -0.1151
 8657SOL    HW137433   1.051   4.142  17.080  0.3855 -2.5062  0.5888
 8657SOL    HW237434   1.048   4.123  17.229  1.0706  0.2545 -0.7391
 8658SOL     OW37435   1.947   1.277   7.024 -0.4328 -0.1013  0.0330
 8658SOL    HW137436   1.873   1.218   7.012 -1.3790  0.7092  1.8946
 8658SOL    HW237437   2.000   1.232   7.089 -0.8845 -0.2203  0.3183
 8659SOL     OW37438   2.877   2.029   8.855  0.3055  0.2585 -0.0271
 8659SOL    HW137439   2.949   2.093   8.853  1.2678 -0.8171  0.1673
 8659SOL    HW237440   2.859   2.025   8.761  0.4237 -0.8440  0.0036
 8660SOL     OW37441   2.702   1.290  16.025 -0.2783  0.7119 -0.0127
 8660SOL    HW137442   2.617   1.314  15.989 -0.3408 -0.4348 -0.6260
 8660SOL    HW237443   2.687   1.311  16.118 -1.0603  0.9563 -0.1948
 8661SOL     OW37444   3.376   4.538   8.216  0.5473  0.0037  0.7948
 8661SOL    HW137445   3.360   4.569   8.306  1.5346  3.9800 -0.4190
 8661SOL    HW237446   3.472   4.540   8.216  0.5449 -0.2480 -0.3091
 8662SOL     OW37447   0.509   2.558   5.331  0.0571  0.2441 -0.2060
 8662SOL    HW137448   0.459   2.499   5.387  1.7904 -0.7073  0.3459
 8662SOL    HW237449   0.486   2.640   5.375  3.0854  0.7451  0.4770
 8663SOL     OW37450   1.700   3.672   8.479  0.0908  0.0642  0.3647
 8663SOL    HW137451   1.754   3.655   8.556  0.9555 -1.8369 -0.6637
 8663SOL    HW237452   1.645   3.742   8.515  1.2155  0.4992  1.2382
 8664SOL     OW37453   2.697   2.938   3.492 -0.3660 -0.1525 -0.2860
 8664SOL    HW137454   2.742   2.866   3.536 -1.0701  0.4264  1.3707
 8664SOL    HW237455   2.760   2.952   3.422 -1.1708  2.5001 -0.4868
 8665SOL     OW37456   3.876   0.946  13.278  0.0205  0.1939 -0.3478
 8665SOL    HW137457   3.884   1.014  13.211  2.1159 -2.0261 -2.3399
 8665SOL    HW237458   3.807   0.888  13.246 -0.8108  0.0330  1.7300
 8666SOL     OW37459   4.634   2.699   3.420 -0.1171  0.5947  0.4170
 8666SOL    HW137460   0.002   2.726   3.429 -0.2141  1.0423  0.0891
 8666SOL    HW237461   4.640   2.616   3.371 -0.5193  0.1065  1.1971
 8667SOL     OW37462   1.180   1.086   7.637 -0.2246  0.1430 -0.4204
 8667SOL    HW137463   1.159   1.179   7.636 -1.4438 -0.1248  0.1432
 8667SOL    HW237464   1.105   1.048   7.591 -0.0985  1.1262 -1.4203
 8668SOL     OW37465   1.239   2.889   5.236 -0.1106  0.1856 -0.3162
 8668SOL    HW137466   1.167   2.913   5.178  1.2575  3.6174 -0.5872
 8668SOL    HW237467   1.218   2.943   5.312 -1.0569  0.4731 -0.7772
 8669SOL     OW37468   0.325   4.231   9.252 -0.0978  0.1383 -0.4497
 8669SOL    HW137469   0.266   4.303   9.273 -1.3786 -0.6285 -1.4194
 8669SOL    HW237470   0.347   4.259   9.163  1.5049  1.3812  0.3517
 8670SOL     OW37471   0.333   4.275  11.423 -0.4355  0.1225  0.2021
 8670SOL    HW137472   0.424   4.266  11.452  0.1851  2.8605 -0.8999
 8670SOL    HW237473   0.309   4.183  11.414 -1.2791  0.4356 -0.7413
 8671SOL     OW37474   1.052   3.994   1.709  0.2646 -0.5643 -0.5513
 8671SOL    HW137475   1.073   4.054   1.781  1.6929  0.1661 -1.5820
 8671SOL    HW237476   1.064   4.064   1.646 -0.7729  0.1122  0.0192
 8672SOL     OW37477   1.269   1.007   4.234  0.4748  0.3966  0.0173
 8672SOL    HW137478   1.341   0.981   4.291  0.1333  0.7849  0.6281
 8672SOL    HW237479   1.189   0.967   4.267  1.0832 -1.4081 -0.7042
 8673SOL     OW37480   1.141   1.569  10.370  0.3405 -0.1178 -0.1403
 8673SOL    HW137481   1.190   1.599  10.294 -0.1809  1.7247  0.2571
 8673SOL    HW237482   1.141   1.643  10.430  0.9993 -0.9380  0.8816
 8674SOL     OW37483   2.214   4.313   3.612  0.2180  0.0534 -0.0470
 8674SOL    HW137484   2.132   4.268   3.633 -0.0454 -0.0556 -1.3007
 8674SOL    HW237485   2.206   4.386   3.673 -1.4177 -0.3701  0.2554
 8675SOL     OW37486   1.157   3.871   7.139 -0.0181 -0.1747  0.3691
 8675SOL    HW137487   1.106   3.879   7.219  0.0484  2.5951  0.1413
 8675SOL    HW237488   1.099   3.833   7.073  0.5578 -0.8168  0.2413
 8676SOL     OW37489   0.692   4.429  10.545 -0.3240 -0.3435  0.2863
 8676SOL    HW137490   0.784   4.404  10.533  0.0904 -0.0191  2.7933
 8676SOL    HW237491   0.670   4.346  10.587 -1.7170  0.7882  1.8024
 8677SOL     OW37492   4.137   2.127   7.113 -0.0313 -0.2019  0.7070
 8677SOL    HW137493   4.044   2.139   7.097  0.1987  1.3999  0.6141
 8677SOL    HW237494   4.157   2.034   7.103 -0.8042 -0.0302 -2.4370
 8678SOL     OW37495   0.535   1.647  12.638 -0.5627  0.5685 -0.6063
 8678SOL    HW137496   0.451   1.638  12.684  0.5962  1.4116  1.6733
 8678SOL    HW237497   0.573   1.729  12.669 -1.7242 -0.1275  2.5963
 8679SOL     OW37498   1.068   3.056   0.270  0.3061 -0.1959 -0.0969
 8679SOL    HW137499   1.152   3.088   0.304 -0.0078  0.0931  0.4133
 8679SOL    HW237500   1.011   3.099   0.334  1.3476  0.1333  0.6237
 8680SOL     OW37501   0.244   2.994   6.622 -0.3319  0.3332 -0.2020
 8680SOL    HW137502   0.288   3.078   6.632  2.0468 -1.0088  0.4927
 8680SOL    HW237503   0.167   3.010   6.567 -0.7375  1.3768  0.6656
 8681SOL     OW37504   2.060   1.586   8.952 -0.0413  0.0282 -0.0047
 8681SOL    HW137505   1.969   1.614   8.954  0.5802  1.8399  3.5158
 8681SOL    HW237506   2.052   1.518   9.019 -0.2121  2.8231  2.8159
 8682SOL     OW37507   2.303   1.268   1.994 -0.4866  0.6394  0.7532
 8682SOL    HW137508   2.313   1.294   1.903 -1.5345 -0.6732  0.2786
 8682SOL    HW237509   2.305   1.173   1.986 -1.4431  0.7850 -1.2515
 8683SOL     OW37510   2.569   3.243   4.075 -0.6078 -0.7677 -0.4370
 8683SOL    HW137511   2.623   3.212   4.002 -0.5509 -0.7754 -0.3914
 8683SOL    HW237512   2.568   3.173   4.140  2.7500  0.7677  1.3127
 8684SOL     OW37513   1.403   3.543   2.735 -0.1378 -0.1204 -0.2792
 8684SOL    HW137514   1.353   3.466   2.706 -0.1853 -0.4355  0.6352
 8684SOL    HW237515   1.489   3.503   2.747 -0.4022 -1.3474 -2.4620
 8685SOL     OW37516   2.663   3.905   7.716 -0.1658 -0.1919 -0.0982
 8685SOL    HW137517   2.584   3.929   7.670  0.6336  0.6363 -1.0369
 8685SOL    HW237518   2.660   3.946   7.803 -0.3820  0.9320 -0.6403
 8686SOL     OW37519   1.887   0.678   8.105  0.0815  0.3574 -0.2335
 8686SOL    HW137520   1.960   0.693   8.046  0.1671 -1.0851 -0.5072
 8686SOL    HW237521   1.855   0.768   8.112 -1.3206 -0.2650  1.3554
 8687SOL     OW37522   4.018   1.610   8.891 -0.2634  0.7271 -0.3215
 8687SOL    HW137523   4.055   1.580   8.808 -0.9166  0.9577 -0.7007
 8687SOL    HW237524   4.090   1.649   8.941 -0.4274  0.8351 -0.1717
 8688SOL     OW37525   1.444   0.713   4.612 -0.0443 -0.5280  0.4800
 8688SOL    HW137526   1.501   0.639   4.632 -0.4054 -0.4579  1.8090
 8688SOL    HW237527   1.461   0.764   4.691  2.1111  1.4015 -1.2348
 8689SOL     OW37528   0.394   0.414   7.026  0.0258 -0.2968  0.0486
 8689SOL    HW137529   0.396   0.329   6.983  0.3950  0.4567 -1.4386
 8689SOL    HW237530   0.300   0.428   7.015 -0.3503 -1.2187  2.2130
 8690SOL     OW37531   4.236   1.390   6.286  0.6323  0.1947 -0.2883
 8690SOL    HW137532   4.318   1.349   6.315  0.7778 -0.0900 -1.1080
 8690SOL    HW237533   4.223   1.437   6.368 -3.6045  0.4961 -1.1236
 8691SOL     OW37534   2.412   3.756   1.765 -0.4251 -0.6465  0.4090
 8691SOL    HW137535   2.506   3.774   1.774 -0.3706 -0.3362 -0.8313
 8691SOL    HW237536   2.372   3.834   1.804 -1.3687 -0.3182 -1.2470
 8692SOL     OW37537   0.225   3.118  16.534  0.4139 -0.4972 -0.5553
 8692SOL    HW137538   0.288   3.187  16.512  0.7419 -0.3155  0.9904
 8692SOL    HW237539   0.206   3.071  16.452  0.4904  0.1139 -0.9264
 8693SOL     OW37540   3.708   1.157   2.883 -0.7456 -0.6617  0.3204
 8693SOL    HW137541   3.685   1.241   2.923 -0.9339 -0.0960 -0.9893
 8693SOL    HW237542   3.632   1.108   2.917 -0.1253 -1.8068  0.0630
 8694SOL     OW37543   0.013   1.874  10.937 -0.2384  0.7083 -0.3424
 8694SOL    HW137544   0.046   1.793  10.899  0.6426  1.3079 -0.8379
 8694SOL    HW237545   0.021   1.862  11.032  1.9260 -0.6618 -0.6983
 8695SOL     OW37546   2.780   4.352   5.528 -0.0391 -0.4469  0.0554
 8695SOL    HW137547   2.797   4.446   5.536 -0.1317 -0.6352  2.4616
 8695SOL    HW237548   2.717   4.332   5.597  0.6947 -0.3717  0.7421
 8696SOL     OW37549   2.769   3.288   1.858 -0.6179 -0.5434  0.4711
 8696SOL    HW137550   2.775   3.344   1.780  0.7766 -1.8861 -0.3684
 8696SOL    HW237551   2.835   3.327   1.915  0.7674  0.5704 -1.9047
 8697SOL     OW37552   1.836   1.812  16.081 -0.1860  0.0103  0.3249
 8697SOL    HW137553   1.774   1.740  16.072 -0.1136  0.3480 -2.9109
 8697SOL    HW237554   1.852   1.827  15.988 -1.7357  2.2994  0.4313
 8698SOL     OW37555   3.736   3.253  13.627 -0.1448  0.3001  0.1480
 8698SOL    HW137556   3.774   3.329  13.669 -0.6831  0.2088  0.7945
 8698SOL    HW237557   3.670   3.219  13.688 -0.5524  0.6600 -0.0922
 8699SOL     OW37558   3.156   1.537   4.982 -0.0832 -0.0963 -0.1482
 8699SOL    HW137559   3.130   1.607   5.042  0.1833 -0.5882  0.5391
 8699SOL    HW237560   3.223   1.586   4.935  1.3904 -1.5094  0.4811
 8700SOL     OW37561   3.456   4.219   9.049  0.1639 -0.1274 -0.4839
 8700SOL    HW137562   3.508   4.297   9.029 -2.2221  1.8942  1.1722
 8700SOL    HW237563   3.454   4.227   9.145  1.0470 -1.7293 -0.3352
 8701SOL     OW37564   3.425   3.816   5.656  0.4332  0.0501 -0.1516
 8701SOL    HW137565   3.367   3.815   5.732 -0.8904 -1.7863 -1.2058
 8701SOL    HW237566   3.356   3.802   5.591  0.3206  0.2544 -0.0766
 8702SOL     OW37567   4.117   4.555  12.730 -0.5064  1.1018  0.4607
 8702SOL    HW137568   4.205   4.520  12.745 -0.4886  0.0289 -2.0862
 8702SOL    HW237569   4.132   4.611  12.654  0.5537  0.2803  0.0676
 8703SOL     OW37570   2.671   2.224   6.673 -0.5083  0.1721 -0.0763
 8703SOL    HW137571   2.590   2.211   6.626 -1.0475  1.5978  0.4371
 8703SOL    HW237572   2.639   2.245   6.761 -1.9974 -2.4669 -0.0098
 8704SOL     OW37573   0.924   4.024   7.308 -0.2485  0.0776 -0.0309
 8704SOL    HW137574   0.936   4.087   7.378  1.1051 -1.4999  1.1580
 8704SOL    HW237575   0.928   4.091   7.240 -0.5879 -0.6924 -0.8157
 8705SOL     OW37576   0.498   1.367   6.488 -0.3676 -0.0636  0.5530
 8705SOL    HW137577   0.427   1.306   6.470 -0.3492 -0.5332  2.1084
 8705SOL    HW237578   0.569   1.303   6.492 -1.0842 -1.0779 -2.5154
 8706SOL     OW37579   4.046   0.624   2.973  0.4033  0.3840  0.0244
 8706SOL    HW137580   4.141   0.614   2.979  0.6865  1.7531 -2.2099
 8706SOL    HW237581   4.018   0.561   3.039 -0.6292 -1.0758 -1.7812
 8707SOL     OW37582   3.571   4.244   9.579 -0.5586  0.2079 -0.2896
 8707SOL    HW137583   3.592   4.261   9.671 -0.7133  0.1568 -0.2442
 8707SOL    HW237584   3.637   4.294   9.531 -0.2176  0.2496  0.2234
 8708SOL     OW37585   0.341   1.518   4.952  0.3436 -0.3637  0.1523
 8708SOL    HW137586   0.362   1.465   5.029 -0.7844 -3.0180 -1.3570
 8708SOL    HW237587   0.429   1.555   4.946 -0.9958  2.3465 -2.4840
 8709SOL     OW37588   0.830   0.759   3.067  0.3390 -0.2298 -0.1682
 8709SOL    HW137589   0.739   0.742   3.087  0.4062 -0.8907 -0.4262
 8709SOL    HW237590   0.829   0.854   3.083 -0.9818 -0.5529  1.5906
 8710SOL     OW37591   3.187   3.266   2.590  0.1237  0.2738  0.0785
 8710SOL    HW137592   3.212   3.193   2.534  0.0722 -1.2632  2.0527
 8710SOL    HW237593   3.234   3.338   2.549 -0.2778  0.5334  0.0757
 8711SOL     OW37594   0.116   1.908  13.779  0.1443  0.4531 -0.0492
 8711SOL    HW137595   0.052   1.908  13.850  0.0183 -2.7979 -0.1536
 8711SOL    HW237596   0.066   1.878  13.703  0.9371 -1.8204  0.3189
 8712SOL     OW37597   0.359   2.019  16.190 -0.2750 -0.3697 -0.0262
 8712SOL    HW137598   0.351   2.070  16.109 -2.8991 -0.6354  0.0554
 8712SOL    HW237599   0.435   1.969  16.162  1.3695  1.2478  1.5175
 8713SOL     OW37600   0.379   2.099   7.823  0.8979  0.1400  0.3004
 8713SOL    HW137601   0.369   2.092   7.918  0.1873  2.3304  0.3891
 8713SOL    HW237602   0.287   2.095   7.797  0.9428  2.1169 -0.1879
 8714SOL     OW37603   0.699   0.799   0.345  0.3888 -0.5062 -0.2419
 8714SOL    HW137604   0.789   0.804   0.378  0.2120 -2.1181  0.4590
 8714SOL    HW237605   0.716   0.826   0.255  1.4039 -0.9721 -0.1890
 8715SOL     OW37606   0.983   3.466   6.052  0.4849 -0.1488 -0.2710
 8715SOL    HW137607   1.023   3.379   6.054 -1.2843 -0.9352  1.4550
 8715SOL    HW237608   1.048   3.509   6.108 -0.7214  0.2432  0.8297
 8716SOL     OW37609   0.982   1.411   2.485 -0.1632  0.1917  0.1709
 8716SOL    HW137610   1.075   1.405   2.504  0.0030 -0.1110 -0.7680
 8716SOL    HW237611   0.964   1.317   2.492  0.1324  0.0154 -1.4315
 8717SOL     OW37612   2.020   2.403   8.890  0.2804  0.3272  0.0911
 8717SOL    HW137613   1.946   2.387   8.949 -0.3310  1.9266 -0.2466
 8717SOL    HW237614   2.027   2.495   8.916 -0.1589  1.3939 -3.6282
 8718SOL     OW37615   0.732   0.636  10.014  0.5623  0.0972 -0.3196
 8718SOL    HW137616   0.794   0.623   9.943  0.6379 -1.0724 -0.0395
 8718SOL    HW237617   0.656   0.627   9.957 -0.0855  3.2931 -0.0009
 8719SOL     OW37618   2.061   0.733   6.006  0.0254 -0.2871 -0.6955
 8719SOL    HW137619   2.089   0.771   5.923  1.5926 -2.3895 -1.1282
 8719SOL    HW237620   2.025   0.808   6.054 -0.7778 -2.6914  2.4935
 8720SOL     OW37621   2.606   0.706   5.854  0.0498  0.0178 -0.5600
 8720SOL    HW137622   2.543   0.778   5.845 -0.6069 -0.3293  1.1867
 8720SOL    HW237623   2.683   0.759   5.875 -0.5420  1.5723 -2.3746
 8721SOL     OW37624   1.025   0.620   5.186 -0.0758  0.7484 -0.1888
 8721SOL    HW137625   1.090   0.550   5.196 -3.1082 -1.8212  1.7540
 8721SOL    HW237626   1.053   0.665   5.107 -2.6483 -0.1335 -1.5945
 8722SOL     OW37627   3.219   3.380   9.150 -0.1502 -0.8980 -0.1760
 8722SOL    HW137628   3.301   3.331   9.139 -0.5898 -1.7980  0.5725
 8722SOL    HW237629   3.160   3.319   9.194  0.0154 -0.8565  0.1072
 8723SOL     OW37630   2.699   2.096   1.238  0.0741 -0.3743 -0.2744
 8723SOL    HW137631   2.630   2.144   1.284 -1.1117 -0.3428 -2.0594
 8723SOL    HW237632   2.678   2.142   1.156 -0.7823 -1.4523 -0.6747
 8724SOL     OW37633   4.359   1.379  16.602 -0.2129 -0.5345  0.2491
 8724SOL    HW137634   4.294   1.375  16.532  1.3987  0.7668 -1.3259
 8724SOL    HW237635   4.405   1.296  16.615  0.3967 -0.1006  0.8521
 8725SOL     OW37636   1.091   1.006   3.093  0.5337  0.0621  0.2150
 8725SOL    HW137637   1.089   1.099   3.072  4.6947  0.2797  0.8404
 8725SOL    HW237638   1.075   1.007   3.188 -1.3385  1.7446 -0.1178
 8726SOL     OW37639   1.346   3.685   7.089 -0.0996  0.3053  0.3332
 8726SOL    HW137640   1.275   3.748   7.101  0.7972  1.3964 -0.1276
 8726SOL    HW237641   1.372   3.721   7.004  0.8883 -2.1576 -0.3934
 8727SOL     OW37642   2.513   4.170   4.279 -0.0979 -0.8858 -0.2801
 8727SOL    HW137643   2.583   4.233   4.296 -0.6627 -0.7844  1.6255
 8727SOL    HW237644   2.561   4.089   4.266  1.2429  0.2771 -2.5323
 8728SOL     OW37645   4.560   0.950  11.833  0.6636  0.2899 -1.0670
 8728SOL    HW137646   4.613   0.873  11.813  0.8854  0.1390  0.0955
 8728SOL    HW237647   4.472   0.923  11.808  0.0722  0.3392  0.9001
 8729SOL     OW37648   4.045   1.524  16.668 -0.1251 -0.6405 -0.1947
 8729SOL    HW137649   4.018   1.444  16.623  1.2503 -1.3727  0.2801
 8729SOL    HW237650   3.960   1.563  16.688 -0.2835 -0.3367 -1.4526
 8730SOL     OW37651   0.330   3.377   2.585  0.4155 -0.0334 -0.4555
 8730SOL    HW137652   0.411   3.427   2.583 -0.6269  1.6328 -1.4932
 8730SOL    HW237653   0.309   3.404   2.496 -0.0485  1.7542  0.2037
 8731SOL     OW37654   1.219   3.462   7.787  0.0164 -0.1426  0.1951
 8731SOL    HW137655   1.285   3.392   7.784  0.1394  0.0022 -0.3193
 8731SOL    HW237656   1.242   3.510   7.708  2.0093 -0.2973  0.6666
 8732SOL     OW37657   2.591   3.953  16.788 -0.1448 -0.1089  0.7979
 8732SOL    HW137658   2.600   3.931  16.880  1.8967 -1.2040  0.3325
 8732SOL    HW237659   2.496   3.958  16.792 -0.3017  1.1550 -4.3887
 8733SOL     OW37660   3.042   2.743   4.823  0.4479  0.3494  0.5026
 8733SOL    HW137661   3.084   2.813   4.873  0.1716  1.5303 -0.8973
 8733SOL    HW237662   3.014   2.789   4.744  0.6586  1.1721  0.9055
 8734SOL     OW37663   4.612   4.305   8.630  0.0436 -0.2118 -0.0933
 8734SOL    HW137664   4.660   4.355   8.696 -2.9430  1.6350  0.7172
 8734SOL    HW237665   4.524   4.343   8.637 -0.2193 -0.8181 -0.1252
 8735SOL     OW37666   3.889   4.039   2.353  0.3413  0.6226  0.5899
 8735SOL    HW137667   3.911   4.081   2.269  0.8680  0.1194  0.4759
 8735SOL    HW237668   3.811   3.989   2.332  0.0567  1.7027 -0.9345
 8736SOL     OW37669   2.753   4.634   0.793 -0.6976 -0.5788 -0.5372
 8736SOL    HW137670   2.723   4.546   0.818  0.6659 -0.5671  1.2074
 8736SOL    HW237671   2.823   4.611   0.731  1.5223  0.0927  1.7336
 8737SOL     OW37672   2.081   2.865   0.137 -0.2253 -0.1434 -0.4683
 8737SOL    HW137673   1.999   2.821   0.159  0.7552 -1.5940  0.2917
 8737SOL    HW237674   2.136   2.796   0.102  3.1345  0.2695  3.9549
 8738SOL     OW37675   1.882   2.222  16.214 -0.1648 -0.3521  0.1816
 8738SOL    HW137676   1.950   2.160  16.240  0.7166  0.3611 -0.4178
 8738SOL    HW237677   1.898   2.294  16.276 -1.8150 -2.6031  3.2241
 8739SOL     OW37678   4.559   4.212   5.871 -0.7436 -0.5920 -0.3551
 8739SOL    HW137679   4.508   4.286   5.839  0.9386  0.6223 -0.2205
 8739SOL    HW237680   4.617   4.256   5.933  0.3506 -1.1966 -0.9426
 8740SOL     OW37681   2.952   1.783   6.740 -0.1576  0.1408  0.1361
 8740SOL    HW137682   2.872   1.785   6.686 -1.6742  0.9479  2.4371
 8740SOL    HW237683   2.988   1.701   6.705 -0.0031  0.0852  0.4271
 8741SOL     OW37684   4.091   0.476   8.484  0.5657 -0.2970 -0.0651
 8741SOL    HW137685   4.171   0.472   8.536  0.8835 -0.2757 -0.5535
 8741SOL    HW237686   4.070   0.569   8.482 -3.9555 -1.3059 -0.4451
 8742SOL     OW37687   4.218   4.437   2.752 -0.4627 -0.1306  1.0004
 8742SOL    HW137688   4.279   4.478   2.690 -3.4398  2.3291 -0.2926
 8742SOL    HW237689   4.139   4.455   2.701  0.9726  2.3018 -0.3404
 8743SOL     OW37690   2.139   3.625   1.064  0.4554 -0.0181 -0.0251
 8743SOL    HW137691   2.151   3.574   1.144 -1.0443  0.7342  0.6767
 8743SOL    HW237692   2.050   3.657   1.075  0.2052 -0.6737 -0.1159
 8744SOL     OW37693   2.355   2.725   2.884  0.5154  0.1590 -0.5835
 8744SOL    HW137694   2.366   2.802   2.829 -0.4114  1.0460  0.4748
 8744SOL    HW237695   2.445   2.695   2.894  0.3003  0.2171  1.6042
 8745SOL     OW37696   2.856   0.030   8.119  0.5744  0.1992  0.2844
 8745SOL    HW137697   2.883   4.672   8.077 -1.2580 -1.0966  1.5999
 8745SOL    HW237698   2.894   0.098   8.063 -1.1935  1.3809  0.5189
 8746SOL     OW37699   0.159   2.005   6.206 -0.6164  0.5988 -0.7101
 8746SOL    HW137700   0.189   1.923   6.246 -1.2659  0.1383 -1.1781
 8746SOL    HW237701   0.132   1.969   6.122  2.0554  0.9399 -1.7176
 8747SOL     OW37702   0.910   4.405   9.174 -0.0590  0.0756 -0.2824
 8747SOL    HW137703   0.843   4.403   9.242  0.5518 -1.2599  0.2659
 8747SOL    HW237704   0.963   4.328   9.193  0.0982 -0.1709 -1.7141
 8748SOL     OW37705   4.471   1.232   7.731 -0.0737 -0.9766  0.0666
 8748SOL    HW137706   4.435   1.144   7.719 -0.6966 -0.9155  1.5158
 8748SOL    HW237707   4.507   1.233   7.819 -0.7507  1.4876  0.3156
 8749SOL     OW37708   2.564   2.151   8.431 -0.0694  0.6223 -0.2239
 8749SOL    HW137709   2.522   2.233   8.405 -1.6274  0.2665  1.1389
 8749SOL    HW237710   2.523   2.090   8.369  0.9738 -0.0869 -0.2160
 8750SOL     OW37711   3.931   1.179   3.226  0.2210 -0.7468  0.0142
 8750SOL    HW137712   3.940   1.085   3.209  2.2305 -0.3107 -1.4098
 8750SOL    HW237713   3.892   1.187   3.313 -0.5268 -0.2955 -0.3582
 8751SOL     OW37714   0.581   3.148   6.188 -0.0974 -0.2321 -0.1511
 8751SOL    HW137715   0.567   3.067   6.138  0.2820 -0.2564 -0.2206
 8751SOL    HW237716   0.648   3.193   6.136 -1.8404  2.5059 -0.0468
 8752SOL     OW37717   3.482   0.148  17.147  0.2125  0.2943 -0.4671
 8752SOL    HW137718   3.482   0.054  17.131  1.4365  0.2557 -0.1770
 8752SOL    HW237719   3.555   0.173  17.091  2.2770 -2.1734  1.1418
 8753SOL     OW37720   0.717   1.418   8.097  0.1396 -0.4093  0.1141
 8753SOL    HW137721   0.672   1.352   8.150  0.6645 -1.2726 -0.5099
 8753SOL    HW237722   0.719   1.496   8.153  0.1949 -1.0398  0.9986
 8754SOL     OW37723   2.086   3.226   1.498  0.5576 -0.5287  0.2688
 8754SOL    HW137724   2.067   3.228   1.592 -0.9619 -1.5657 -0.0164
 8754SOL    HW237725   2.177   3.195   1.503 -0.1068 -2.9175 -2.5380
 8755SOL     OW37726   3.000   3.677   8.912 -0.4053  0.0429 -1.1936
 8755SOL    HW137727   3.020   3.600   8.859 -0.8851 -2.2480  1.9322
 8755SOL    HW237728   2.920   3.647   8.956  0.0809  0.4827 -0.0052
 8756SOL     OW37729   4.641   2.136   4.021  0.2533 -0.2082 -1.0660
 8756SOL    HW137730   4.706   2.183   3.969 -0.3567 -0.4111 -1.9988
 8756SOL    HW237731   4.655   2.181   4.105  2.2905  1.6850 -2.4263
 8757SOL     OW37732   2.536   1.318   4.676  0.3221 -0.4105 -0.5092
 8757SOL    HW137733   2.451   1.335   4.634  0.2736  1.0449  0.1806
 8757SOL    HW237734   2.581   1.403   4.671  0.0391 -0.1299  2.1078
 8758SOL     OW37735   4.499   0.854  15.457  0.0473  0.9502  0.7502
 8758SOL    HW137736   4.579   0.822  15.414 -0.5019  1.9969 -1.0286
 8758SOL    HW237737   4.466   0.771  15.492  0.5876 -0.1780 -1.4019
 8759SOL     OW37738   2.136   3.168   6.622 -0.6616 -0.2857 -1.2359
 8759SOL    HW137739   2.145   3.250   6.670  1.9659 -1.2805 -0.0372
 8759SOL    HW237740   2.077   3.197   6.553  0.0075  0.3051 -1.5561
 8760SOL     OW37741   4.017   3.116   2.648  0.0069  0.3713  0.5778
 8760SOL    HW137742   3.970   3.033   2.644  0.2970  0.2796 -1.0906
 8760SOL    HW237743   4.055   3.130   2.561 -1.1824 -1.0601 -0.1712
 8761SOL     OW37744   1.661   1.068   4.093  0.1230  0.0089  1.0081
 8761SOL    HW137745   1.648   1.049   4.000  1.6862  1.4725  0.4982
 8761SOL    HW237746   1.755   1.084   4.103  0.3356  0.2588 -1.3111
 8762SOL     OW37747   4.348   1.359   8.839  0.3627  0.1265 -0.3806
 8762SOL    HW137748   4.388   1.437   8.802  1.9580  0.1418  1.3700
 8762SOL    HW237749   4.257   1.360   8.810  0.6123 -1.0940 -1.2212
 8763SOL     OW37750   0.001   4.609   0.272 -0.2158  0.0498  0.1434
 8763SOL    HW137751   0.001   4.580   0.181 -2.6485  2.0510 -0.4917
 8763SOL    HW237752   0.030   4.525   0.308 -2.6791 -0.7899  0.1371
 8764SOL     OW37753   2.142   4.393   6.916  0.5262  0.0275 -0.6878
 8764SOL    HW137754   2.156   4.364   6.826  0.3144 -0.2394 -0.6341
 8764SOL    HW237755   2.097   4.476   6.901  0.4109  0.1463  0.2896
 8765SOL     OW37756   2.709   1.577   5.304  0.2331 -0.1264 -0.3463
 8765SOL    HW137757   2.630   1.565   5.357  0.0290 -1.3206 -0.9409
 8765SOL    HW237758   2.765   1.616   5.372 -0.7137 -2.5025  1.7961
 8766SOL     OW37759   3.754   1.059  11.446  0.1495  0.1227 -0.3807
 8766SOL    HW137760   3.718   1.082  11.532  1.6381  0.3962  0.1634
 8766SOL    HW237761   3.676   1.015  11.412  0.3232  0.4770 -1.2377
 8767SOL     OW37762   3.849   4.538   4.447 -0.4401  0.1561 -0.2164
 8767SOL    HW137763   3.831   4.629   4.423 -2.0245  0.0642  0.6172
 8767SOL    HW237764   3.764   4.516   4.485 -0.0396 -0.6583  0.2219
 8768SOL     OW37765   3.031   4.022   0.474  0.4960 -0.2866 -0.3958
 8768SOL    HW137766   3.099   4.084   0.501  0.1194  0.9866 -2.3770
 8768SOL    HW237767   2.950   4.073   0.469  1.0067  0.7752  1.8527
 8769SOL     OW37768   3.540   0.580  14.208 -0.2720  0.2773  0.4120
 8769SOL    HW137769   3.627   0.541  14.217 -0.3435  0.3652  1.4351
 8769SOL    HW237770   3.558   0.674  14.202  0.8107  0.0805  0.4403
 8770SOL     OW37771   4.444   4.694   4.386  0.1583  0.3221 -0.2194
 8770SOL    HW137772   4.358   4.721   4.416  0.3650  0.3105  0.3723
 8770SOL    HW237773   4.414   4.611   4.350  0.8600 -0.5788  1.3018
 8771SOL     OW37774   0.664   1.860   8.665 -0.7493  0.4104  0.4706
 8771SOL    HW137775   0.609   1.935   8.645  1.4868  2.2595  1.2639
 8771SOL    HW237776   0.755   1.891   8.667 -0.1933 -1.2088  0.8441
 8772SOL     OW37777   4.305   4.236   2.249  0.1943 -0.5498 -0.3146
 8772SOL    HW137778   4.215   4.235   2.283  0.7012  1.1227  1.0561
 8772SOL    HW237779   4.320   4.330   2.258 -0.7584 -0.5683  1.5242
 8773SOL     OW37780   0.177   0.972  16.512 -0.7398 -0.2518 -0.5705
 8773SOL    HW137781   0.083   0.981  16.522 -0.7205  0.2027 -0.7987
 8773SOL    HW237782   0.195   1.061  16.482 -2.2718 -0.9614 -3.6047
 8774SOL     OW37783   1.148   3.218   5.997  0.0821  0.0997 -0.2918
 8774SOL    HW137784   1.137   3.159   5.923  0.6629  0.3277 -0.5577
 8774SOL    HW237785   1.239   3.246   5.989  0.0889  0.1703  0.0254
 8775SOL     OW37786   2.774   2.756   2.474  0.5668  0.2206 -0.2900
 8775SOL    HW137787   2.825   2.834   2.450 -1.6214  1.9063  0.4893
 8775SOL    HW237788   2.792   2.692   2.405 -1.1950 -1.8579  1.2121
 8776SOL     OW37789   4.415   1.868  13.854  0.0308 -0.6306 -0.5048
 8776SOL    HW137790   4.502   1.896  13.882 -0.6546  1.4370 -0.4307
 8776SOL    HW237791   4.398   1.942  13.796  1.3458  1.2068  1.4359
 8777SOL     OW37792   2.557   2.195   6.921 -0.1402 -0.2421 -0.5503
 8777SOL    HW137793   2.619   2.228   6.987  0.0674  1.3075 -1.5108
 8777SOL    HW237794   2.528   2.111   6.955 -0.2101  0.4142  1.0103
 8778SOL     OW37795   4.488   0.858  14.631  0.3736  0.4210  0.4602
 8778SOL    HW137796   4.499   0.771  14.592 -1.5082  0.8572 -1.0550
 8778SOL    HW237797   4.508   0.837  14.722  0.5735  1.5356  0.6714
 8779SOL     OW37798   3.985   1.425   0.919  0.0642 -0.5523  0.2511
 8779SOL    HW137799   3.983   1.474   0.837  0.3095  0.3310  0.7723
 8779SOL    HW237800   3.923   1.354   0.902 -0.0489  0.0395 -1.7778
 8780SOL     OW37801   3.112   3.781   3.498  0.8099 -0.1006  0.0807
 8780SOL    HW137802   3.069   3.833   3.430  0.1330  0.4224  0.9121
 8780SOL    HW237803   3.069   3.697   3.489  1.8944 -0.7065  0.5834
 8781SOL     OW37804   3.095   1.048  15.558  0.1266 -0.7751  0.0469
 8781SOL    HW137805   3.056   1.122  15.606 -0.0826  0.3385 -1.8123
 8781SOL    HW237806   3.034   1.052  15.484  1.1433 -0.1927 -0.7580
 8782SOL     OW37807   2.298   0.130   1.996  0.2873 -0.5155  0.0251
 8782SOL    HW137808   2.222   0.161   1.948 -1.3161  1.4295  3.7728
 8782SOL    HW237809   2.250   0.121   2.079 -2.3154 -1.7406 -1.6212
 8783SOL     OW37810   4.316   1.465   7.663 -0.1021 -0.0672  0.1952
 8783SOL    HW137811   4.375   1.399   7.698  0.0961 -0.8643 -1.6266
 8783SOL    HW237812   4.249   1.413   7.619 -2.1966  1.8942  1.0621
 8784SOL     OW37813   2.620   0.321   6.004  0.5427  0.2757  0.0630
 8784SOL    HW137814   2.547   0.383   6.003  0.0195 -0.3463  0.4407
 8784SOL    HW237815   2.661   0.369   6.076  0.5984  1.9696 -1.0881
 8785SOL     OW37816   0.381   0.730  15.338  0.0311 -0.1966 -0.4927
 8785SOL    HW137817   0.309   0.753  15.397  1.7744  1.6555  0.9181
 8785SOL    HW237818   0.428   0.813  15.332  1.0927 -0.7111  0.7871
 8786SOL     OW37819   0.929   0.829   9.780 -0.4414 -0.0620  0.1005
 8786SOL    HW137820   0.928   0.835   9.876 -1.0836 -0.5084  0.1203
 8786SOL    HW237821   0.996   0.894   9.756 -0.9091  0.2664 -0.3060
 8787SOL     OW37822   4.477   3.868  14.247 -0.0487  0.2781 -0.4466
 8787SOL    HW137823   4.483   3.800  14.180  0.3948 -0.1201 -0.0026
 8787SOL    HW237824   4.541   3.929  14.210  0.1590  0.9294  0.9609
 8788SOL     OW37825   0.319   2.768   5.828 -0.1055 -0.0388 -0.3274
 8788SOL    HW137826   0.347   2.831   5.761  0.2330  1.7861  1.5111
 8788SOL    HW237827   0.226   2.789   5.832 -0.2739 -0.4238 -2.0619
 8789SOL     OW37828   2.451   3.983   9.363 -0.4431  0.1164  0.0540
 8789SOL    HW137829   2.405   3.907   9.399 -1.6378  1.1562  0.7557
 8789SOL    HW237830   2.389   4.056   9.365 -1.1395 -0.4516 -0.5712
 8790SOL     OW37831   3.035   0.002   3.024 -0.1928  0.0715 -0.2860
 8790SOL    HW137832   3.117   0.047   3.045 -2.1208  2.2070  2.6510
 8790SOL    HW237833   2.987   0.067   2.972  0.2216 -0.5779 -1.4907
 8791SOL     OW37834   2.856   0.431   5.850  0.5662 -0.0190 -0.3395
 8791SOL    HW137835   2.894   0.343   5.852  2.0110  0.6227  0.4004
 8791SOL    HW237836   2.768   0.409   5.879  0.8440 -0.4407  0.1816
 8792SOL     OW37837   0.175   4.282   7.078 -0.2074  0.1520 -0.0423
 8792SOL    HW137838   0.197   4.205   7.026 -1.7195 -0.9258  0.9234
 8792SOL    HW237839   0.217   4.272   7.163 -0.9337 -0.5810  0.2267
 8793SOL     OW37840   0.313   1.991  15.079  0.1890 -0.3346  0.3975
 8793SOL    HW137841   0.331   2.005  15.172 -1.1448  1.6579  0.3473
 8793SOL    HW237842   0.305   1.895  15.081  1.2634 -0.5151 -3.2455
 8794SOL     OW37843   2.572   0.715   8.249 -0.1569 -0.4628 -0.7526
 8794SOL    HW137844   2.548   0.804   8.223  1.0356  0.0534 -0.0436
 8794SOL    HW237845   2.488   0.699   8.293  1.2204 -1.0876  1.6053
 8795SOL     OW37846   4.518   1.494   7.985  0.1798  0.1176 -0.3301
 8795SOL    HW137847   4.550   1.498   8.075 -0.7669 -2.2990  0.1026
 8795SOL    HW237848   4.445   1.435   8.004 -1.4545  1.3233 -2.7432
 8796SOL     OW37849   4.615   3.102   3.825 -0.6033  0.5796 -0.0278
 8796SOL    HW137850   4.528   3.140   3.835 -1.0299 -0.7316  1.3221
 8796SOL    HW237851   4.616   3.096   3.729  1.9360 -0.5323  0.0493
 8797SOL     OW37852   0.466   3.820   4.515 -0.1952  0.0667  0.0617
 8797SOL    HW137853   0.398   3.809   4.449 -0.0798 -0.5282  0.0409
 8797SOL    HW237854   0.547   3.817   4.464 -0.8832 -0.3391 -1.0034
 8798SOL     OW37855   2.441   1.845   5.351 -0.1541  0.0717 -0.1612
 8798SOL    HW137856   2.450   1.757   5.386  2.2914  0.5975  0.5893
 8798SOL    HW237857   2.531   1.878   5.351  0.2394 -1.0015 -0.4547
 8799SOL     OW37858   3.925   2.078   1.196  0.1974  0.0631 -0.0143
 8799SOL    HW137859   3.952   2.098   1.286  0.0065 -2.2493  0.5609
 8799SOL    HW237860   3.930   1.983   1.205 -3.1429 -0.0187  0.9483
 8800SOL     OW37861   2.789   3.454   1.324 -0.4625 -0.0373 -0.5001
 8800SOL    HW137862   2.880   3.447   1.353 -0.5581 -0.6235 -0.3405
 8800SOL    HW237863   2.768   3.544   1.350 -0.2738  0.2777 -1.4167
 8801SOL     OW37864   3.716   2.956   4.961  0.1115  0.7149  0.0013
 8801SOL    HW137865   3.676   3.027   5.011  0.2058 -0.5912  1.9384
 8801SOL    HW237866   3.791   2.927   5.013 -1.5118 -1.1908  1.2834
 8802SOL     OW37867   2.095   2.388   2.755 -0.0884  0.1834  0.3508
 8802SOL    HW137868   2.186   2.419   2.752 -0.6242  1.3838 -2.7551
 8802SOL    HW237869   2.062   2.394   2.845  1.1009 -0.7468  0.8451
 8803SOL     OW37870   3.755   2.170   4.009  0.2209 -0.2760  0.7023
 8803SOL    HW137871   3.792   2.242   4.060 -1.7722  0.5865  0.9165
 8803SOL    HW237872   3.798   2.100   4.058  0.4719 -0.8156 -0.2704
 8804SOL     OW37873   2.746   3.380   2.235  0.1752 -0.1073  0.0859
 8804SOL    HW137874   2.842   3.382   2.229  0.3436  0.0407  2.5352
 8804SOL    HW237875   2.721   3.468   2.264  1.9777 -0.0012  1.3521
 8805SOL     OW37876   3.049   0.785   7.414  0.0296 -0.4582  0.0887
 8805SOL    HW137877   3.058   0.879   7.429 -2.1082 -0.0223 -1.3924
 8805SOL    HW237878   3.136   0.756   7.440 -0.2495 -0.3367  1.1601
 8806SOL     OW37879   0.965   3.232   7.034 -0.1558 -0.7473  0.1105
 8806SOL    HW137880   0.869   3.234   7.029 -0.0281  1.2233 -1.8559
 8806SOL    HW237881   0.994   3.234   6.943  0.9477 -1.8300  0.4501
 8807SOL     OW37882   0.347   1.273   7.576  0.4259  0.2853  0.1841
 8807SOL    HW137883   0.305   1.337   7.633  2.2195 -0.2796  2.1304
 8807SOL    HW237884   0.271   1.258   7.520  0.7191  1.0872 -0.4330
 8808SOL     OW37885   3.957   1.326   7.976 -0.3746 -0.1236 -0.0916
 8808SOL    HW137886   3.941   1.357   7.887 -1.3286 -2.8814 -0.8721
 8808SOL    HW237887   3.916   1.398   8.026  0.3285  0.4650 -0.3594
 8809SOL     OW37888   0.247   0.520  10.434  0.0599  0.0070  0.5261
 8809SOL    HW137889   0.233   0.591  10.496  1.6297  0.2110  0.6356
 8809SOL    HW237890   0.276   0.448  10.490 -1.2044  0.5628  1.9075
 8810SOL     OW37891   0.218   2.896  14.606 -0.4110  0.0324  0.0598
 8810SOL    HW137892   0.185   2.816  14.648  1.1228 -0.5485  0.1869
 8810SOL    HW237893   0.262   2.855  14.532  0.6421  0.6808  0.3198
 8811SOL     OW37894   1.681   3.006   3.217 -0.5053 -0.2293  0.3875
 8811SOL    HW137895   1.659   3.069   3.149 -1.4562 -0.2035  0.7085
 8811SOL    HW237896   1.614   2.938   3.206 -2.8070  1.8704  1.4202
 8812SOL     OW37897   1.888   0.668  14.505 -0.0636  0.5855  0.1491
 8812SOL    HW137898   1.980   0.673  14.533  0.3791 -3.2465 -0.5940
 8812SOL    HW237899   1.855   0.648  14.593  0.9824  0.3313  0.4914
 8813SOL     OW37900   0.676   1.181   4.212 -0.5357  0.3654 -0.0755
 8813SOL    HW137901   0.728   1.206   4.136  0.5455  0.0348  0.5583
 8813SOL    HW237902   0.744   1.159   4.276 -0.7944 -1.0611 -0.2830
 8814SOL     OW37903   2.880   0.025   7.580 -0.3179 -0.3432  0.5081
 8814SOL    HW137904   2.786   0.045   7.579 -0.1240  0.5877  1.0672
 8814SOL    HW237905   2.887   0.013   7.485 -0.2071  0.6256  0.3941
 8815SOL     OW37906   0.727   0.874   7.419 -0.1841  0.0157  0.4341
 8815SOL    HW137907   0.683   0.831   7.493  2.1665 -3.5616 -0.2217
 8815SOL    HW237908   0.675   0.850   7.342 -1.8080  3.2642  0.5077
 8816SOL     OW37909   0.779   4.719   6.360  0.0438 -0.3237 -0.4501
 8816SOL    HW137910   0.846   0.018   6.295 -1.4208  0.3592 -1.7033
 8816SOL    HW237911   0.741   0.078   6.388  0.1412  0.0467 -1.4416
 8817SOL     OW37912   4.218   3.536   3.272 -0.2166 -0.0497  0.1868
 8817SOL    HW137913   4.165   3.476   3.323  0.9242 -1.0732  0.1562
 8817SOL    HW237914   4.173   3.532   3.187  0.3700 -1.7108 -0.0468
 8818SOL     OW37915   0.187   2.838   7.934 -0.1668 -0.7252 -0.2063
 8818SOL    HW137916   0.207   2.926   7.903  2.2310 -0.9831  0.6097
 8818SOL    HW237917   0.270   2.791   7.940  0.0393  0.0080  2.4523
 8819SOL     OW37918   1.813   3.027   6.664  0.6091 -0.3155 -0.2700
 8819SOL    HW137919   1.852   3.061   6.745 -0.2353  0.0410 -0.0112
 8819SOL    HW237920   1.763   2.955   6.703 -1.5616  0.6366 -1.3210
 8820SOL     OW37921   1.810   3.610   1.805 -0.1116 -0.0582  0.2995
 8820SOL    HW137922   1.784   3.534   1.856  2.9228 -1.6794 -0.5821
 8820SOL    HW237923   1.897   3.633   1.838  0.7519 -1.4433 -0.9892
 8821SOL     OW37924   1.205   1.148  16.639 -0.0727 -0.0670  0.2087
 8821SOL    HW137925   1.163   1.164  16.555 -0.4051  0.2516  0.4320
 8821SOL    HW237926   1.135   1.180  16.696 -0.3015 -2.4108  1.2511
 8822SOL     OW37927   0.915   3.541   7.790  0.5791 -0.6034 -0.2884
 8822SOL    HW137928   0.886   3.569   7.877  0.1220 -0.3118 -0.5340
 8822SOL    HW237929   1.007   3.516   7.803  0.6773  0.0718  0.3511
 8823SOL     OW37930   0.451   2.316   1.061  0.1775  0.3174 -0.2597
 8823SOL    HW137931   0.364   2.356   1.068  0.0146 -0.6496  3.0132
 8823SOL    HW237932   0.467   2.316   0.967 -0.3587 -0.8050 -0.3556
 8824SOL     OW37933   0.634   0.295   9.239  0.6854  0.2847 -0.2328
 8824SOL    HW137934   0.661   0.322   9.327  0.8291  0.9673 -0.4898
 8824SOL    HW237935   0.540   0.314   9.242 -0.1034 -3.9584  1.7688
 8825SOL     OW37936   2.821   4.399  15.121  0.1264  1.0346 -0.0903
 8825SOL    HW137937   2.825   4.495  15.123  2.9056  0.9660 -1.6440
 8825SOL    HW237938   2.858   4.376  15.035  0.3645 -1.0998  0.5770
 8826SOL     OW37939   3.098   3.191   9.816  0.2703 -0.7737 -0.4031
 8826SOL    HW137940   3.161   3.262   9.812  1.3426 -1.7225 -0.2477
 8826SOL    HW237941   3.015   3.238   9.820 -0.0428 -1.2431 -1.3247
 8827SOL     OW37942   4.551   4.085   7.274 -0.2669 -0.4684 -0.1245
 8827SOL    HW137943   4.605   4.071   7.352 -0.3396  0.6781  0.1312
 8827SOL    HW237944   4.469   4.048   7.307 -1.0678  0.5272 -1.0012
 8828SOL     OW37945   4.019   4.270   6.564 -0.2175  0.5989  0.3667
 8828SOL    HW137946   3.964   4.208   6.515 -1.2887 -1.3930  4.0677
 8828SOL    HW237947   4.110   4.244   6.554 -1.3363 -3.1090  0.0146
 8829SOL     OW37948   1.123   4.609   7.759 -0.0986 -0.3935 -0.4642
 8829SOL    HW137949   1.100   4.679   7.820  3.3511 -1.1216  1.6800
 8829SOL    HW237950   1.180   4.644   7.691 -1.5827  0.8977 -1.0455
 8830SOL     OW37951   2.120   3.959  11.371  0.4033 -0.8065 -0.1044
 8830SOL    HW137952   2.026   3.969  11.383  0.6115  2.0552 -0.8551
 8830SOL    HW237953   2.153   4.047  11.390  0.9787 -1.0068 -0.1813
 8831SOL     OW37954   0.954   1.290  12.868 -0.3671  0.7460  0.4200
 8831SOL    HW137955   1.034   1.245  12.843 -0.1197  1.2932  0.2214
 8831SOL    HW237956   0.919   1.225  12.929  3.2448 -1.8764 -0.3572
 8832SOL     OW37957   1.073   3.226  11.098 -0.1032  0.2712  0.0439
 8832SOL    HW137958   0.993   3.174  11.100 -1.0284  1.6943 -0.5452
 8832SOL    HW237959   1.052   3.281  11.023  0.6591  1.3626  0.6256
 8833SOL     OW37960   4.565   0.169  17.212 -0.3253 -0.4153 -0.4161
 8833SOL    HW137961   4.490   0.122  17.248 -1.3900  0.1523 -1.9109
 8833SOL    HW237962   4.602   0.103  17.153 -0.5191  0.7015 -1.7563
 8834SOL     OW37963   1.127   1.402   8.146  0.4862 -0.0520  0.3545
 8834SOL    HW137964   1.212   1.446   8.150  0.6884 -0.3229 -1.0815
 8834SOL    HW237965   1.070   1.478   8.132  0.7696  0.1033  0.0492
 8835SOL     OW37966   1.341   4.562   2.402  0.5623 -0.0132 -0.1875
 8835SOL    HW137967   1.380   4.621   2.467 -1.6021  0.0066  1.0768
 8835SOL    HW237968   1.279   4.519   2.461 -1.6513  3.5201  0.0486
 8836SOL     OW37969   4.692   2.223   4.276  0.5077  0.0338 -0.0277
 8836SOL    HW137970   4.638   2.300   4.259 -1.1921 -1.2696 -0.5102
 8836SOL    HW237971   0.051   2.263   4.301  1.0046 -0.6599 -0.5426
 8837SOL     OW37972   3.324   3.360   7.672  0.7995  0.0902  0.6182
 8837SOL    HW137973   3.316   3.345   7.766 -0.4971  2.6203  0.9138
 8837SOL    HW237974   3.250   3.310   7.638  0.3018  0.9798  0.3713
 8838SOL     OW37975   3.102   3.194   5.711 -0.0679  0.0918  0.0260
 8838SOL    HW137976   3.153   3.164   5.636 -0.5670  1.1390 -0.7363
 8838SOL    HW237977   3.137   3.142   5.783 -0.5306  0.4629  0.5246
 8839SOL     OW37978   4.247   4.216   2.903 -0.2101 -0.4549 -0.6839
 8839SOL    HW137979   4.228   4.290   2.846 -0.8373 -0.2238 -0.1756
 8839SOL    HW237980   4.157   4.187   2.910 -0.7173  1.1142 -0.6377
 8840SOL     OW37981   2.321   3.148   7.310  0.6749  0.0759  0.1515
 8840SOL    HW137982   2.372   3.145   7.229  0.0284  0.3617 -0.2669
 8840SOL    HW237983   2.296   3.055   7.314 -0.7836  0.4156 -1.0022
 8841SOL     OW37984   2.575   0.624   8.614  0.0750 -0.1682 -0.8894
 8841SOL    HW137985   2.500   0.645   8.558 -0.2724  1.2880  0.1111
 8841SOL    HW237986   2.556   0.681   8.688  0.4634  2.0642 -2.4962
 8842SOL     OW37987   0.958   3.595   2.901 -0.2660  0.5965  0.2031
 8842SOL    HW137988   1.023   3.525   2.900  1.0641  1.8353 -0.5433
 8842SOL    HW237989   0.883   3.546   2.868  0.8306 -1.3047  0.5226
 8843SOL     OW37990   2.550   1.426   9.792 -0.0425 -0.0169  0.1917
 8843SOL    HW137991   2.512   1.339   9.799  0.6667 -0.2587  1.1185
 8843SOL    HW237992   2.526   1.471   9.874  0.7251  1.3720 -0.3502
 8844SOL     OW37993   4.431   3.620   8.185  0.1069 -0.4824  0.6725
 8844SOL    HW137994   4.412   3.594   8.276 -0.6944  0.9060  0.9083
 8844SOL    HW237995   4.347   3.636   8.143  1.6156 -0.0489 -2.1762
 8845SOL     OW37996   1.626   0.904   6.184  0.3759 -0.7851  0.2979
 8845SOL    HW137997   1.601   0.952   6.262  1.9179  2.7047 -1.3766
 8845SOL    HW237998   1.654   0.979   6.132  2.8276 -1.3428  0.7947
 8846SOL     OW37999   1.469   2.526   6.308  0.3002  0.0241  0.2788
 8846SOL    HW138000   1.399   2.481   6.355 -0.0696  0.0360 -0.2747
 8846SOL    HW238001   1.543   2.528   6.370 -0.0380  0.7790  0.6494
 8847SOL     OW38002   3.002   1.064   4.674 -0.2800  0.2538  0.1461
 8847SOL    HW138003   3.067   1.076   4.604 -1.8131 -1.9223 -1.6438
 8847SOL    HW238004   2.931   1.129   4.672 -0.1986  0.3655  0.9730
 8848SOL     OW38005   0.004   1.475   5.593  0.6751 -0.6863 -0.3982
 8848SOL    HW138006   0.100   1.475   5.598  0.6486  0.9671  0.1468
 8848SOL    HW238007   4.703   1.567   5.600  1.2498 -0.6011  0.4857
 8849SOL     OW38008   0.628   2.070   7.731 -0.3765 -0.4664  0.2073
 8849SOL    HW138009   0.536   2.077   7.754 -0.5215  1.3699 -0.9414
 8849SOL    HW238010   0.661   2.099   7.817  1.4353 -0.5926 -0.4321
 8850SOL     OW38011   2.680   0.517   9.663 -0.2056 -0.3228  0.1433
 8850SOL    HW138012   2.676   0.490   9.755 -2.2181 -0.8660 -0.0960
 8850SOL    HW238013   2.689   0.436   9.613  0.3458 -0.8701  1.1162
 8851SOL     OW38014   0.275   1.245  15.631  0.4428  0.0920 -0.2050
 8851SOL    HW138015   0.252   1.338  15.640 -0.5726 -0.1786  0.0694
 8851SOL    HW238016   0.364   1.241  15.665 -0.2709  0.8739  1.7527
 8852SOL     OW38017   2.462   1.963   4.908  0.3541  0.0656  0.0659
 8852SOL    HW138018   2.434   1.874   4.926  0.3276  0.2561  0.9625
 8852SOL    HW238019   2.491   1.995   4.994 -2.4978  1.7354  0.3858
 8853SOL     OW38020   4.169   0.908   6.998  0.1452  0.5260 -0.2375
 8853SOL    HW138021   4.162   0.948   6.911 -0.4352 -0.6981 -0.7410
 8853SOL    HW238022   4.141   0.821   6.972  3.1738 -0.3547 -0.5353
 8854SOL     OW38023   1.936   4.138   7.592 -0.2468  0.3442 -0.4172
 8854SOL    HW138024   1.897   4.089   7.519  0.6678 -0.0480 -0.6390
 8854SOL    HW238025   1.859   4.147   7.648 -0.2110 -1.8143 -0.0287
 8855SOL     OW38026   3.692   2.754   0.729 -0.0743  0.0551  0.0818
 8855SOL    HW138027   3.699   2.845   0.757 -0.6907  0.6319 -1.5983
 8855SOL    HW238028   3.779   2.746   0.691 -0.9827 -1.6728 -1.6616
 8856SOL     OW38029   3.926   4.506   4.824  0.3098  0.4342 -0.6369
 8856SOL    HW138030   3.903   4.594   4.794 -2.4348 -0.1928 -0.3934
 8856SOL    HW238031   4.015   4.526   4.854 -0.2365 -0.7597  1.8309
 8857SOL     OW38032   3.385   3.468   8.737  0.2176 -0.6691 -0.3772
 8857SOL    HW138033   3.429   3.492   8.818 -1.7129 -0.7560  0.6942
 8857SOL    HW238034   3.336   3.549   8.727  1.9505  0.2717 -1.3323
 8858SOL     OW38035   1.521   1.257   2.341 -0.6758  0.2257  0.0411
 8858SOL    HW138036   1.505   1.261   2.435 -0.1017 -0.9696  0.1913
 8858SOL    HW238037   1.512   1.350   2.319 -0.5161  0.6059  1.6225
 8859SOL     OW38038   3.342   0.370   4.872  0.3930  0.6668 -0.8092
 8859SOL    HW138039   3.321   0.277   4.877 -1.5519  1.1021 -0.8905
 8859SOL    HW238040   3.253   0.390   4.843  0.3186 -0.4477 -1.3561
 8860SOL     OW38041   0.598   0.765   8.551 -0.5954  0.0512 -0.5483
 8860SOL    HW138042   0.666   0.699   8.542  1.4183  2.0696 -0.3513
 8860SOL    HW238043   0.572   0.743   8.641  0.1184  0.7211 -0.1742
 8861SOL     OW38044   3.643   1.968  11.079  0.1577 -0.0205 -0.3238
 8861SOL    HW138045   3.642   1.967  10.984 -1.0328  2.0390 -0.3136
 8861SOL    HW238046   3.630   2.062  11.085  0.1165 -0.0011 -0.7250
 8862SOL     OW38047   3.651   3.786   2.508  0.1292  0.1970 -0.1213
 8862SOL    HW138048   3.736   3.750   2.480  2.1649  5.1851 -0.3521
 8862SOL    HW238049   3.649   3.739   2.592 -1.9277 -0.2017 -0.3971
 8863SOL     OW38050   0.189   0.975   4.891 -0.6499  0.3562 -0.4337
 8863SOL    HW138051   0.265   1.032   4.876 -0.3675 -0.4011 -1.8245
 8863SOL    HW238052   0.134   1.006   4.820 -1.1773 -0.9694 -0.6058
 8864SOL     OW38053   2.626   0.327   5.038 -0.2468 -0.1431  0.1824
 8864SOL    HW138054   2.657   0.344   4.949  1.2926 -0.4219  0.6629
 8864SOL    HW238055   2.687   0.375   5.095  0.2242 -0.8554  0.2894
 8865SOL     OW38056   0.479   0.154   5.320 -0.0881 -0.0684 -0.4275
 8865SOL    HW138057   0.454   0.244   5.337  0.1108 -0.5161  2.1242
 8865SOL    HW238058   0.560   0.172   5.272  1.2907 -1.4746  1.3562
 8866SOL     OW38059   1.177   2.351   8.135  0.0319  0.0112 -0.0029
 8866SOL    HW138060   1.133   2.291   8.075 -0.5817 -1.3300  1.7935
 8866SOL    HW238061   1.139   2.325   8.219  0.7184  3.2593  1.3299
 8867SOL     OW38062   1.693   2.935   7.058  0.3227 -0.4399 -0.9213
 8867SOL    HW138063   1.728   2.978   7.136  0.0078 -1.3780 -0.2623
 8867SOL    HW238064   1.620   2.996   7.049 -0.8017 -1.5991  0.2791
 8868SOL     OW38065   0.122   1.242   7.439 -0.0944 -0.0885 -0.3335
 8868SOL    HW138066   0.033   1.269   7.464 -0.7993 -0.2481 -2.6030
 8868SOL    HW238067   0.104   1.148   7.446 -0.9755  0.1113  0.1680
 8869SOL     OW38068   0.699   0.455   8.933 -0.0036  0.5371  0.5376
 8869SOL    HW138069   0.741   0.503   9.005 -1.4416  1.5781  0.6680
 8869SOL    HW238070   0.639   0.395   8.978 -0.5072 -0.8730 -2.0051
 8870SOL     OW38071   4.255   1.057   2.225 -0.3634  0.0124 -0.5039
 8870SOL    HW138072   4.238   0.964   2.239 -0.2642  0.2688  1.3198
 8870SOL    HW238073   4.292   1.055   2.137 -1.3867  1.0084 -0.9575
 8871SOL     OW38074   1.751   2.532   9.652  1.1141  0.0618  0.0547
 8871SOL    HW138075   1.667   2.574   9.635  1.7460  1.3282  0.0218
 8871SOL    HW238076   1.772   2.565   9.739 -1.6178  0.4264  0.5770
 8872SOL     OW38077   1.934   0.936   8.531 -0.2827  0.0804  0.2378
 8872SOL    HW138078   1.865   0.870   8.545  0.1775 -0.3920  0.2922
 8872SOL    HW238079   1.991   0.882   8.477 -1.1120  1.6651 -2.1833
 8873SOL     OW38080   3.252   3.432   5.112  0.0004 -0.0705  0.2259
 8873SOL    HW138081   3.322   3.483   5.154  0.0017  1.6672 -1.8507
 8873SOL    HW238082   3.210   3.503   5.064  0.1647 -1.5026 -2.0717
 8874SOL     OW38083   4.638   3.142   4.328  0.2035 -0.0389  0.2143
 8874SOL    HW138084   4.598   3.098   4.254 -0.3688  0.3111  0.3190
 8874SOL    HW238085   4.692   3.201   4.277  2.8403 -0.6307  2.2822
 8875SOL     OW38086   3.084   0.762   2.014 -0.3415 -0.4729 -0.1458
 8875SOL    HW138087   3.170   0.742   1.975  0.3770  1.0677  0.6467
 8875SOL    HW238088   3.088   0.857   2.015 -0.9314 -0.4490 -0.1516
 8876SOL     OW38089   4.615   2.403   8.388 -0.2764 -0.1243  0.2173
 8876SOL    HW138090   4.623   2.487   8.342  0.2811 -1.1971 -1.6814
 8876SOL    HW238091   4.581   2.438   8.470 -1.3901 -0.4965 -0.0781
 8877SOL     OW38092   3.603   2.533   6.097 -0.1780 -0.2860  0.5508
 8877SOL    HW138093   3.562   2.526   6.183  0.2887 -0.1380  0.7847
 8877SOL    HW238094   3.659   2.606   6.124 -1.9980  0.9031  1.1007
 8878SOL     OW38095   0.200   3.194   8.994  0.0093 -0.1182  0.3702
 8878SOL    HW138096   0.160   3.210   9.079  0.0279 -0.5095  0.4505
 8878SOL    HW238097   0.281   3.155   9.025  1.4339  1.2530 -1.6166
 8879SOL     OW38098   0.637   4.556  13.513  0.0303 -0.2994  0.5828
 8879SOL    HW138099   0.643   4.468  13.476  0.7914 -0.8083  1.9336
 8879SOL    HW238100   0.689   4.609  13.453 -1.2057 -0.6849 -0.8558
 8880SOL     OW38101   0.451   1.088   4.481  0.2720 -0.1126 -0.0179
 8880SOL    HW138102   0.512   1.015   4.477  1.4018  0.7521  1.2640
 8880SOL    HW238103   0.455   1.116   4.390  1.0249 -0.7540 -0.1872
 8881SOL     OW38104   1.834   3.539  17.243 -0.2894  0.0790  0.4046
 8881SOL    HW138105   1.853   3.629  17.267 -0.2667  0.2142 -0.1067
 8881SOL    HW238106   1.787   3.513  17.322  0.7174 -0.3523  0.8623
 8882SOL     OW38107   0.980   3.234  13.036 -0.3113 -0.1703 -0.1389
 8882SOL    HW138108   0.957   3.187  13.116  0.7955  0.1625  0.3726
 8882SOL    HW238109   1.033   3.172  12.985  1.3131 -0.9255  2.4531
 8883SOL     OW38110   3.503   4.293   6.265  0.6739 -0.6418  0.2034
 8883SOL    HW138111   3.450   4.367   6.234  2.1979  0.4872  0.2838
 8883SOL    HW238112   3.486   4.229   6.196 -0.2021  0.8772 -0.9937
 8884SOL     OW38113   1.578   3.759   4.034 -0.0419  0.6082  0.7371
 8884SOL    HW138114   1.594   3.838   3.983  1.0209 -0.7059 -0.9714
 8884SOL    HW238115   1.601   3.791   4.121  0.7568  2.6910 -0.2483
 8885SOL     OW38116   3.346   1.500  14.081  0.2462  0.4462 -0.8893
 8885SOL    HW138117   3.437   1.510  14.109  0.3740 -0.4917 -0.9557
 8885SOL    HW238118   3.298   1.566  14.131  0.1976 -1.4152  1.5210
 8886SOL     OW38119   2.215   2.328   6.591 -0.0322 -0.5323 -0.0822
 8886SOL    HW138120   2.305   2.344   6.565 -0.0752  0.9651  0.6978
 8886SOL    HW238121   2.240   2.251   6.642  1.0726 -0.9767 -1.2946
 8887SOL     OW38122   2.737   1.724   4.425 -0.8731 -0.2326  0.1561
 8887SOL    HW138123   2.685   1.793   4.385 -1.3620  0.3048  1.7482
 8887SOL    HW238124   2.806   1.773   4.470 -0.3729  0.2355 -1.1072
 8888SOL     OW38125   2.999   0.098   5.034 -0.3173  0.1906 -0.0240
 8888SOL    HW138126   3.020   0.165   5.099  0.9713  0.0184 -0.2772
 8888SOL    HW238127   3.077   0.046   5.051 -1.1186 -0.5384  1.4240
 8889SOL     OW38128   4.599   1.430   6.744  0.1811  0.2588  0.2162
 8889SOL    HW138129   4.526   1.372   6.723  0.9546 -0.9114  0.7440
 8889SOL    HW238130   4.632   1.458   6.659  0.9922 -1.6572 -0.0763
 8890SOL     OW38131   2.087   4.078   1.125  0.0003  0.0569  0.4217
 8890SOL    HW138132   2.121   4.053   1.211 -0.0552  0.3015  0.5140
 8890SOL    HW238133   2.147   4.027   1.069 -0.4867  1.7699 -1.6815
 8891SOL     OW38134   2.829   4.578   1.631 -0.1266  0.5401  0.3127
 8891SOL    HW138135   2.848   4.539   1.717 -0.9900 -0.2492  0.1461
 8891SOL    HW238136   2.787   4.502   1.590  0.9023  0.0874  0.0941
 8892SOL     OW38137   0.789   2.985   3.696  0.3184  0.1732 -0.3787
 8892SOL    HW138138   0.846   2.922   3.650  1.8068  0.2909  1.2962
 8892SOL    HW238139   0.700   2.959   3.673 -0.1082 -0.2862  1.7976
 8893SOL     OW38140   4.026   3.887   8.647 -0.2970  0.4089  0.4017
 8893SOL    HW138141   4.086   3.876   8.574 -1.4236 -1.9975 -0.1445
 8893SOL    HW238142   4.035   3.981   8.663  2.8341 -0.0792  1.5638
 8894SOL     OW38143   1.066   2.817   7.278 -0.0503 -0.2774 -0.0459
 8894SOL    HW138144   1.131   2.835   7.345  0.3080  0.7565 -0.6764
 8894SOL    HW238145   1.065   2.723   7.298 -0.4600 -0.1178  0.6976
 8895SOL     OW38146   0.312   2.737   6.652 -0.1266 -0.4168 -0.7170
 8895SOL    HW138147   0.310   2.832   6.639  1.1292 -0.6082 -2.2621
 8895SOL    HW238148   0.281   2.729   6.742  0.9217 -0.4182 -0.3481
 8896SOL     OW38149   2.090   0.033  12.876 -0.0810  0.0921  0.4089
 8896SOL    HW138150   2.025   0.073  12.818 -0.1681 -1.2493 -0.4250
 8896SOL    HW238151   2.112   0.110  12.929 -0.1110  1.0971 -1.0490
 8897SOL     OW38152   2.438   3.199  11.328  0.0845  0.4611  0.5872
 8897SOL    HW138153   2.429   3.287  11.292 -1.7970  0.7887  1.8798
 8897SOL    HW238154   2.379   3.154  11.267  0.5843  0.2699  0.2454
 8898SOL     OW38155   0.982   1.712  16.230 -0.0004  0.6593  0.2467
 8898SOL    HW138156   0.941   1.695  16.145 -2.4387  1.5982  1.2493
 8898SOL    HW238157   1.029   1.794  16.215  2.4346 -0.9162 -0.6980
 8899SOL     OW38158   2.035   3.924   4.273 -0.1169  0.0760  0.4340
 8899SOL    HW138159   2.037   3.998   4.334 -0.9662 -0.3488  0.9928
 8899SOL    HW238160   1.987   3.860   4.327 -0.3504 -1.0104 -1.0660
 8900SOL     OW38161   4.049   3.138   2.354  0.2687  0.5727  0.5906
 8900SOL    HW138162   4.138   3.119   2.324 -0.9233 -3.7974 -0.1949
 8900SOL    HW238163   3.993   3.091   2.293  0.8658  0.9901 -0.2734
 8901SOL     OW38164   1.572   2.407  16.122 -1.1017  0.0595  0.4345
 8901SOL    HW138165   1.520   2.469  16.070 -1.8514 -0.5157  0.5099
 8901SOL    HW238166   1.649   2.417  16.066 -0.5959  0.2305  1.1735
 8902SOL     OW38167   3.097   3.698   3.944 -0.6373 -0.1159 -0.2407
 8902SOL    HW138168   3.079   3.630   3.879 -1.4813 -0.7074  0.6056
 8902SOL    HW238169   3.103   3.775   3.888  1.6343 -0.8043 -0.9324
 8903SOL     OW38170   0.386   3.839   3.491  0.0810 -0.2748  0.1371
 8903SOL    HW138171   0.452   3.786   3.536  0.7934  1.1951  0.8412
 8903SOL    HW238172   0.369   3.778   3.419  0.3889  1.6346 -1.5768
 8904SOL     OW38173   4.490   4.518  14.575  0.0158 -0.0541  0.2092
 8904SOL    HW138174   4.491   4.426  14.548 -1.6477  0.1434 -0.5667
 8904SOL    HW238175   4.403   4.547  14.545 -0.0337 -0.1228  0.2859
 8905SOL     OW38176   3.333   3.238  13.189  0.2062 -0.2952 -0.2291
 8905SOL    HW138177   3.338   3.325  13.149  2.6993 -0.4183 -0.1659
 8905SOL    HW238178   3.426   3.222  13.205 -0.0109  0.2025  1.5445
 8906SOL     OW38179   2.800   1.240   5.555  0.1512  0.3600  0.0719
 8906SOL    HW138180   2.811   1.159   5.504 -0.0360 -0.5290  1.4591
 8906SOL    HW238181   2.889   1.276   5.560  0.0715  0.5663 -0.0265
 8907SOL     OW38182   4.249   0.339  13.373  0.0529  0.1484 -0.4264
 8907SOL    HW138183   4.331   0.292  13.357  1.1667  1.9727 -0.1757
 8907SOL    HW238184   4.214   0.292  13.448 -1.3326 -0.6129 -1.5502
 8908SOL     OW38185   3.087   3.540  10.887 -0.1191  0.1411  0.0354
 8908SOL    HW138186   3.065   3.487  10.964 -2.7537 -2.2155 -2.3434
 8908SOL    HW238187   3.066   3.630  10.912  1.0927  0.4813 -0.1885
 8909SOL     OW38188   2.510   2.297   1.293  0.1294 -0.2065 -0.5045
 8909SOL    HW138189   2.421   2.286   1.260 -0.6769 -0.0093  1.5650
 8909SOL    HW238190   2.500   2.391   1.282  2.2843  0.1454  0.3837
 8910SOL     OW38191   4.714   4.328   2.661  0.0017  0.1927  0.0650
 8910SOL    HW138192   4.656   4.307   2.588 -0.3383 -1.0965  0.7057
 8910SOL    HW238193   4.678   4.413   2.687 -2.3134 -1.1035  1.1027
 8911SOL     OW38194   2.331   0.408   1.753 -0.1881 -0.0476  0.5897
 8911SOL    HW138195   2.389   0.332   1.755  0.3100  0.3417  0.8581
 8911SOL    HW238196   2.252   0.354   1.740  1.5631 -2.0499 -1.8538
 8912SOL     OW38197   0.228   2.703   4.746  0.3164  0.0238  0.1006
 8912SOL    HW138198   0.225   2.765   4.673 -1.4497  0.0701  0.2083
 8912SOL    HW238199   0.291   2.746   4.803  1.2503  0.1455 -1.0132
 8913SOL     OW38200   4.096   2.804   6.206  0.2215  0.1524  0.3798
 8913SOL    HW138201   4.149   2.883   6.192 -2.5629  1.9735  0.1285
 8913SOL    HW238202   4.070   2.787   6.115  2.9159 -0.8792 -0.1913
 8914SOL     OW38203   3.383   1.811   6.346 -0.0085 -0.1286  0.5079
 8914SOL    HW138204   3.403   1.882   6.407 -1.7673  0.9293 -0.1637
 8914SOL    HW238205   3.442   1.827   6.272 -1.3466 -1.3881 -0.8264
 8915SOL     OW38206   4.362   1.877   4.854 -0.3498 -0.1544  0.2456
 8915SOL    HW138207   4.292   1.836   4.802  0.6137 -0.6596 -0.6508
 8915SOL    HW238208   4.336   1.885   4.945 -3.8823  0.5363 -0.8226
 8916SOL     OW38209   1.704   2.266   9.614 -0.0496  0.6607 -0.0421
 8916SOL    HW138210   1.779   2.229   9.661 -0.4595 -0.4152 -0.2387
 8916SOL    HW238211   1.721   2.360   9.610 -0.6781  0.8661  1.8292
 8917SOL     OW38212   2.326   2.737   9.087  0.0752  0.1345 -0.6044
 8917SOL    HW138213   2.260   2.715   9.022 -1.5323 -1.2984  1.5244
 8917SOL    HW238214   2.277   2.745   9.169  1.7811  2.2726  0.2273
 8918SOL     OW38215   4.286   2.587  15.280  0.8203  0.2502 -0.0708
 8918SOL    HW138216   4.249   2.551  15.199  0.2235 -0.7781  0.6648
 8918SOL    HW238217   4.268   2.679  15.262 -1.3237  0.2668  2.1053
 8919SOL     OW38218   2.941   2.427   6.894  0.6150  0.0376  0.4762
 8919SOL    HW138219   2.850   2.454   6.908  0.7014  1.6725 -2.1467
 8919SOL    HW238220   2.976   2.428   6.983 -1.5488  1.3499  1.2923
 8920SOL     OW38221   0.031   3.435  13.524 -0.0650  0.6115  0.5395
 8920SOL    HW138222   0.111   3.455  13.571 -1.2532  1.2055  2.2981
 8920SOL    HW238223   4.715   3.522  13.525 -0.8591  0.2530  0.6265
 8921SOL     OW38224   0.951   2.986   4.478 -0.0482 -0.2608 -0.1650
 8921SOL    HW138225   0.992   3.040   4.410  0.3515 -2.4166 -1.6348
 8921SOL    HW238226   1.020   3.016   4.537 -0.3182  0.4291 -0.1935
 8922SOL     OW38227   3.009   2.235   5.614 -0.0331  0.2918 -0.0690
 8922SOL    HW138228   3.010   2.145   5.582  1.6104 -0.2058  1.3958
 8922SOL    HW238229   3.008   2.287   5.533 -0.7713  2.0685  1.0678
 8923SOL     OW38230   1.009   0.157   4.452 -0.0247  0.3094  0.0038
 8923SOL    HW138231   0.933   0.211   4.473 -0.7174  0.3429 -2.6924
 8923SOL    HW238232   0.968   0.072   4.469  0.1270  0.1650 -0.3578
 8924SOL     OW38233   0.813   0.718   4.307 -0.0492 -0.3554  0.7608
 8924SOL    HW138234   0.803   0.664   4.228  0.2455 -2.0386  1.8830
 8924SOL    HW238235   0.802   0.665   4.386  2.1056 -0.5933  0.8924
 8925SOL     OW38236   3.954   0.932   3.386 -0.0071  0.2208  0.4185
 8925SOL    HW138237   3.953   0.908   3.293  1.1956 -0.6603  0.6292
 8925SOL    HW238238   4.042   0.968   3.398  0.3053 -0.3823 -0.0669
 8926SOL     OW38239   3.173   2.191   7.271  0.2689  0.7446 -0.2622
 8926SOL    HW138240   3.169   2.097   7.251 -1.4916  0.8993 -0.6148
 8926SOL    HW238241   3.251   2.196   7.327  1.1436  0.7837 -1.4905
 8927SOL     OW38242   0.364   3.917   6.071 -0.0850 -0.4057 -0.4320
 8927SOL    HW138243   0.431   3.900   6.137 -0.2679  1.7552  0.3094
 8927SOL    HW238244   0.399   3.984   6.012 -0.7935 -0.2838 -0.7092
 8928SOL     OW38245   2.604   3.673   7.523  0.3528 -0.1030 -0.4922
 8928SOL    HW138246   2.549   3.612   7.572 -0.2232  0.8010 -0.0263
 8928SOL    HW238247   2.627   3.734   7.592  0.2363 -1.9242  1.1514
 8929SOL     OW38248   2.611   0.453   6.582 -0.1862 -0.5603  0.2125
 8929SOL    HW138249   2.546   0.479   6.518 -0.1338 -1.1574 -0.0858
 8929SOL    HW238250   2.664   0.533   6.583  0.4144 -0.9593  1.1456
 8930SOL     OW38251   3.393   2.439   0.120  0.2442  0.2595 -0.2023
 8930SOL    HW138252   3.450   2.362   0.129 -0.5558 -0.3564 -0.4261
 8930SOL    HW238253   3.448   2.512   0.147 -0.2708  1.4067 -2.2883
 8931SOL     OW38254   4.523   3.705  14.061  0.3305  0.4867 -0.1726
 8931SOL    HW138255   4.482   3.618  14.052  1.3292 -0.2540  2.2878
 8931SOL    HW238256   4.616   3.697  14.041  0.4682  1.5914  0.0362
 8932SOL     OW38257   1.967   2.605   9.474 -0.1444 -0.4324  0.0751
 8932SOL    HW138258   1.977   2.696   9.504  1.1342 -0.7836  0.7036
 8932SOL    HW238259   1.908   2.558   9.532  1.1939 -0.1694  1.6634
 8933SOL     OW38260   2.244   1.834   4.050  0.0817 -0.1928  0.3997
 8933SOL    HW138261   2.183   1.781   3.998 -1.5732  1.0521  1.0837
 8933SOL    HW238262   2.195   1.856   4.129 -0.8098  1.3168 -0.5638
 8934SOL     OW38263   4.154   0.687   4.166 -0.3007 -0.1012  0.4452
 8934SOL    HW138264   4.107   0.725   4.240 -0.8134 -1.0843  0.6302
 8934SOL    HW238265   4.085   0.685   4.100 -0.5668 -0.1417  0.7238
 8935SOL     OW38266   1.184   0.263   8.115  0.0749  0.2895 -0.2361
 8935SOL    HW138267   1.225   0.185   8.077  0.2141  0.6005 -0.7264
 8935SOL    HW238268   1.253   0.320   8.150 -1.8328  2.8365 -0.6109
 8936SOL     OW38269   1.747   3.685  17.568  0.0646 -0.2409  0.1588
 8936SOL    HW138270   1.662   3.649  17.595 -0.0939 -0.1479 -0.2147
 8936SOL    HW238271   1.744   3.776  17.596  1.3272 -0.3880  0.7654
 8937SOL     OW38272   2.339   0.683   8.458  0.0404 -0.4788  0.0411
 8937SOL    HW138273   2.266   0.735   8.424  0.3355 -1.0452 -1.4693
 8937SOL    HW238274   2.294   0.608   8.497 -0.4205  0.3357  1.0801
 8938SOL     OW38275   2.941   2.010   1.120  0.5969  0.6259 -0.2810
 8938SOL    HW138276   2.846   2.019   1.131  0.9058  0.9086  2.2700
 8938SOL    HW238277   2.940   1.963   1.037 -2.5754  0.9378 -0.4291
 8939SOL     OW38278   1.057   1.557   7.526 -0.0266  0.6659  0.1422
 8939SOL    HW138279   0.976   1.595   7.495 -0.6510  0.9400  2.1057
 8939SOL    HW238280   1.113   1.557   7.448  0.9666  0.5924  0.8478
 8940SOL     OW38281   1.301   2.913   1.885  0.3079  0.7175 -0.5089
 8940SOL    HW138282   1.229   2.920   1.948  0.0226 -0.4457 -0.7015
 8940SOL    HW238283   1.382   2.909   1.935  0.3243 -2.1194 -0.7586
 8941SOL     OW38284   1.394   1.280  15.148 -0.0882 -0.1836 -0.0304
 8941SOL    HW138285   1.312   1.233  15.141  0.1111 -0.6385  0.6996
 8941SOL    HW238286   1.457   1.211  15.168 -1.1738 -1.3706 -0.7205
 8942SOL     OW38287   3.880   4.200   7.752  0.5610  0.5472  0.4108
 8942SOL    HW138288   3.874   4.134   7.821 -1.7148  0.6022  0.2498
 8942SOL    HW238289   3.856   4.143   7.678 -0.9878  1.4173  0.2433
 8943SOL     OW38290   4.321   4.539  17.492  0.0325 -0.3324 -0.3070
 8943SOL    HW138291   4.291   4.498  17.411  1.0912  2.0617 -1.9125
 8943SOL    HW238292   4.307   4.462  17.548  0.3153 -0.6627 -0.6860
 8944SOL     OW38293   4.421   2.192  14.757  0.4343 -0.1749  0.6719
 8944SOL    HW138294   4.474   2.263  14.793  0.2103 -0.7292  2.1305
 8944SOL    HW238295   4.356   2.203  14.827  0.9690  2.8466  0.6949
 8945SOL     OW38296   2.707   3.915   9.924  0.5459  0.6400  0.0630
 8945SOL    HW138297   2.747   3.909   9.838  1.4623  0.5939  0.4931
 8945SOL    HW238298   2.791   3.930   9.968  2.5629  0.5376 -3.7931
 8946SOL     OW38299   3.255   1.184   1.103  0.2768  0.3105  0.4173
 8946SOL    HW138300   3.190   1.233   1.153  1.1180  0.7717  1.0673
 8946SOL    HW238301   3.282   1.112   1.160  2.1367  1.3468  0.8625
 8947SOL     OW38302   3.232   3.347   7.963  0.2271  0.3941  0.0370
 8947SOL    HW138303   3.261   3.266   8.003  1.8772  1.8806  1.8659
 8947SOL    HW238304   3.137   3.339   7.976  0.0680  2.2772  0.1611
 8948SOL     OW38305   0.038   1.302   8.132 -0.1428  0.1020  0.4260
 8948SOL    HW138306   4.685   1.297   8.074  1.7179 -0.3138 -2.0196
 8948SOL    HW238307   0.106   1.265   8.075 -0.3124  2.3725 -1.2199
 8949SOL     OW38308   1.896   4.667  13.689 -0.0943 -0.3808  0.2319
 8949SOL    HW138309   1.847   4.712  13.758  0.2572 -0.0275  0.2570
 8949SOL    HW238310   1.931   4.595  13.741  2.6387  0.3451 -0.5903
 8950SOL     OW38311   1.169   1.487  14.917  0.3419 -0.3359  0.1409
 8950SOL    HW138312   1.210   1.437  14.846 -2.6118 -1.1174 -1.0016
 8950SOL    HW238313   1.084   1.444  14.917  1.5289 -2.6911  1.3090
 8951SOL     OW38314   1.385   3.609   3.658  0.3802  0.7013 -0.6201
 8951SOL    HW138315   1.353   3.523   3.684 -0.4853  1.0760 -0.4544
 8951SOL    HW238316   1.422   3.588   3.572 -2.0749 -2.4502 -0.9092
 8952SOL     OW38317   0.817   0.937   6.615  0.0642 -0.0463 -0.4886
 8952SOL    HW138318   0.911   0.952   6.616 -0.4586  3.0161  0.7916
 8952SOL    HW238319   0.800   0.884   6.537  2.9850  0.7395 -1.6338
 8953SOL     OW38320   1.356   2.187   1.140 -0.1514  0.1835 -0.1152
 8953SOL    HW138321   1.284   2.132   1.108  0.7001 -1.1942  0.3574
 8953SOL    HW238322   1.413   2.183   1.063  1.1864 -0.0239  0.8833
 8954SOL     OW38323   1.036   3.074   5.172 -0.0375 -0.2298  0.9302
 8954SOL    HW138324   0.986   3.088   5.091 -1.1610  2.6591  2.1118
 8954SOL    HW238325   1.110   3.134   5.172  0.4643 -0.8603 -3.7330
 8955SOL     OW38326   3.603   1.656   2.326  0.0508 -0.1103 -0.9267
 8955SOL    HW138327   3.612   1.700   2.410  0.9674 -1.9304 -0.0731
 8955SOL    HW238328   3.527   1.707   2.297  0.4742  0.4208 -1.1100
 8956SOL     OW38329   0.573   0.876   9.019  0.3678  0.0620  0.0342
 8956SOL    HW138330   0.509   0.939   9.053 -0.7966 -0.1202 -1.8362
 8956SOL    HW238331   0.655   0.911   9.054  0.2664  0.0935  0.2451
 8957SOL     OW38332   2.786   1.796   1.582 -0.2918 -0.4967 -0.0452
 8957SOL    HW138333   2.842   1.848   1.524  0.8513 -0.4082  1.1298
 8957SOL    HW238334   2.706   1.792   1.530  0.0833 -2.2785 -0.5096
 8958SOL     OW38335   2.650   0.075   6.887 -0.1994 -0.0921 -0.2497
 8958SOL    HW138336   2.582   0.029   6.936 -0.7003 -0.4576 -1.2700
 8958SOL    HW238337   2.597   0.134   6.833  0.4375 -0.2423 -1.0486
 8959SOL     OW38338   4.125   0.988   9.481 -0.2115 -0.5051 -0.6702
 8959SOL    HW138339   4.060   0.960   9.416 -0.3502 -3.1626  0.6242
 8959SOL    HW238340   4.058   1.021   9.540  0.6329  1.1312 -0.6237
 8960SOL     OW38341   2.563   1.404   7.252 -0.6684 -0.3484  0.1920
 8960SOL    HW138342   2.644   1.401   7.302 -0.6078  0.0560  0.1247
 8960SOL    HW238343   2.498   1.398   7.323  0.2317 -0.9944  0.9504
 8961SOL     OW38344   3.440   1.827  10.098  0.1153 -0.3007  0.5989
 8961SOL    HW138345   3.500   1.898  10.072 -1.2520  0.0035 -1.6922
 8961SOL    HW238346   3.488   1.764  10.152  0.9732  0.7672  1.0742
 8962SOL     OW38347   2.513   4.678   0.077  0.1104 -0.0434 -0.3463
 8962SOL    HW138348   2.433   0.002   0.056 -0.5104 -1.7237 -1.7903
 8962SOL    HW238349   2.497   4.659   0.170 -0.1078  0.4514 -0.2845
 8963SOL     OW38350   1.910   3.539   2.478 -0.0891 -0.1206 -0.1979
 8963SOL    HW138351   1.902   3.444   2.491 -0.6131  0.2608  2.2824
 8963SOL    HW238352   1.871   3.554   2.393  0.0992  1.1597 -0.0504
 8964SOL     OW38353   1.815   2.494   7.939  0.4422 -0.1077 -0.5344
 8964SOL    HW138354   1.863   2.538   8.010  0.9636  2.5856 -2.5483
 8964SOL    HW238355   1.731   2.539   7.935 -0.4498 -1.8423 -1.2567
 8965SOL     OW38356   2.570   1.972   2.782 -0.0328  0.1089 -0.1825
 8965SOL    HW138357   2.631   1.899   2.788 -0.7923 -0.1779  4.0943
 8965SOL    HW238358   2.533   1.974   2.870  1.8639  0.2337  0.6168
 8966SOL     OW38359   0.126   2.609  16.344  0.1259 -0.9923 -0.2763
 8966SOL    HW138360   0.187   2.548  16.303  2.2073  1.8388 -1.3763
 8966SOL    HW238361   0.046   2.587  16.297  0.4918  3.6356 -3.1276
 8967SOL     OW38362   4.312   0.345  17.505 -0.3815 -0.3916  0.5701
 8967SOL    HW138363   4.390   0.386  17.540 -1.4675  0.8759  1.4712
 8967SOL    HW238364   4.314   0.382  17.417 -3.0444  0.2976  0.8147
 8968SOL     OW38365   2.651   3.006  10.534  0.1710  0.3318 -0.8413
 8968SOL    HW138366   2.719   3.054  10.486  0.7009  0.6281  0.2050
 8968SOL    HW238367   2.610   3.076  10.585  0.3899  0.1318 -0.3904
 8969SOL     OW38368   3.140   4.026  13.302 -0.1747 -0.0090  0.5523
 8969SOL    HW138369   3.089   3.986  13.372  2.4825  0.5216  2.7940
 8969SOL    HW238370   3.118   3.974  13.225  1.7606 -0.8839  0.5794
 8970SOL     OW38371   1.565   2.864   8.906 -0.3253 -0.0462  0.3829
 8970SOL    HW138372   1.476   2.853   8.871 -0.5226  0.0936  0.8467
 8970SOL    HW238373   1.610   2.785   8.877 -1.3644 -0.5894  0.2279
 8971SOL     OW38374   2.927   1.688  17.434 -0.3691 -0.3346  0.2936
 8971SOL    HW138375   2.937   1.781  17.455  0.3184  0.3086 -2.8378
 8971SOL    HW238376   2.883   1.689  17.349  0.0174 -0.1375  0.0988
 8972SOL     OW38377   3.572   4.569   8.733 -0.7233  0.3996  0.4525
 8972SOL    HW138378   3.484   4.577   8.769 -1.5030 -1.5205 -0.9710
 8972SOL    HW238379   3.584   4.663   8.728 -2.1183  0.5818  0.5038
 8973SOL     OW38380   4.588   4.163   6.203  0.3019  0.0880 -0.2164
 8973SOL    HW138381   4.654   4.145   6.137  0.1944  0.2052 -0.3546
 8973SOL    HW238382   4.564   4.252   6.176  0.3498  0.5361  1.1896
 8974SOL     OW38383   1.804   3.577   6.625  0.5038 -0.0587 -0.1137
 8974SOL    HW138384   1.749   3.500   6.607  0.9809 -0.4728  0.1968
 8974SOL    HW238385   1.844   3.570   6.538  1.3889  1.7216  0.1686
 8975SOL     OW38386   2.733   4.062   8.873 -0.8965  0.2002  0.3141
 8975SOL    HW138387   2.752   3.969   8.885 -0.6009  0.2772  0.4641
 8975SOL    HW238388   2.750   4.101   8.959 -2.6564 -0.2110  0.8509
 8976SOL     OW38389   2.923   4.233  11.212  0.1861  0.4366  0.1336
 8976SOL    HW138390   2.895   4.324  11.199  0.4214  0.6292  1.0009
 8976SOL    HW238391   2.862   4.203  11.280 -1.7889 -0.3960 -2.0038
 8977SOL     OW38392   3.383   1.928   3.907  0.7449 -0.0452  0.0837
 8977SOL    HW138393   3.427   1.848   3.936  0.8837  0.6840  1.8779
 8977SOL    HW238394   3.289   1.910   3.903  0.3592  2.1942 -0.6967
 8978SOL     OW38395   1.097   2.870  17.491 -0.5303 -0.6488 -0.5553
 8978SOL    HW138396   1.054   2.955  17.501  1.2936 -0.0199  1.8087
 8978SOL    HW238397   1.022   2.811  17.485  0.0279 -1.3929 -0.1060
 8979SOL     OW38398   3.297   4.108   2.004 -0.0348 -0.2046 -0.0381
 8979SOL    HW138399   3.235   4.180   2.014 -1.2877 -1.0917 -1.3432
 8979SOL    HW238400   3.286   4.067   2.090 -0.3784 -0.3874 -0.1670
 8980SOL     OW38401   0.411   3.988   4.949  0.1904 -0.1050  0.5668
 8980SOL    HW138402   0.392   3.959   5.038  1.5241  1.0990  1.2534
 8980SOL    HW238403   0.423   4.081   4.971 -0.9514 -0.3554  2.1478
 8981SOL     OW38404   3.307   4.347   7.543  0.1964 -0.9144  0.3235
 8981SOL    HW138405   3.320   4.438   7.567 -0.1803 -0.4170 -1.4158
 8981SOL    HW238406   3.253   4.362   7.466 -0.4001  0.8069  1.0927
 8982SOL     OW38407   2.459   4.023   8.954 -0.4235 -0.0751  0.0683
 8982SOL    HW138408   2.542   4.002   8.910  0.7049 -0.7156  2.4732
 8982SOL    HW238409   2.495   4.063   9.033 -1.8342  0.6358  0.3471
 8983SOL     OW38410   4.004   3.512   1.345 -0.3397 -0.3105  0.5991
 8983SOL    HW138411   3.914   3.480   1.354 -0.0174 -0.6413  2.4609
 8983SOL    HW238412   3.993   3.590   1.291 -0.7795 -0.0847  1.0180
 8984SOL     OW38413   1.619   0.941   2.292 -0.0391  0.3963  0.2440
 8984SOL    HW138414   1.523   0.942   2.291 -0.0678 -1.2555  1.2720
 8984SOL    HW238415   1.636   0.971   2.381  1.1594 -1.8758  0.7854
 8985SOL     OW38416   0.015   4.042   4.595  0.1259  0.1935  0.1551
 8985SOL    HW138417   0.000   3.987   4.518 -3.7051  0.0249  1.0109
 8985SOL    HW238418   0.057   3.986   4.660 -0.7511 -0.8795 -0.2031
 8986SOL     OW38419   2.716   0.643   4.313  0.5494 -0.7347  0.1848
 8986SOL    HW138420   2.628   0.645   4.351  1.5192 -2.3068  2.5642
 8986SOL    HW238421   2.772   0.700   4.365  0.8462  0.4987 -1.5010
 8987SOL     OW38422   2.778   1.333  11.367 -0.1059  0.2052  0.0319
 8987SOL    HW138423   2.729   1.285  11.301  1.2707 -0.1679 -0.7096
 8987SOL    HW238424   2.766   1.275  11.442 -1.7551  1.4315  0.7137
 8988SOL     OW38425   3.367   1.469   3.400  0.2682  0.6838  0.2593
 8988SOL    HW138426   3.318   1.403   3.449 -1.6348  0.3937 -2.0140
 8988SOL    HW238427   3.361   1.541   3.462 -0.3315  1.7799 -1.0818
 8989SOL     OW38428   3.651   3.744  17.035 -0.0807  0.3419  0.6129
 8989SOL    HW138429   3.627   3.676  17.098  0.8875  0.9880  1.6775
 8989SOL    HW238430   3.621   3.825  17.078 -1.1724 -0.6680  1.7609
 8990SOL     OW38431   4.620   0.410   7.094  0.0207 -0.2730  0.4899
 8990SOL    HW138432   4.541   0.357   7.089 -0.2219  0.1948 -0.6962
 8990SOL    HW238433   4.615   0.443   7.004 -0.2412 -1.8180 -0.0535
 8991SOL     OW38434   4.122   0.333  14.553 -0.7306  0.1846 -0.3864
 8991SOL    HW138435   4.109   0.425  14.530  1.6475  1.1321  2.0832
 8991SOL    HW238436   4.210   0.320  14.518  0.5439 -0.1305  2.9410
 8992SOL     OW38437   2.009   2.662   4.393 -0.0669  0.0415  0.5999
 8992SOL    HW138438   1.928   2.700   4.359  0.5208  2.4949  1.9120
 8992SOL    HW238439   1.973   2.611   4.465 -0.1445  0.5000  0.8852
 8993SOL     OW38440   2.236   1.113   3.884  0.1642 -0.3112  0.5166
 8993SOL    HW138441   2.261   1.200   3.854  0.7349 -0.1858  1.3380
 8993SOL    HW238442   2.277   1.057   3.818 -1.0331 -0.7525  0.1675
 8994SOL     OW38443   1.331   1.836  15.300 -0.1211 -0.4836  0.2923
 8994SOL    HW138444   1.269   1.763  15.296 -3.1048  2.1044 -0.0351
 8994SOL    HW238445   1.338   1.852  15.206  0.3700  1.4520  0.6659
 8995SOL     OW38446   3.875   2.892   7.038 -0.0162  0.0128  0.4889
 8995SOL    HW138447   3.901   2.816   7.090  0.3787 -1.2650 -1.5589
 8995SOL    HW238448   3.788   2.914   7.072 -1.2988 -2.0916 -1.3504
 8996SOL     OW38449   2.883   3.270   4.086  0.2592 -0.3727 -0.2680
 8996SOL    HW138450   2.835   3.327   4.025  1.8545 -0.2291 -1.3927
 8996SOL    HW238451   2.962   3.250   4.036  0.4387 -0.7055  0.1437
 8997SOL     OW38452   0.054   3.579   4.007  0.3115 -0.2081  0.2159
 8997SOL    HW138453   0.015   3.493   4.026  1.2907 -0.5369  0.7269
 8997SOL    HW238454   0.140   3.556   4.043  0.1207 -1.4566 -0.1203
 8998SOL     OW38455   2.676   1.014   2.594 -0.4914  0.2822 -0.0185
 8998SOL    HW138456   2.584   1.006   2.568 -0.7094  1.7004  0.3210
 8998SOL    HW238457   2.719   0.956   2.532  1.1808 -1.8914  3.1632
 8999SOL     OW38458   2.713   4.632   4.278  0.1448  0.1738  0.2436
 8999SOL    HW138459   2.790   4.665   4.232 -0.7573  1.5405 -0.2866
 8999SOL    HW238460   2.697   4.704   4.338 -2.1161 -0.5295  0.4991
 9000SOL     OW38461   0.387   4.543   4.990  0.2907  0.1648  0.1187
 9000SOL    HW138462   0.328   4.611   5.023 -0.7669  0.0010 -1.4026
 9000SOL    HW238463   0.340   4.517   4.911  0.5726  1.0044 -0.3229
 9001SOL     OW38464   1.295   1.049   4.621 -0.3492 -0.1849 -0.0133
 9001SOL    HW138465   1.357   0.984   4.590 -0.0974 -0.1836  0.4972
 9001SOL    HW238466   1.228   0.999   4.667 -0.9083  0.3044 -0.2758
 9002SOL     OW38467   2.277   3.546   8.043 -0.0372  0.4858  0.1376
 9002SOL    HW138468   2.365   3.556   8.007  1.4144 -3.2687  2.6427
 9002SOL    HW238469   2.255   3.633   8.078 -1.0961  0.1268  0.3586
 9003SOL     OW38470   2.422   3.458   9.119 -0.0817  0.0823  0.0578
 9003SOL    HW138471   2.493   3.431   9.177  0.1919 -0.9822 -0.7695
 9003SOL    HW238472   2.450   3.545   9.093 -0.6187 -0.4264 -2.1960
 9004SOL     OW38473   1.250   1.313  13.095  0.4266  0.3724 -0.2674
 9004SOL    HW138474   1.189   1.241  13.109  0.0131  0.7455 -0.1574
 9004SOL    HW238475   1.251   1.340  13.187 -0.6230  0.6067 -0.3301
 9005SOL     OW38476   2.303   0.560   5.673  0.0506 -0.1633 -0.0694
 9005SOL    HW138477   2.284   0.487   5.732 -0.7473 -0.1044 -0.2455
 9005SOL    HW238478   2.296   0.518   5.587 -0.6823 -1.7662  0.7790
 9006SOL     OW38479   3.470   3.955   3.991 -0.1107  0.0568  0.4099
 9006SOL    HW138480   3.488   3.905   3.911 -0.0297  1.1150 -0.2400
 9006SOL    HW238481   3.383   3.920   4.008 -0.5793  1.1858  0.3390
 9007SOL     OW38482   1.292   4.648   7.039 -0.3742 -0.2906  0.7717
 9007SOL    HW138483   1.307   4.689   7.125 -1.1008  2.4850 -0.4191
 9007SOL    HW238484   1.197   4.659   7.035 -0.3965 -0.2870  1.2323
 9008SOL     OW38485   2.133   2.328  17.530 -0.0080 -0.6347  0.1717
 9008SOL    HW138486   2.159   2.246  17.487  1.0323 -0.1896 -0.0530
 9008SOL    HW238487   2.188   2.329  17.608  1.0261 -1.7011 -0.5429
 9009SOL     OW38488   4.421   3.463  17.136 -0.3635  0.0049  0.2218
 9009SOL    HW138489   4.423   3.367  17.136 -0.7039 -0.0264  3.5541
 9009SOL    HW238490   4.331   3.490  17.116 -0.4472  0.8076  1.7040
 9010SOL     OW38491   1.561   3.549   3.419  0.2948 -0.4753  0.1033
 9010SOL    HW138492   1.581   3.634   3.381  1.8314 -0.5064  0.8496
 9010SOL    HW238493   1.477   3.538   3.373  0.5643  0.9627 -0.7423
 9011SOL     OW38494   3.231   2.050   4.250  0.0052 -0.3962 -0.6454
 9011SOL    HW138495   3.207   1.979   4.191  0.1908  0.1357 -1.3647
 9011SOL    HW238496   3.321   2.029   4.276  0.7322  2.4327 -0.7637
 9012SOL     OW38497   2.313   3.669   9.769  0.4035 -0.1365  0.0369
 9012SOL    HW138498   2.315   3.722   9.849  0.1726 -0.1520  0.0528
 9012SOL    HW238499   2.398   3.625   9.768  0.8580  0.7339  0.1342
 9013SOL     OW38500   4.723   2.931   4.547 -0.4551  0.3092  0.2913
 9013SOL    HW138501   0.054   2.854   4.529 -1.7685 -0.2155 -1.3936
 9013SOL    HW238502   0.009   2.989   4.472  0.9119 -0.6607 -0.2791
 9014SOL     OW38503   1.824   3.297   3.375  0.3941  0.6010  0.6897
 9014SOL    HW138504   1.822   3.366   3.308  0.5222 -0.6106 -0.5474
 9014SOL    HW238505   1.732   3.273   3.382  0.3316  0.9994  1.3427
 9015SOL     OW38506   0.367   2.952   3.832  0.4954 -0.3291  0.3203
 9015SOL    HW138507   0.398   3.041   3.849 -2.6129  0.3038  2.6762
 9015SOL    HW238508   0.271   2.955   3.836  0.5118  0.9660 -0.4333
 9016SOL     OW38509   4.140   3.920   2.381 -0.4266 -0.2449  0.2046
 9016SOL    HW138510   4.156   3.904   2.288 -1.1794 -0.3921  0.0994
 9016SOL    HW238511   4.065   3.979   2.383 -0.3641 -0.1817  1.0293
 9017SOL     OW38512   0.620   0.953   4.782  0.3318 -0.2931 -0.0096
 9017SOL    HW138513   0.695   0.953   4.722 -0.1076  0.0623 -0.5612
 9017SOL    HW238514   0.599   0.861   4.765 -0.7856 -0.1364  0.5059
 9018SOL     OW38515   1.728   2.434   4.306  0.5965 -0.1870 -0.1955
 9018SOL    HW138516   1.745   2.440   4.400 -1.1902  0.0856  0.1106
 9018SOL    HW238517   1.645   2.389   4.294  0.6215 -0.8193  2.0328
 9019SOL     OW38518   0.572   3.241   6.798 -0.4144 -0.3816  0.1176
 9019SOL    HW138519   0.603   3.251   6.708 -0.1553  0.4997  0.3073
 9019SOL    HW238520   0.543   3.330   6.816 -1.8759 -0.6660 -0.8181
 9020SOL     OW38521   2.508   1.903   7.573  0.1336  0.2121  0.4358
 9020SOL    HW138522   2.515   1.827   7.515 -0.2496  0.5425 -0.0434
 9020SOL    HW238523   2.444   1.963   7.535 -0.5154 -0.0103  1.1628
 9021SOL     OW38524   1.486   4.370  11.759  0.3483 -0.4805 -0.0183
 9021SOL    HW138525   1.404   4.359  11.710  0.8362  3.6117 -1.7825
 9021SOL    HW238526   1.544   4.393  11.687 -0.6883 -0.8169 -0.9640
 9022SOL     OW38527   3.219   0.058  16.374 -0.2866  0.0899 -0.0809
 9022SOL    HW138528   3.280   4.713  16.348 -0.2996 -0.4412  1.2885
 9022SOL    HW238529   3.179   0.092  16.294 -1.5390  1.8627  1.3179
 9023SOL     OW38530   0.984   2.957  14.325 -1.1014  0.2087 -0.4317
 9023SOL    HW138531   1.053   2.992  14.269 -2.3630  1.1915 -1.3606
 9023SOL    HW238532   0.990   2.863  14.310  0.7060  0.4978 -1.4586
 9024SOL     OW38533   2.171   2.983   4.780 -0.0326 -0.1899 -0.0451
 9024SOL    HW138534   2.206   3.006   4.693 -1.1218 -0.3903 -0.5398
 9024SOL    HW238535   2.129   2.904   4.745 -1.4963  0.9831 -0.9199
 9025SOL     OW38536   2.161   4.233  11.343  0.0070  0.1693  0.2883
 9025SOL    HW138537   2.255   4.251  11.354  0.3387 -1.7467  0.6841
 9025SOL    HW238538   2.141   4.288  11.268 -0.7439  0.7132  0.8919
 9026SOL     OW38539   1.639   1.245   3.816  0.2133 -0.3225 -0.6660
 9026SOL    HW138540   1.731   1.272   3.810 -0.0171  0.3789 -1.0345
 9026SOL    HW238541   1.600   1.305   3.878 -0.1804  1.0516 -2.2310
 9027SOL     OW38542   0.658   0.252   0.278  0.3192  0.5493  0.1234
 9027SOL    HW138543   0.607   0.174   0.256 -1.7130  1.6215  1.0813
 9027SOL    HW238544   0.592   0.314   0.309  0.6379  1.2660 -0.6364
 9028SOL     OW38545   3.210   2.528   4.713 -0.5882 -0.0311 -0.8521
 9028SOL    HW138546   3.127   2.575   4.722  0.2375  1.2994 -0.3467
 9028SOL    HW238547   3.199   2.468   4.787 -0.5475  0.7558 -0.2135
 9029SOL     OW38548   3.607   4.569  12.114 -0.1382  0.0642  0.3066
 9029SOL    HW138549   3.618   4.544  12.022 -0.4632  1.1669 -0.0303
 9029SOL    HW238550   3.700   4.589  12.125 -0.0569 -0.9580  1.5363
 9030SOL     OW38551   0.431   1.302   3.837 -0.0428 -0.1178  0.1073
 9030SOL    HW138552   0.488   1.226   3.829  0.6845  0.6321 -2.1153
 9030SOL    HW238553   0.396   1.294   3.748 -0.3631  0.3689  0.1863
 9031SOL     OW38554   2.342   4.134   2.957 -0.1184  0.0370  0.2204
 9031SOL    HW138555   2.361   4.096   2.872  0.1956  2.4710 -0.7902
 9031SOL    HW238556   2.248   4.152   2.955 -0.0133  0.0763 -3.5456
 9032SOL     OW38557   2.706   4.618  12.953  0.2511  0.3285  0.0271
 9032SOL    HW138558   2.741   4.664  13.029  1.1067 -1.8277  0.9516
 9032SOL    HW238559   2.617   4.594  12.977  0.5606 -0.1877  0.6470
 9033SOL     OW38560   1.880   4.516  17.256  0.2440  0.2935 -0.3608
 9033SOL    HW138561   1.821   4.498  17.329  0.3732  2.2023  0.2305
 9033SOL    HW238562   1.954   4.563  17.295 -0.0560 -0.5577  1.2368
 9034SOL     OW38563   0.576   1.455   7.595 -0.0355 -0.3313 -0.4774
 9034SOL    HW138564   0.488   1.423   7.576 -0.3472 -0.0161  0.4746
 9034SOL    HW238565   0.574   1.468   7.690 -3.7633  2.0294 -0.8941
 9035SOL     OW38566   1.994   4.679  10.970  0.0829 -0.0815 -0.1731
 9035SOL    HW138567   1.985   4.634  11.055  1.8627  1.6581  0.9242
 9035SOL    HW238568   2.010   0.046  10.993 -0.3663  0.1939 -0.9529
 9036SOL     OW38569   0.733   2.664   8.794  0.4565 -0.2213  0.1449
 9036SOL    HW138570   0.759   2.685   8.704  0.1910  0.6288  0.2653
 9036SOL    HW238571   0.686   2.582   8.780 -0.0947  0.7394 -3.5272
 9037SOL     OW38572   2.477   3.922   7.305 -0.5422 -0.1554 -0.4112
 9037SOL    HW138573   2.508   3.843   7.261 -0.7859 -0.7147  0.4276
 9037SOL    HW238574   2.391   3.924   7.265 -0.1528  0.9757 -1.1992
 9038SOL     OW38575   3.760   0.721  10.049  0.1591  0.5263 -0.2821
 9038SOL    HW138576   3.760   0.634  10.009 -1.6276  1.3515 -2.1040
 9038SOL    HW238577   3.800   0.778   9.983  0.7632 -1.6475 -1.7903
 9039SOL     OW38578   4.274   1.590   3.277 -0.0748  0.3787 -0.1900
 9039SOL    HW138579   4.343   1.638   3.231  0.5766  2.0823  2.5057
 9039SOL    HW238580   4.195   1.626   3.237 -0.0948 -2.5782 -2.8139
 9040SOL     OW38581   2.000   1.913   5.855 -0.2818 -0.2971  0.5430
 9040SOL    HW138582   2.043   1.950   5.932 -0.2895 -0.3176  0.5573
 9040SOL    HW238583   1.960   1.837   5.897  0.9688 -1.5304 -0.4592
 9041SOL     OW38584   4.422   2.939   1.388  0.1511  0.4790  0.0580
 9041SOL    HW138585   4.374   3.020   1.371 -0.8326  0.0917  0.9962
 9041SOL    HW238586   4.481   2.972   1.455  0.5392 -0.1801  0.0430
 9042SOL     OW38587   2.871   1.179   3.525  0.3296  0.5529 -1.0354
 9042SOL    HW138588   2.781   1.194   3.494 -0.3276  0.2028  0.7197
 9042SOL    HW238589   2.905   1.108   3.470 -0.6866  0.0517 -1.0223
 9043SOL     OW38590   0.764   0.706  12.254  0.4365 -0.3716  0.0316
 9043SOL    HW138591   0.686   0.686  12.305  0.6472 -1.1872  0.0284
 9043SOL    HW238592   0.750   0.797  12.225  1.1605 -0.5346 -0.8492
 9044SOL     OW38593   2.767   3.880   8.525  0.7732 -0.0167 -0.0221
 9044SOL    HW138594   2.857   3.879   8.558  0.7629  1.3637  0.0507
 9044SOL    HW238595   2.780   3.831   8.444 -1.1586 -0.3210 -0.1475
 9045SOL     OW38596   1.193   2.005   3.123 -0.2018 -0.1515 -0.0479
 9045SOL    HW138597   1.210   1.944   3.051 -2.4460  0.9698 -1.5332
 9045SOL    HW238598   1.174   1.940   3.191  1.0344 -0.8980 -0.4054
 9046SOL     OW38599   3.635   3.695   6.947 -0.3354  0.4522 -0.3451
 9046SOL    HW138600   3.629   3.723   6.856 -0.4809  0.9775 -0.1733
 9046SOL    HW238601   3.541   3.687   6.968 -0.4056 -1.3905 -1.3812
 9047SOL     OW38602   4.176   2.153   2.453  0.7160 -0.4286 -0.2754
 9047SOL    HW138603   4.142   2.198   2.376  1.1339  2.2902  1.1113
 9047SOL    HW238604   4.270   2.154   2.438  1.1309 -1.7561  2.2285
 9048SOL     OW38605   2.443   1.688  16.682  0.2600 -0.4687  0.2467
 9048SOL    HW138606   2.377   1.655  16.622 -1.8481 -0.3921  2.5049
 9048SOL    HW238607   2.425   1.781  16.667  2.9658  0.1491  0.8835
 9049SOL     OW38608   1.189   3.120   0.032  0.1518 -0.4409  0.1009
 9049SOL    HW138609   1.152   3.099   0.118  0.9999  3.9853  1.5490
 9049SOL    HW238610   1.118   3.096  17.670 -0.4795 -0.1948  0.7641
 9050SOL     OW38611   2.772   3.593  12.398  0.1307 -0.2335  0.5702
 9050SOL    HW138612   2.759   3.509  12.355  2.4970 -0.2285 -0.1717
 9050SOL    HW238613   2.709   3.649  12.352  1.4740 -0.7563 -1.8897
 9051SOL     OW38614   0.634   3.762   2.974 -0.6319  0.0011 -0.1678
 9051SOL    HW138615   0.610   3.809   2.895  0.6930 -2.1880 -1.8800
 9051SOL    HW238616   0.682   3.831   3.019 -0.8607  1.8660 -2.7984
 9052SOL     OW38617   2.821   0.314   9.487  0.6324  0.1933 -0.4532
 9052SOL    HW138618   2.887   0.266   9.438 -0.1322 -1.0248 -0.2990
 9052SOL    HW238619   2.803   0.256   9.561 -0.3101  1.8747  0.6528
 9053SOL     OW38620   3.998   4.157   4.059  0.3906 -0.3992 -0.5577
 9053SOL    HW138621   3.931   4.090   4.072 -0.2975  0.5338  0.7847
 9053SOL    HW238622   3.983   4.207   4.139  0.4837 -1.6866  0.2731
 9054SOL     OW38623   2.671   2.912   0.355  0.0821 -0.1464  0.2537
 9054SOL    HW138624   2.590   2.928   0.403  0.9884  2.5099  0.9072
 9054SOL    HW238625   2.709   3.000   0.354 -0.5550  0.1185 -0.3958
 9055SOL     OW38626   0.482   0.340   3.571 -0.9631 -0.5416 -0.1443
 9055SOL    HW138627   0.515   0.293   3.494 -1.0118  0.1284 -0.5724
 9055SOL    HW238628   0.561   0.372   3.615 -1.0286  0.2554 -0.6048
 9056SOL     OW38629   3.694   0.152   1.466 -0.0689  0.2972 -0.4176
 9056SOL    HW138630   3.640   0.192   1.397 -0.1081 -3.3546 -2.4878
 9056SOL    HW238631   3.730   0.232   1.505  0.7100 -1.1132  1.7156
 9057SOL     OW38632   4.004   0.820   9.261  0.2853  0.0914  0.4561
 9057SOL    HW138633   4.071   0.752   9.271 -0.0456  0.0898  2.6946
 9057SOL    HW238634   4.044   0.890   9.209 -2.2700  0.5672 -0.8492
 9058SOL     OW38635   2.327   2.363   3.869  0.1400  0.3894  0.3495
 9058SOL    HW138636   2.337   2.434   3.932 -0.3947 -0.1049  0.9978
 9058SOL    HW238637   2.416   2.366   3.835 -0.1684  0.7849 -0.4418
 9059SOL     OW38638   0.734   1.307   6.178  0.0347  0.2401  0.0064
 9059SOL    HW138639   0.728   1.255   6.258 -0.3458 -0.4356 -0.4646
 9059SOL    HW238640   0.643   1.305   6.151 -0.2901 -2.1837  1.2370
 9060SOL     OW38641   4.325   0.609   5.759  0.3580 -0.4847 -0.2700
 9060SOL    HW138642   4.237   0.611   5.722  0.6467  1.6856 -0.8222
 9060SOL    HW238643   4.369   0.649   5.685 -2.4719  4.5059  0.7701
 9061SOL     OW38644   3.418   1.170   5.909  0.6298  0.1700 -0.0455
 9061SOL    HW138645   3.404   1.139   5.999 -1.6186 -0.4560 -0.6075
 9061SOL    HW238646   3.390   1.092   5.862 -0.1909  0.0284  0.6742
 9062SOL     OW38647   1.050   3.259   3.629 -0.4253 -0.1975  0.4732
 9062SOL    HW138648   1.060   3.165   3.612 -1.2631  0.2355 -2.4724
 9062SOL    HW238649   1.035   3.259   3.724  1.4448  0.2328  0.7526
 9063SOL     OW38650   1.072   2.858   9.739  0.2332 -0.1816 -0.1118
 9063SOL    HW138651   0.984   2.896   9.734 -0.3283 -1.6660 -1.2675
 9063SOL    HW238652   1.061   2.765   9.724  0.5550 -0.0941 -0.9286
 9064SOL     OW38653   0.982   4.201   7.126  0.4548 -0.2867 -0.2255
 9064SOL    HW138654   1.076   4.191   7.110  0.1055 -2.9410 -0.6262
 9064SOL    HW238655   0.960   4.265   7.059  2.3626  1.2307  0.5934
 9065SOL     OW38656   3.634   1.864   1.204  0.1594  0.4422  0.3722
 9065SOL    HW138657   3.722   1.874   1.170  0.9125  0.5626  2.3792
 9065SOL    HW238658   3.661   1.817   1.282  0.6951  2.6319  1.5188
 9066SOL     OW38659   3.028   0.640   4.141 -0.2268 -0.5086 -0.3625
 9066SOL    HW138660   3.022   0.735   4.144  1.3088 -0.4468  1.1045
 9066SOL    HW238661   3.102   0.620   4.085 -0.8354  0.8408 -1.6286
 9067SOL     OW38662   3.143   3.823   7.307  0.1249 -0.3199 -0.0109
 9067SOL    HW138663   3.103   3.911   7.309  1.0355  0.1460 -2.4282
 9067SOL    HW238664   3.224   3.854   7.347  0.0756 -0.9859  0.6040
 9068SOL     OW38665   1.740   3.971   8.035  0.6067  0.1325 -0.5357
 9068SOL    HW138666   1.645   3.967   8.032  0.7073 -1.8043 -1.2149
 9068SOL    HW238667   1.759   4.029   8.109 -1.6701  0.3101 -0.1139
 9069SOL     OW38668   3.684   1.955  12.041  0.0508  0.1463 -0.0514
 9069SOL    HW138669   3.664   1.953  11.947 -0.3236 -1.0890  0.0469
 9069SOL    HW238670   3.776   1.982  12.036  0.7583 -2.0076  1.1453
 9070SOL     OW38671   3.987   1.249   0.225  0.2971 -0.1552  0.4291
 9070SOL    HW138672   3.982   1.156   0.205 -1.2398 -0.1785  0.9363
 9070SOL    HW238673   4.033   1.286   0.150  1.9295 -2.5512  0.2485
 9071SOL     OW38674   1.727   1.571   5.775 -0.4333 -0.3084 -0.6711
 9071SOL    HW138675   1.698   1.563   5.684 -0.1801 -0.0280 -0.7773
 9071SOL    HW238676   1.643   1.587   5.818  0.0142 -2.7240  1.0785
 9072SOL     OW38677   2.969   3.045   8.011 -0.1211 -0.4696  0.7740
 9072SOL    HW138678   3.037   3.037   7.944  1.1902  1.2162  1.8769
 9072SOL    HW238679   2.972   2.957   8.050 -0.9048 -1.5520 -1.6531
 9073SOL     OW38680   0.354   3.535   3.400 -0.2177 -0.0685  0.0018
 9073SOL    HW138681   0.357   3.460   3.341 -1.8385  1.0895 -1.5490
 9073SOL    HW238682   0.273   3.578   3.373  0.1482 -0.4691 -1.6943
 9074SOL     OW38683   4.212   4.452   4.534 -0.0797  0.2290 -0.0197
 9074SOL    HW138684   4.268   4.416   4.603  0.5249  2.1936  0.5275
 9074SOL    HW238685   4.250   4.411   4.457 -4.2792 -0.0388 -1.9358
 9075SOL     OW38686   2.029   3.342   1.032  0.2747  1.1499 -0.1363
 9075SOL    HW138687   2.061   3.360   1.121 -1.6926 -1.6458  1.1644
 9075SOL    HW238688   1.955   3.291   1.067  1.4366 -0.6405 -0.2463
 9076SOL     OW38689   3.467   0.800   6.441  0.6761  0.4958 -0.3744
 9076SOL    HW138690   3.547   0.853   6.441 -0.0011  1.5188 -1.1789
 9076SOL    HW238691   3.490   0.733   6.376  1.1700 -0.2790  0.6032
 9077SOL     OW38692   3.071   2.982   6.202 -0.0750 -0.1763  0.1293
 9077SOL    HW138693   3.058   3.073   6.175  0.8778  0.0511  0.4491
 9077SOL    HW238694   2.987   2.937   6.194 -1.1678  2.2545 -2.4376
 9078SOL     OW38695   0.647   0.976   7.876  0.2294 -0.6717  1.1352
 9078SOL    HW138696   0.601   1.046   7.829  0.8965 -1.0222 -0.0478
 9078SOL    HW238697   0.584   0.905   7.864 -0.5090 -0.0079  1.0514
 9079SOL     OW38698   1.740   2.240   7.367  0.2103 -0.3424 -0.1059
 9079SOL    HW138699   1.777   2.301   7.431  0.9151 -1.8222  0.9006
 9079SOL    HW238700   1.793   2.163   7.388  1.6603  0.5332 -0.5596
 9080SOL     OW38701   3.923   1.464  10.383  0.1026 -0.4147  0.1673
 9080SOL    HW138702   3.910   1.375  10.418 -0.0008  0.0615  1.3251
 9080SOL    HW238703   3.959   1.500  10.464  0.3597  2.5835 -1.2804
 9081SOL     OW38704   3.131   0.403   2.161 -0.8574  0.1834  0.1849
 9081SOL    HW138705   3.086   0.442   2.087  0.4296  0.0193 -0.6855
 9081SOL    HW238706   3.116   0.309   2.146  2.1949 -0.0709 -1.3073
 9082SOL     OW38707   4.538   0.342   1.472 -0.4979 -0.0227  0.1239
 9082SOL    HW138708   4.633   0.347   1.468 -0.3476 -2.4857  0.3321
 9082SOL    HW238709   4.524   0.412   1.408 -0.0775 -0.2049 -0.1680
 9083SOL     OW38710   2.932   0.657  12.397  0.0574 -0.5107 -0.0975
 9083SOL    HW138711   2.918   0.737  12.346 -0.3568  0.5478  1.6412
 9083SOL    HW238712   3.024   0.645  12.417 -0.0742 -2.7104 -0.8284
 9084SOL     OW38713   2.163   0.408   9.480 -0.2581 -0.2662 -0.4431
 9084SOL    HW138714   2.231   0.471   9.504 -0.3349 -0.3315 -0.0482
 9084SOL    HW238715   2.081   0.458   9.473 -0.3423 -0.7460 -3.0314
 9085SOL     OW38716   4.580   3.356   5.008 -0.3026 -0.4655  0.6769
 9085SOL    HW138717   4.567   3.339   4.915 -0.4282 -0.6670  0.7318
 9085SOL    HW238718   4.546   3.445   5.019 -2.3654 -1.0264 -1.2904
 9086SOL     OW38719   3.865   0.058   8.543 -0.2447 -0.1265  0.1396
 9086SOL    HW138720   3.819   0.142   8.539 -0.1611  0.0203  2.3208
 9086SOL    HW238721   3.828   0.020   8.623 -0.3145 -0.4244 -0.0352
 9087SOL     OW38722   2.922   3.713  16.260  0.0062 -0.4288 -0.0956
 9087SOL    HW138723   2.933   3.679  16.349  0.2736 -0.1258 -0.0141
 9087SOL    HW238724   2.934   3.805  16.284  0.9645 -0.9389  1.3904
 9088SOL     OW38725   3.379   0.131   4.185 -0.0164 -0.1976 -0.1602
 9088SOL    HW138726   3.444   0.164   4.247  0.8241 -1.2808 -0.4593
 9088SOL    HW238727   3.441   0.132   4.111  0.6042  1.5809  0.3796
 9089SOL     OW38728   1.675   1.286   5.370  0.4238 -0.1389  0.6408
 9089SOL    HW138729   1.703   1.297   5.279 -0.2126  2.0597  0.6959
 9089SOL    HW238730   1.735   1.343   5.418  1.6123 -0.3948 -0.5314
 9090SOL     OW38731   3.252   3.723   6.317 -0.1089 -0.0328  0.0322
 9090SOL    HW138732   3.293   3.646   6.277 -1.6503 -1.2213  0.7551
 9090SOL    HW238733   3.284   3.788   6.254  1.3356 -0.0316  0.7840
 9091SOL     OW38734   2.160   3.488  10.048  0.1595 -0.6268 -0.2633
 9091SOL    HW138735   2.255   3.504  10.049 -0.1142  0.9393 -0.1111
 9091SOL    HW238736   2.156   3.434   9.969 -0.3701 -0.6286 -0.2296
 9092SOL     OW38737   0.976   3.870  11.119 -0.5997 -0.3150 -0.2675
 9092SOL    HW138738   0.984   3.839  11.209  0.1066 -0.2449 -0.3110
 9092SOL    HW238739   1.042   3.936  11.134  0.5160 -1.6893  0.8457
 9093SOL     OW38740   0.275   2.461   4.607  0.1100 -0.6171  0.1921
 9093SOL    HW138741   0.246   2.530   4.667  0.7164 -0.8512  0.7546
 9093SOL    HW238742   0.336   2.405   4.655  1.7125  0.3926 -0.6638
 9094SOL     OW38743   3.366   0.057  11.089 -0.0753 -0.0335  0.0125
 9094SOL    HW138744   3.460   0.042  11.098 -0.3521 -1.9468 -0.2690
 9094SOL    HW238745   3.375   0.138  11.040  2.0442 -0.5262 -0.4319
 9095SOL     OW38746   0.054   4.253  13.978  0.5266  0.2122 -0.2056
 9095SOL    HW138747   0.021   4.314  14.044  2.1673 -0.7582  1.5424
 9095SOL    HW238748   0.149   4.262  13.983  0.4971  0.0981  0.6014
 9096SOL     OW38749   4.473   3.734  17.537  0.1800  0.0641  0.5587
 9096SOL    HW138750   4.479   3.648  17.495  2.6683  0.4892  0.0169
 9096SOL    HW238751   4.432   3.768  17.457 -0.6391  0.4370  1.1362
 9097SOL     OW38752   4.498   4.369   1.929  0.0081  0.0870 -0.7370
 9097SOL    HW138753   4.575   4.332   1.972 -1.3537 -0.7735  0.9509
 9097SOL    HW238754   4.515   4.342   1.839  1.1728 -0.2653 -0.4185
 9098SOL     OW38755   1.599   2.845  12.801 -0.2501  0.3410  0.2151
 9098SOL    HW138756   1.525   2.882  12.752 -0.5459  0.2679  0.6101
 9098SOL    HW238757   1.659   2.815  12.733 -1.3683 -0.1998 -0.5387
 9099SOL     OW38758   1.701   0.528   5.830  0.4179  0.8249  0.0255
 9099SOL    HW138759   1.724   0.554   5.741  1.4295 -1.2411 -0.3257
 9099SOL    HW238760   1.761   0.454   5.840 -0.5570  0.0319 -0.0019
 9100SOL     OW38761   2.684   4.673   2.942 -0.0684  0.1372 -0.0093
 9100SOL    HW138762   2.745   4.697   2.872  0.9645 -0.7819  0.5630
 9100SOL    HW238763   2.722   0.004   3.010 -0.5832  1.4917 -0.8262
 9101SOL     OW38764   1.864   0.452   6.204 -0.3563  0.0428  0.2447
 9101SOL    HW138765   1.840   0.463   6.296  0.5446 -0.1231  0.4978
 9101SOL    HW238766   1.798   0.508   6.163  2.4839  2.5750 -0.8317
 9102SOL     OW38767   3.465   0.005   2.273  0.2467 -0.4737 -0.1651
 9102SOL    HW138768   3.372   0.015   2.252 -0.2728 -2.6370  1.1419
 9102SOL    HW238769   3.461   4.661   2.341 -1.2186 -0.9781 -0.7536
 9103SOL     OW38770   0.335   2.888   8.492  0.4671 -0.2229 -0.0645
 9103SOL    HW138771   0.283   2.952   8.444 -0.2287 -0.4482  0.3788
 9103SOL    HW238772   0.295   2.888   8.579  1.8978  0.9291  0.5920
 9104SOL     OW38773   4.250   2.984   5.308  0.0051  0.4718 -0.4414
 9104SOL    HW138774   4.218   2.894   5.313  3.3438 -0.7276 -1.0310
 9104SOL    HW238775   4.244   3.010   5.216 -0.2499  0.6800 -0.3671
 9105SOL     OW38776   4.374   0.578   4.630  0.3272  0.5012 -0.2072
 9105SOL    HW138777   4.414   0.492   4.645 -1.4156 -0.0003  1.4715
 9105SOL    HW238778   4.282   0.555   4.632  0.8123 -1.6095 -1.6128
 9106SOL     OW38779   4.164   2.312  16.224 -0.0529  0.2153  0.3131
 9106SOL    HW138780   4.258   2.326  16.233 -0.1077  0.8062 -0.0362
 9106SOL    HW238781   4.158   2.317  16.128  2.6935 -0.4705  0.1143
 9107SOL     OW38782   1.270   1.924   6.776 -0.0253  0.0855 -0.9056
 9107SOL    HW138783   1.176   1.909   6.775 -0.4135  2.3949  0.7284
 9107SOL    HW238784   1.278   1.961   6.863 -2.7589  1.8543 -1.4181
 9108SOL     OW38785   2.401   2.690  12.632  0.4396 -0.0773 -0.0063
 9108SOL    HW138786   2.386   2.600  12.661  0.0917 -0.6297 -1.8906
 9108SOL    HW238787   2.314   2.730  12.633 -0.2033 -1.4832  1.1918
 9109SOL     OW38788   1.442   3.308   7.706 -0.2994 -0.0421  0.3525
 9109SOL    HW138789   1.382   3.272   7.640 -1.0129 -1.2000  1.6380
 9109SOL    HW238790   1.505   3.236   7.709  0.6033  0.6806 -1.2801
 9110SOL     OW38791   1.256   2.789   2.510  0.1943  0.0399 -0.2181
 9110SOL    HW138792   1.238   2.702   2.474 -0.2013 -0.3812  0.9644
 9110SOL    HW238793   1.163   2.811   2.514 -0.2259 -1.3635 -1.9885
 9111SOL     OW38794   3.046   1.476  12.788  0.2349  0.6138 -0.2959
 9111SOL    HW138795   3.071   1.553  12.738 -2.0961 -0.2186 -2.7113
 9111SOL    HW238796   2.976   1.513  12.842 -1.5231  0.5471 -2.5206
 9112SOL     OW38797   1.624   0.043   2.205  0.0286 -0.0623  0.1644
 9112SOL    HW138798   1.598   4.682   2.168  2.1654  0.6675 -3.0366
 9112SOL    HW238799   1.569   0.111   2.165 -2.0417 -2.4007 -1.0493
 9113SOL     OW38800   0.545   4.091   4.285  0.1604  0.3682  0.4547
 9113SOL    HW138801   0.585   4.016   4.329 -0.8905 -0.0018  0.7999
 9113SOL    HW238802   0.563   4.064   4.195  1.3390  0.9914  0.5137
 9114SOL     OW38803   0.879   1.697   4.527  0.5140  0.2243  0.3950
 9114SOL    HW138804   0.869   1.672   4.619  2.2748 -1.3408  0.1517
 9114SOL    HW238805   0.958   1.654   4.495 -0.3549 -0.6021 -0.6412
 9115SOL     OW38806   4.155   2.038   4.121  0.7408  0.2684  0.1607
 9115SOL    HW138807   4.167   1.948   4.090 -0.5072 -0.4164  1.6771
 9115SOL    HW238808   4.220   2.046   4.191  0.6484  1.4029  0.1189
 9116SOL     OW38809   1.713   3.470   7.262 -0.4091 -0.5079 -0.3392
 9116SOL    HW138810   1.691   3.412   7.334 -1.1191 -0.6314 -0.6602
 9116SOL    HW238811   1.639   3.529   7.278 -0.9366 -0.8055 -1.6824
 9117SOL     OW38812   3.651   0.908   6.687  0.2138 -0.5896  0.5269
 9117SOL    HW138813   3.678   0.819   6.707 -0.6113 -0.8517  0.4289
 9117SOL    HW238814   3.692   0.932   6.770 -1.6681  1.1507  0.9595
 9118SOL     OW38815   3.128   3.913   8.856 -0.3939 -0.1579 -0.2728
 9118SOL    HW138816   3.103   3.822   8.873  1.1930 -1.0104 -2.5310
 9118SOL    HW238817   3.143   3.944   8.945  0.5051 -0.9587 -0.1410
 9119SOL     OW38818   1.557   3.287   6.545 -0.1868  0.3229  0.2897
 9119SOL    HW138819   1.489   3.243   6.493  0.9822  0.5953 -1.4569
 9119SOL    HW238820   1.513   3.303   6.628 -1.8787  2.4343 -0.9984
 9120SOL     OW38821   1.140   3.123  16.018  0.3236 -0.6463  0.3685
 9120SOL    HW138822   1.156   3.032  16.041  3.1483 -0.1902  0.1895
 9120SOL    HW238823   1.050   3.131  15.988  0.1624  0.9700  1.2242
 9121SOL     OW38824   4.676   1.804  13.570  0.1639 -0.0770 -0.1100
 9121SOL    HW138825   4.591   1.760  13.580  0.9629 -1.7659 -0.8144
 9121SOL    HW238826   4.669   1.800  13.475 -0.4523 -2.4522  0.0297
 9122SOL     OW38827   2.200   2.088  11.822 -0.5542 -0.1222 -0.1784
 9122SOL    HW138828   2.172   2.018  11.763  0.8016  0.3497 -1.3886
 9122SOL    HW238829   2.240   2.149  11.760 -1.4414  1.2326  0.5803
 9123SOL     OW38830   2.315   3.901   2.370 -0.6733 -0.1565  0.5044
 9123SOL    HW138831   2.283   3.849   2.295  0.3944 -2.0119  1.3569
 9123SOL    HW238832   2.299   3.836   2.438 -0.7597  0.3375  0.9532
 9124SOL     OW38833   1.611   3.656   9.887 -0.3703  0.3623 -0.7119
 9124SOL    HW138834   1.602   3.715   9.812 -3.3211  0.0256 -0.6183
 9124SOL    HW238835   1.621   3.573   9.841 -0.8163 -1.0435  1.7865
 9125SOL     OW38836   0.532   1.200  16.893  0.1829  0.4505  0.4949
 9125SOL    HW138837   0.520   1.234  16.982  1.4769 -1.2883  1.3291
 9125SOL    HW238838   0.515   1.273  16.834 -0.1766 -0.2347 -0.2361
 9126SOL     OW38839   0.246   1.959   6.672 -0.5067 -0.4383 -0.2732
 9126SOL    HW138840   0.281   1.925   6.755  1.3641  0.1233 -0.8290
 9126SOL    HW238841   0.324   2.009   6.648 -0.7936  1.0486  1.9518
 9127SOL     OW38842   4.137   2.963   7.154 -0.5818  0.7962 -0.2575
 9127SOL    HW138843   4.046   2.937   7.142 -0.9117  1.6350  0.4617
 9127SOL    HW238844   4.132   3.057   7.173 -0.5497  0.6703  0.3703
 9128SOL     OW38845   1.733   3.133   9.567 -0.3255 -0.2037  0.3268
 9128SOL    HW138846   1.727   3.201   9.633 -0.0885 -0.0190  0.1544
 9128SOL    HW238847   1.827   3.117   9.569 -0.0873  1.1429 -0.1436
 9129SOL     OW38848   3.750   4.619   4.045 -0.1288 -0.0878 -0.2217
 9129SOL    HW138849   3.700   4.553   3.997 -0.1430 -0.8636  0.8582
 9129SOL    HW238850   3.790   4.563   4.112 -1.3012 -0.5631  0.0904
 9130SOL     OW38851   0.119   2.097   0.248 -0.2097 -0.1056  0.0544
 9130SOL    HW138852   0.113   2.015   0.199  0.5050  0.1223 -0.4179
 9130SOL    HW238853   0.119   2.070   0.340 -0.0381 -1.1867 -0.2613
 9131SOL     OW38854   4.404   2.372   6.266  0.1748 -0.0193 -0.0832
 9131SOL    HW138855   4.440   2.449   6.310 -0.3982  0.2843 -0.1508
 9131SOL    HW238856   4.378   2.311   6.335  0.2264 -0.3151 -0.3245
 9132SOL     OW38857   1.910   3.665   7.464 -0.0157  0.3114  0.3335
 9132SOL    HW138858   1.945   3.576   7.472  1.9927  0.9141 -1.5168
 9132SOL    HW238859   1.824   3.640   7.432 -1.5373  4.9277  0.9587
 9133SOL     OW38860   0.588   2.586   0.453  0.9893 -0.5497  0.4137
 9133SOL    HW138861   0.534   2.659   0.483  2.0953  0.4161  0.0469
 9133SOL    HW238862   0.668   2.629   0.481 -1.1827  3.2425  0.8740
 9134SOL     OW38863   3.964   0.194   4.321 -0.4062  0.4743 -0.0185
 9134SOL    HW138864   3.979   0.271   4.266  0.8092  0.9665  1.0148
 9134SOL    HW238865   4.040   0.141   4.298  0.1630  0.9550  0.7733
 9135SOL     OW38866   2.393   2.039   3.724  0.1004 -0.4245 -0.3298
 9135SOL    HW138867   2.302   2.018   3.706 -0.1527  0.4792 -0.0896
 9135SOL    HW238868   2.418   1.948   3.707  0.9937 -0.1247 -0.6278
 9136SOL     OW38869   2.149   0.584  17.096  0.0888 -0.2921 -0.4621
 9136SOL    HW138870   2.239   0.572  17.067  0.8964 -0.4180  2.1168
 9136SOL    HW238871   2.138   0.676  17.072 -1.8873 -1.0827 -2.6037
 9137SOL     OW38872   4.154   2.078   1.928 -0.7543 -0.2697  0.1342
 9137SOL    HW138873   4.168   2.032   1.845 -1.3000 -2.2996  1.1787
 9137SOL    HW238874   4.059   2.084   1.935 -0.5599  2.3238  0.5421
 9138SOL     OW38875   3.552   0.316   2.934 -0.2725  0.2859 -0.5523
 9138SOL    HW138876   3.562   0.328   3.029 -0.1224 -1.1162 -0.3909
 9138SOL    HW238877   3.544   0.221   2.925  0.0265  0.2153 -0.0458
 9139SOL     OW38878   2.649   3.737   3.653  0.1587  0.0095 -0.2646
 9139SOL    HW138879   2.693   3.814   3.619  1.8587 -0.6050  0.5706
 9139SOL    HW238880   2.664   3.671   3.585 -2.6453 -1.2858  0.3672
 9140SOL     OW38881   2.592   3.247   8.806 -0.0390 -0.0689  0.1768
 9140SOL    HW138882   2.635   3.268   8.888 -0.0175 -1.0454  0.4150
 9140SOL    HW238883   2.649   3.280   8.736 -0.1587  0.0822  0.1504
 9141SOL     OW38884   0.026   4.165   3.061  0.2032 -0.0682 -0.3897
 9141SOL    HW138885   4.680   4.229   3.075 -1.0617 -1.5401 -0.0581
 9141SOL    HW238886   4.702   4.083   3.049  0.1641 -0.0531 -0.3339
 9142SOL     OW38887   4.550   3.276   8.146  0.1836  0.5160 -0.1403
 9142SOL    HW138888   4.545   3.218   8.069 -1.3129  0.0460  0.3081
 9142SOL    HW238889   4.457   3.281   8.168 -0.0927 -1.2795 -0.8488
 9143SOL     OW38890   2.428   4.433   8.209 -0.2789  0.7210 -0.2822
 9143SOL    HW138891   2.406   4.445   8.302 -2.3006 -0.2549 -0.6450
 9143SOL    HW238892   2.396   4.345   8.189 -1.5152  1.5007 -1.6680
 9144SOL     OW38893   0.163   1.797   2.991  0.6623  0.4666  0.0332
 9144SOL    HW138894   0.098   1.861   2.961  1.9701  0.9304 -1.7871
 9144SOL    HW238895   0.210   1.783   2.910  1.2961  0.3160  0.4272
 9145SOL     OW38896   2.971   3.597   6.267 -0.5015 -0.1937  0.2248
 9145SOL    HW138897   3.032   3.603   6.194 -1.4274 -1.0458 -0.6189
 9145SOL    HW238898   3.035   3.585   6.337  0.2166  2.1923 -0.0291
 9146SOL     OW38899   2.118   1.129  10.474  0.6456  0.5760 -0.0862
 9146SOL    HW138900   2.063   1.190  10.524 -0.6882 -1.2951  0.7329
 9146SOL    HW238901   2.200   1.149  10.518  0.0942  0.7220  0.8885
 9147SOL     OW38902   3.484   2.304   4.584  0.1778 -0.0968 -0.1147
 9147SOL    HW138903   3.498   2.336   4.495  1.1143  0.1994  0.1520
 9147SOL    HW238904   3.497   2.378   4.642  3.4948 -1.8546  1.3994
 9148SOL     OW38905   4.587   2.326   3.676 -0.6744 -0.8678 -0.2155
 9148SOL    HW138906   4.632   2.315   3.592  1.0906 -3.3572  1.0521
 9148SOL    HW238907   4.661   2.319   3.736 -0.1921  0.3902 -0.6730
 9149SOL     OW38908   3.797   2.209   5.579 -0.2928 -0.3443 -0.0728
 9149SOL    HW138909   3.807   2.221   5.485 -0.1973  0.5436  0.0492
 9149SOL    HW238910   3.877   2.163   5.605 -2.0073 -3.0529  0.3099
 9150SOL     OW38911   3.232   1.854   5.913 -0.4698 -0.0948 -0.3779
 9150SOL    HW138912   3.168   1.926   5.918 -0.2593  0.1428 -1.1780
 9150SOL    HW238913   3.220   1.821   6.002  0.3417 -2.2468 -1.0860
 9151SOL     OW38914   1.857   4.144  12.807 -0.4310  0.3403  0.0681
 9151SOL    HW138915   1.897   4.196  12.738 -0.4933 -0.2174 -0.3825
 9151SOL    HW238916   1.845   4.060  12.764  0.8923  0.4766 -0.5693
 9152SOL     OW38917   4.127   4.696  14.080 -0.3050 -0.0328 -0.4350
 9152SOL    HW138918   4.172   4.723  13.999 -0.4505  1.7256  0.0601
 9152SOL    HW238919   4.093   4.610  14.055  1.3045  0.0797 -3.0485
 9153SOL     OW38920   2.624   3.236   0.982  0.2496 -0.1608  0.1987
 9153SOL    HW138921   2.573   3.161   0.951  1.8880 -0.4188 -1.8927
 9153SOL    HW238922   2.550   3.292   1.004  0.9788  0.2895  1.5112
 9154SOL     OW38923   3.152   0.893   8.650  0.1847 -0.1174  0.1957
 9154SOL    HW138924   3.148   0.820   8.711  1.1517  0.2064  0.6500
 9154SOL    HW238925   3.120   0.967   8.703 -1.9722 -0.9394  0.0424
 9155SOL     OW38926   4.393   1.734   6.926  0.1645  0.1546 -0.2203
 9155SOL    HW138927   4.390   1.670   6.855  0.9185  1.1905 -1.1748
 9155SOL    HW238928   4.454   1.795   6.886 -0.6398  0.8043 -0.4622
 9156SOL     OW38929   1.595   0.709   3.907 -0.3794  0.0040 -0.0451
 9156SOL    HW138930   1.637   0.681   3.826  0.7660  1.6976 -0.0360
 9156SOL    HW238931   1.604   0.804   3.908  1.0079 -0.1304 -0.1966
 9157SOL     OW38932   2.080   0.546  12.442 -0.0019 -0.2321 -0.2672
 9157SOL    HW138933   2.141   0.591  12.384  0.4521 -1.8127 -1.0264
 9157SOL    HW238934   2.142   0.506  12.504 -1.6268 -2.0243  0.2156
 9158SOL     OW38935   3.504   1.858   9.227 -1.0663  0.2241 -0.0753
 9158SOL    HW138936   3.431   1.853   9.289 -0.9462  1.1653  0.1368
 9158SOL    HW238937   3.561   1.813   9.290 -0.2792 -2.1604 -2.4933
 9159SOL     OW38938   2.180   2.931  11.908  0.2437 -0.4348 -0.6496
 9159SOL    HW138939   2.226   2.990  11.968  0.2036  1.3287 -2.3467
 9159SOL    HW238940   2.245   2.915  11.839  0.6626 -0.7881 -0.1667
 9160SOL     OW38941   3.988   1.606   6.979 -0.2088 -0.7360  0.1409
 9160SOL    HW138942   4.071   1.645   7.006  0.2420  0.8042 -3.4991
 9160SOL    HW238943   3.957   1.661   6.907 -0.1374  0.1286  0.7681
 9161SOL     OW38944   4.157   2.499  17.317  0.0983 -0.2501 -0.1591
 9161SOL    HW138945   4.229   2.485  17.378 -1.4071 -0.1560  1.6652
 9161SOL    HW238946   4.099   2.565  17.356  1.3760  0.7159  0.1084
 9162SOL     OW38947   1.505   1.417  14.911 -0.3330  0.1094  0.1382
 9162SOL    HW138948   1.440   1.402  14.842  1.1485 -0.9301 -1.0304
 9162SOL    HW238949   1.453   1.413  14.991 -0.1760  4.9401  0.5110
 9163SOL     OW38950   3.793   3.904  11.534  0.0500  0.0312 -0.3356
 9163SOL    HW138951   3.776   3.908  11.440 -0.1085  1.0860 -0.2621
 9163SOL    HW238952   3.790   3.996  11.563  0.8872 -0.8276  2.4949
 9164SOL     OW38953   3.295   0.231   0.289  0.0173  0.3584 -0.3034
 9164SOL    HW138954   3.345   0.251   0.369 -2.0321  1.0762  0.7891
 9164SOL    HW238955   3.342   0.154   0.258  0.4421  0.6358 -0.3639
 9165SOL     OW38956   1.315   3.041  10.205 -0.0044 -0.0537 -0.1672
 9165SOL    HW138957   1.298   3.134  10.222 -1.4803 -0.6932  1.8468
 9165SOL    HW238958   1.382   3.032  10.274  1.6723  2.1241 -1.5211
 9166SOL     OW38959   3.084   1.269   5.016  0.3997 -0.5183  0.0057
 9166SOL    HW138960   3.084   1.364   5.026  0.3766 -0.4134 -1.0599
 9166SOL    HW238961   3.137   1.262   5.096  0.2017  2.8879  0.4582
 9167SOL     OW38962   0.638   1.332   9.833 -0.0869  0.4012  0.0406
 9167SOL    HW138963   0.558   1.281   9.848 -0.3067  0.6252 -0.3682
 9167SOL    HW238964   0.590   1.404   9.792 -1.2515  0.0059  0.7004
 9168SOL     OW38965   2.794   1.896   7.959 -0.0299  0.0831 -0.6320
 9168SOL    HW138966   2.839   1.900   7.874 -1.4074 -3.1644 -1.5054
 9168SOL    HW238967   2.822   1.816   8.002 -3.3492 -0.5821  0.2702
 9169SOL     OW38968   0.414   2.806   0.522  0.0875 -0.7155  0.0050
 9169SOL    HW138969   0.482   2.873   0.524 -0.9656  0.3212  0.7662
 9169SOL    HW238970   0.359   2.840   0.452 -0.1268 -0.0096  0.5114
 9170SOL     OW38971   0.298   0.388   9.129  0.6708  0.7324 -0.4735
 9170SOL    HW138972   0.368   0.453   9.135  1.5772 -0.1999 -0.9290
 9170SOL    HW238973   0.308   0.348   9.215 -1.3245 -2.2725 -1.6281
 9171SOL     OW38974   0.034   0.716   2.560 -0.3050 -0.0270 -0.1907
 9171SOL    HW138975   0.025   0.621   2.555 -0.7121  0.1351 -2.4659
 9171SOL    HW238976   0.113   0.731   2.612 -1.1176  2.2708  0.3827
 9172SOL     OW38977   4.701   3.391   6.612 -0.5354  0.0413  0.7292
 9172SOL    HW138978   0.064   3.430   6.599 -0.5117 -0.5594 -0.9017
 9172SOL    HW238979   4.716   3.297   6.612 -2.1596 -0.2220  1.5735
 9173SOL     OW38980   2.394   1.889   5.945  0.3340 -0.1637  0.3088
 9173SOL    HW138981   2.489   1.881   5.941  0.4936  1.5676  0.7116
 9173SOL    HW238982   2.365   1.817   6.001 -1.6466 -0.6248 -1.3213
 9174SOL     OW38983   2.196   2.679  15.242 -0.1568 -0.7412 -0.0580
 9174SOL    HW138984   2.137   2.732  15.295  0.9697 -0.0677  0.5320
 9174SOL    HW238985   2.216   2.732  15.164 -0.9673  0.9666  0.9002
 9175SOL     OW38986   2.247   2.535   1.701 -0.0151 -0.4820 -0.3630
 9175SOL    HW138987   2.306   2.567   1.769 -0.5671  0.3054 -0.2565
 9175SOL    HW238988   2.298   2.564   1.626 -1.7788  0.9024 -1.0179
 9176SOL     OW38989   1.786   2.974   9.281 -0.6126  0.6808 -0.2353
 9176SOL    HW138990   1.764   2.891   9.324 -1.9399  1.5868  0.8113
 9176SOL    HW238991   1.748   3.041   9.337  1.4657  2.9893 -1.6143
 9177SOL     OW38992   1.164   2.474   4.370 -0.0485  0.2070  0.3386
 9177SOL    HW138993   1.146   2.560   4.408 -2.6980  1.3416 -3.3900
 9177SOL    HW238994   1.130   2.490   4.282 -3.6957 -0.8212  1.5683
 9178SOL     OW38995   0.564   2.461   0.817 -0.0138  0.4370 -0.1140
 9178SOL    HW138996   0.553   2.372   0.784  2.3855 -0.1345  0.6067
 9178SOL    HW238997   0.505   2.515   0.765  0.8685  1.0543 -0.4663
 9179SOL     OW38998   1.802   0.991   2.077 -0.1506  0.4118  0.1707
 9179SOL    HW138999   1.742   1.006   2.004 -1.3181  0.3514  1.1116
 9179SOL    HW239000   1.733   0.979   2.142 -3.0371  1.4853 -2.6650
 9180SOL     OW39001   2.188   0.987   0.913  0.4769  0.2272 -0.1523
 9180SOL    HW139002   2.125   0.937   0.965 -0.6789  0.9396 -0.8694
 9180SOL    HW239003   2.223   1.044   0.982 -2.0528  1.3382  0.2117
 9181SOL     OW39004   1.334   0.986   5.653 -0.5040 -0.4499  0.0974
 9181SOL    HW139005   1.329   0.949   5.565 -2.3005 -0.5385  0.2404
 9181SOL    HW239006   1.253   1.037   5.647 -1.4166 -1.9778 -0.4307
 9182SOL     OW39007   2.227   3.031  14.839  0.2274  0.5731 -0.0498
 9182SOL    HW139008   2.217   2.940  14.810 -1.9909 -0.5397  4.2482
 9182SOL    HW239009   2.300   3.043  14.899 -2.2545  0.5834  2.9307
 9183SOL     OW39010   4.253   1.633   9.359  0.0621 -0.2297 -0.2326
 9183SOL    HW139011   4.287   1.550   9.326  0.3102 -0.0557 -0.4138
 9183SOL    HW239012   4.209   1.619   9.443  0.9128 -4.3783 -0.5048
 9184SOL     OW39013   4.089   1.283   0.656  0.1097  0.4778  0.0667
 9184SOL    HW139014   4.051   1.259   0.571 -0.8505  0.2122  0.5630
 9184SOL    HW239015   4.099   1.196   0.695  3.8817  1.4422  1.2110
 9185SOL     OW39016   2.416   1.454   3.982  0.1601 -0.1407  0.0042
 9185SOL    HW139017   2.477   1.391   4.020 -0.5793 -0.9837 -0.2071
 9185SOL    HW239018   2.390   1.506   4.058 -1.9662 -0.6207 -0.3883
 9186SOL     OW39019   2.424   1.794   3.218  0.7601 -0.6255 -0.1370
 9186SOL    HW139020   2.429   1.856   3.290  1.0166  1.0795 -1.6209
 9186SOL    HW239021   2.335   1.811   3.187 -0.1511 -1.7696  1.8398
 9187SOL     OW39022   1.924   0.788   6.289  0.5340 -0.5520 -0.8146
 9187SOL    HW139023   1.834   0.810   6.314  0.7971  0.8614 -1.1447
 9187SOL    HW239024   1.928   0.827   6.202 -1.1981 -2.5241 -1.8060
 9188SOL     OW39025   1.310   3.114   3.817  0.0538 -1.5070  0.2635
 9188SOL    HW139026   1.403   3.106   3.836  0.4737  0.4553 -1.0459
 9188SOL    HW239027   1.311   3.081   3.727  0.5346 -0.6171 -0.0528
 9189SOL     OW39028   0.460   0.903   9.520 -0.0055 -0.3403 -0.2705
 9189SOL    HW139029   0.533   0.861   9.564  1.4141 -1.7993 -4.0170
 9189SOL    HW239030   0.414   0.827   9.486 -0.0141  0.5180 -2.1818
 9190SOL     OW39031   2.629   3.562  12.613  0.3110  0.2197  0.0141
 9190SOL    HW139032   2.671   3.589  12.531 -0.7957 -1.2397 -1.0517
 9190SOL    HW239033   2.601   3.646  12.650  0.1166  0.2324 -0.1611
 9191SOL     OW39034   2.626   1.142   1.853  0.4418 -0.0618  0.5542
 9191SOL    HW139035   2.645   1.185   1.936  0.6259 -0.2663  0.6184
 9191SOL    HW239036   2.556   1.199   1.821 -0.2348 -2.0251 -1.5002
 9192SOL     OW39037   0.865   2.497   7.415  0.0100  0.3789 -0.1600
 9192SOL    HW139038   0.857   2.406   7.384  2.4327  0.0266  0.2541
 9192SOL    HW239039   0.935   2.527   7.357  2.9531 -2.7778  1.7184
 9193SOL     OW39040   1.958   3.805  11.713 -0.5961 -0.1276 -0.1011
 9193SOL    HW139041   2.027   3.796  11.647 -0.0402  0.2583  0.4271
 9193SOL    HW239042   1.909   3.725  11.695 -1.0222 -0.1524  1.1346
 9194SOL     OW39043   0.454   1.061   0.792  0.3715 -0.2115  0.0376
 9194SOL    HW139044   0.463   1.155   0.781  0.7659 -0.1000  1.2627
 9194SOL    HW239045   0.502   1.028   0.716 -0.4722  0.2349 -0.6825
 9195SOL     OW39046   3.650   0.008  17.325 -0.5572  0.3518  0.0736
 9195SOL    HW139047   3.655   0.100  17.299 -0.5253 -0.0553 -1.3454
 9195SOL    HW239048   3.609   4.687  17.251 -0.5657  0.1816  0.1826
 9196SOL     OW39049   1.574   4.380  10.998 -0.1345  0.1384 -0.0151
 9196SOL    HW139050   1.562   4.447  11.066 -0.7928 -1.2026  1.1827
 9196SOL    HW239051   1.608   4.439  10.930 -0.4161  0.5480  0.1974
 9197SOL     OW39052   3.144   1.734   5.454 -0.2668  0.1922 -0.1020
 9197SOL    HW139053   3.198   1.680   5.396  3.1094  1.4060  1.9643
 9197SOL    HW239054   3.201   1.803   5.487  1.7189 -1.1453 -0.7466
 9198SOL     OW39055   0.688   0.832   2.638 -0.7080 -0.2870 -0.1963
 9198SOL    HW139056   0.731   0.780   2.571 -1.0632 -1.7860  0.7498
 9198SOL    HW239057   0.694   0.766   2.707  0.7084 -1.0165 -1.0220
 9199SOL     OW39058   1.168   0.511   0.039 -0.0944 -0.3797  0.1412
 9199SOL    HW139059   1.136   0.494  17.647  0.6952 -1.3014  0.0417
 9199SOL    HW239060   1.082   0.544   0.067 -0.2575 -0.9277  0.2784
 9200SOL     OW39061   4.084   3.329   5.901 -0.0588 -0.1826  0.2464
 9200SOL    HW139062   4.131   3.391   5.845  2.4540 -1.2002  1.2326
 9200SOL    HW239063   4.089   3.248   5.851 -0.8631 -0.3983  0.5172
 9201SOL     OW39064   0.747   4.365  13.351  0.9933 -0.4171  0.3568
 9201SOL    HW139065   0.786   4.280  13.333  2.5748  0.3764  0.1169
 9201SOL    HW239066   0.821   4.424  13.337  1.7347 -1.3385  0.4062
 9202SOL     OW39067   3.474   0.503   8.976  0.0666 -0.1583  0.0349
 9202SOL    HW139068   3.387   0.505   9.018 -0.3461  1.4418 -0.8978
 9202SOL    HW239069   3.462   0.562   8.901 -0.1519  1.0918  1.0345
 9203SOL     OW39070   4.326   0.436   5.958  0.4923  0.3408  0.0481
 9203SOL    HW139071   4.321   0.481   6.043  1.2162  1.2042 -0.3673
 9203SOL    HW239072   4.317   0.510   5.898  0.5894  2.7489  3.0264
 9204SOL     OW39073   4.375   0.046  11.326  0.1947  0.3851  0.0322
 9204SOL    HW139074   4.322   0.049  11.406 -0.1463 -0.6061 -0.1515
 9204SOL    HW239075   4.460   0.069  11.362  0.1467 -0.4533  0.7120
 9205SOL     OW39076   2.967   3.333   3.007  0.0498  0.4893 -0.7171
 9205SOL    HW139077   2.961   3.249   3.052 -2.4019  1.7217  1.3097
 9205SOL    HW239078   2.887   3.377   3.036  0.4738  2.0391 -1.8501
 9206SOL     OW39079   3.873   0.410  14.741 -0.0479  0.0015 -0.4647
 9206SOL    HW139080   3.887   0.445  14.653  0.4849 -0.0034 -0.3850
 9206SOL    HW239081   3.941   0.343  14.747  0.2371  0.5155  2.0162
 9207SOL     OW39082   1.606   3.388   0.945 -0.2272 -0.5110 -0.1316
 9207SOL    HW139083   1.523   3.350   0.977  0.1439 -1.2992 -0.0967
 9207SOL    HW239084   1.618   3.443   1.023 -1.0783  1.8772 -1.6891
 9208SOL     OW39085   1.237   2.629   8.029 -0.3811 -0.0039  0.0824
 9208SOL    HW139086   1.233   2.620   8.124  1.2820  0.8566  0.2382
 9208SOL    HW239087   1.230   2.539   7.997  1.4082 -0.2923  0.5216
 9209SOL     OW39088   0.004   3.650  15.097  0.6078 -0.0336 -0.0796
 9209SOL    HW139089   0.050   3.703  15.031 -0.6122  0.9220 -0.1545
 9209SOL    HW239090   0.000   3.715  15.168 -1.1340  0.2819 -0.4664
 9210SOL     OW39091   0.371   0.470  12.475 -0.1355 -0.4590 -0.0750
 9210SOL    HW139092   0.348   0.557  12.508  0.1846  0.0167 -1.1060
 9210SOL    HW239093   0.466   0.482  12.476  0.2484 -3.3467 -0.9015
 9211SOL     OW39094   0.284   2.726   2.088 -0.7223  0.2815 -0.4755
 9211SOL    HW139095   0.220   2.656   2.078 -0.7031  0.2212 -0.1828
 9211SOL    HW239096   0.367   2.681   2.101  0.0354  1.6237 -0.6770
 9212SOL     OW39097   3.708   3.266   6.797  0.2414 -0.2525  0.5719
 9212SOL    HW139098   3.620   3.227   6.796 -0.2620  0.8306  2.0802
 9212SOL    HW239099   3.720   3.280   6.703 -3.0867 -1.4256 -0.0306
 9213SOL     OW39100   2.676   3.260   5.351  0.0325  0.1617  0.0448
 9213SOL    HW139101   2.633   3.282   5.268 -2.9020 -0.9518  1.2829
 9213SOL    HW239102   2.720   3.177   5.330  1.5530  1.3675 -1.4985
 9214SOL     OW39103   1.271   3.331   5.411 -0.6128 -0.4221 -0.1634
 9214SOL    HW139104   1.238   3.303   5.326 -1.3827 -0.5732  0.1793
 9214SOL    HW239105   1.231   3.273   5.477 -1.9757  2.1774  1.2776
 9215SOL     OW39106   4.540   4.258  10.207  0.1129 -0.6572  0.3862
 9215SOL    HW139107   4.457   4.280  10.248 -0.1912  1.7307 -1.5177
 9215SOL    HW239108   4.569   4.340  10.167 -2.6820 -0.8276 -1.9495
 9216SOL     OW39109   2.791   4.368   1.457  0.1237  0.2789 -0.8317
 9216SOL    HW139110   2.848   4.293   1.471 -1.5588 -0.7941  0.2738
 9216SOL    HW239111   2.837   4.411   1.385  3.2857 -0.0732  0.9983
 9217SOL     OW39112   1.215   3.381   8.632  0.2865 -0.3752  0.4502
 9217SOL    HW139113   1.205   3.286   8.638  0.1170 -0.3846  0.0436
 9217SOL    HW239114   1.133   3.404   8.674 -0.1438 -0.5380 -0.3067
 9218SOL     OW39115   3.644   3.238   5.014  0.0041 -0.3268 -0.2161
 9218SOL    HW139116   3.619   3.250   4.922  0.0794 -0.4749 -0.2569
 9218SOL    HW239117   3.718   3.298   5.016 -2.1087  2.3329 -0.8057
 9219SOL     OW39118   1.327   3.226  11.187 -0.0364 -0.5171  0.3216
 9219SOL    HW139119   1.348   3.162  11.119 -0.4780 -1.6350  1.2419
 9219SOL    HW239120   1.231   3.229  11.190 -0.1584 -1.0195 -3.7509
 9220SOL     OW39121   2.644   4.264   1.804 -0.3064  0.8384 -0.2202
 9220SOL    HW139122   2.730   4.306   1.794 -0.9891  2.3289  0.2125
 9220SOL    HW239123   2.604   4.305   1.728  0.1830  0.3316 -0.7449
 9221SOL     OW39124   0.323   2.318   0.279 -0.1902  0.0094 -0.0357
 9221SOL    HW139125   0.277   2.249   0.231 -0.7805  0.2625  0.1667
 9221SOL    HW239126   0.271   2.299   0.357 -0.9356  0.5836 -0.3791
 9222SOL     OW39127   4.651   2.907   8.213 -0.2516  0.0388  0.0450
 9222SOL    HW139128   4.716   2.975   8.227  0.3623  0.0916 -3.1055
 9222SOL    HW239129   4.628   2.915   8.120 -3.4264  1.1241  0.9112
 9223SOL     OW39130   3.538   1.968  15.318  0.6859 -0.7417 -0.0362
 9223SOL    HW139131   3.495   2.011  15.245 -0.6733  0.5852  1.5319
 9223SOL    HW239132   3.542   1.876  15.292 -1.9613 -0.3616 -1.7946
 9224SOL     OW39133   1.388   4.048   5.823  0.0572  0.1614 -0.0688
 9224SOL    HW139134   1.373   4.025   5.914  0.0588  0.2863 -0.0367
 9224SOL    HW239135   1.465   3.997   5.798  0.9125  0.9822  0.9150
 9225SOL     OW39136   0.713   1.515   1.229 -0.4320 -0.0220 -0.2468
 9225SOL    HW139137   0.678   1.604   1.237 -0.1597 -0.0411  1.0788
 9225SOL    HW239138   0.702   1.497   1.136 -0.8357 -0.8526 -0.0373
 9226SOL     OW39139   2.787   3.016   1.796 -0.8364 -0.1559 -0.2625
 9226SOL    HW139140   2.765   3.105   1.823 -1.8187 -1.6678  3.7880
 9226SOL    HW239141   2.761   3.026   1.704  0.1808 -3.9468 -0.9797
 9227SOL     OW39142   1.944   2.075   3.482 -0.5988  0.4335  0.3110
 9227SOL    HW139143   1.934   2.167   3.509 -0.6042 -0.4722  3.3695
 9227SOL    HW239144   2.010   2.085   3.412  0.1719 -1.0096  0.8334
 9228SOL     OW39145   1.744   1.328  10.154 -0.0802 -0.2032 -0.0352
 9228SOL    HW139146   1.714   1.250  10.201  0.0130  0.9043  1.8592
 9228SOL    HW239147   1.836   1.314  10.174  0.9744  1.1772 -3.8953
 9229SOL     OW39148   2.989   4.427   4.639 -0.4952  0.2382 -0.2215
 9229SOL    HW139149   2.909   4.464   4.678 -0.0821  0.8142  0.0807
 9229SOL    HW239150   2.949   4.391   4.559  0.5709 -0.6519 -0.3555
 9230SOL     OW39151   3.102   0.302   1.211  0.1804  0.4998  0.3991
 9230SOL    HW139152   3.185   0.258   1.196 -1.1029 -1.1406 -1.9339
 9230SOL    HW239153   3.130   0.386   1.175  2.5221  0.4258  2.0579
 9231SOL     OW39154   2.277   3.107   6.113 -0.0166  0.6494  0.1972
 9231SOL    HW139155   2.338   3.073   6.047  0.7842 -0.0434  1.3113
 9231SOL    HW239156   2.200   3.050   6.106 -0.3219  1.0857  0.0022
 9232SOL     OW39157   3.094   2.544   6.701  0.0233  0.2784  1.0300
 9232SOL    HW139158   3.077   2.628   6.743  1.3834 -0.4666  3.0815
 9232SOL    HW239159   3.029   2.483   6.735 -1.3482  2.0277  1.5190
 9233SOL     OW39160   2.154   1.785   3.160 -0.2392  0.4643 -0.5104
 9233SOL    HW139161   2.086   1.821   3.104 -0.3553 -0.6127 -1.0657
 9233SOL    HW239162   2.109   1.780   3.244  0.7627 -0.4397 -0.0223
 9234SOL     OW39163   0.479   3.563  17.605 -0.1778 -0.2056 -0.4287
 9234SOL    HW139164   0.409   3.561  17.670 -0.0103 -0.6746 -0.2686
 9234SOL    HW239165   0.536   3.637  17.624  1.9146 -1.4312 -1.9808
 9235SOL     OW39166   0.549   4.162   3.814 -0.4028  0.0252  0.7089
 9235SOL    HW139167   0.465   4.124   3.788  0.4372 -1.0578 -0.4565
 9235SOL    HW239168   0.589   4.090   3.862  2.3062  1.3299  0.4555
 9236SOL     OW39169   2.843   1.016  10.883  0.5678  0.7916  0.5569
 9236SOL    HW139170   2.786   1.022  10.960  0.8077 -1.8104  0.9299
 9236SOL    HW239171   2.922   1.017  10.938  1.3276 -1.0733 -0.5323
 9237SOL     OW39172   0.937   1.951   8.662  0.0928 -0.3540  0.2172
 9237SOL    HW139173   0.993   1.875   8.646 -0.7172 -0.4018 -2.3024
 9237SOL    HW239174   0.959   1.968   8.754 -0.9114 -2.4812  0.8594
 9238SOL     OW39175   0.347   2.150   5.418 -0.2349  0.3778 -0.4251
 9238SOL    HW139176   0.436   2.173   5.389  0.0520  2.3023  1.9920
 9238SOL    HW239177   0.297   2.111   5.346 -3.3638 -0.1559  2.0411
 9239SOL     OW39178   2.697   4.147   7.379  0.1866 -0.6045  0.2080
 9239SOL    HW139179   2.655   4.063   7.365 -1.4217  0.5543 -1.9772
 9239SOL    HW239180   2.631   4.209   7.346  1.1507  0.9290  1.1578
 9240SOL     OW39181   3.712   4.390   4.673  0.1734 -0.2814  0.5466
 9240SOL    HW139182   3.765   4.453   4.722 -1.1954  1.3058  0.0162
 9240SOL    HW239183   3.768   4.314   4.659 -1.0016 -0.6800 -2.1020
 9241SOL     OW39184   0.172   0.824   8.242 -0.4201  0.0009 -0.1068
 9241SOL    HW139185   0.259   0.858   8.263 -0.8208  0.1254  1.3629
 9241SOL    HW239186   0.207   0.736   8.230  0.4935  0.3160  0.2190
 9242SOL     OW39187   3.613   2.601   3.755  0.2160  0.6415 -0.2717
 9242SOL    HW139188   3.519   2.583   3.745 -0.4788  2.9378  2.0869
 9242SOL    HW239189   3.641   2.510   3.768 -0.7874  0.5635  1.3605
 9243SOL     OW39190   0.699   2.312   6.137 -0.8349  0.0051 -0.5312
 9243SOL    HW139191   0.609   2.337   6.118 -0.6763 -1.0826 -2.7615
 9243SOL    HW239192   0.737   2.334   6.052 -0.9108  0.1775 -0.5215
 9244SOL     OW39193   1.247   1.516   6.523 -0.0016  0.5417  0.0650
 9244SOL    HW139194   1.279   1.606   6.514 -1.4535  1.4115  3.8444
 9244SOL    HW239195   1.175   1.531   6.583 -0.8479 -0.6480 -0.6526
 9245SOL     OW39196   0.713   2.797   8.017 -0.2816  0.5577  0.0692
 9245SOL    HW139197   0.723   2.891   8.027 -1.3688  0.4431  2.1199
 9245SOL    HW239198   0.802   2.774   7.990 -0.6840 -0.4386 -0.4328
 9246SOL     OW39199   1.597   2.500   3.159  0.0165 -0.5759 -0.2098
 9246SOL    HW139200   1.615   2.564   3.228 -1.9451 -1.3216  0.9732
 9246SOL    HW239201   1.528   2.542   3.108  0.0147 -1.0971 -0.6412
 9247SOL     OW39202   3.881   4.681   9.054  0.0025  0.0211 -0.4026
 9247SOL    HW139203   3.917   0.009   9.127  1.3881  0.0725 -1.1294
 9247SOL    HW239204   3.786   4.687   9.066 -0.0276 -1.7996  0.1726
 9248SOL     OW39205   1.393   4.532  12.289  0.5581 -0.0914 -0.0150
 9248SOL    HW139206   1.343   4.463  12.246  0.3880 -0.8462  1.4029
 9248SOL    HW239207   1.482   4.527  12.252  0.8618  0.9203  0.5807
 9249SOL     OW39208   1.318   0.729   6.577  0.4337  0.2059 -0.3951
 9249SOL    HW139209   1.312   0.799   6.512 -1.3614 -0.6814 -1.1981
 9249SOL    HW239210   1.345   0.656   6.521  0.9690  0.1261 -0.0304
 9250SOL     OW39211   2.596   0.491   6.997 -0.0202 -0.5968 -0.0529
 9250SOL    HW139212   2.672   0.548   7.006  0.5219 -0.9101 -2.6889
 9250SOL    HW239213   2.538   0.533   7.061 -1.4509 -0.2623 -1.5718
 9251SOL     OW39214   3.406   2.218   6.564 -0.0474 -0.0156 -0.2398
 9251SOL    HW139215   3.488   2.250   6.603 -0.3053  0.0909  0.2145
 9251SOL    HW239216   3.409   2.242   6.471 -0.7330 -1.2606 -0.5870
 9252SOL     OW39217   2.730   0.918   8.572  0.0198 -0.2687 -0.1438
 9252SOL    HW139218   2.646   0.952   8.603  1.0258  3.6426 -1.7104
 9252SOL    HW239219   2.776   1.002   8.568 -0.8130  0.2136  0.4940
 9253SOL     OW39220   4.069   2.874  14.400  0.3052 -0.2089  0.8658
 9253SOL    HW139221   4.059   2.781  14.420 -2.7837  0.1592  0.9428
 9253SOL    HW239222   4.004   2.889  14.332  0.0886  1.6513  1.4699
 9254SOL     OW39223   1.454   0.359   6.548 -0.0096 -0.0007  0.2116
 9254SOL    HW139224   1.547   0.379   6.563  0.3951 -2.0252  0.3794
 9254SOL    HW239225   1.422   0.429   6.491  2.0624  1.2965  0.6640
 9255SOL     OW39226   2.544   0.337  12.908 -0.0091 -0.3276  0.1468
 9255SOL    HW139227   2.466   0.374  12.949 -1.1919  0.1620 -2.5903
 9255SOL    HW239228   2.508   0.257  12.868  1.9459 -1.0008 -0.2738
 9256SOL     OW39229   4.046   4.651   8.113  0.9498  0.5336  0.0122
 9256SOL    HW139230   3.968   4.696   8.082 -0.0181 -1.7609 -0.8926
 9256SOL    HW239231   4.109   4.675   8.045  2.7017 -1.7367  0.8387
 9257SOL     OW39232   0.307   1.045   2.868  0.0926 -0.2362  0.5252
 9257SOL    HW139233   0.225   1.079   2.831  1.3096  2.2287  0.0526
 9257SOL    HW239234   0.346   1.128   2.897 -0.0391 -0.7178  2.0646
 9258SOL     OW39235   1.159   2.977  15.720 -0.5283 -0.4278 -0.4384
 9258SOL    HW139236   1.074   2.941  15.745  0.0280 -2.8901 -2.1016
 9258SOL    HW239237   1.197   2.987  15.807 -1.6980 -2.2090  0.2577
 9259SOL     OW39238   4.661   1.445   7.254 -0.9369  0.1299  0.8113
 9259SOL    HW139239   4.650   1.392   7.333 -2.2443  0.7185  1.0190
 9259SOL    HW239240   4.695   1.524   7.296  3.3287 -1.0437 -0.4809
 9260SOL     OW39241   0.917   0.349   8.818  0.0897 -0.1416  0.3543
 9260SOL    HW139242   0.846   0.374   8.877  0.0374 -0.0654  0.2572
 9260SOL    HW239243   0.984   0.318   8.880  0.9293 -1.0793 -1.0282
 9261SOL     OW39244   3.257   4.223   3.357  0.2678 -0.1285 -0.3327
 9261SOL    HW139245   3.279   4.244   3.448 -0.7643  1.6056 -0.4970
 9261SOL    HW239246   3.204   4.295   3.324  0.0581 -0.1971 -0.1503
 9262SOL     OW39247   1.508   1.312   4.086  0.8115 -0.0496  0.0424
 9262SOL    HW139248   1.513   1.217   4.101 -1.8014 -0.4745 -1.6454
 9262SOL    HW239249   1.418   1.321   4.055  0.5601 -3.4876 -0.2957
 9263SOL     OW39250   4.183   4.524   0.449  0.1672 -0.3754 -0.2851
 9263SOL    HW139251   4.123   4.479   0.390 -0.0422 -1.6493  0.8912
 9263SOL    HW239252   4.264   4.538   0.400  1.1273 -2.7971  0.6206
 9264SOL     OW39253   0.614   4.098  12.277  0.1012  0.3962  0.0689
 9264SOL    HW139254   0.581   4.175  12.231  0.0758  0.2134 -0.2151
 9264SOL    HW239255   0.606   4.126  12.369  1.3870 -0.2945  0.3859
 9265SOL     OW39256   2.516   1.307   4.982  0.1726 -0.8027 -0.0992
 9265SOL    HW139257   2.526   1.273   4.893  0.0148  3.1056 -1.5913
 9265SOL    HW239258   2.572   1.384   4.978 -3.0657  1.5632 -0.2775
 9266SOL     OW39259   3.061   1.547   3.327  0.8132  0.0091 -0.0286
 9266SOL    HW139260   3.066   1.559   3.422 -5.2954 -0.1038  0.2796
 9266SOL    HW239261   3.103   1.619   3.280  3.0112 -1.1427  0.1446
 9267SOL     OW39262   0.221   3.570   7.847  0.3140  0.1746 -0.0019
 9267SOL    HW139263   0.193   3.574   7.755 -0.3437  2.8209  0.3176
 9267SOL    HW239264   0.185   3.652   7.882 -0.1502  0.7907 -1.9154
 9268SOL     OW39265   1.625   4.035   6.279 -0.3614  0.6744  0.2962
 9268SOL    HW139266   1.582   4.003   6.359 -1.1172  1.5282  0.2342
 9268SOL    HW239267   1.705   3.983   6.284  0.1622  1.5128  0.6620
 9269SOL     OW39268   1.936   3.823   3.646  0.0062  0.0683  0.4069
 9269SOL    HW139269   1.856   3.853   3.602  0.3025 -2.4694 -1.8286
 9269SOL    HW239270   1.895   3.766   3.711  1.4748  0.1645  1.4230
 9270SOL     OW39271   3.766   4.093   8.480  0.2903  0.0633  1.0103
 9270SOL    HW139272   3.824   4.142   8.538 -1.0443  1.3033  1.3032
 9270SOL    HW239273   3.685   4.087   8.531 -0.3667 -0.8638 -0.1355
 9271SOL     OW39274   3.610   1.577   0.590  0.3524  1.0541  0.1828
 9271SOL    HW139275   3.566   1.500   0.625  1.0037  0.6600  0.1175
 9271SOL    HW239276   3.548   1.608   0.523 -1.5026 -2.9130  0.0892
 9272SOL     OW39277   3.488   0.925   9.134  0.1741  0.2702  0.2907
 9272SOL    HW139278   3.518   0.998   9.080 -0.3685  0.9508  0.9038
 9272SOL    HW239279   3.567   0.876   9.158  0.1741  0.4944  0.7529
 9273SOL     OW39280   1.526   0.791   8.718 -0.2402 -0.2609 -0.9389
 9273SOL    HW139281   1.578   0.789   8.799 -3.6446  1.8331  1.3104
 9273SOL    HW239282   1.590   0.820   8.653  1.0280 -1.1804 -0.0983
 9274SOL     OW39283   2.540   2.625   0.712  0.4903  0.4092 -0.0344
 9274SOL    HW139284   2.532   2.598   0.621  0.4763  0.3001 -0.0013
 9274SOL    HW239285   2.612   2.685   0.695  1.9986 -1.4140 -0.1346
 9275SOL     OW39286   4.382   1.290   5.518 -0.0176 -0.1362  0.0714
 9275SOL    HW139287   4.460   1.271   5.465 -1.0908 -2.1871 -0.7993
 9275SOL    HW239288   4.399   1.376   5.555 -1.7545  0.5712 -0.7744
 9276SOL     OW39289   2.947   2.065  15.292 -0.1148 -0.0954 -0.2917
 9276SOL    HW139290   2.993   1.992  15.252 -1.2665 -1.0803  0.1752
 9276SOL    HW239291   3.023   2.105  15.333 -0.6394  0.7117 -0.1088
 9277SOL     OW39292   3.048   3.795  13.431 -0.1410  0.2567  0.1496
 9277SOL    HW139293   2.965   3.779  13.387  1.5597  0.1832 -3.0014
 9277SOL    HW239294   3.102   3.738  13.377  0.2897  0.9274 -0.1297
 9278SOL     OW39295   0.393   1.698   1.611 -0.4186  0.4850 -0.4903
 9278SOL    HW139296   0.320   1.651   1.571 -0.6534 -1.7765  2.5237
 9278SOL    HW239297   0.444   1.629   1.654 -1.7686 -0.9220 -1.1674
 9279SOL     OW39298   4.074   2.397   1.197  0.4736 -0.2099  0.4300
 9279SOL    HW139299   4.003   2.420   1.256 -1.4164 -0.9756 -1.5707
 9279SOL    HW239300   4.069   2.476   1.142 -0.2514 -1.6736 -1.6067
 9280SOL     OW39301   0.718   3.428  15.741  0.1382 -0.3684 -0.2435
 9280SOL    HW139302   0.761   3.356  15.696  0.2651 -0.2689 -0.2814
 9280SOL    HW239303   0.721   3.499  15.677  0.4875 -1.9426 -1.9530
 9281SOL     OW39304   4.169   1.501  14.203  0.0089 -0.0623  0.5650
 9281SOL    HW139305   4.200   1.544  14.124  0.3579 -1.7551 -0.2260
 9281SOL    HW239306   4.145   1.576  14.257  0.4961  0.9078 -0.5661
 9282SOL     OW39307   3.154   1.473  10.900  0.3120  0.3941 -0.1823
 9282SOL    HW139308   3.070   1.429  10.884 -1.0035  2.7007  0.3771
 9282SOL    HW239309   3.138   1.554  10.852  0.9139  0.9793  0.5975
 9283SOL     OW39310   2.163   3.192   3.761 -0.2580  0.0590 -0.3563
 9283SOL    HW139311   2.224   3.161   3.693  0.7915  1.0311  0.1387
 9283SOL    HW239312   2.124   3.267   3.715 -0.3023  0.4983  0.3966
 9284SOL     OW39313   3.323   3.486   6.197  0.6150 -0.4293 -0.0831
 9284SOL    HW139314   3.361   3.411   6.243  1.7236  0.0429 -0.2374
 9284SOL    HW239315   3.369   3.488   6.113  2.6158  3.7136  1.1563
 9285SOL     OW39316   3.375   2.889   3.476  0.9404  0.3220  0.0606
 9285SOL    HW139317   3.371   2.964   3.535 -0.0365  0.8030 -0.6098
 9285SOL    HW239318   3.311   2.916   3.409  1.5870  2.3162  0.2595
 9286SOL     OW39319   3.829   1.476   4.457 -0.2419 -0.0884 -0.1813
 9286SOL    HW139320   3.876   1.554   4.490  1.9827 -1.5625  0.1559
 9286SOL    HW239321   3.779   1.510   4.383 -0.4418  0.6656  0.2947
 9287SOL     OW39322   4.604   4.075  13.483  1.0331 -0.7265  0.1482
 9287SOL    HW139323   4.533   4.077  13.547  1.7537  0.3586  0.9187
 9287SOL    HW239324   4.556   4.065  13.400  3.5899 -1.7899 -1.2063
 9288SOL     OW39325   4.683   3.336  15.171  0.5383  0.5015 -0.2882
 9288SOL    HW139326   0.022   3.376  15.110  2.4978 -0.8999  0.7938
 9288SOL    HW239327   4.601   3.368  15.134  0.5936  1.0750  0.0832
 9289SOL     OW39328   1.060   3.204   3.901  0.5862 -0.1115  0.1080
 9289SOL    HW139329   1.148   3.166   3.903 -0.1464 -1.7754  1.7829
 9289SOL    HW239330   1.004   3.131   3.928  1.3440 -0.2501  1.3238
 9290SOL     OW39331   1.379   2.448  14.805  0.1312  0.3962 -0.7196
 9290SOL    HW139332   1.432   2.474  14.730  0.5025 -0.3772 -0.7275
 9290SOL    HW239333   1.442   2.401  14.860 -0.6969 -1.6769 -1.5129
 9291SOL     OW39334   0.210   2.727   3.468  0.2896 -0.3519 -0.1637
 9291SOL    HW139335   0.241   2.817   3.476  1.8373 -0.9274  0.3615
 9291SOL    HW239336   0.280   2.678   3.512 -0.3434 -0.3954  0.7852
 9292SOL     OW39337   4.098   4.517   3.847 -0.0660  0.2752 -0.5336
 9292SOL    HW139338   4.155   4.480   3.780  0.9860 -0.1524  0.5782
 9292SOL    HW239339   4.078   4.601   3.807  1.1551  0.3050 -1.0469
 9293SOL     OW39340   1.910   2.905   9.054 -0.8792  0.1103  0.4767
 9293SOL    HW139341   1.859   2.955   8.990  0.9152 -0.6737 -1.5643
 9293SOL    HW239342   1.869   2.928   9.137 -0.3659  1.9788  0.2205
 9294SOL     OW39343   0.352   1.564   4.355  0.0295  0.5932  0.2655
 9294SOL    HW139344   0.405   1.530   4.283 -3.3344 -3.3667 -0.3547
 9294SOL    HW239345   0.407   1.542   4.430  0.1494 -0.2037 -0.0589
 9295SOL     OW39346   4.131   0.605   5.559  0.3954 -0.1176 -0.0805
 9295SOL    HW139347   4.112   0.678   5.618  2.7723  0.5244 -0.1361
 9295SOL    HW239348   4.054   0.612   5.502  2.4994  3.7282 -2.4769
 9296SOL     OW39349   2.576   3.559   8.764 -0.4735  0.0823  0.5162
 9296SOL    HW139350   2.551   3.645   8.731  2.0231  1.8016  3.1264
 9296SOL    HW239351   2.489   3.526   8.784  0.2417 -1.2144  1.5040
 9297SOL     OW39352   0.540   2.356   7.337 -0.2039  0.1426  0.0401
 9297SOL    HW139353   0.518   2.439   7.380  0.4059 -0.7724  2.1188
 9297SOL    HW239354   0.532   2.297   7.412  2.4455 -2.1998 -1.5198
 9298SOL     OW39355   3.042   0.746   3.374  0.2329  0.1638  0.1506
 9298SOL    HW139356   3.028   0.770   3.466 -1.0042  1.0446 -0.2717
 9298SOL    HW239357   3.117   0.800   3.349 -0.9020  0.1088 -3.3767
 9299SOL     OW39358   4.463   3.702  15.725  0.1765  0.4351  0.5650
 9299SOL    HW139359   4.455   3.797  15.734 -1.3181  0.3489  0.1829
 9299SOL    HW239360   4.370   3.683  15.736  0.1937  0.0761  0.0440
 9300SOL     OW39361   2.920   3.492  10.012 -0.4187 -0.2485  0.5444
 9300SOL    HW139362   2.918   3.424   9.945 -1.5249 -0.1570  0.4875
 9300SOL    HW239363   3.005   3.532   9.991 -0.6129  0.4099  1.0255
 9301SOL     OW39364   1.817   2.222  15.724  0.0381 -0.4934  0.4108
 9301SOL    HW139365   1.791   2.173  15.646  0.3234  1.8959 -1.2047
 9301SOL    HW239366   1.884   2.268  15.673 -0.0809  0.8486  1.4657
 9302SOL     OW39367   0.277   3.488   6.456 -0.2414 -0.2060 -0.5031
 9302SOL    HW139368   0.352   3.463   6.401  0.2717  2.3828 -0.9792
 9302SOL    HW239369   0.276   3.581   6.476  0.2619  0.1762 -2.1719
 9303SOL     OW39370   3.565   1.884   7.762  0.4971 -0.3604  0.2665
 9303SOL    HW139371   3.592   1.792   7.767  0.1282 -0.4601  0.4343
 9303SOL    HW239372   3.515   1.892   7.843  0.7566  1.4526  0.2419
 9304SOL     OW39373   0.446   1.083   9.163  0.2485 -0.8326  0.1609
 9304SOL    HW139374   0.369   1.035   9.193  1.1394 -0.6932  2.6423
 9304SOL    HW239375   0.478   1.123   9.243 -0.6927 -0.2499  0.2505
 9305SOL     OW39376   3.129   4.434   9.406 -0.2373  0.5044  0.1639
 9305SOL    HW139377   3.164   4.425   9.494 -1.5494  0.6343  0.6994
 9305SOL    HW239378   3.053   4.376   9.412  1.4773 -1.6125  1.2552
 9306SOL     OW39379   0.587   3.788   9.304 -0.1817 -0.2703 -0.0712
 9306SOL    HW139380   0.549   3.834   9.230 -0.1219  0.6690  0.4814
 9306SOL    HW239381   0.594   3.863   9.364  3.5743 -0.5438 -0.1779
 9307SOL     OW39382   0.388   2.163   1.877 -0.4612 -0.3315 -0.2098
 9307SOL    HW139383   0.461   2.128   1.929 -0.1332  1.2373  0.4160
 9307SOL    HW239384   0.359   2.086   1.829 -0.8964 -0.1799 -0.1854
 9308SOL     OW39385   0.823   0.485  11.048  0.2297 -0.3394  0.3603
 9308SOL    HW139386   0.910   0.522  11.031 -0.2507  0.8152  0.4090
 9308SOL    HW239387   0.820   0.473  11.143 -2.4212  0.1398  0.3356
 9309SOL     OW39388   2.325   0.647   6.184 -0.5382  0.1673  0.0191
 9309SOL    HW139389   2.241   0.634   6.139  0.5480 -0.8146 -1.7108
 9309SOL    HW239390   2.294   0.661   6.274 -0.1096 -0.4780  0.2728
 9310SOL     OW39391   4.090   1.764   3.141 -0.1288  0.2074  0.4995
 9310SOL    HW139392   4.002   1.753   3.178 -1.0384  0.4147 -1.5802
 9310SOL    HW239393   4.092   1.711   3.061  2.5191  0.3781  0.4553
 9311SOL     OW39394   1.631   0.502   4.314 -0.4695  0.2134  0.1623
 9311SOL    HW139395   1.617   0.573   4.251 -0.3250  0.0538 -0.0488
 9311SOL    HW239396   1.609   0.422   4.267 -0.5780  0.4500 -0.1858
 9312SOL     OW39397   4.294   3.088   5.055 -0.1143  0.2186  0.2187
 9312SOL    HW139398   4.281   3.010   5.002  0.5028 -0.0318  0.4369
 9312SOL    HW239399   4.214   3.140   5.049  0.6007  1.1169 -1.6651
 9313SOL     OW39400   4.009   3.425   7.005 -0.1674 -0.7049  1.1290
 9313SOL    HW139401   3.938   3.465   6.956  2.3121  0.6449 -1.3766
 9313SOL    HW239402   4.033   3.359   6.939 -0.1163 -0.2553  0.7014
 9314SOL     OW39403   2.244   4.122  16.590  0.3751 -0.2600  0.0285
 9314SOL    HW139404   2.204   4.075  16.517 -1.5260  1.8779 -0.3060
 9314SOL    HW239405   2.282   4.053  16.644 -2.2193 -0.0983  2.0543
 9315SOL     OW39406   2.962   4.076   7.732  0.2324 -0.0433 -0.0862
 9315SOL    HW139407   3.057   4.081   7.725  0.2484  0.0657  0.2272
 9315SOL    HW239408   2.933   4.140   7.667  0.9571 -1.5947 -1.9501
 9316SOL     OW39409   4.440   4.164  13.681 -0.4001 -0.2594  0.2376
 9316SOL    HW139410   4.371   4.101  13.701  1.3531 -2.5968 -1.0032
 9316SOL    HW239411   4.395   4.247  13.692 -1.1135 -0.3803 -1.7877
 9317SOL     OW39412   0.893   4.184  16.686 -0.0064  0.0711  0.3154
 9317SOL    HW139413   0.885   4.203  16.779 -1.2598 -0.3513  0.2942
 9317SOL    HW239414   0.815   4.228  16.651  0.3508  1.0402  0.7284
 9318SOL     OW39415   4.687   1.076   0.774 -0.2658  0.0108  0.2713
 9318SOL    HW139416   0.041   1.131   0.773  1.9506 -3.0998  0.4549
 9318SOL    HW239417   4.718   0.997   0.730 -1.3084  0.4349 -1.2228
 9319SOL     OW39418   2.618   4.124   9.166  0.1637 -0.5559  0.3435
 9319SOL    HW139419   2.600   4.066   9.240  0.5803 -0.2209  0.7110
 9319SOL    HW239420   2.629   4.202   9.220 -0.0368  0.2892 -0.8640
 9320SOL     OW39421   4.700   3.690   5.011  0.3177 -0.2216  0.0678
 9320SOL    HW139422   0.040   3.751   5.047 -0.1718  0.4288 -0.1732
 9320SOL    HW239423   4.618   3.715   5.053 -0.6416 -1.0792 -1.2791
 9321SOL     OW39424   3.187   1.661  17.443 -0.3201 -1.0679 -0.1379
 9321SOL    HW139425   3.091   1.667  17.443 -0.3243 -1.1681 -0.8756
 9321SOL    HW239426   3.186   1.617  17.528  3.0491 -0.2466  0.3151
 9322SOL     OW39427   2.846   2.649   7.533  0.5706 -0.4797 -0.1702
 9322SOL    HW139428   2.913   2.596   7.489 -2.3124 -2.5786 -2.0340
 9322SOL    HW239429   2.775   2.629   7.472  0.9126 -0.6800 -0.5029
 9323SOL     OW39430   4.480   4.366   7.050  0.0791  0.3923 -0.3148
 9323SOL    HW139431   4.469   4.335   7.140 -0.9957 -0.3852 -0.7117
 9323SOL    HW239432   4.398   4.328   7.018  0.0089  0.1753  0.1213
 9324SOL     OW39433   4.088   1.579  10.574  0.2217  0.5592  0.4027
 9324SOL    HW139434   4.147   1.504  10.569 -1.4116 -0.7400  0.6107
 9324SOL    HW239435   4.103   1.624  10.658 -1.2163 -0.3481  1.1542
 9325SOL     OW39436   0.765   1.681   6.688 -0.6222  0.1072  0.5250
 9325SOL    HW139437   0.750   1.670   6.782  0.6104 -1.3387  0.5564
 9325SOL    HW239438   0.675   1.704   6.664 -0.8114 -0.0932  1.0455
 9326SOL     OW39439   4.242   1.505   0.945  0.0126  0.2112 -0.0013
 9326SOL    HW139440   4.234   1.585   0.893  0.1711  0.0439 -0.2806
 9326SOL    HW239441   4.161   1.459   0.924 -0.8937  1.0767  1.5643
 9327SOL     OW39442   2.791   0.908   1.870  0.6504 -0.7775  0.4504
 9327SOL    HW139443   2.716   0.968   1.877  0.5496 -0.7924 -0.4470
 9327SOL    HW239444   2.809   0.913   1.776 -0.0188  0.8686  0.4099
 9328SOL     OW39445   0.424   0.577   8.455 -0.0885  0.1552 -0.0670
 9328SOL    HW139446   0.453   0.667   8.445  0.1501  0.1309  0.3866
 9328SOL    HW239447   0.476   0.539   8.526 -0.7024 -1.8783 -0.7154
 9329SOL     OW39448   4.583   3.137  16.661  0.1806 -0.1262  0.1957
 9329SOL    HW139449   4.554   3.047  16.676 -3.5883  0.5316 -3.1929
 9329SOL    HW239450   4.677   3.119  16.670  0.8646  3.6305  0.7061
 9330SOL     OW39451   3.752   3.657  16.800  0.5311  0.5978 -0.6353
 9330SOL    HW139452   3.730   3.676  16.891  0.5729 -0.1334 -0.4756
 9330SOL    HW239453   3.686   3.710  16.757  0.6054  0.3279 -1.0830
 9331SOL     OW39454   2.792   1.175   8.847 -0.1302 -0.3698  0.0707
 9331SOL    HW139455   2.791   1.271   8.846 -0.5143 -0.3695  0.3098
 9331SOL    HW239456   2.734   1.161   8.922  0.9718 -1.1739  0.7722
 9332SOL     OW39457   3.548   4.707  17.600 -0.2410  0.4608 -0.0452
 9332SOL    HW139458   3.570   4.712  17.507 -0.0843  1.4135  0.0386
 9332SOL    HW239459   3.566   4.615  17.616 -3.7187 -0.2797 -0.3060
 9333SOL     OW39460   1.501   3.641  16.609 -0.1984 -0.1492 -0.4642
 9333SOL    HW139461   1.521   3.669  16.699 -1.6683 -2.0449  0.4427
 9333SOL    HW239462   1.554   3.701  16.556  0.1618 -0.2402 -0.2068
 9334SOL     OW39463   0.548   0.518   7.241 -0.1763 -0.1708  0.7986
 9334SOL    HW139464   0.514   0.459   7.308  1.7483 -2.6837 -0.4467
 9334SOL    HW239465   0.524   0.471   7.162 -0.1174  0.8958  0.1469
 9335SOL     OW39466   2.444   2.085  11.103  0.5698  0.4529  0.0283
 9335SOL    HW139467   2.508   2.025  11.065  2.6386  3.1228 -0.6839
 9335SOL    HW239468   2.496   2.159  11.072 -1.5018  1.5036 -0.9087
 9336SOL     OW39469   3.313   3.867   1.559 -0.0892 -0.0695 -0.2150
 9336SOL    HW139470   3.364   3.789   1.535 -0.5543  0.2383 -2.2045
 9336SOL    HW239471   3.380   3.925   1.594  1.0449 -1.3948 -0.1808
 9337SOL     OW39472   4.351   3.454   6.077 -0.6708  0.3041 -0.0780
 9337SOL    HW139473   4.312   3.540   6.095  2.4045  1.5093  0.9405
 9337SOL    HW239474   4.418   3.472   6.011  0.4153  2.7574  1.6528
 9338SOL     OW39475   2.411   3.327  11.596 -0.2269 -0.4305  0.1446
 9338SOL    HW139476   2.345   3.395  11.614  0.9101  0.1446  2.1693
 9338SOL    HW239477   2.389   3.304  11.506 -0.4186 -2.3708  0.6806
 9339SOL     OW39478   0.121   3.277   3.433  0.4060 -0.0057 -0.2536
 9339SOL    HW139479   0.101   3.190   3.400  1.7886 -1.3413  2.4693
 9339SOL    HW239480   0.208   3.290   3.395  0.2308 -0.8384 -0.9450
 9340SOL     OW39481   1.967   2.646  16.153 -0.6092  0.5918 -0.0929
 9340SOL    HW139482   1.963   2.626  16.060  0.0923 -2.3701  0.5074
 9340SOL    HW239483   1.890   2.601  16.187 -1.1839  2.2711  0.8436
 9341SOL     OW39484   1.263   0.313   4.209  0.2871  0.0061 -0.1254
 9341SOL    HW139485   1.238   0.390   4.260  0.7170 -0.2173  0.4317
 9341SOL    HW239486   1.188   0.297   4.152 -1.7779  0.0370  2.5434
 9342SOL     OW39487   0.863   2.396   2.465  0.6348 -0.1545  0.2009
 9342SOL    HW139488   0.833   2.338   2.535  0.8436  0.7667  1.0566
 9342SOL    HW239489   0.906   2.336   2.404  1.8042  0.3517  0.5305
 9343SOL     OW39490   3.495   0.543   8.049  0.1099  0.2543 -0.2144
 9343SOL    HW139491   3.579   0.515   8.085  0.3550 -1.8394 -2.3758
 9343SOL    HW239492   3.459   0.587   8.126  0.7325 -2.3785  1.5681
 9344SOL     OW39493   4.288   4.699   6.771  0.1736 -0.4064 -0.2814
 9344SOL    HW139494   4.286   0.053   6.827  0.7810 -0.3351 -0.3573
 9344SOL    HW239495   4.382   4.680   6.770  0.6252  1.8193 -0.8650
 9345SOL     OW39496   4.435   2.010   5.190 -0.0654  0.3581  0.1258
 9345SOL    HW139497   4.376   2.060   5.246 -0.4991 -0.7134  0.6258
 9345SOL    HW239498   4.516   2.060   5.196 -0.5143  0.7880  2.5668
 9346SOL     OW39499   1.184   1.136   7.000 -0.0328  0.1865  0.0676
 9346SOL    HW139500   1.098   1.095   6.995  0.7606 -1.5980  1.1108
 9346SOL    HW239501   1.182   1.154   7.094  4.5348 -3.5063  0.8437
 9347SOL     OW39502   0.805   1.473   3.653 -0.1359 -0.0025  0.3215
 9347SOL    HW139503   0.764   1.413   3.591 -0.7415  0.1193  0.6090
 9347SOL    HW239504   0.739   1.542   3.651  1.1342  1.2651  1.6194
 9348SOL     OW39505   2.801   0.880   2.416 -0.7571  0.1100  0.2778
 9348SOL    HW139506   2.779   0.788   2.430  0.7221 -0.2318  0.4582
 9348SOL    HW239507   2.805   0.887   2.321 -0.1466  1.7981  0.4161
 9349SOL     OW39508   3.394   3.875   0.202  0.2546 -0.0075  0.7065
 9349SOL    HW139509   3.475   3.893   0.249  0.2423  1.8698  0.0354
 9349SOL    HW239510   3.340   3.838   0.272 -0.1966 -0.3118  0.1953
 9350SOL     OW39511   0.341   0.111   3.645  0.0032 -0.3660  0.0092
 9350SOL    HW139512   0.314   0.077   3.560 -0.6136  1.0763 -0.3704
 9350SOL    HW239513   0.369   0.201   3.625 -0.5876 -0.5499 -1.6440
 9351SOL     OW39514   3.762   0.322   1.015 -0.1985 -0.2976 -0.0645
 9351SOL    HW139515   3.669   0.315   1.036 -0.3598  0.9672 -0.3929
 9351SOL    HW239516   3.799   0.347   1.099  0.8109 -0.8076 -0.3604
 9352SOL     OW39517   0.017   1.815   6.024 -0.2369  0.0950  0.2305
 9352SOL    HW139518   4.660   1.779   5.988 -0.0194 -0.3541  0.1983
 9352SOL    HW239519   0.078   1.817   5.951  0.0603  0.0638  0.4790
 9353SOL     OW39520   1.757   3.436   9.294  0.7129  0.3779 -0.7311
 9353SOL    HW139521   1.819   3.368   9.269  1.5213  1.0460 -0.5673
 9353SOL    HW239522   1.779   3.443   9.387  1.1024 -2.8606 -0.5821
 9354SOL     OW39523   3.438   1.073   6.644 -0.0714 -0.3922 -0.3670
 9354SOL    HW139524   3.491   0.994   6.655 -0.5087 -0.7074 -0.5391
 9354SOL    HW239525   3.440   1.090   6.738 -0.5181  1.5359 -0.6907
 9355SOL     OW39526   0.643   0.489   3.737 -0.1101 -0.2694 -0.1509
 9355SOL    HW139527   0.577   0.544   3.777  0.7648  0.8018 -0.1927
 9355SOL    HW239528   0.661   0.430   3.810  1.2045  0.9042  0.4641
 9356SOL     OW39529   3.517   4.713   3.467  0.7623 -0.3790  0.7410
 9356SOL    HW139530   3.567   0.046   3.525 -0.6683  2.1068 -0.4489
 9356SOL    HW239531   3.454   4.669   3.524 -2.4545  1.1034 -1.6882
 9357SOL     OW39532   3.837   0.365   3.082  0.2047  0.2715 -0.4266
 9357SOL    HW139533   3.781   0.352   3.158 -1.2355 -0.1949 -1.5516
 9357SOL    HW239534   3.916   0.369   3.134  0.2026  0.8300 -0.4620
 9358SOL     OW39535   2.796   1.859  11.125  0.7085  0.4558 -0.0812
 9358SOL    HW139536   2.777   1.918  11.198  0.5165  0.6752 -0.3064
 9358SOL    HW239537   2.778   1.771  11.158 -3.3971  0.6904 -1.6278
 9359SOL     OW39538   0.499   3.464   8.127  0.1877 -0.5024  0.4648
 9359SOL    HW139539   0.499   3.537   8.189 -2.2437 -0.3494  0.2726
 9359SOL    HW239540   0.566   3.411   8.171 -0.5032 -2.2158 -0.5829
 9360SOL     OW39541   3.591   3.965   0.006  0.0754  0.3374  0.1448
 9360SOL    HW139542   3.501   3.941  17.678  0.1193 -1.1492  1.4396
 9360SOL    HW239543   3.641   3.928  17.630 -0.5111 -1.0146  0.4286
 9361SOL     OW39544   4.200   1.531   5.773  0.7029  0.2583 -0.3143
 9361SOL    HW139545   4.180   1.508   5.863  0.6204  0.7601 -0.2036
 9361SOL    HW239546   4.285   1.500   5.742  1.0500  1.5626 -0.6725
 9362SOL     OW39547   2.158   2.860   5.178  0.0712 -0.1035  0.4107
 9362SOL    HW139548   2.084   2.802   5.196 -0.2119  0.4438  0.9879
 9362SOL    HW239549   2.223   2.815   5.124  0.4212 -0.0750  0.8074
 9363SOL     OW39550   2.252   3.741  10.316 -0.4825 -0.4250 -0.1343
 9363SOL    HW139551   2.269   3.835  10.310 -1.5985 -0.1229  1.6862
 9363SOL    HW239552   2.340   3.708  10.299 -1.2869 -2.3491 -0.5307
 9364SOL     OW39553   2.603   4.615  10.301  0.1030 -0.3187  0.4268
 9364SOL    HW139554   2.538   4.545  10.295 -0.6626  0.2295  2.3012
 9364SOL    HW239555   2.661   4.578  10.235 -0.9439  0.6077 -1.0060
 9365SOL     OW39556   3.638   1.087  14.778  0.3910 -0.6696  0.5618
 9365SOL    HW139557   3.549   1.122  14.787  0.9255  0.4632  1.3723
 9365SOL    HW239558   3.694   1.138  14.836  1.1944 -1.0915  0.1665
 9366SOL     OW39559   4.196   3.711   8.054 -0.1720 -0.3787  0.1589
 9366SOL    HW139560   4.188   3.764   8.133 -0.7653  1.1903 -0.9528
 9366SOL    HW239561   4.225   3.768   7.983  0.3281 -0.3861  0.3630
 9367SOL     OW39562   2.238   3.055  12.491 -0.3343  0.2498  0.2433
 9367SOL    HW139563   2.333   3.065  12.481 -0.3439  0.1095 -0.0025
 9367SOL    HW239564   2.212   3.052  12.399 -0.2505 -0.8036  0.2566
 9368SOL     OW39565   3.903   2.374   5.088  0.2283  0.0186  0.0837
 9368SOL    HW139566   3.831   2.384   5.025  0.4675  2.3748  0.1845
 9368SOL    HW239567   3.976   2.406   5.034  0.1448 -0.9958 -0.6399
 9369SOL     OW39568   3.883   4.030   7.971 -0.4904  0.3150  0.0327
 9369SOL    HW139569   3.796   3.994   7.990 -0.7342 -0.3635 -2.3487
 9369SOL    HW239570   3.916   4.025   8.061  0.6683 -2.0173 -0.5193
 9370SOL     OW39571   0.769   3.043   9.246 -0.2150 -0.3189 -0.1339
 9370SOL    HW139572   0.817   3.031   9.328 -0.6423 -1.2639 -0.0211
 9370SOL    HW239573   0.824   3.113   9.210 -1.4089  1.8694  2.3131
 9371SOL     OW39574   2.739   4.060   8.250 -0.4157  0.4285 -0.4171
 9371SOL    HW139575   2.807   4.127   8.254  0.9651 -1.0500  1.0466
 9371SOL    HW239576   2.665   4.100   8.296 -0.8828 -0.1547 -0.6653
 9372SOL     OW39577   4.014   1.895   1.698 -0.3204  0.2950 -0.3590
 9372SOL    HW139578   4.003   1.806   1.732  1.6255  0.3511  0.4288
 9372SOL    HW239579   3.943   1.941   1.743  0.6151  0.6280  0.7718
 9373SOL     OW39580   1.500   1.676  12.775  0.7986 -0.3931  0.0240
 9373SOL    HW139581   1.437   1.639  12.836  1.9329 -0.5539  1.1017
 9373SOL    HW239582   1.578   1.628  12.803  0.4324 -0.9272  0.1264
 9374SOL     OW39583   2.337   0.641  15.369  0.1768  0.4255 -0.2440
 9374SOL    HW139584   2.395   0.693  15.425 -0.2554 -1.3089  1.8352
 9374SOL    HW239585   2.391   0.637  15.291 -0.8427  0.0877 -0.9374
 9375SOL     OW39586   1.401   1.006   3.542  0.1227 -0.5639 -0.5363
 9375SOL    HW139587   1.356   0.922   3.531  0.4924 -0.9541  0.9989
 9375SOL    HW239588   1.481   0.986   3.494 -0.6347 -1.7065 -1.3397
 9376SOL     OW39589   3.569   3.176   5.632  0.5541 -0.3467  0.3156
 9376SOL    HW139590   3.544   3.227   5.556  0.0855 -1.5250 -0.3286
 9376SOL    HW239591   3.591   3.243   5.697 -1.8305  1.1026 -0.3927
 9377SOL     OW39592   3.030   2.357  16.988 -0.2935 -0.3006  0.5700
 9377SOL    HW139593   3.004   2.296  17.056  2.4269 -1.1842  0.7841
 9377SOL    HW239594   2.958   2.421  16.987  1.3285  1.5130 -2.1575
 9378SOL     OW39595   4.076   1.687   5.407  0.4065  0.0420 -0.3377
 9378SOL    HW139596   4.159   1.727   5.436 -0.2442  1.0080  0.1954
 9378SOL    HW239597   4.099   1.597   5.382  1.5459  0.1855  0.1782
 9379SOL     OW39598   4.444   3.723  14.641 -0.5138  0.1311  0.0198
 9379SOL    HW139599   4.518   3.739  14.582 -0.3812 -1.2046 -0.1626
 9379SOL    HW239600   4.485   3.660  14.700 -0.9243  0.6977  0.9087
 9380SOL     OW39601   3.726   0.453   4.377  0.4249 -0.0607 -0.4309
 9380SOL    HW139602   3.809   0.470   4.421  0.3502  0.2104 -0.3936
 9380SOL    HW239603   3.708   0.530   4.323  1.4017 -1.0570 -2.1505
 9381SOL     OW39604   4.211   2.849   1.727  0.6169  0.1031  0.0062
 9381SOL    HW139605   4.193   2.893   1.810 -1.5220 -1.9690  0.6325
 9381SOL    HW239606   4.260   2.912   1.674  1.1737  1.9705  2.7613
 9382SOL     OW39607   0.074   0.677   4.025 -0.3338 -0.2151 -0.0680
 9382SOL    HW139608   0.094   0.592   4.065 -1.6259 -1.7573 -2.6662
 9382SOL    HW239609   0.070   0.652   3.933  1.8223  3.0152 -1.0142
 9383SOL     OW39610   0.118   3.789  14.251  0.2938  0.5109  0.1903
 9383SOL    HW139611   0.067   3.858  14.207 -1.4191 -0.5131  0.5734
 9383SOL    HW239612   0.121   3.717  14.188 -0.0748  1.7286 -1.2061
 9384SOL     OW39613   3.546   4.579   5.227 -0.0784  0.2684 -0.2048
 9384SOL    HW139614   3.628   4.606   5.268  0.7830 -0.4625 -1.4195
 9384SOL    HW239615   3.558   4.625   5.144  0.7287  0.6170  0.1048
 9385SOL     OW39616   1.542   4.544   8.004 -0.2450  0.4363  0.0102
 9385SOL    HW139617   1.550   4.626   7.956  2.0157 -0.7271 -1.5977
 9385SOL    HW239618   1.469   4.499   7.960  0.2730  1.1772 -1.6171
 9386SOL     OW39619   1.876   0.106   7.483 -0.1425  0.1132  0.6443
 9386SOL    HW139620   1.918   0.044   7.543 -1.5953 -0.1486  1.4033
 9386SOL    HW239621   1.816   0.145   7.547 -2.3675 -0.8593 -0.8381
 9387SOL     OW39622   2.939   0.288   2.416  0.0619 -0.7262 -0.4544
 9387SOL    HW139623   3.009   0.349   2.437 -0.5332  0.6138 -2.3736
 9387SOL    HW239624   2.987   0.206   2.405 -1.0795 -1.2690 -1.4199
 9388SOL     OW39625   1.155   3.285  10.005 -0.2129 -0.0628  0.1331
 9388SOL    HW139626   1.128   3.348   9.937  0.1948 -2.1512 -1.9652
 9388SOL    HW239627   1.192   3.213   9.954  0.3046  0.4147 -0.1607
 9389SOL     OW39628   1.706   4.313   5.843 -0.1246 -0.1210 -0.2910
 9389SOL    HW139629   1.753   4.288   5.763  3.6282 -0.3205  1.9708
 9389SOL    HW239630   1.694   4.228   5.886 -0.4769 -0.5608 -1.2728
 9390SOL     OW39631   0.022   3.236   2.633  0.2531  0.4921 -0.2282
 9390SOL    HW139632   0.107   3.196   2.615 -0.2551  0.2737 -2.1905
 9390SOL    HW239633   0.015   3.294   2.557  0.0574 -0.7831 -1.2047
 9391SOL     OW39634   2.348   4.555  12.387  0.5700  0.2068 -0.2032
 9391SOL    HW139635   2.271   4.562  12.443  0.0586 -1.9119 -0.6135
 9391SOL    HW239636   2.385   4.639  12.413 -2.1607  1.6944 -1.2447
 9392SOL     OW39637   4.609   0.315   5.158 -0.0480 -0.8595 -0.0898
 9392SOL    HW139638   4.555   0.378   5.111 -1.8038 -2.6705 -0.4642
 9392SOL    HW239639   4.608   0.361   5.242 -0.8376  1.0910 -1.1653
 9393SOL     OW39640   0.497   4.265   9.462 -0.2827  0.0869 -0.2120
 9393SOL    HW139641   0.453   4.247   9.379 -2.8537 -2.8283  1.7463
 9393SOL    HW239642   0.426   4.305   9.512  0.4811  1.1558  0.0169
 9394SOL     OW39643   1.831   0.978   1.456  0.4335 -0.2148  0.2094
 9394SOL    HW139644   1.823   0.986   1.551 -0.1482  2.5898 -0.0660
 9394SOL    HW239645   1.776   1.049   1.425  0.7681 -1.0405 -2.2241
 9395SOL     OW39646   4.674   1.538   4.004  0.3251  0.3385 -0.0694
 9395SOL    HW139647   4.679   1.462   4.062 -0.8275  0.8613  0.7060
 9395SOL    HW239648   4.653   1.503   3.917  0.6330  0.7549 -0.3118
 9396SOL     OW39649   2.213   2.775   8.805  0.3821 -0.2938  0.3933
 9396SOL    HW139650   2.269   2.733   8.740  0.1756  0.5413 -0.3254
 9396SOL    HW239651   2.261   2.854   8.829  0.1527  0.5576 -2.0510
 9397SOL     OW39652   1.112   4.160  10.043 -0.5419 -0.2697 -0.4326
 9397SOL    HW139653   1.057   4.151  10.122 -0.2723  0.7211 -0.1410
 9397SOL    HW239654   1.200   4.144  10.078 -0.9611 -1.1333  0.2660
 9398SOL     OW39655   2.883   1.917  14.425 -0.6612 -0.2911  0.4190
 9398SOL    HW139656   2.952   1.936  14.488  0.3270  2.2464 -1.4152
 9398SOL    HW239657   2.919   1.835  14.391 -0.0186 -0.3418  1.2153
 9399SOL     OW39658   2.081   0.931   1.540  0.5085  0.3665  0.1052
 9399SOL    HW139659   2.084   0.845   1.499 -1.9099  0.4115 -0.1814
 9399SOL    HW239660   1.999   0.971   1.511  0.1499 -0.5581 -0.1618
 9400SOL     OW39661   4.238   4.016  14.860  0.6870  0.0940  0.1782
 9400SOL    HW139662   4.272   3.962  14.932  0.8784  2.2990  1.7482
 9400SOL    HW239663   4.148   3.983  14.859 -0.4502  3.2591 -0.0197
 9401SOL     OW39664   3.378   2.296   7.650  0.7077  0.1550 -0.4985
 9401SOL    HW139665   3.458   2.273   7.697  0.0192  2.4042  1.8153
 9401SOL    HW239666   3.314   2.240   7.695  0.2245  0.8828 -0.2777
 9402SOL     OW39667   0.547   2.402   2.661 -0.3481 -0.4901 -0.1524
 9402SOL    HW139668   0.553   2.488   2.703 -0.9794  0.2931 -1.6359
 9402SOL    HW239669   0.469   2.356   2.691 -0.2031  0.1060  1.1227
 9403SOL     OW39670   0.930   1.364   5.990  0.2282  0.3167 -0.6288
 9403SOL    HW139671   0.892   1.278   5.970  1.1354 -0.1061 -0.5691
 9403SOL    HW239672   0.868   1.394   6.056 -0.2403  0.0496 -0.9482
 9404SOL     OW39673   1.619   2.964   8.338 -0.3090 -0.4265  0.0929
 9404SOL    HW139674   1.565   3.035   8.372  2.2057  0.3419  2.5020
 9404SOL    HW239675   1.674   3.018   8.282 -1.5615  0.3915 -0.3363
 9405SOL     OW39676   4.101   2.344   6.354  0.1232  0.2208 -0.3045
 9405SOL    HW139677   4.030   2.399   6.322 -0.5407 -0.1349  0.5437
 9405SOL    HW239678   4.126   2.299   6.274 -0.9990 -1.2413  0.1583
 9406SOL     OW39679   3.096   3.139   6.716  0.4959 -0.3260 -0.4983
 9406SOL    HW139680   3.072   3.107   6.629 -0.4690  1.7404 -1.0130
 9406SOL    HW239681   3.019   3.142   6.773  0.2465  1.6990 -0.9404
 9407SOL     OW39682   3.540   3.607   4.262  0.3095  0.0689  0.0150
 9407SOL    HW139683   3.481   3.539   4.228  1.1536 -1.6865  2.0339
 9407SOL    HW239684   3.612   3.549   4.288  0.1946  0.0210  0.2238
 9408SOL     OW39685   2.958   1.072   5.349  0.7676 -0.2283  0.2605
 9408SOL    HW139686   2.985   1.058   5.440  2.4050  0.2993 -0.1427
 9408SOL    HW239687   3.047   1.082   5.314  0.6366 -0.3152 -0.0932
 9409SOL     OW39688   0.408   2.519   7.945  0.2232  0.8817  0.4900
 9409SOL    HW139689   0.345   2.526   7.873 -1.4964  0.0341  1.9261
 9409SOL    HW239690   0.490   2.498   7.900  0.1685  0.5654  0.5379
 9410SOL     OW39691   3.165   2.184   2.455  0.3964  0.1044 -0.3835
 9410SOL    HW139692   3.153   2.092   2.480 -1.5213  0.7678  1.1564
 9410SOL    HW239693   3.076   2.218   2.445  1.1352  1.8469 -0.8415
 9411SOL     OW39694   3.921   1.632   2.635 -0.2272  0.4295  0.0731
 9411SOL    HW139695   3.890   1.549   2.600  1.5608 -0.0956 -0.2635
 9411SOL    HW239696   3.999   1.652   2.583  0.7920  1.0374  1.8328
 9412SOL     OW39697   2.144   1.458  10.725 -0.4878 -0.8034  0.2535
 9412SOL    HW139698   2.114   1.545  10.698  1.8102 -0.6467 -1.8419
 9412SOL    HW239699   2.094   1.435  10.804  1.5564 -2.1853  1.1649
 9413SOL     OW39700   4.329   2.689   1.395 -0.6418 -0.4698  0.0081
 9413SOL    HW139701   4.246   2.723   1.362  1.7116  3.7916 -1.6647
 9413SOL    HW239702   4.376   2.768   1.422 -1.1660  0.3219 -1.3518
 9414SOL     OW39703   2.061   1.897   8.147 -0.1420  0.5973 -0.1605
 9414SOL    HW139704   1.994   1.913   8.080 -0.5261  1.4654  0.4365
 9414SOL    HW239705   2.140   1.871   8.100 -0.9285 -0.4565 -0.9147
 9415SOL     OW39706   2.129   0.378   8.835  0.8226 -0.0822 -0.1749
 9415SOL    HW139707   2.058   0.405   8.894  0.0797  0.8960 -1.5295
 9415SOL    HW239708   2.141   0.295   8.880  0.1529 -2.2494 -4.0004
 9416SOL     OW39709   2.968   1.856   4.557 -0.5380 -0.3340  0.2064
 9416SOL    HW139710   3.019   1.809   4.491 -0.5142 -1.3177  0.9323
 9416SOL    HW239711   3.032   1.873   4.626  1.1855 -3.8344 -0.5140
 9417SOL     OW39712   1.490   4.635   6.856  0.0707 -0.7548  0.1145
 9417SOL    HW139713   1.431   4.669   6.923 -2.4163 -2.1190 -1.3652
 9417SOL    HW239714   1.563   4.696   6.861 -2.8645  2.9137 -1.8910
 9418SOL     OW39715   3.347   2.252  11.519 -0.0419  0.5192 -0.3762
 9418SOL    HW139716   3.419   2.189  11.528 -0.3368  0.6456  2.8499
 9418SOL    HW239717   3.328   2.247  11.425  0.5653  0.2450 -0.4897
 9419SOL     OW39718   3.061   3.667   9.584  0.2037  0.2431  0.1207
 9419SOL    HW139719   3.110   3.612   9.523  0.5922  0.8498 -0.1079
 9419SOL    HW239720   3.052   3.744   9.528  1.8238  0.6433  0.4103
 9420SOL     OW39721   2.266   2.036   8.842  0.4841  0.1085 -0.0752
 9420SOL    HW139722   2.313   2.041   8.925  0.2962  1.4730 -0.0534
 9420SOL    HW239723   2.218   2.117   8.853  1.3950  0.3632  2.0207
 9421SOL     OW39724   2.614   1.110   7.789  0.1492 -0.2230 -0.0106
 9421SOL    HW139725   2.664   1.099   7.870 -0.5105 -4.7776 -0.1961
 9421SOL    HW239726   2.531   1.133   7.830  0.0968 -1.8835  0.8140
 9422SOL     OW39727   2.037   1.267   4.396 -0.4780  0.1702  0.4256
 9422SOL    HW139728   2.054   1.360   4.414  1.2101 -0.3890  1.6581
 9422SOL    HW239729   1.942   1.277   4.383 -0.6208 -0.4186  1.0302
 9423SOL     OW39730   1.205   3.715   5.197 -0.2040 -0.2340  0.4709
 9423SOL    HW139731   1.226   3.738   5.287  0.1851 -0.0447  0.3323
 9423SOL    HW239732   1.288   3.727   5.151  0.2596 -0.1957  1.3257
 9424SOL     OW39733   2.900   0.244  17.293  0.1831 -0.0495  0.0950
 9424SOL    HW139734   2.851   0.169  17.328 -0.4233  0.3154  0.0232
 9424SOL    HW239735   2.924   0.289  17.373 -0.9433 -0.7357  0.8213
 9425SOL     OW39736   0.856   2.591   1.846 -0.2729 -0.2442 -0.0233
 9425SOL    HW139737   0.879   2.586   1.753  0.1459  0.4513  0.0431
 9425SOL    HW239738   0.944   2.589   1.885  0.3506 -1.2548 -1.4904
 9426SOL     OW39739   4.462   1.176   3.062  0.5765 -0.3482  0.1785
 9426SOL    HW139740   4.395   1.114   3.032 -1.4548  1.0881  1.7603
 9426SOL    HW239741   4.549   1.140   3.043  0.7173  1.9111 -3.4386
 9427SOL     OW39742   2.362   2.649   7.135  0.0111 -0.3963 -0.5864
 9427SOL    HW139743   2.369   2.620   7.225  1.1884 -2.8112 -1.4624
 9427SOL    HW239744   2.456   2.647   7.117 -0.1415  0.7130 -1.5552
 9428SOL     OW39745   3.523   1.137   8.724 -0.4191  0.1078  0.1907
 9428SOL    HW139746   3.467   1.177   8.791 -1.2958  0.6709 -0.8758
 9428SOL    HW239747   3.478   1.163   8.644 -0.2160  0.5301  0.2157
 9429SOL     OW39748   3.947   1.333   2.982 -0.0823  0.0916  0.4179
 9429SOL    HW139749   3.939   1.300   3.072 -0.1082  3.6403  1.7490
 9429SOL    HW239750   3.860   1.366   2.960  0.4112  1.1372  0.0218
 9430SOL     OW39751   0.267   3.485  13.663  0.0520 -0.6139  0.2614
 9430SOL    HW139752   0.317   3.406  13.642  2.3742  0.2080  2.6627
 9430SOL    HW239753   0.300   3.495  13.752 -0.5022 -1.0574  0.5122
 9431SOL     OW39754   3.865   3.710   6.484 -0.2495  0.4357  0.3389
 9431SOL    HW139755   3.780   3.744   6.458  0.1388  0.3746 -1.0116
 9431SOL    HW239756   3.893   3.644   6.421  0.2537 -0.5750  1.6149
 9432SOL     OW39757   4.475   2.957   1.826 -0.6876 -0.0525  0.1156
 9432SOL    HW139758   4.483   2.865   1.798 -1.3189 -0.3225  0.8173
 9432SOL    HW239759   4.526   3.007   1.763 -0.1420  0.8259  1.2444
 9433SOL     OW39760   3.168   2.361   6.005 -0.2890 -0.9812 -0.1487
 9433SOL    HW139761   3.262   2.356   6.025 -0.5494  4.5775  2.4400
 9433SOL    HW239762   3.134   2.425   6.068 -0.2082  0.1924 -1.3125
 9434SOL     OW39763   1.010   1.685   4.791 -0.1793  0.2013  0.0165
 9434SOL    HW139764   0.997   1.764   4.844 -0.8926  0.7285 -0.9548
 9434SOL    HW239765   1.023   1.619   4.860 -1.5122 -1.0924 -0.9667
 9435SOL     OW39766   3.690   0.604   0.924 -0.3529  0.1398  0.0575
 9435SOL    HW139767   3.756   0.658   0.967  0.3402  0.4765 -1.4136
 9435SOL    HW239768   3.714   0.517   0.957  0.9216 -0.1049 -1.4818
 9436SOL     OW39769   1.559   2.039   4.834 -0.1823  0.3578 -0.3284
 9436SOL    HW139770   1.643   2.077   4.810 -0.4322  0.5960 -0.8344
 9436SOL    HW239771   1.544   1.991   4.752 -1.4323  3.1539 -1.7186
 9437SOL     OW39772   0.369   1.907   9.738  0.6069  0.4152  0.2460
 9437SOL    HW139773   0.296   1.858   9.776  1.0230  0.1555  0.7123
 9437SOL    HW239774   0.360   1.881   9.646 -0.6238  0.2496  0.4167
 9438SOL     OW39775   1.375   2.617   7.685 -0.4723  0.0447  0.0436
 9438SOL    HW139776   1.435   2.566   7.632 -0.6687  0.0767 -0.2085
 9438SOL    HW239777   1.314   2.546   7.707  0.5416 -1.0613 -0.7355
 9439SOL     OW39778   0.459   2.865   4.429 -0.3300 -0.0661  0.5385
 9439SOL    HW139779   0.508   2.783   4.430  1.6458  1.1305  1.6233
 9439SOL    HW239780   0.512   2.918   4.489 -1.5240 -1.1364  2.5159
 9440SOL     OW39781   1.720   1.689   3.913 -0.6477 -0.4561 -0.2275
 9440SOL    HW139782   1.748   1.657   3.998 -0.9743 -3.0856 -1.1173
 9440SOL    HW239783   1.657   1.623   3.882 -0.6356 -1.0636  1.0607
 9441SOL     OW39784   0.733   4.187   7.642 -0.1189  1.0146 -0.5338
 9441SOL    HW139785   0.815   4.217   7.605  0.3229  0.1235 -0.2738
 9441SOL    HW239786   0.764   4.119   7.701 -2.1669  0.2003 -0.3728
 9442SOL     OW39787   2.452   1.624   4.691  0.5863 -0.0096 -0.4385
 9442SOL    HW139788   2.538   1.601   4.655  1.0742  0.6061  0.3382
 9442SOL    HW239789   2.401   1.547   4.665  0.6765  0.0792 -0.8901
 9443SOL     OW39790   2.100   1.426  13.915 -0.6823 -0.6398  0.3807
 9443SOL    HW139791   2.085   1.378  13.834  0.7084 -0.5947  0.0892
 9443SOL    HW239792   2.183   1.469  13.894 -0.8809 -0.6958 -0.5141
 9444SOL     OW39793   2.807   1.686   9.786  0.0031 -0.0550 -0.5909
 9444SOL    HW139794   2.750   1.755   9.820  0.0783  1.0492 -2.7184
 9444SOL    HW239795   2.887   1.738   9.787  0.3547 -0.5913 -0.9526
 9445SOL     OW39796   4.013   4.385   0.254  0.7436 -0.2215  0.5403
 9445SOL    HW139797   3.996   4.296   0.222 -1.2585  0.4831 -0.3647
 9445SOL    HW239798   4.022   4.431   0.170  1.9460 -0.0189  0.7801
 9446SOL     OW39799   0.938   2.719   3.651 -0.1561  1.1195  0.3078
 9446SOL    HW139800   0.981   2.671   3.721  1.3876  2.4812  0.3010
 9446SOL    HW239801   0.852   2.679   3.663  0.3209 -0.6903 -2.1859
 9447SOL     OW39802   4.209   0.353   4.873  0.0854 -0.2218  0.0201
 9447SOL    HW139803   4.193   0.261   4.853 -0.4901  0.1626 -1.2511
 9447SOL    HW239804   4.154   0.400   4.812  0.2095  0.8024  0.6895
 9448SOL     OW39805   3.591   4.663   9.067  0.7176  0.2726 -0.6031
 9448SOL    HW139806   3.567   0.032   9.069  3.1393  0.8513  2.3319
 9448SOL    HW239807   3.553   4.630   9.148 -3.0900 -0.4860 -2.7061
 9449SOL     OW39808   2.859   4.622   2.740 -0.2876  0.7188  0.2120
 9449SOL    HW139809   2.891   4.712   2.737  0.4381  0.4997  1.5171
 9449SOL    HW239810   2.862   4.594   2.648  0.2566 -0.6591  0.6443
 9450SOL     OW39811   1.189   4.181   0.237  0.2893 -0.1393  0.0832
 9450SOL    HW139812   1.169   4.121   0.309  2.3995 -1.5491 -0.5142
 9450SOL    HW239813   1.105   4.204   0.198 -0.9528 -0.9775  2.2534
 9451SOL     OW39814   2.338   2.286  12.334  0.2571 -0.1292  0.5018
 9451SOL    HW139815   2.422   2.246  12.354  0.7013  0.0067 -1.0721
 9451SOL    HW239816   2.315   2.261  12.244 -2.3162  1.6062  0.6804
 9452SOL     OW39817   0.559   4.154  13.516  0.3804 -0.5041 -0.4435
 9452SOL    HW139818   0.572   4.077  13.462 -0.4381  0.0318 -1.4181
 9452SOL    HW239819   0.616   4.215  13.468  1.5396 -0.7703  0.6019
 9453SOL     OW39820   1.747   1.566   4.969 -0.4805 -0.3691  0.4316
 9453SOL    HW139821   1.671   1.530   4.923  0.9429  0.7968 -2.8188
 9453SOL    HW239822   1.726   1.659   4.965  0.3060 -0.2270 -0.5951
 9454SOL     OW39823   1.010   1.746   5.552  0.0014 -0.3152 -0.1521
 9454SOL    HW139824   1.047   1.766   5.467 -2.0629  0.7756 -0.7948
 9454SOL    HW239825   1.073   1.785   5.612 -0.1592  0.4488 -0.4769
 9455SOL     OW39826   3.683   1.326   9.529  0.0567 -0.5808 -0.1298
 9455SOL    HW139827   3.651   1.367   9.448  1.7519  1.9863  0.5006
 9455SOL    HW239828   3.614   1.282   9.579 -0.7123 -0.5719 -1.1800
 9456SOL     OW39829   4.229   2.891   4.879 -0.1142 -0.8520  0.9449
 9456SOL    HW139830   4.149   2.838   4.879  0.5413 -1.8437  1.2865
 9456SOL    HW239831   4.284   2.831   4.829  0.9578  0.0420  1.0646
 9457SOL     OW39832   1.663   0.584   7.635 -0.7164 -0.1487 -0.2794
 9457SOL    HW139833   1.647   0.676   7.656  0.6654  0.1029 -0.3297
 9457SOL    HW239834   1.620   0.553   7.715  0.8913  0.9516  1.0068
 9458SOL     OW39835   3.039   2.177  11.418  0.3030 -0.1906  0.0838
 9458SOL    HW139836   3.100   2.220  11.478  0.9550 -1.7255  0.5228
 9458SOL    HW239837   2.955   2.221  11.428  0.7700  0.8913 -0.8541
 9459SOL     OW39838   0.205   0.788   2.804 -0.3030 -0.1871  0.5016
 9459SOL    HW139839   0.257   0.865   2.828 -0.1969  0.0458 -0.4978
 9459SOL    HW239840   0.277   0.726   2.791  0.5986  0.5652  1.8769
 9460SOL     OW39841   0.801   2.237   5.032  0.1088 -0.2313  0.7024
 9460SOL    HW139842   0.789   2.227   4.937  0.3397  0.5790  0.5872
 9460SOL    HW239843   0.744   2.311   5.054  1.1611  0.9535 -0.5522
 9461SOL     OW39844   2.473   3.632   6.540 -0.2325  0.0309  0.0833
 9461SOL    HW139845   2.380   3.631   6.514 -0.7246  2.3700  1.7434
 9461SOL    HW239846   2.448   3.625   6.633  0.8108 -2.3753  0.1734
 9462SOL     OW39847   3.149   2.364   5.413  0.1677  0.6806 -0.3013
 9462SOL    HW139848   3.222   2.415   5.448  0.5748 -0.3724  0.3734
 9462SOL    HW239849   3.194   2.286   5.379  1.8073  0.9198  1.3231
 9463SOL     OW39850   3.995   0.992   0.096 -0.2287 -0.2340  0.9692
 9463SOL    HW139851   4.046   0.919   0.131  4.9119  2.5403 -0.8076
 9463SOL    HW239852   4.000   0.990   0.001  2.7392 -1.3669  1.1468
 9464SOL     OW39853   2.725   3.560   8.977  0.3219  0.3042  0.3071
 9464SOL    HW139854   2.681   3.541   8.895 -1.9147  0.7740  1.3971
 9464SOL    HW239855   2.747   3.470   9.000 -0.3197 -0.4736 -2.1320
 9465SOL     OW39856   4.669   0.206   0.254  0.5025 -0.4291 -0.5327
 9465SOL    HW139857   4.621   0.227   0.173  1.0684  2.5649 -0.0775
 9465SOL    HW239858   4.716   0.132   0.216  2.2665  1.9042 -2.9613
 9466SOL     OW39859   3.689   3.263  11.343 -0.8213 -0.6532  0.2477
 9466SOL    HW139860   3.645   3.336  11.386 -0.6622  0.1297 -0.9251
 9466SOL    HW239861   3.715   3.207  11.416  0.6667 -1.1820 -0.6807
 9467SOL     OW39862   2.692   2.479  15.835  0.1676  0.2664  0.2571
 9467SOL    HW139863   2.766   2.540  15.836 -1.0907  1.8144 -1.5852
 9467SOL    HW239864   2.691   2.448  15.745  1.0091  1.6385 -0.2153
 9468SOL     OW39865   4.568   1.212   1.824  0.5665 -0.5945 -1.0708
 9468SOL    HW139866   4.498   1.208   1.759 -0.9556 -1.6907  0.6304
 9468SOL    HW239867   4.603   1.299   1.803 -0.6923 -0.4457 -2.5976
 9469SOL     OW39868   0.514   2.059   6.733 -0.2795  0.0822  0.3284
 9469SOL    HW139869   0.547   1.971   6.716 -0.1085 -0.0828  1.5277
 9469SOL    HW239870   0.497   2.093   6.645  1.2201 -3.2928 -1.2904
 9470SOL     OW39871   1.726   1.672   3.308 -0.5934 -0.1422  0.4015
 9470SOL    HW139872   1.813   1.641   3.335 -0.3989  0.1319  0.0785
 9470SOL    HW239873   1.683   1.614   3.371 -2.1976 -1.6459 -2.1014
 9471SOL     OW39874   2.534   2.987   6.721 -0.3314  0.3035 -0.2177
 9471SOL    HW139875   2.488   2.937   6.653 -1.3680 -0.9279  1.3684
 9471SOL    HW239876   2.458   3.041   6.743  0.4844  0.8339  1.2300
 9472SOL     OW39877   2.781   4.122   3.325 -0.4986  0.0517  0.4207
 9472SOL    HW139878   2.860   4.083   3.286 -0.3186  1.0315 -0.1828
 9472SOL    HW239879   2.774   4.063   3.400  0.2389  0.8714  1.1189
 9473SOL     OW39880   1.678   0.634   9.987  0.4340  0.0509  0.0444
 9473SOL    HW139881   1.714   0.705  10.041 -1.3508 -0.1153  1.4462
 9473SOL    HW239882   1.748   0.631   9.921  0.7838 -1.8900  0.5169
 9474SOL     OW39883   2.357   4.457   5.159  0.0522  0.2502 -0.4191
 9474SOL    HW139884   2.296   4.393   5.123  1.4984 -1.0195 -0.6131
 9474SOL    HW239885   2.394   4.502   5.083 -2.7668  0.6450 -1.5195
 9475SOL     OW39886   2.424   0.991   3.361  0.2902  0.2644 -0.2313
 9475SOL    HW139887   2.337   0.977   3.323  0.6178  0.6636 -1.1243
 9475SOL    HW239888   2.473   0.971   3.282 -0.7446 -3.7283  0.1232
 9476SOL     OW39889   4.602   1.062  11.149 -0.2832 -0.3648  0.1158
 9476SOL    HW139890   4.590   1.123  11.222  2.8067 -0.3966  0.6397
 9476SOL    HW239891   4.590   0.974  11.185 -1.1961  0.0696  0.9018
 9477SOL     OW39892   2.017   4.122   5.973  0.1310 -0.5746  0.1005
 9477SOL    HW139893   2.042   4.210   5.944 -1.0647 -1.3410 -3.3157
 9477SOL    HW239894   1.925   4.116   5.949  0.3752  1.3792 -1.3519
 9478SOL     OW39895   3.312   2.132   5.665 -0.4403 -0.3602 -0.2632
 9478SOL    HW139896   3.310   2.054   5.609 -0.9542  0.8898 -2.0021
 9478SOL    HW239897   3.220   2.160   5.664  0.3271  2.1955 -1.3169
 9479SOL     OW39898   1.550   0.584  14.787 -0.3759 -0.2962  0.6895
 9479SOL    HW139899   1.508   0.588  14.701 -1.9592 -2.9651  1.3609
 9479SOL    HW239900   1.504   0.659  14.825 -0.3322 -0.7954  1.7021
 9480SOL     OW39901   2.932   3.438   1.974  0.0386  0.2447  0.0684
 9480SOL    HW139902   2.958   3.448   2.066  0.6227  0.0663 -0.0778
 9480SOL    HW239903   2.897   3.527   1.972  2.6018  1.2462 -0.8761
 9481SOL     OW39904   0.091   3.928   6.361  0.2422 -0.2638 -0.0155
 9481SOL    HW139905   0.075   3.989   6.434  0.2171 -0.9631  0.5691
 9481SOL    HW239906   0.137   3.996   6.312 -0.5414 -0.9360 -1.6452
 9482SOL     OW39907   4.059   4.165   3.322  0.7663  0.0172  0.7849
 9482SOL    HW139908   4.001   4.230   3.283 -0.8311 -0.7634  1.8398
 9482SOL    HW239909   4.139   4.217   3.330 -0.3369  2.0073 -1.1649
 9483SOL     OW39910   3.379   1.588   2.055  0.8140 -0.1697  0.1130
 9483SOL    HW139911   3.372   1.637   1.974 -1.3513 -1.2543 -0.3777
 9483SOL    HW239912   3.465   1.550   2.038  1.0716 -0.3697  1.8249
 9484SOL     OW39913   1.649   3.134   0.937  0.1705 -0.6174  0.4880
 9484SOL    HW139914   1.646   3.116   0.843  2.0627  0.7768  0.1687
 9484SOL    HW239915   1.632   3.227   0.950  2.0570  0.1567 -2.5602
 9485SOL     OW39916   0.039   0.827   5.061 -0.3906 -0.2863  0.1346
 9485SOL    HW139917   0.087   0.878   4.996  0.2072  0.9789  1.5743
 9485SOL    HW239918   4.710   0.890   5.110  0.8067  1.6111 -1.0223
 9486SOL     OW39919   2.474   2.587  11.355  0.0413  0.2006 -0.2771
 9486SOL    HW139920   2.444   2.498  11.338  0.6099 -0.1037  0.3186
 9486SOL    HW239921   2.540   2.576  11.423 -1.4316 -2.9852  0.6459
 9487SOL     OW39922   2.372   1.899  13.801 -0.5916 -0.0108  0.2684
 9487SOL    HW139923   2.395   1.866  13.715  0.1056 -0.1219  0.4987
 9487SOL    HW239924   2.293   1.946  13.774 -0.2590  1.0665  1.1740
 9488SOL     OW39925   3.579   3.726   2.246 -0.1788  0.7991 -0.0843
 9488SOL    HW139926   3.586   3.746   2.340 -0.5166 -0.6667  0.2486
 9488SOL    HW239927   3.557   3.633   2.249  0.6556  0.5551 -2.1108
 9489SOL     OW39928   1.071   4.184   7.732 -0.4746 -0.9037  0.3032
 9489SOL    HW139929   1.055   4.277   7.748 -1.5451 -1.2613  1.3024
 9489SOL    HW239930   0.991   4.132   7.742 -0.9480 -0.1345  0.5160
 9490SOL     OW39931   2.417   1.388   7.481  0.2198 -0.1691  0.9630
 9490SOL    HW139932   2.409   1.401   7.576  1.7416 -0.1537  1.0853
 9490SOL    HW239933   2.362   1.311   7.472  1.4783 -1.1379  1.5177
 9491SOL     OW39934   0.180   1.190   6.028 -0.6823 -0.0567  0.6408
 9491SOL    HW139935   0.094   1.148   6.032 -0.2295 -0.9063  1.4481
 9491SOL    HW239936   0.222   1.137   6.096  0.4664 -1.6443 -1.3299
 9492SOL     OW39937   2.425   3.414   1.837 -0.1291 -0.3602  0.3809
 9492SOL    HW139938   2.411   3.501   1.875  1.5505  0.3467 -0.6429
 9492SOL    HW239939   2.497   3.373   1.884  1.0759  1.1609 -0.1619
 9493SOL     OW39940   4.367   4.332   8.709  0.0089  0.0631 -0.5988
 9493SOL    HW139941   4.282   4.374   8.721  1.3634  2.6981 -0.2424
 9493SOL    HW239942   4.373   4.274   8.784  0.4953 -1.8052 -2.0977
 9494SOL     OW39943   0.817   3.526   7.359 -0.4066  0.4046  0.0518
 9494SOL    HW139944   0.854   3.512   7.446  2.0872  1.3834 -0.8503
 9494SOL    HW239945   0.890   3.493   7.306 -0.3870  2.6384 -1.3055
 9495SOL     OW39946   2.904   2.536   8.613  0.2352  0.2030  0.3124
 9495SOL    HW139947   2.945   2.618   8.586 -0.7271  0.8180  0.6912
 9495SOL    HW239948   2.831   2.583   8.656  1.3921  1.6822  0.6538
 9496SOL     OW39949   1.252   4.368   8.356  0.3036  0.6602  0.1569
 9496SOL    HW139950   1.203   4.387   8.436  0.0638  0.8919 -0.0431
 9496SOL    HW239951   1.298   4.286   8.373  0.6903  1.1959  1.6596
 9497SOL     OW39952   4.562   2.825  17.186  0.3854 -0.5551  0.1328
 9497SOL    HW139953   4.645   2.797  17.226  1.0836  1.3306  0.0197
 9497SOL    HW239954   4.544   2.752  17.127  2.5317 -0.7974 -0.2195
 9498SOL     OW39955   1.768   4.417   8.034 -0.0130 -0.1763  0.1529
 9498SOL    HW139956   1.788   4.464   8.115 -0.9187  1.6555 -0.6829
 9498SOL    HW239957   1.685   4.460   8.013  0.3494  1.3465  1.7869
 9499SOL     OW39958   0.142   4.492   8.294  0.4768  0.1436  0.0689
 9499SOL    HW139959   0.176   4.444   8.218 -3.2075  0.0895 -1.5410
 9499SOL    HW239960   0.183   4.578   8.281  2.4607 -0.5921  1.4413
 9500SOL     OW39961   1.540   4.076   3.181  0.2022  0.2079  0.1049
 9500SOL    HW139962   1.449   4.101   3.192  0.3769  1.0691 -0.3979
 9500SOL    HW239963   1.567   4.139   3.114  0.0300  0.1957  0.0259
 9501SOL     OW39964   0.053   3.148  13.098  0.0086 -0.3004 -0.0916
 9501SOL    HW139965   0.118   3.174  13.033  1.8530 -0.6457  1.6219
 9501SOL    HW239966   0.045   3.228  13.149  1.4008  0.9199 -1.7861
 9502SOL     OW39967   4.518   3.618   3.873  0.1018  0.1258  0.4129
 9502SOL    HW139968   4.559   3.591   3.791 -2.2471  0.6081 -0.9076
 9502SOL    HW239969   4.597   3.640   3.923  0.9445 -0.5951 -0.5866
 9503SOL     OW39970   0.380   2.319  14.556 -0.1739 -0.4635  0.1931
 9503SOL    HW139971   0.421   2.262  14.621  0.0743  0.8922  1.2095
 9503SOL    HW239972   0.291   2.286  14.539 -1.0221  2.1884 -0.5099
 9504SOL     OW39973   0.648   2.459   5.101  0.5238 -0.7521  0.1002
 9504SOL    HW139974   0.595   2.477   5.179 -2.9785  2.2535 -2.9429
 9504SOL    HW239975   0.724   2.513   5.119 -0.6652  0.4000  1.7111
 9505SOL     OW39976   0.169   1.786   0.865  0.1604 -0.1444  0.2043
 9505SOL    HW139977   0.251   1.736   0.873 -0.2730 -0.9219 -0.2670
 9505SOL    HW239978   0.203   1.876   0.867  0.6993 -0.2997 -1.5827
 9506SOL     OW39979   3.830   2.121   7.102  0.4337  0.7037  0.0422
 9506SOL    HW139980   3.854   2.043   7.152  0.0220  2.4661  2.9993
 9506SOL    HW239981   3.761   2.151   7.160 -0.0795 -2.7673  1.2351
 9507SOL     OW39982   0.203   4.394   6.505 -0.9210  0.4052 -0.3646
 9507SOL    HW139983   0.251   4.450   6.566 -0.5108 -0.3239 -0.0261
 9507SOL    HW239984   0.192   4.321   6.567  0.7554 -0.4838 -1.1180
 9508SOL     OW39985   1.387   4.418   6.408  0.1550 -0.4359  0.1693
 9508SOL    HW139986   1.412   4.495   6.357  0.2001 -0.3530  0.3153
 9508SOL    HW239987   1.469   4.370   6.398  0.5078  0.1337  0.3137
 9509SOL     OW39988   0.008   3.362  16.897  0.8330 -0.7337  0.1696
 9509SOL    HW139989   0.049   3.354  16.811 -0.2847 -1.0572 -0.3343
 9509SOL    HW239990   4.646   3.389  16.862  1.0588  1.7802  1.5558
 9510SOL     OW39991   4.410   3.548  12.375 -0.2173  0.3202  0.3510
 9510SOL    HW139992   4.345   3.479  12.383  0.5949 -0.1632  2.7736
 9510SOL    HW239993   4.380   3.599  12.300 -3.0202 -1.2134  0.4529
 9511SOL     OW39994   0.233   0.552   3.654  0.0127 -0.0169  0.4807
 9511SOL    HW139995   0.168   0.482   3.647  1.9012 -1.8815  1.7496
 9511SOL    HW239996   0.301   0.519   3.595 -1.2785 -0.3778 -0.8058
 9512SOL     OW39997   4.003   0.805   8.234  0.1452 -0.2977  0.1749
 9512SOL    HW139998   4.003   0.725   8.182  0.7576 -0.0488 -0.2031
 9512SOL    HW239999   3.909   0.821   8.245  0.3893  0.0847  1.7232
 9513SOL     OW40000   1.963   1.028   7.470  0.6291 -0.1024 -0.5473
 9513SOL    HW140001   1.878   1.066   7.494  0.2214 -0.2977 -1.6570
 9513SOL    HW240002   1.980   0.967   7.541 -1.5978  0.1199  0.1843
 9514SOL     OW40003   1.891   0.500   1.308  0.3742 -0.0790  0.7425
 9514SOL    HW140004   1.895   0.508   1.212  1.3074  3.0204  1.0138
 9514SOL    HW240005   1.980   0.467   1.319  0.2499 -1.3036 -1.9891
 9515SOL     OW40006   3.900   2.594  11.543  0.7784  0.3886 -0.1481
 9515SOL    HW140007   3.866   2.522  11.490 -0.6440  1.7285 -1.0522
 9515SOL    HW240008   3.918   2.553  11.627  1.4758 -0.2431 -0.6096
 9516SOL     OW40009   2.007   3.949  11.091  0.1383 -0.1290 -0.6512
 9516SOL    HW140010   1.998   3.889  11.165  0.8676  1.9255  1.1029
 9516SOL    HW240011   1.944   3.900  11.039 -0.8333  1.4776 -0.9648
 9517SOL     OW40012   4.225   1.329  16.344  0.6116 -0.1279 -0.3678
 9517SOL    HW140013   4.244   1.373  16.261  0.3824 -0.0518 -0.3792
 9517SOL    HW240014   4.154   1.277  16.307 -0.8054  1.5518 -0.0023
 9518SOL     OW40015   4.403   0.723   8.834 -0.0914  0.1227 -0.5472
 9518SOL    HW140016   4.440   0.810   8.820  2.0001 -1.3416 -3.8047
 9518SOL    HW240017   4.476   0.666   8.857 -0.7058  0.5023  2.4675
 9519SOL     OW40018   4.199   1.851   7.071  0.5170  0.0477  0.1709
 9519SOL    HW140019   4.213   1.795   7.147 -1.0320  0.0826  0.4763
 9519SOL    HW240020   4.271   1.829   7.012  0.0918  0.7392 -0.6250
 9520SOL     OW40021   3.964   4.711   5.552 -0.5709 -0.2608  0.7365
 9520SOL    HW140022   3.980   4.623   5.519  1.1211  0.3253 -0.0557
 9520SOL    HW240023   3.945   4.688   5.642  1.7303 -0.5505  1.1618
 9521SOL     OW40024   0.880   1.090   4.618  0.2883  0.2525 -0.0337
 9521SOL    HW140025   0.808   1.153   4.625 -1.2434 -1.5825  0.6621
 9521SOL    HW240026   0.938   1.128   4.552  1.0641 -1.2624 -0.2127
 9522SOL     OW40027   3.187   4.060   2.559  0.2813  0.5829 -0.2611
 9522SOL    HW140028   3.122   4.031   2.623 -2.6949  3.0491 -2.1048
 9522SOL    HW240029   3.236   3.978   2.557 -0.3620  0.2098 -1.1994
 9523SOL     OW40030   4.320   1.828   8.722 -0.2784 -0.5182 -0.2403
 9523SOL    HW140031   4.247   1.779   8.760 -0.1331 -2.2029 -2.0924
 9523SOL    HW240032   4.275   1.910   8.700  0.6973  0.1958  0.4377
 9524SOL     OW40033   4.597   0.728  15.160 -0.5716 -0.0940  0.0737
 9524SOL    HW140034   4.649   0.753  15.237  0.8760 -1.9844 -0.2703
 9524SOL    HW240035   4.543   0.659  15.198 -3.0065  2.0778  0.5644
 9525SOL     OW40036   4.676   3.669   7.004 -0.4018  0.0051 -0.1282
 9525SOL    HW140037   4.714   3.698   6.921  0.4260 -0.7784 -0.0139
 9525SOL    HW240038   4.711   3.581   6.993  0.5426  0.1633  1.7853
 9526SOL     OW40039   1.915   1.356   2.662 -0.6339  0.0475 -0.0956
 9526SOL    HW140040   1.998   1.359   2.614 -1.5959  0.2212 -1.7613
 9526SOL    HW240041   1.891   1.277   2.612  1.0438  0.8426 -2.1456
 9527SOL     OW40042   0.570   4.696   0.594 -0.5863  0.1925 -0.3949
 9527SOL    HW140043   0.558   4.642   0.516 -0.5687  0.4571 -0.5815
 9527SOL    HW240044   0.484   0.012   0.608  0.1544  1.6582 -0.0022
 9528SOL     OW40045   0.357   4.163  14.506  0.1250  0.8717  0.4277
 9528SOL    HW140046   0.420   4.163  14.578 -0.6264 -0.4015  1.1028
 9528SOL    HW240047   0.390   4.087  14.459  1.9936  1.2479  1.1471
 9529SOL     OW40048   0.886   0.999  14.801  0.2984  0.3950 -0.0743
 9529SOL    HW140049   0.878   1.039  14.714  2.0703  0.9522  0.0243
 9529SOL    HW240050   0.923   0.912  14.787 -0.7166 -0.4929  2.9183
 9530SOL     OW40051   2.933   4.477   3.000  0.2559 -0.3716  0.4743
 9530SOL    HW140052   2.985   4.556   3.016  0.3364 -0.4868  0.7820
 9530SOL    HW240053   2.876   4.510   2.931  0.2542  0.1172  0.7069
 9531SOL     OW40054   2.355   0.488  15.745  0.5770  0.1382  0.3268
 9531SOL    HW140055   2.365   0.503  15.651 -2.0599  2.5700  0.4354
 9531SOL    HW240056   2.275   0.536  15.766  1.0050  0.9258  0.1247
 9532SOL     OW40057   1.404   1.902  15.040  0.1447  0.4427  0.1582
 9532SOL    HW140058   1.427   1.985  14.997  0.3191  0.3933  0.1542
 9532SOL    HW240059   1.328   1.875  14.990  0.1444  2.4595 -0.9241
 9533SOL     OW40060   0.117   2.821  17.009  0.0545 -0.2422  0.0008
 9533SOL    HW140061   0.203   2.820  16.966  0.3631 -3.0977  0.7223
 9533SOL    HW240062   0.059   2.825  16.933  0.4691  0.4083 -0.2820
 9534SOL     OW40063   2.184   1.248   7.690 -0.4975  0.1292 -0.3311
 9534SOL    HW140064   2.134   1.287   7.619 -1.0922  1.1890  0.6644
 9534SOL    HW240065   2.126   1.173   7.705 -0.6928  0.3218 -0.1110
 9535SOL     OW40066   2.027   2.864   3.994 -0.4728 -0.0027  0.2068
 9535SOL    HW140067   2.067   2.924   3.931  1.1919 -0.7577  0.5446
 9535SOL    HW240068   1.957   2.912   4.039 -0.7190  1.9529 -2.2265
 9536SOL     OW40069   4.351   3.653  13.126  0.5954  0.5421  0.3581
 9536SOL    HW140070   4.290   3.644  13.053  0.3976 -2.0199  0.8248
 9536SOL    HW240071   4.334   3.744  13.150 -2.2909  0.1864 -0.3755
 9537SOL     OW40072   1.391   3.542   0.636 -0.1309 -0.2738  0.2232
 9537SOL    HW140073   1.375   3.627   0.593  0.5723  0.7766  2.0393
 9537SOL    HW240074   1.422   3.576   0.720  0.4649 -3.2639  1.1987
 9538SOL     OW40075   4.647   0.805  11.289 -0.0524  0.3582 -0.1575
 9538SOL    HW140076   4.663   0.844  11.375  0.2720  0.1176 -0.1100
 9538SOL    HW240077   0.016   0.799  11.268 -0.3581 -1.6996 -0.9557
 9539SOL     OW40078   3.637   4.601  16.748 -0.0345  0.4184  0.4372
 9539SOL    HW140079   3.547   4.629  16.732  0.4772  0.7884 -1.8292
 9539SOL    HW240080   3.618   4.510  16.771  0.7965  0.1251 -0.0328
 9540SOL     OW40081   1.049   2.799  10.620 -0.2398 -0.0839 -0.4690
 9540SOL    HW140082   1.143   2.782  10.627 -0.3770 -0.7717 -0.2976
 9540SOL    HW240083   1.028   2.820  10.711 -1.6740  0.0684 -0.8286
 9541SOL     OW40084   2.178   1.641  16.564 -0.0155  0.0058  0.4741
 9541SOL    HW140085   2.089   1.627  16.594  0.4350 -0.1586  1.7320
 9541SOL    HW240086   2.182   1.602  16.476  1.2276 -0.6351  0.8111
 9542SOL     OW40087   0.923   2.287   1.745  0.2214 -0.0184  0.3090
 9542SOL    HW140088   1.007   2.331   1.760 -0.9078  1.2172  3.0928
 9542SOL    HW240089   0.953   2.208   1.700  0.0224 -0.0915  0.3059
 9543SOL     OW40090   3.619   0.720   2.565  0.3936  0.1755  0.1110
 9543SOL    HW140091   3.549   0.711   2.629 -0.0969  0.2924 -0.4118
 9543SOL    HW240092   3.674   0.647   2.594  3.2032  2.9202  1.7363
 9544SOL     OW40093   0.476   0.039   0.241 -0.3951  0.2781  0.2561
 9544SOL    HW140094   0.397   4.715   0.217  0.1810 -0.4429 -0.1926
 9544SOL    HW240095   0.507   4.705   0.311 -0.8493  0.4150  0.5754
 9545SOL     OW40096   4.390   3.695   4.669 -0.1776  0.2204 -0.2285
 9545SOL    HW140097   4.385   3.744   4.587  0.3552  0.1328 -0.3111
 9545SOL    HW240098   4.480   3.692   4.702 -0.0472 -0.7028 -0.6724
 9546SOL     OW40099   1.235   2.958   0.921 -0.1511  0.2575  1.2308
 9546SOL    HW140100   1.257   3.026   0.858 -0.7804  1.5161  2.3706
 9546SOL    HW240101   1.252   2.874   0.878  0.3032  1.0165 -0.0676
 9547SOL     OW40102   2.168   1.082  15.978 -0.1500  0.0854  0.2618
 9547SOL    HW140103   2.197   1.134  16.053  2.8570  0.1375 -0.9271
 9547SOL    HW240104   2.218   1.113  15.902 -0.7908 -0.1529 -0.2578
 9548SOL     OW40105   0.767   2.251  12.080 -0.4969 -0.2913  0.0586
 9548SOL    HW140106   0.797   2.226  11.993 -0.2698  1.5740 -0.4087
 9548SOL    HW240107   0.698   2.186  12.085  1.3634 -2.1197  1.6093
 9549SOL     OW40108   1.259   3.481   6.733  0.2808 -0.4830 -0.2744
 9549SOL    HW140109   1.194   3.415   6.711  1.0647 -0.1488 -3.5063
 9549SOL    HW240110   1.297   3.466   6.820  0.6209 -1.2367 -0.5596
 9550SOL     OW40111   2.554   1.303   0.226 -0.4358  0.9332 -0.3688
 9550SOL    HW140112   2.562   1.345   0.140 -0.7614 -0.0505 -0.8786
 9550SOL    HW240113   2.531   1.214   0.200  0.1532  0.2597  1.3699
 9551SOL     OW40114   2.507   0.991   8.228 -0.1744  0.3546  0.2232
 9551SOL    HW140115   2.467   0.983   8.314  1.6769  1.0542  1.1276
 9551SOL    HW240116   2.467   1.073   8.199  0.0875  0.9174  1.4893
 9552SOL     OW40117   1.276   2.252   2.125  0.6720  0.0361 -0.2067
 9552SOL    HW140118   1.189   2.248   2.164 -0.2954  1.2219 -2.2339
 9552SOL    HW240119   1.251   2.201   2.048  2.7689 -1.1048 -0.1215
 9553SOL     OW40120   2.795   2.392   8.376  0.5476  0.4010  0.2661
 9553SOL    HW140121   2.772   2.425   8.463  0.6071  0.0238  0.4228
 9553SOL    HW240122   2.872   2.338   8.387  1.1348  1.3142  0.6213
 9554SOL     OW40123   2.926   0.382  17.504 -0.4874 -0.7235 -0.5844
 9554SOL    HW140124   2.925   0.341  17.591 -0.0062  0.6979  0.0969
 9554SOL    HW240125   2.927   0.475  17.528 -3.0254 -1.1170  1.0563
 9555SOL     OW40126   0.067   3.234  12.326  0.3069 -0.6107 -0.2395
 9555SOL    HW140127   0.085   3.283  12.406 -2.7302  1.6369 -0.9352
 9555SOL    HW240128   0.149   3.187  12.312  0.3324  0.0948 -2.4432
 9556SOL     OW40129   3.044   0.799   6.335 -0.6202 -0.8699 -0.1889
 9556SOL    HW140130   3.115   0.863   6.338 -0.6131 -0.8318 -1.0513
 9556SOL    HW240131   3.085   0.718   6.305 -0.8257 -1.2146  0.4561
 9557SOL     OW40132   0.613   2.489   8.589 -0.1721 -0.2482  1.0805
 9557SOL    HW140133   0.525   2.451   8.588 -0.4520  0.4256 -0.8739
 9557SOL    HW240134   0.659   2.411   8.621  2.1347  0.0680 -1.4780
 9558SOL     OW40135   2.222   2.519  12.463 -0.0373 -0.0097  0.1561
 9558SOL    HW140136   2.242   2.477  12.547  1.8244 -0.1420 -0.3407
 9558SOL    HW240137   2.227   2.438  12.412 -1.2610  0.2026 -0.2985
 9559SOL     OW40138   0.652   2.338   6.556  0.5028  0.6328  0.7080
 9559SOL    HW140139   0.744   2.333   6.582  0.8297  1.6720 -0.2422
 9559SOL    HW240140   0.637   2.432   6.565 -3.6026  0.1773 -1.4702
 9560SOL     OW40141   0.528   2.005   4.770 -0.0861  0.6217  0.7174
 9560SOL    HW140142   0.482   1.990   4.852  0.2364  0.5151  0.8794
 9560SOL    HW240143   0.486   1.936   4.719 -0.1966  1.8601 -0.8779
 9561SOL     OW40144   3.786   0.344   7.961 -0.6083  0.5998  0.1133
 9561SOL    HW140145   3.814   0.318   8.049  0.6689 -2.4270 -1.1923
 9561SOL    HW240146   3.862   0.320   7.909 -1.0971 -1.0596  0.1610
 9562SOL     OW40147   3.205   3.905  10.742 -0.0657  0.1879 -0.3347
 9562SOL    HW140148   3.235   3.984  10.786  1.1603 -0.7363  0.4746
 9562SOL    HW240149   3.137   3.868  10.799 -0.4080  0.2079 -0.7329
 9563SOL     OW40150   3.531   2.927  10.719 -0.2264  0.1006 -0.5345
 9563SOL    HW140151   3.568   2.974  10.794 -1.4643  0.3380 -0.0824
 9563SOL    HW240152   3.599   2.862  10.699  2.2899  3.1662 -1.9704
 9564SOL     OW40153   2.710   0.119   1.515  0.2094  0.1543  0.5130
 9564SOL    HW140154   2.786   0.123   1.457 -1.5609  1.2596 -1.6991
 9564SOL    HW240155   2.725   0.034   1.558 -0.8496  0.6063  1.7855
 9565SOL     OW40156   4.130   3.835   1.951 -0.0585 -0.1769  0.1400
 9565SOL    HW140157   4.185   3.869   2.022 -3.8532  1.0900  2.4728
 9565SOL    HW240158   4.057   3.814   2.009 -0.3660 -1.1268 -0.6044
 9566SOL     OW40159   2.938   0.353  13.383 -0.1840  0.8492  0.3559
 9566SOL    HW140160   3.002   0.393  13.442  0.4038  1.0171 -0.3911
 9566SOL    HW240161   2.859   0.391  13.420  0.3688 -0.4419  2.8496
 9567SOL     OW40162   2.142   4.353   4.438 -0.4429 -0.1591  0.3990
 9567SOL    HW140163   2.206   4.285   4.420 -1.6815 -1.3831  0.5811
 9567SOL    HW240164   2.183   4.410   4.503 -2.9582  1.0650  0.9509
 9568SOL     OW40165   4.578   0.318   5.866  0.1192  0.3898 -0.1325
 9568SOL    HW140166   4.486   0.342   5.874  0.5422  1.9068  0.1945
 9568SOL    HW240167   4.586   0.339   5.773  0.0321 -2.1350 -0.7030
   4.72384   4.72384  17.69704
